Generated by trjconv : CNT in water t= 136.00000
33518
    1C        C    1   2.842   2.764   4.745
    1C        C    2   2.895   2.719   4.868
    1C        C    3   2.836   2.767   4.985
    1C        C    4   2.844   2.771   4.259
    1C        C    5   2.893   2.720   4.382
    1C        C    6   2.835   2.762   4.503
    1C        C    7   3.008   2.634   4.625
    1C        C    8   2.889   2.711   4.623
    1C        C    9   3.072   2.599   4.746
    1C        C   10   3.007   2.632   4.866
    1C        C   11   3.176   2.490   4.970
    1C        C   12   3.052   2.555   4.975
    1C        C   13   2.845   2.766   3.773
    1C        C   14   2.898   2.718   3.895
    1C        C   15   2.847   2.770   4.016
    1C        C   16   3.018   2.647   4.135
    1C        C   17   2.898   2.722   4.138
    1C        C   18   3.075   2.612   4.260
    1C        C   19   3.013   2.646   4.382
    1C        C   20   3.206   2.557   4.500
    1C        C   21   3.073   2.606   4.503
    1C        C   22   3.273   2.528   4.620
    1C        C   23   3.203   2.544   4.742
    1C        C   24   3.410   2.483   4.863
    1C        C   25   3.268   2.501   4.861
    1C        C   26   3.485   2.477   4.981
    1C        C   27   2.850   2.767   3.280
    1C        C   28   2.898   2.721   3.404
    1C        C   29   2.848   2.770   3.527
    1C        C   30   3.014   2.640   3.646
    1C        C   31   2.897   2.719   3.650
    1C        C   32   3.076   2.604   3.767
    1C        C   33   3.012   2.635   3.890
    1C        C   34   3.204   2.549   4.016
    1C        C   35   3.075   2.606   4.013
    1C        C   36   3.275   2.533   4.137
    1C        C   37   3.206   2.559   4.257
    1C        C   38   3.413   2.507   4.379
    1C        C   39   3.275   2.535   4.379
    1C        C   40   3.486   2.498   4.500
    1C        C   41   3.412   2.501   4.621
    1C        C   42   3.626   2.487   4.743
    1C        C   43   3.484   2.489   4.742
    1C        C   44   3.702   2.491   4.862
    1C        C   45   3.624   2.483   4.978
    1C        C   46   2.836   2.751   2.791
    1C        C   47   2.890   2.708   2.915
    1C        C   48   2.839   2.758   3.037
    1C        C   49   3.012   2.631   3.161
    1C        C   50   2.898   2.714   3.158
    1C        C   51   3.075   2.601   3.284
    1C        C   52   3.014   2.640   3.405
    1C        C   53   3.208   2.548   3.526
    1C        C   54   3.079   2.605   3.525
    1C        C   55   3.273   2.524   3.649
    1C        C   56   3.206   2.549   3.770
    1C        C   57   3.412   2.508   3.893
    1C        C   58   3.273   2.532   3.894
    1C        C   59   3.485   2.502   4.014
    1C        C   60   3.413   2.503   4.136
    1C        C   61   3.625   2.496   4.255
    1C        C   62   3.484   2.493   4.258
    1C        C   63   3.697   2.507   4.377
    1C        C   64   3.627   2.500   4.499
    1C        C   65   3.834   2.536   4.621
    1C        C   66   3.697   2.501   4.622
    1C        C   67   3.904   2.561   4.742
    1C        C   68   3.839   2.525   4.862
    1C        C   69   4.051   2.584   4.979
    1C        C   70   3.923   2.530   4.974
    1C        C   71   2.825   2.731   2.306
    1C        C   72   2.878   2.684   2.428
    1C        C   73   2.830   2.739   2.548
    1C        C   74   3.005   2.620   2.671
    1C        C   75   2.887   2.699   2.670
    1C        C   76   3.069   2.593   2.794
    1C        C   77   3.007   2.629   2.916
    1C        C   78   3.202   2.545   3.037
    1C        C   79   3.070   2.594   3.037
    1C        C   80   3.274   2.532   3.158
    1C        C   81   3.207   2.550   3.281
    1C        C   82   3.412   2.497   3.402
    1C        C   83   3.274   2.525   3.403
    1C        C   84   3.482   2.496   3.524
    1C        C   85   3.413   2.508   3.647
    1C        C   86   3.623   2.500   3.766
    1C        C   87   3.482   2.504   3.771
    1C        C   88   3.694   2.508   3.889
    1C        C   89   3.626   2.501   4.012
    1C        C   90   3.834   2.543   4.135
    1C        C   91   3.697   2.506   4.134
    1C        C   92   3.902   2.569   4.256
    1C        C   93   3.833   2.545   4.377
    1C        C   94   4.028   2.627   4.498
    1C        C   95   3.899   2.567   4.500
    1C        C   96   4.092   2.662   4.619
    1C        C   97   4.030   2.625   4.741
    1C        C   98   4.191   2.762   4.861
    1C        C   99   4.095   2.655   4.863
    1C        C  100   4.215   2.837   4.977
    1C        C  101   2.824   2.727   2.067
    1C        C  102   2.988   2.586   2.187
    1C        C  103   2.874   2.673   2.186
    1C        C  104   3.061   2.568   2.308
    1C        C  105   2.999   2.610   2.428
    1C        C  106   3.199   2.536   2.549
    1C        C  107   3.067   2.586   2.549
    1C        C  108   3.269   2.519   2.671
    1C        C  109   3.201   2.542   2.793
    1C        C  110   3.409   2.499   2.913
    1C        C  111   3.269   2.522   2.915
    1C        C  112   3.481   2.497   3.035
    1C        C  113   3.413   2.507   3.158
    1C        C  114   3.626   2.497   3.279
    1C        C  115   3.484   2.498   3.280
    1C        C  116   3.696   2.503   3.401
    1C        C  117   3.623   2.494   3.522
    1C        C  118   3.830   2.540   3.644
    1C        C  119   3.694   2.501   3.644
    1C        C  120   3.895   2.569   3.766
    1C        C  121   3.830   2.547   3.889
    1C        C  122   4.024   2.632   4.010
    1C        C  123   3.896   2.571   4.012
    1C        C  124   4.086   2.669   4.131
    1C        C  125   4.026   2.637   4.255
    1C        C  126   4.196   2.761   4.374
    1C        C  127   4.085   2.673   4.378
    1C        C  128   4.241   2.814   4.497
    1C        C  129   4.194   2.759   4.619
    1C        C  130   4.322   2.933   4.737
    1C        C  131   4.243   2.814   4.740
    1C        C  132   4.351   3.002   4.857
    1C        C  133   4.282   2.959   4.971
    1C        C  134   3.173   2.471   2.078
    1C        C  135   3.037   2.504   2.080
    1C        C  136   3.257   2.474   2.190
    1C        C  137   3.191   2.511   2.309
    1C        C  138   3.404   2.475   2.425
    1C        C  139   3.266   2.506   2.429
    1C        C  140   3.477   2.477   2.546
    1C        C  141   3.408   2.497   2.668
    1C        C  142   3.620   2.499   2.790
    1C        C  143   3.478   2.492   2.790
    1C        C  144   3.691   2.504   2.912
    1C        C  145   3.622   2.494   3.035
    1C        C  146   3.831   2.537   3.154
    1C        C  147   3.695   2.500   3.156
    1C        C  148   3.898   2.562   3.276
    1C        C  149   3.834   2.535   3.399
    1C        C  150   4.025   2.621   3.521
    1C        C  151   3.898   2.559   3.522
    1C        C  152   4.082   2.664   3.643
    1C        C  153   4.021   2.634   3.767
    1C        C  154   4.194   2.759   3.884
    1C        C  155   4.083   2.672   3.888
    1C        C  156   4.242   2.810   4.007
    1C        C  157   4.192   2.762   4.130
    1C        C  158   4.336   2.918   4.251
    1C        C  159   4.248   2.808   4.252
    1C        C  160   4.368   2.984   4.372
    1C        C  161   4.321   2.930   4.494
    1C        C  162   4.432   3.114   4.613
    1C        C  163   4.362   2.991   4.615
    1C        C  164   4.462   3.182   4.733
    1C        C  165   4.425   3.122   4.855
    1C        C  166   4.514   3.317   4.969
    1C        C  167   4.480   3.182   4.969
    1C        C  168   3.473   2.438   2.070
    1C        C  169   3.397   2.457   2.186
    1C        C  170   3.616   2.464   2.302
    1C        C  171   3.474   2.455   2.305
    1C        C  172   3.689   2.486   2.421
    1C        C  173   3.618   2.482   2.543
    1C        C  174   3.822   2.537   2.664
    1C        C  175   3.686   2.499   2.665
    1C        C  176   3.892   2.557   2.785
    1C        C  177   3.829   2.532   2.909
    1C        C  178   4.023   2.621   3.030
    1C        C  179   3.897   2.556   3.030
    1C        C  180   4.083   2.661   3.151
    1C        C  181   4.025   2.625   3.275
    1C        C  182   4.195   2.747   3.395
    1C        C  183   4.085   2.658   3.398
    1C        C  184   4.244   2.799   3.516
    1C        C  185   4.192   2.753   3.639
    1C        C  186   4.330   2.916   3.760
    1C        C  187   4.245   2.803   3.760
    1C        C  188   4.369   2.976   3.882
    1C        C  189   4.331   2.920   4.006
    1C        C  190   4.435   3.105   4.124
    1C        C  191   4.371   2.979   4.128
    1C        C  192   4.458   3.173   4.246
    1C        C  193   4.430   3.111   4.370
    1C        C  194   4.502   3.313   4.490
    1C        C  195   4.458   3.179   4.490
    1C        C  196   4.521   3.385   4.610
    1C        C  197   4.510   3.316   4.733
    1C        C  198   4.553   3.533   4.850
    1C        C  199   4.533   3.391   4.852
    1C        C  200   4.578   3.616   4.963
    1C        C  201   3.612   2.416   2.068
    1C        C  202   3.826   2.502   2.179
    1C        C  203   3.690   2.458   2.181
    1C        C  204   3.896   2.535   2.299
    1C        C  205   3.827   2.517   2.422
    1C        C  206   4.021   2.608   2.542
    1C        C  207   3.892   2.551   2.542
    1C        C  208   4.082   2.650   2.663
    1C        C  209   4.020   2.618   2.785
    1C        C  210   4.191   2.746   2.905
    1C        C  211   4.082   2.656   2.906
    1C        C  212   4.244   2.794   3.027
    1C        C  213   4.195   2.746   3.150
    1C        C  214   4.332   2.908   3.269
    1C        C  215   4.245   2.797   3.272
    1C        C  216   4.364   2.971   3.391
    1C        C  217   4.328   2.913   3.515
    1C        C  218   4.428   3.100   3.638
    1C        C  219   4.369   2.972   3.637
    1C        C  220   4.455   3.169   3.758
    1C        C  221   4.428   3.104   3.880
    1C        C  222   4.496   3.305   4.001
    1C        C  223   4.464   3.168   4.001
    1C        C  224   4.508   3.377   4.123
    1C        C  225   4.503   3.307   4.245
    1C        C  226   4.524   3.520   4.365
    1C        C  227   4.517   3.379   4.366
    1C        C  228   4.518   3.595   4.485
    1C        C  229   4.528   3.526   4.608
    1C        C  230   4.504   3.740   4.725
    1C        C  231   4.538   3.602   4.726
    1C        C  232   4.495   3.817   4.843
    1C        C  233   4.548   3.753   4.956
    1C        C  234   4.014   2.603   2.062
    1C        C  235   3.891   2.539   2.061
    1C        C  236   4.079   2.648   2.178
    1C        C  237   4.016   2.610   2.298
    1C        C  238   4.190   2.736   2.419
    1C        C  239   4.077   2.649   2.419
    1C        C  240   4.244   2.788   2.539
    1C        C  241   4.191   2.740   2.661
    1C        C  242   4.333   2.900   2.784
    1C        C  243   4.246   2.788   2.782
    1C        C  244   4.370   2.964   2.905
    1C        C  245   4.333   2.904   3.027
    1C        C  246   4.438   3.092   3.148
    1C        C  247   4.376   2.965   3.147
    1C        C  248   4.454   3.161   3.270
    1C        C  249   4.421   3.100   3.394
    1C        C  250   4.495   3.301   3.513
    1C        C  251   4.447   3.168   3.515
    1C        C  252   4.511   3.373   3.633
    1C        C  253   4.496   3.305   3.755
    1C        C  254   4.518   3.515   3.875
    1C        C  255   4.508   3.374   3.878
    1C        C  256   4.517   3.587   3.997
    1C        C  257   4.514   3.518   4.120
    1C        C  258   4.496   3.729   4.237
    1C        C  259   4.517   3.589   4.243
    1C        C  260   4.471   3.798   4.358
    1C        C  261   4.488   3.733   4.483
    1C        C  262   4.428   3.939   4.602
    1C        C  263   4.476   3.806   4.603
    1C        C  264   4.402   4.010   4.721
    1C        C  265   4.430   3.942   4.842
    1C        C  266   4.316   4.129   4.957
    1C        C  267   4.394   4.013   4.957
    1C        C  268   4.257   2.775   2.063
    1C        C  269   4.190   2.735   2.179
    1C        C  270   4.342   2.888   2.298
    1C        C  271   4.250   2.779   2.299
    1C        C  272   4.375   2.954   2.418
    1C        C  273   4.334   2.897   2.540
    1C        C  274   4.436   3.084   2.661
    1C        C  275   4.370   2.959   2.662
    1C        C  276   4.464   3.155   2.780
    1C        C  277   4.437   3.088   2.902
    1C        C  278   4.498   3.291   3.024
    1C        C  279   4.464   3.154   3.024
    1C        C  280   4.511   3.364   3.144
    1C        C  281   4.493   3.297   3.267
    1C        C  282   4.515   3.509   3.389
    1C        C  283   4.505   3.368   3.389
    1C        C  284   4.524   3.584   3.509
    1C        C  285   4.524   3.514   3.632
    1C        C  286   4.496   3.726   3.754
    1C        C  287   4.516   3.586   3.753
    1C        C  288   4.483   3.797   3.876
    1C        C  289   4.501   3.727   3.997
    1C        C  290   4.432   3.933   4.115
    1C        C  291   4.484   3.801   4.117
    1C        C  292   4.402   3.998   4.237
    1C        C  293   4.430   3.933   4.359
    1C        C  294   4.325   4.122   4.477
    1C        C  295   4.398   4.001   4.479
    1C        C  296   4.280   4.186   4.595
    1C        C  297   4.327   4.131   4.717
    1C        C  298   4.199   4.309   4.836
    1C        C  299   4.282   4.193   4.837
    1C        C  300   4.164   4.396   4.945
    1C        C  301   4.346   2.882   2.060
    1C        C  302   4.464   3.066   2.177
    1C        C  303   4.394   2.942   2.177
    1C        C  304   4.478   3.141   2.298
    1C        C  305   4.447   3.076   2.419
    1C        C  306   4.503   3.284   2.536
    1C        C  307   4.468   3.147   2.539
    1C        C  308   4.513   3.359   2.656
    1C        C  309   4.500   3.291   2.779
    1C        C  310   4.524   3.501   2.898
    1C        C  311   4.516   3.360   2.901
    1C        C  312   4.517   3.573   3.019
    1C        C  313   4.515   3.505   3.143
    1C        C  314   4.492   3.716   3.262
    1C        C  315   4.513   3.576   3.265
    1C        C  316   4.477   3.787   3.383
    1C        C  317   4.496   3.722   3.507
    1C        C  318   4.430   3.923   3.624
    1C        C  319   4.477   3.790   3.629
    1C        C  320   4.398   3.985   3.747
    1C        C  321   4.430   3.928   3.872
    1C        C  322   4.320   4.111   3.987
    1C        C  323   4.399   3.995   3.992
    1C        C  324   4.274   4.166   4.110
    1C        C  325   4.322   4.115   4.232
    1C        C  326   4.184   4.276   4.352
    1C        C  327   4.284   4.177   4.353
    1C        C  328   4.135   4.335   4.471
    1C        C  329   4.186   4.291   4.595
    1C        C  330   4.020   4.428   4.711
    1C        C  331   4.137   4.348   4.714
    1C        C  332   3.964   4.481   4.829
    1C        C  333   4.052   4.480   4.939
    1C        C  334   4.549   3.263   2.063
    1C        C  335   4.532   3.124   2.066
    1C        C  336   4.531   3.348   2.173
    1C        C  337   4.504   3.281   2.294
    1C        C  338   4.519   3.495   2.410
    1C        C  339   4.514   3.354   2.414
    1C        C  340   4.519   3.571   2.530
    1C        C  341   4.517   3.500   2.652
    1C        C  342   4.499   3.710   2.770
    1C        C  343   4.514   3.569   2.775
    1C        C  344   4.483   3.781   2.891
    1C        C  345   4.492   3.712   3.013
    1C        C  346   4.422   3.910   3.136
    1C        C  347   4.474   3.779   3.137
    1C        C  348   4.391   3.978   3.256
    1C        C  349   4.424   3.918   3.379
    1C        C  350   4.323   4.104   3.500
    1C        C  351   4.400   3.986   3.501
    1C        C  352   4.280   4.162   3.622
    1C        C  353   4.325   4.106   3.743
    1C        C  354   4.179   4.265   3.863
    1C        C  355   4.279   4.165   3.863
    1C        C  356   4.120   4.309   3.983
    1C        C  357   4.173   4.264   4.106
    1C        C  358   4.009   4.394   4.229
    1C        C  359   4.126   4.316   4.229
    1C        C  360   3.951   4.441   4.350
    1C        C  361   4.017   4.412   4.471
    1C        C  362   3.827   4.519   4.587
    1C        C  363   3.954   4.455   4.589
    1C        C  364   3.762   4.542   4.709
    1C        C  365   3.836   4.540   4.830
    1C        C  366   3.627   4.591   4.944
    1C        C  367   3.765   4.571   4.946
    1C        C  368   4.505   3.562   2.050
    1C        C  369   4.523   3.489   2.169
    1C        C  370   4.499   3.705   2.286
    1C        C  371   4.520   3.565   2.288
    1C        C  372   4.484   3.779   2.405
    1C        C  373   4.499   3.711   2.528
    1C        C  374   4.420   3.908   2.647
    1C        C  375   4.480   3.780   2.649
    1C        C  376   4.392   3.973   2.770
    1C        C  377   4.431   3.913   2.892
    1C        C  378   4.321   4.095   3.008
    1C        C  379   4.396   3.975   3.013
    1C        C  380   4.276   4.153   3.129
    1C        C  381   4.315   4.097   3.253
    1C        C  382   4.171   4.249   3.374
    1C        C  383   4.275   4.153   3.377
    1C        C  384   4.118   4.296   3.496
    1C        C  385   4.176   4.259   3.619
    1C        C  386   4.006   4.386   3.740
    1C        C  387   4.125   4.310   3.740
    1C        C  388   3.943   4.421   3.861
    1C        C  389   4.005   4.390   3.985
    1C        C  390   3.812   4.476   4.106
    1C        C  391   3.943   4.424   4.108
    1C        C  392   3.748   4.509   4.227
    1C        C  393   3.822   4.498   4.347
    1C        C  394   3.612   4.544   4.470
    1C        C  395   3.752   4.526   4.467
    1C        C  396   3.544   4.558   4.593
    1C        C  397   3.621   4.555   4.711
    1C        C  398   3.409   4.545   4.835
    1C        C  399   3.547   4.574   4.830
    1C        C  400   3.339   4.514   4.953
    1C        C  401   4.494   3.701   2.049
    1C        C  402   4.457   3.916   2.163
    1C        C  403   4.490   3.779   2.166
    1C        C  404   4.414   3.981   2.281
    1C        C  405   4.438   3.913   2.402
    1C        C  406   4.326   4.093   2.522
    1C        C  407   4.402   3.975   2.524
    1C        C  408   4.277   4.150   2.642
    1C        C  409   4.314   4.090   2.765
    1C        C  410   4.170   4.245   2.885
    1C        C  411   4.272   4.148   2.887
    1C        C  412   4.117   4.292   3.007
    1C        C  413   4.175   4.252   3.130
    1C        C  414   3.995   4.364   3.254
    1C        C  415   4.119   4.296   3.251
    1C        C  416   3.933   4.399   3.376
    1C        C  417   3.999   4.373   3.498
    1C        C  418   3.808   4.469   3.617
    1C        C  419   3.938   4.413   3.619
    1C        C  420   3.742   4.492   3.740
    1C        C  421   3.811   4.472   3.862
    1C        C  422   3.606   4.525   3.984
    1C        C  423   3.744   4.496   3.984
    1C        C  424   3.539   4.540   4.107
    1C        C  425   3.610   4.541   4.229
    1C        C  426   3.397   4.547   4.353
    1C        C  427   3.538   4.554   4.350
    1C        C  428   3.329   4.546   4.476
    1C        C  429   3.403   4.555   4.596
    1C        C  430   3.192   4.516   4.721
    1C        C  431   3.332   4.543   4.717
    1C        C  432   3.124   4.491   4.843
    1C        C  433   3.203   4.489   4.959
    1C        C  434   4.377   4.116   2.043
    1C        C  435   4.449   3.996   2.049
    1C        C  436   4.304   4.163   2.157
    1C        C  437   4.336   4.100   2.280
    1C        C  438   4.177   4.246   2.398
    1C        C  439   4.282   4.151   2.401
    1C        C  440   4.123   4.292   2.520
    1C        C  441   4.176   4.248   2.643
    1C        C  442   4.002   4.376   2.763
    1C        C  443   4.116   4.292   2.763
    1C        C  444   3.938   4.402   2.886
    1C        C  445   3.998   4.367   3.010
    1C        C  446   3.804   4.456   3.127
    1C        C  447   3.933   4.399   3.131
    1C        C  448   3.741   4.481   3.251
    1C        C  449   3.806   4.460   3.375
    1C        C  450   3.603   4.528   3.491
    1C        C  451   3.739   4.492   3.495
    1C        C  452   3.538   4.538   3.616
    1C        C  453   3.606   4.527   3.740
    1C        C  454   3.394   4.543   3.864
    1C        C  455   3.536   4.538   3.862
    1C        C  456   3.327   4.536   3.988
    1C        C  457   3.398   4.540   4.110
    1C        C  458   3.187   4.504   4.234
    1C        C  459   3.325   4.535   4.231
    1C        C  460   3.123   4.482   4.358
    1C        C  461   3.192   4.511   4.478
    1C        C  462   2.997   4.427   4.600
    1C        C  463   3.124   4.490   4.600
    1C        C  464   2.929   4.400   4.720
    1C        C  465   2.989   4.441   4.842
    1C        C  466   2.802   4.335   4.958
    1C        C  467   2.906   4.430   4.957
    1C        C  468   4.122   4.284   2.038
    1C        C  469   4.186   4.243   2.157
    1C        C  470   3.999   4.361   2.277
    1C        C  471   4.118   4.283   2.275
    1C        C  472   3.936   4.396   2.399
    1C        C  473   4.002   4.365   2.520
    1C        C  474   3.811   4.464   2.642
    1C        C  475   3.940   4.407   2.640
    1C        C  476   3.744   4.488   2.764
    1C        C  477   3.807   4.456   2.886
    1C        C  478   3.598   4.509   3.005
    1C        C  479   3.735   4.477   3.005
    1C        C  480   3.531   4.521   3.129
    1C        C  481   3.603   4.512   3.251
    1C        C  482   3.390   4.536   3.375
    1C        C  483   3.531   4.536   3.370
    1C        C  484   3.323   4.528   3.499
    1C        C  485   3.396   4.541   3.620
    1C        C  486   3.188   4.498   3.744
    1C        C  487   3.325   4.534   3.741
    1C        C  488   3.123   4.480   3.868
    1C        C  489   3.192   4.496   3.990
    1C        C  490   2.998   4.414   4.113
    1C        C  491   3.120   4.484   4.111
    1C        C  492   2.934   4.381   4.235
    1C        C  493   2.993   4.427   4.355
    1C        C  494   2.826   4.301   4.480
    1C        C  495   2.935   4.390   4.478
    1C        C  496   2.768   4.256   4.601
    1C        C  497   2.813   4.317   4.720
    1C        C  498   2.661   4.169   4.842
    1C        C  499   2.755   4.274   4.841
    1C        C  500   2.593   4.120   4.954
    1C        C  501   4.006   4.360   2.039
    1C        C  502   3.811   4.458   2.152
    1C        C  503   3.939   4.399   2.155
    1C        C  504   3.744   4.480   2.274
    1C        C  505   3.807   4.453   2.398
    1C        C  506   3.603   4.509   2.519
    1C        C  507   3.740   4.476   2.520
    1C        C  508   3.533   4.516   2.641
    1C        C  509   3.605   4.515   2.763
    1C        C  510   3.389   4.524   2.883
    1C        C  511   3.530   4.523   2.882
    1C        C  512   3.319   4.522   3.006
    1C        C  513   3.390   4.533   3.128
    1C        C  514   3.184   4.497   3.253
    1C        C  515   3.322   4.527   3.251
    1C        C  516   3.119   4.474   3.376
    1C        C  517   3.186   4.495   3.499
    1C        C  518   2.994   4.412   3.621
    1C        C  519   3.120   4.477   3.622
    1C        C  520   2.938   4.373   3.744
    1C        C  521   2.996   4.416   3.865
    1C        C  522   2.834   4.284   3.993
    1C        C  523   2.941   4.376   3.989
    1C        C  524   2.784   4.233   4.115
    1C        C  525   2.826   4.291   4.236
    1C        C  526   2.696   4.127   4.360
    1C        C  527   2.778   4.242   4.360
    1C        C  528   2.656   4.072   4.484
    1C        C  529   2.688   4.140   4.604
    1C        C  530   2.584   3.960   4.728
    1C        C  531   2.636   4.093   4.726
    1C        C  532   2.540   3.900   4.848
    1C        C  533   2.527   3.996   4.953
    1C        C  534   3.615   4.554   2.039
    1C        C  535   3.750   4.516   2.040
    1C        C  536   3.534   4.532   2.155
    1C        C  537   3.606   4.516   2.276
    1C        C  538   3.391   4.514   2.400
    1C        C  539   3.533   4.520   2.397
    1C        C  540   3.318   4.513   2.520
    1C        C  541   3.392   4.522   2.641
    1C        C  542   3.180   4.491   2.764
    1C        C  543   3.318   4.521   2.761
    1C        C  544   3.114   4.466   2.886
    1C        C  545   3.183   4.485   3.008
    1C        C  546   2.993   4.401   3.133
    1C        C  547   3.118   4.467   3.132
    1C        C  548   2.933   4.367   3.257
    1C        C  549   2.993   4.410   3.378
    1C        C  550   2.827   4.279   3.503
    1C        C  551   2.932   4.374   3.500
    1C        C  552   2.780   4.229   3.627
    1C        C  553   2.832   4.279   3.748
    1C        C  554   2.703   4.116   3.870
    1C        C  555   2.786   4.230   3.872
    1C        C  556   2.658   4.062   3.993
    1C        C  557   2.698   4.120   4.115
    1C        C  558   2.595   3.940   4.245
    1C        C  559   2.656   4.067   4.239
    1C        C  560   2.568   3.876   4.368
    1C        C  561   2.590   3.948   4.488
    1C        C  562   2.526   3.748   4.616
    1C        C  563   2.561   3.885   4.611
    1C        C  564   2.509   3.679   4.738
    1C        C  565   2.511   3.760   4.855
    1C        C  566   2.532   3.545   4.974
    1C        C  567   2.525   3.684   4.972
    1C        C  568   3.324   4.481   2.038
    1C        C  569   3.393   4.513   2.156
    1C        C  570   3.183   4.478   2.280
    1C        C  571   3.320   4.515   2.278
    1C        C  572   3.111   4.464   2.401
    1C        C  573   3.180   4.486   2.522
    1C        C  574   2.985   4.399   2.644
    1C        C  575   3.111   4.464   2.644
    1C        C  576   2.927   4.361   2.767
    1C        C  577   2.987   4.404   2.888
    1C        C  578   2.824   4.272   3.016
    1C        C  579   2.935   4.359   3.011
    1C        C  580   2.772   4.223   3.138
    1C        C  581   2.824   4.277   3.257
    1C        C  582   2.696   4.112   3.382
    1C        C  583   2.780   4.225   3.381
    1C        C  584   2.661   4.055   3.507
    1C        C  585   2.695   4.116   3.629
    1C        C  586   2.596   3.928   3.752
    1C        C  587   2.657   4.056   3.751
    1C        C  588   2.576   3.866   3.877
    1C        C  589   2.597   3.935   3.999
    1C        C  590   2.535   3.736   4.126
    1C        C  591   2.571   3.873   4.123
    1C        C  592   2.525   3.669   4.250
    1C        C  593   2.531   3.739   4.373
    1C        C  594   2.507   3.532   4.496
    1C        C  595   2.516   3.673   4.496
    1C        C  596   2.517   3.462   4.619
    1C        C  597   2.510   3.537   4.738
    1C        C  598   2.533   3.325   4.861
    1C        C  599   2.520   3.465   4.860
    1C        C  600   2.531   3.243   4.975
    1C        C  601   3.194   4.437   2.042
    1C        C  602   2.981   4.396   2.158
    1C        C  603   3.118   4.438   2.160
    1C        C  604   2.920   4.363   2.282
    1C        C  605   2.985   4.400   2.401
    1C        C  606   2.815   4.273   2.528
    1C        C  607   2.923   4.363   2.523
    1C        C  608   2.767   4.219   2.650
    1C        C  609   2.821   4.268   2.771
    1C        C  610   2.687   4.108   2.894
    1C        C  611   2.773   4.220   2.895
    1C        C  612   2.646   4.053   3.017
    1C        C  613   2.686   4.111   3.140
    1C        C  614   2.594   3.922   3.260
    1C        C  615   2.652   4.050   3.263
    1C        C  616   2.569   3.863   3.386
    1C        C  617   2.594   3.930   3.508
    1C        C  618   2.527   3.729   3.634
    1C        C  619   2.568   3.864   3.630
    1C        C  620   2.519   3.661   3.758
    1C        C  621   2.540   3.730   3.880
    1C        C  622   2.514   3.524   4.010
    1C        C  623   2.525   3.665   4.005
    1C        C  624   2.514   3.453   4.132
    1C        C  625   2.516   3.528   4.252
    1C        C  626   2.546   3.322   4.377
    1C        C  627   2.514   3.459   4.375
    1C        C  628   2.559   3.251   4.498
    1C        C  629   2.541   3.323   4.618
    1C        C  630   2.599   3.119   4.742
    1C        C  631   2.552   3.253   4.741
    1C        C  632   2.613   3.045   4.862
    1C        C  633   2.559   3.106   4.980
    1C        C  634   2.776   4.306   2.058
    1C        C  635   2.887   4.391   2.050
    1C        C  636   2.748   4.227   2.170
    1C        C  637   2.807   4.277   2.288
    1C        C  638   2.672   4.111   2.408
    1C        C  639   2.760   4.221   2.409
    1C        C  640   2.635   4.050   2.530
    1C        C  641   2.679   4.108   2.651
    1C        C  642   2.581   3.921   2.774
    1C        C  643   2.648   4.046   2.773
    1C        C  644   2.562   3.854   2.896
    1C        C  645   2.587   3.924   3.016
    1C        C  646   2.525   3.721   3.144
    1C        C  647   2.561   3.857   3.138
    1C        C  648   2.510   3.656   3.268
    1C        C  649   2.527   3.728   3.389
    1C        C  650   2.507   3.519   3.516
    1C        C  651   2.516   3.659   3.512
    1C        C  652   2.511   3.450   3.640
    1C        C  653   2.513   3.520   3.763
    1C        C  654   2.535   3.314   3.887
    1C        C  655   2.516   3.453   3.887
    1C        C  656   2.548   3.247   4.011
    1C        C  657   2.532   3.313   4.135
    1C        C  658   2.609   3.116   4.256
    1C        C  659   2.559   3.248   4.258
    1C        C  660   2.635   3.052   4.379
    1C        C  661   2.605   3.117   4.501
    1C        C  662   2.705   2.931   4.625
    1C        C  663   2.627   3.049   4.623
    1C        C  664   2.748   2.871   4.745
    1C        C  665   2.693   2.926   4.864
    1C        C  666   2.744   2.872   4.982
    1C        C  667   2.681   4.023   2.051
    1C        C  668   2.688   4.099   2.169
    1C        C  669   2.589   3.910   2.290
    1C        C  670   2.639   4.043   2.289
    1C        C  671   2.560   3.847   2.413
    1C        C  672   2.577   3.921   2.533
    1C        C  673   2.515   3.716   2.657
    1C        C  674   2.550   3.853   2.654
    1C        C  675   2.513   3.645   2.779
    1C        C  676   2.532   3.716   2.899
    1C        C  677   2.506   3.508   3.027
    1C        C  678   2.514   3.649   3.022
    1C        C  679   2.513   3.441   3.151
    1C        C  680   2.507   3.515   3.271
    1C        C  681   2.535   3.307   3.397
    1C        C  682   2.513   3.446   3.395
    1C        C  683   2.556   3.241   3.521
    1C        C  684   2.535   3.311   3.642
    1C        C  685   2.601   3.112   3.768
    1C        C  686   2.550   3.243   3.765
    1C        C  687   2.632   3.049   3.891
    1C        C  688   2.595   3.114   4.010
    1C        C  689   2.701   2.929   4.137
    1C        C  690   2.633   3.052   4.132
    1C        C  691   2.744   2.870   4.258
    1C        C  692   2.710   2.932   4.381
    1C        C  693   2.744   2.871   4.503
    1C        C  694   2.629   3.893   2.053
    1C        C  695   2.525   3.705   2.173
    1C        C  696   2.578   3.836   2.170
    1C        C  697   2.504   3.639   2.296
    1C        C  698   2.519   3.712   2.416
    1C        C  699   2.492   3.501   2.539
    1C        C  700   2.501   3.642   2.537
    1C        C  701   2.506   3.432   2.661
    1C        C  702   2.509   3.503   2.783
    1C        C  703   2.525   3.295   2.911
    1C        C  704   2.510   3.435   2.907
    1C        C  705   2.537   3.226   3.034
    1C        C  706   2.530   3.300   3.154
    1C        C  707   2.597   3.102   3.277
    1C        C  708   2.547   3.234   3.277
    1C        C  709   2.629   3.042   3.401
    1C        C  710   2.607   3.110   3.524
    1C        C  711   2.710   2.927   3.650
    1C        C  712   2.635   3.047   3.647
    1C        C  713   2.752   2.873   3.774
    1C        C  714   2.706   2.929   3.895
    1C        C  715   2.750   2.873   4.017
    1C        C  716   2.448   3.499   2.063
    1C        C  717   2.490   3.633   2.058
    1C        C  718   2.470   3.420   2.180
    1C        C  719   2.484   3.498   2.298
    1C        C  720   2.514   3.287   2.421
    1C        C  721   2.489   3.426   2.419
    1C        C  722   2.541   3.222   2.544
    1C        C  723   2.533   3.293   2.665
    1C        C  724   2.586   3.091   2.789
    1C        C  725   2.543   3.226   2.789
    1C        C  726   2.617   3.027   2.911
    1C        C  727   2.586   3.093   3.032
    1C        C  728   2.706   2.921   3.158
    1C        C  729   2.623   3.035   3.155
    1C        C  730   2.751   2.867   3.281
    1C        C  731   2.707   2.924   3.403
    1C        C  732   2.752   2.874   3.526
    1C        C  733   2.494   3.192   2.069
    1C        C  734   2.491   3.279   2.180
    1C        C  735   2.582   3.083   2.303
    1C        C  736   2.528   3.214   2.301
    1C        C  737   2.613   3.018   2.425
    1C        C  738   2.589   3.088   2.545
    1C        C  739   2.692   2.906   2.666
    1C        C  740   2.619   3.026   2.668
    1C        C  741   2.742   2.856   2.788
    1C        C  742   2.698   2.911   2.911
    1C        C  743   2.748   2.865   3.035
    1C        C  744   2.541   3.062   2.072
    1C        C  745   2.682   2.891   2.182
    1C        C  746   2.608   3.011   2.184
    1C        C  747   2.728   2.836   2.304
    1C        C  748   2.690   2.900   2.424
    1C        C  749   2.735   2.844   2.546
    1C        C  750   2.742   2.839   2.067
    1C        C  751   3.650   2.300   1.985
    1C        O  752   3.679   2.189   2.038
    1C        O  753   3.701   2.311   1.855
    1C        C  754   4.647   3.054   2.003
    1C        O  755   4.669   3.054   1.879
    1C        O  756   4.739   2.978   2.075
    1C        C  757   4.432   4.210   1.942
    1C        O  758   4.502   4.309   1.974
    1C        O  759   4.426   4.211   1.802
    1C        C  760   3.591   4.673   1.954
    1C        O  761   3.600   4.789   2.002
    1C        O  762   3.598   4.671   1.814
    1C        C  763   2.882   4.477   1.930
    1C        O  764   2.915   4.441   1.814
    1C        O  765   2.777   4.570   1.927
    1C        C  766   2.347   3.467   1.959
    1C        O  767   2.376   3.415   1.849
    1C        O  768   2.210   3.489   1.980
    1C        C  769   4.656   3.580   5.084
    1C        O  770   4.607   3.595   5.199
    1C        O  771   4.795   3.584   5.078
    1C        C  772   4.265   4.452   5.038
    1C        O  773   4.273   4.434   5.162
    1C        O  774   4.356   4.551   4.997
    1C        C  775   4.146   2.513   5.069
    1C        O  776   4.194   2.400   5.042
    1C        O  777   4.138   2.541   5.206
    1C        C  778   2.864   4.561   5.010
    1C        O  779   2.778   4.639   4.960
    1C        O  780   2.894   4.594   5.143
    1C        C  781   2.476   3.030   5.076
    1C        O  782   2.404   2.936   5.032
    1C        O  783   2.509   3.034   5.211
    1C        C  784   2.424   3.987   5.060
    1C        O  785   2.320   4.059   5.061
    1C        O  786   2.465   3.958   5.190
    1C        C  787   2.955   2.391   2.033
    1C        O  788   2.901   2.371   1.920
    1C        O  789   2.896   2.307   2.127
    1C        C  790   3.182   2.364   5.047
    1C        O  791   3.165   2.249   5.000
    1C        O  792   3.248   2.370   5.170
    1C        H  793   4.305   3.001   5.067
    1C        H  794   4.175   2.811   5.073
    1C        H  795   4.514   3.121   5.050
    1C        H  796   4.563   3.352   5.057
    1C        H  797   4.576   3.814   5.040
    1C        H  798   4.461   4.010   5.041
    1C        H  799   4.262   4.151   5.046
    1C        H  800   4.039   4.560   5.008
    1C        H  801   3.810   4.553   5.042
    1C        H  802   3.578   4.602   5.038
    1C        H  803   3.396   4.511   5.043
    1C        H  804   3.157   4.499   5.055
    1C        H  805   3.899   2.458   5.050
    1C        H  806   3.668   2.519   5.069
    1C        H  807   3.000   2.556   5.068
    1C        H  808   3.447   2.403   5.047
    1C        H  809   2.897   2.761   5.073
    1C        H  810   2.710   2.903   5.079
    1C        H  811   2.468   3.278   5.054
    1C        H  812   2.588   3.505   5.056
    1C        H  813   2.558   3.737   5.059
    1C        H  814   2.566   4.189   5.031
    1C        H  815   2.723   4.369   5.022
    1C        H  816   2.718   2.882   1.972
    1C        H  817   2.866   2.691   1.975
    1C        H  818   3.220   2.462   1.982
    1C        H  819   3.433   2.455   1.973
    1C        H  820   3.828   2.562   1.977
    1C        H  821   4.061   2.609   1.966
    1C        H  822   4.272   2.702   1.985
    1C        H  823   4.355   2.934   1.967
    1C        H  824   4.562   3.304   1.965
    1C        H  825   4.506   3.513   1.955
    1C        H  826   4.463   3.746   1.958
    1C        H  827   3.822   4.569   1.981
    1C        H  828   3.958   4.375   1.944
    1C        H  829   4.169   4.274   1.943
    1C        H  830   4.510   3.972   1.965
    1C        H  831   2.621   3.851   1.955
    1C        H  832   2.746   4.043   1.969
    1C        H  833   2.689   4.339   2.005
    1C        H  834   3.367   4.501   1.942
    1C        H  835   3.170   4.364   1.967
    1C        H  836   2.514   2.986   2.001
    1C        H  837   2.421   3.213   1.994
    1C        H  838   2.478   3.685   1.965
    2V3OU   H29  839   2.800   3.542   1.600
    2V3OU   C27  840   2.781   3.498   1.701
    2V3OU   H27  841   2.728   3.564   1.774
    2V3OU   H28  842   2.728   3.400   1.691
    2V3OU   O11  843   2.908   3.462   1.757
    2V3OU   C15  844   2.927   3.394   1.876
    2V3OU   C13  845   3.050   3.375   1.943
    2V3OU   C14  846   3.075   3.262   2.021
    2V3OU   C16  847   2.966   3.185   2.062
    2V3OU    H6  848   2.985   3.103   2.132
    2V3OU   C12  849   3.212   3.226   2.065
    2V3OU    O2  850   3.236   3.130   2.140
    2V3OU   C10  851   3.321   3.301   2.000
    2V3OU    C8  852   3.453   3.268   2.028
    2V3OU   O10  853   3.483   3.150   2.087
    2V3OU   H26  854   3.405   3.109   2.126
    2V3OU    C6  855   3.565   3.347   1.985
    2V3OU    C5  856   3.538   3.464   1.916
    2V3OU    C4  857   3.703   3.291   1.986
    2V3OU    H4  858   3.715   3.224   2.077
    2V3OU    H5  859   3.715   3.219   1.900
    2V3OU    C2  860   3.812   3.398   1.981
    2V3OU    O6  861   3.808   3.472   2.103
    2V3OU   H21  862   3.755   3.553   2.109
    2V3OU    C3  863   3.779   3.494   1.867
    2V3OU    H2  864   3.860   3.570   1.848
    2V3OU    H3  865   3.786   3.436   1.771
    2V3OU   C25  866   3.948   3.328   1.966
    2V3OU    O7  867   3.994   3.294   1.857
    2V3OU   C26  868   4.031   3.290   2.088
    2V3OU   H22  869   4.068   3.382   2.141
    2V3OU   H23  870   4.118   3.228   2.056
    2V3OU    O8  871   3.959   3.208   2.177
    2V3OU   H24  872   3.914   3.272   2.235
    2V3OU    C1  873   3.645   3.563   1.880
    2V3OU    H1  874   3.626   3.615   1.781
    2V3OU    O3  875   3.659   3.654   1.990
    2V3OU   C19  876   3.619   3.790   1.975
    2V3OU    H9  877   3.529   3.798   1.908
    2V3OU    O4  878   3.715   3.848   1.890
    2V3OU   C20  879   3.847   3.876   1.939
    2V3OU   H10  880   3.891   3.772   1.952
    2V3OU   C24  881   3.610   3.851   2.115
    2V3OU   H16  882   3.544   3.787   2.179
    2V3OU   H17  883   3.561   3.951   2.108
    2V3OU   C23  884   3.749   3.875   2.174
    2V3OU   H15  885   3.792   3.771   2.194
    2V3OU    N1  886   3.734   3.955   2.293
    2V3OU   H19  887   3.811   3.933   2.353
    2V3OU   H20  888   3.650   3.938   2.344
    2V3OU   C21  889   3.845   3.948   2.074
    2V3OU   H11  890   3.947   3.926   2.116
    2V3OU    O5  891   3.827   4.088   2.082
    2V3OU   H18  892   3.783   4.106   2.167
    2V3OU   C22  893   3.919   3.944   1.824
    2V3OU   H12  894   3.873   4.044   1.807
    2V3OU   H13  895   3.903   3.887   1.729
    2V3OU   H14  896   4.026   3.956   1.853
    2V3OU   C11  897   3.158   3.466   1.899
    2V3OU    O1  898   3.128   3.587   1.894
    2V3OU    C9  899   3.296   3.421   1.929
    2V3OU    C7  900   3.402   3.502   1.890
    2V3OU    O9  901   3.383   3.617   1.816
    2V3OU   H25  902   3.288   3.637   1.826
    2V3OU   C17  903   2.820   3.312   1.916
    2V3OU    H7  904   2.717   3.334   1.888
    2V3OU   C18  905   2.840   3.213   2.011
    2V3OU    H8  906   2.759   3.137   2.019
    3SOL     OW  907   2.470   3.926   0.954
    3SOL    HW1  908   2.390   3.867   0.964
    3SOL    HW2  909   2.544   3.875   0.912
    4SOL     OW  910   0.082   5.714   1.888
    4SOL    HW1  911   0.067   5.644   1.818
    4SOL    HW2  912   7.013   5.750   1.918
    5SOL     OW  913   3.908   1.617   2.141
    5SOL    HW1  914   3.930   1.701   2.090
    5SOL    HW2  915   3.834   1.636   2.206
    6SOL     OW  916   3.507   2.073   2.197
    6SOL    HW1  917   3.526   2.078   2.295
    6SOL    HW2  918   3.575   2.128   2.147
    7SOL     OW  919   6.237   2.962   1.543
    7SOL    HW1  920   6.183   2.881   1.565
    7SOL    HW2  921   6.255   2.964   1.444
    8SOL     OW  922   2.402   6.640   5.074
    8SOL    HW1  923   2.466   6.585   5.021
    8SOL    HW2  924   2.333   6.580   5.115
    9SOL     OW  925   1.280   5.501   5.790
    9SOL    HW1  926   1.354   5.441   5.759
    9SOL    HW2  927   1.222   5.525   5.712
   10SOL     OW  928   0.269   4.239   5.878
   10SOL    HW1  929   0.347   4.278   5.928
   10SOL    HW2  930   0.239   4.155   5.923
   11SOL     OW  931   2.765   0.515   0.682
   11SOL    HW1  932   2.778   0.485   0.777
   11SOL    HW2  933   2.694   0.459   0.639
   12SOL     OW  934   4.635   6.369   3.404
   12SOL    HW1  935   4.719   6.354   3.351
   12SOL    HW2  936   4.602   6.462   3.390
   13SOL     OW  937   3.531   6.146   4.425
   13SOL    HW1  938   3.574   6.059   4.398
   13SOL    HW2  939   3.524   6.206   4.345
   14SOL     OW  940   4.036   5.867   6.076
   14SOL    HW1  941   3.976   5.845   5.999
   14SOL    HW2  942   4.015   5.806   6.153
   15SOL     OW  943   1.491   6.018   0.115
   15SOL    HW1  944   1.397   6.007   0.081
   15SOL    HW2  945   1.549   5.945   0.077
   16SOL     OW  946   6.454   1.899   5.772
   16SOL    HW1  947   6.386   1.920   5.843
   16SOL    HW2  948   6.417   1.921   5.682
   17SOL     OW  949   5.231   6.282   4.511
   17SOL    HW1  950   5.174   6.235   4.578
   17SOL    HW2  951   5.208   6.250   4.419
   18SOL     OW  952   2.984   2.011   6.652
   18SOL    HW1  953   2.973   1.956   6.569
   18SOL    HW2  954   2.897   2.013   6.702
   19SOL     OW  955   0.261   6.540   3.558
   19SOL    HW1  956   0.204   6.517   3.636
   19SOL    HW2  957   0.304   6.458   3.522
   20SOL     OW  958   3.058   0.527   4.521
   20SOL    HW1  959   2.973   0.578   4.533
   20SOL    HW2  960   3.133   0.590   4.501
   21SOL     OW  961   2.714   1.903   2.696
   21SOL    HW1  962   2.750   1.865   2.781
   21SOL    HW2  963   2.788   1.911   2.629
   22SOL     OW  964   1.952   0.505   0.132
   22SOL    HW1  965   1.934   0.565   0.054
   22SOL    HW2  966   2.003   0.425   0.102
   23SOL     OW  967   4.362   6.833   3.540
   23SOL    HW1  968   4.423   6.912   3.541
   23SOL    HW2  969   4.406   6.758   3.491
   24SOL     OW  970   5.234   0.993   4.425
   24SOL    HW1  971   5.216   0.956   4.334
   24SOL    HW2  972   5.279   1.081   4.417
   25SOL     OW  973   3.137   5.848   6.152
   25SOL    HW1  974   3.230   5.857   6.116
   25SOL    HW2  975   3.139   5.862   6.251
   26SOL     OW  976   5.850   1.324   1.208
   26SOL    HW1  977   5.836   1.393   1.136
   26SOL    HW2  978   5.858   1.234   1.165
   27SOL     OW  979   6.903   0.752   2.168
   27SOL    HW1  980   6.897   0.706   2.256
   27SOL    HW2  981   6.995   0.792   2.159
   28SOL     OW  982   4.647   0.731   6.950
   28SOL    HW1  983   4.556   0.766   6.932
   28SOL    HW2  984   4.715   0.802   6.930
   29SOL     OW  985   4.863   2.599   2.118
   29SOL    HW1  986   4.962   2.588   2.121
   29SOL    HW2  987   4.820   2.533   2.180
   30SOL     OW  988   3.006   6.863   5.705
   30SOL    HW1  989   2.998   6.945   5.648
   30SOL    HW2  990   2.972   6.784   5.655
   31SOL     OW  991   0.791   1.250   5.652
   31SOL    HW1  992   0.726   1.325   5.643
   31SOL    HW2  993   0.811   1.235   5.749
   32SOL     OW  994   0.316   2.531   3.021
   32SOL    HW1  995   0.318   2.605   3.089
   32SOL    HW2  996   0.243   2.548   2.956
   33SOL     OW  997   2.007   2.731   6.271
   33SOL    HW1  998   1.929   2.683   6.311
   33SOL    HW2  999   2.089   2.709   6.324
   34SOL     OW 1000   1.630   0.585   4.648
   34SOL    HW1 1001   1.645   0.630   4.736
   34SOL    HW2 1002   1.648   0.649   4.574
   35SOL     OW 1003   4.381   2.445   6.361
   35SOL    HW1 1004   4.427   2.496   6.288
   35SOL    HW2 1005   4.286   2.430   6.336
   36SOL     OW 1006   0.882   0.770   6.246
   36SOL    HW1 1007   0.852   0.861   6.273
   36SOL    HW2 1008   0.802   0.709   6.243
   37SOL     OW 1009   2.429   6.939   0.898
   37SOL    HW1 1010   2.400   6.856   0.947
   37SOL    HW2 1011   2.467   6.914   0.809
   38SOL     OW 1012   0.441   5.784   3.031
   38SOL    HW1 1013   0.430   5.841   3.112
   38SOL    HW2 1014   0.394   5.826   2.953
   39SOL     OW 1015   6.837   3.795   6.170
   39SOL    HW1 1016   6.825   3.732   6.093
   39SOL    HW2 1017   6.754   3.797   6.226
   40SOL     OW 1018   6.315   2.523   2.256
   40SOL    HW1 1019   6.259   2.553   2.179
   40SOL    HW2 1020   6.313   2.592   2.328
   41SOL     OW 1021   1.316   6.657   4.284
   41SOL    HW1 1022   1.286   6.690   4.374
   41SOL    HW2 1023   1.330   6.558   4.288
   42SOL     OW 1024   3.086   6.821   6.142
   42SOL    HW1 1025   3.054   6.768   6.063
   42SOL    HW2 1026   3.128   6.906   6.109
   43SOL     OW 1027   5.896   5.786   6.123
   43SOL    HW1 1028   5.899   5.882   6.095
   43SOL    HW2 1029   5.800   5.757   6.132
   44SOL     OW 1030   6.853   2.695   6.219
   44SOL    HW1 1031   6.807   2.630   6.280
   44SOL    HW2 1032   6.925   2.647   6.168
   45SOL     OW 1033   3.345   0.403   3.050
   45SOL    HW1 1034   3.372   0.317   3.094
   45SOL    HW2 1035   3.427   0.450   3.016
   46SOL     OW 1036   0.739   3.933   4.418
   46SOL    HW1 1037   0.678   3.877   4.362
   46SOL    HW2 1038   0.826   3.944   4.371
   47SOL     OW 1039   5.893   3.079   3.643
   47SOL    HW1 1040   5.874   3.060   3.739
   47SOL    HW2 1041   5.980   3.127   3.635
   48SOL     OW 1042   0.904   2.479   4.727
   48SOL    HW1 1043   0.922   2.452   4.633
   48SOL    HW2 1044   0.979   2.450   4.785
   49SOL     OW 1045   4.638   4.118   1.704
   49SOL    HW1 1046   4.548   4.153   1.727
   49SOL    HW2 1047   4.708   4.167   1.757
   50SOL     OW 1048   6.584   2.702   4.918
   50SOL    HW1 1049   6.669   2.699   4.972
   50SOL    HW2 1050   6.527   2.624   4.943
   51SOL     OW 1051   2.908   5.399   2.751
   51SOL    HW1 1052   2.981   5.441   2.697
   51SOL    HW2 1053   2.891   5.456   2.832
   52SOL     OW 1054   4.246   1.437   3.627
   52SOL    HW1 1055   4.270   1.533   3.613
   52SOL    HW2 1056   4.156   1.431   3.669
   53SOL     OW 1057   4.233   0.486   3.794
   53SOL    HW1 1058   4.211   0.498   3.697
   53SOL    HW2 1059   4.307   0.420   3.804
   54SOL     OW 1060   3.011   5.292   6.539
   54SOL    HW1 1061   2.928   5.241   6.562
   54SOL    HW2 1062   2.994   5.390   6.547
   55SOL     OW 1063   3.746   1.326   6.311
   55SOL    HW1 1064   3.768   1.317   6.408
   55SOL    HW2 1065   3.665   1.271   6.290
   56SOL     OW 1066   1.700   0.635   1.526
   56SOL    HW1 1067   1.786   0.652   1.478
   56SOL    HW2 1068   1.720   0.593   1.615
   57SOL     OW 1069   5.036   0.421   0.778
   57SOL    HW1 1070   5.081   0.355   0.718
   57SOL    HW2 1071   4.994   0.373   0.855
   58SOL     OW 1072   0.368   5.547   6.356
   58SOL    HW1 1073   0.398   5.501   6.439
   58SOL    HW2 1074   0.287   5.603   6.375
   59SOL     OW 1075   1.562   1.012   6.434
   59SOL    HW1 1076   1.649   0.967   6.454
   59SOL    HW2 1077   1.496   0.943   6.403
   60SOL     OW 1078   5.212   0.828   5.871
   60SOL    HW1 1079   5.295   0.869   5.834
   60SOL    HW2 1080   5.137   0.894   5.863
   61SOL     OW 1081   4.936   1.198   4.122
   61SOL    HW1 1082   4.859   1.140   4.148
   61SOL    HW2 1083   4.918   1.240   4.033
   62SOL     OW 1084   0.806   1.189   3.869
   62SOL    HW1 1085   0.849   1.251   3.934
   62SOL    HW2 1086   0.722   1.152   3.909
   63SOL     OW 1087   6.442   1.600   3.773
   63SOL    HW1 1088   6.502   1.675   3.800
   63SOL    HW2 1089   6.370   1.635   3.712
   64SOL     OW 1090   6.892   3.873   6.554
   64SOL    HW1 1091   6.923   3.959   6.594
   64SOL    HW2 1092   6.957   3.800   6.576
   65SOL     OW 1093   6.413   4.096   5.246
   65SOL    HW1 1094   6.503   4.067   5.277
   65SOL    HW2 1095   6.373   4.158   5.314
   66SOL     OW 1096   3.299   0.837   6.768
   66SOL    HW1 1097   3.316   0.900   6.844
   66SOL    HW2 1098   3.201   0.832   6.751
   67SOL     OW 1099   5.780   5.766   5.350
   67SOL    HW1 1100   5.828   5.840   5.397
   67SOL    HW2 1101   5.837   5.683   5.351
   68SOL     OW 1102   6.346   0.983   6.741
   68SOL    HW1 1103   6.440   0.950   6.754
   68SOL    HW2 1104   6.348   1.080   6.718
   69SOL     OW 1105   1.605   4.036   6.451
   69SOL    HW1 1106   1.608   4.064   6.547
   69SOL    HW2 1107   1.617   4.116   6.392
   70SOL     OW 1108   6.501   5.787   2.924
   70SOL    HW1 1109   6.438   5.857   2.958
   70SOL    HW2 1110   6.474   5.760   2.832
   71SOL     OW 1111   2.919   2.291   3.313
   71SOL    HW1 1112   2.953   2.255   3.226
   71SOL    HW2 1113   2.898   2.388   3.303
   72SOL     OW 1114   2.776   6.328   4.590
   72SOL    HW1 1115   2.840   6.299   4.661
   72SOL    HW2 1116   2.745   6.421   4.610
   73SOL     OW 1117   3.287   2.036   0.058
   73SOL    HW1 1118   3.282   2.136   0.047
   73SOL    HW2 1119   3.211   2.004   0.113
   74SOL     OW 1120   5.284   6.630   0.297
   74SOL    HW1 1121   5.340   6.698   0.250
   74SOL    HW2 1122   5.190   6.636   0.263
   75SOL     OW 1123   3.538   5.347   5.622
   75SOL    HW1 1124   3.578   5.424   5.573
   75SOL    HW2 1125   3.605   5.273   5.628
   76SOL     OW 1126   1.650   2.680   1.233
   76SOL    HW1 1127   1.734   2.727   1.263
   76SOL    HW2 1128   1.572   2.741   1.249
   77SOL     OW 1129   5.000   5.312   4.324
   77SOL    HW1 1130   4.967   5.398   4.286
   77SOL    HW2 1131   4.960   5.298   4.415
   78SOL     OW 1132   6.843   6.266   6.037
   78SOL    HW1 1133   6.860   6.358   6.072
   78SOL    HW2 1134   6.931   6.221   6.019
   79SOL     OW 1135   2.855   6.900   0.516
   79SOL    HW1 1136   2.893   6.876   0.426
   79SOL    HW2 1137   2.794   6.827   0.546
   80SOL     OW 1138   5.966   0.754   4.540
   80SOL    HW1 1139   5.988   0.790   4.631
   80SOL    HW2 1140   5.990   0.822   4.471
   81SOL     OW 1141   2.167   0.373   2.700
   81SOL    HW1 1142   2.205   0.318   2.626
   81SOL    HW2 1143   2.109   0.445   2.662
   82SOL     OW 1144   6.850   5.230   0.182
   82SOL    HW1 1145   6.877   5.189   0.094
   82SOL    HW2 1146   6.754   5.208   0.200
   83SOL     OW 1147   6.548   6.967   0.905
   83SOL    HW1 1148   6.592   6.958   0.815
   83SOL    HW2 1149   6.450   6.951   0.896
   84SOL     OW 1150   5.127   3.567   3.104
   84SOL    HW1 1151   5.197   3.610   3.047
   84SOL    HW2 1152   5.047   3.545   3.048
   85SOL     OW 1153   0.693   1.797   5.266
   85SOL    HW1 1154   0.621   1.853   5.227
   85SOL    HW2 1155   0.781   1.824   5.227
   86SOL     OW 1156   0.919   0.577   5.874
   86SOL    HW1 1157   1.003   0.522   5.876
   86SOL    HW2 1158   0.856   0.542   5.943
   87SOL     OW 1159   4.772   2.804   0.704
   87SOL    HW1 1160   4.812   2.810   0.795
   87SOL    HW2 1161   4.727   2.716   0.692
   88SOL     OW 1162   4.680   1.719   0.189
   88SOL    HW1 1163   4.773   1.755   0.179
   88SOL    HW2 1164   4.615   1.796   0.196
   89SOL     OW 1165   1.842   2.865   6.575
   89SOL    HW1 1166   1.796   2.918   6.646
   89SOL    HW2 1167   1.832   2.912   6.487
   90SOL     OW 1168   4.577   6.997   3.923
   90SOL    HW1 1169   4.535   6.948   4.000
   90SOL    HW2 1170   4.510   7.003   3.848
   91SOL     OW 1171   4.574   4.435   4.448
   91SOL    HW1 1172   4.602   4.531   4.442
   91SOL    HW2 1173   4.542   4.404   4.359
   92SOL     OW 1174   2.993   4.781   0.731
   92SOL    HW1 1175   3.029   4.688   0.721
   92SOL    HW2 1176   3.006   4.812   0.825
   93SOL     OW 1177   2.469   4.181   6.177
   93SOL    HW1 1178   2.511   4.267   6.148
   93SOL    HW2 1179   2.369   4.190   6.175
   94SOL     OW 1180   2.491   5.654   6.421
   94SOL    HW1 1181   2.557   5.651   6.346
   94SOL    HW2 1182   2.437   5.570   6.422
   95SOL     OW 1183   0.809   2.309   3.501
   95SOL    HW1 1184   0.823   2.212   3.517
   95SOL    HW2 1185   0.718   2.324   3.462
   96SOL     OW 1186   2.889   7.007   5.957
   96SOL    HW1 1187   2.966   7.019   5.895
   96SOL    HW2 1188   2.887   0.064   6.022
   97SOL     OW 1189   0.271   3.821   5.254
   97SOL    HW1 1190   0.337   3.795   5.183
   97SOL    HW2 1191   0.277   3.757   5.330
   98SOL     OW 1192   6.604   3.653   6.980
   98SOL    HW1 1193   6.613   3.601   0.047
   98SOL    HW2 1194   6.693   3.691   6.956
   99SOL     OW 1195   4.524   3.834   1.414
   99SOL    HW1 1196   4.583   3.881   1.480
   99SOL    HW2 1197   4.542   3.736   1.418
  100SOL     OW 1198   0.676   0.002   6.059
  100SOL    HW1 1199   0.611   0.009   6.134
  100SOL    HW2 1200   0.628   0.003   5.972
  101SOL     OW 1201   1.156   5.920   2.169
  101SOL    HW1 1202   1.239   5.901   2.221
  101SOL    HW2 1203   1.092   5.972   2.226
  102SOL     OW 1204   5.003   1.198   2.216
  102SOL    HW1 1205   4.915   1.198   2.262
  102SOL    HW2 1206   5.006   1.272   2.149
  103SOL     OW 1207   4.239   1.523   2.141
  103SOL    HW1 1208   4.196   1.528   2.231
  103SOL    HW2 1209   4.185   1.574   2.075
  104SOL     OW 1210   0.216   5.643   2.628
  104SOL    HW1 1211   0.300   5.631   2.575
  104SOL    HW2 1212   0.143   5.672   2.567
  105SOL     OW 1213   6.303   1.707   6.485
  105SOL    HW1 1214   6.265   1.620   6.516
  105SOL    HW2 1215   6.367   1.691   6.410
  106SOL     OW 1216   3.313   0.124   6.251
  106SOL    HW1 1217   3.215   0.139   6.236
  106SOL    HW2 1218   3.327   0.035   6.295
  107SOL     OW 1219   1.867   2.094   1.684
  107SOL    HW1 1220   1.848   2.052   1.773
  107SOL    HW2 1221   1.791   2.075   1.622
  108SOL     OW 1222   4.940   4.484   6.860
  108SOL    HW1 1223   5.009   4.425   6.818
  108SOL    HW2 1224   4.886   4.432   6.926
  109SOL     OW 1225   0.391   0.471   1.315
  109SOL    HW1 1226   0.435   0.419   1.388
  109SOL    HW2 1227   0.451   0.547   1.288
  110SOL     OW 1228   4.199   6.364   5.654
  110SOL    HW1 1229   4.179   6.383   5.558
  110SOL    HW2 1230   4.183   6.447   5.708
  111SOL     OW 1231   3.650   0.824   4.723
  111SOL    HW1 1232   3.570   0.881   4.701
  111SOL    HW2 1233   3.707   0.872   4.789
  112SOL     OW 1234   6.435   6.099   6.184
  112SOL    HW1 1235   6.357   6.146   6.226
  112SOL    HW2 1236   6.403   6.046   6.105
  113SOL     OW 1237   6.755   5.196   3.350
  113SOL    HW1 1238   6.671   5.228   3.393
  113SOL    HW2 1239   6.767   5.241   3.262
  114SOL     OW 1240   0.763   7.013   0.675
  114SOL    HW1 1241   0.686   6.950   0.684
  114SOL    HW2 1242   0.849   6.962   0.689
  115SOL     OW 1243   4.722   1.044   4.201
  115SOL    HW1 1244   4.710   0.949   4.231
  115SOL    HW2 1245   4.719   1.105   4.280
  116SOL     OW 1246   6.123   5.585   2.197
  116SOL    HW1 1247   6.173   5.511   2.241
  116SOL    HW2 1248   6.103   5.657   2.263
  117SOL     OW 1249   0.432   1.378   6.413
  117SOL    HW1 1250   0.368   1.400   6.339
  117SOL    HW2 1251   0.517   1.343   6.374
  118SOL     OW 1252   0.368   1.743   2.307
  118SOL    HW1 1253   0.343   1.647   2.319
  118SOL    HW2 1254   0.407   1.756   2.215
  119SOL     OW 1255   0.865   2.387   6.643
  119SOL    HW1 1256   0.959   2.409   6.616
  119SOL    HW2 1257   0.816   2.349   6.566
  120SOL     OW 1258   0.095   6.500   0.718
  120SOL    HW1 1259   0.041   6.553   0.652
  120SOL    HW2 1260   0.113   6.556   0.799
  121SOL     OW 1261   2.591   3.371   0.146
  121SOL    HW1 1262   2.595   3.370   0.246
  121SOL    HW2 1263   2.623   3.459   0.112
  122SOL     OW 1264   1.511   4.437   6.089
  122SOL    HW1 1265   1.490   4.349   6.131
  122SOL    HW2 1266   1.527   4.423   5.991
  123SOL     OW 1267   0.642   2.046   1.483
  123SOL    HW1 1268   0.588   1.994   1.417
  123SOL    HW2 1269   0.685   2.123   1.437
  124SOL     OW 1270   5.454   3.466   0.396
  124SOL    HW1 1271   5.396   3.540   0.430
  124SOL    HW2 1272   5.516   3.436   0.469
  125SOL     OW 1273   2.429   1.655   2.348
  125SOL    HW1 1274   2.359   1.645   2.418
  125SOL    HW2 1275   2.475   1.743   2.359
  126SOL     OW 1276   2.859   5.027   0.679
  126SOL    HW1 1277   2.899   4.950   0.729
  126SOL    HW2 1278   2.759   5.016   0.675
  127SOL     OW 1279   6.930   4.769   6.039
  127SOL    HW1 1280   6.934   4.747   5.942
  127SOL    HW2 1281   7.004   4.831   6.063
  128SOL     OW 1282   4.408   2.843   1.385
  128SOL    HW1 1283   4.404   2.940   1.360
  128SOL    HW2 1284   4.325   2.798   1.356
  129SOL     OW 1285   4.772   3.944   5.659
  129SOL    HW1 1286   4.735   3.982   5.574
  129SOL    HW2 1287   4.770   3.844   5.655
  130SOL     OW 1288   0.729   0.958   4.311
  130SOL    HW1 1289   0.686   0.904   4.383
  130SOL    HW2 1290   0.796   0.901   4.262
  131SOL     OW 1291   5.069   0.997   2.377
  131SOL    HW1 1292   5.037   1.065   2.312
  131SOL    HW2 1293   4.998   0.980   2.445
  132SOL     OW 1294   1.932   2.785   0.927
  132SOL    HW1 1295   1.984   2.867   0.949
  132SOL    HW2 1296   1.835   2.801   0.947
  133SOL     OW 1297   5.501   6.683   3.152
  133SOL    HW1 1298   5.512   6.584   3.164
  133SOL    HW2 1299   5.501   6.705   3.055
  134SOL     OW 1300   5.708   2.294   3.389
  134SOL    HW1 1301   5.781   2.350   3.429
  134SOL    HW2 1302   5.627   2.298   3.446
  135SOL     OW 1303   5.151   3.114   2.292
  135SOL    HW1 1304   5.057   3.146   2.305
  135SOL    HW2 1305   5.171   3.106   2.195
  136SOL     OW 1306   4.441   3.927   6.718
  136SOL    HW1 1307   4.466   3.853   6.780
  136SOL    HW2 1308   4.395   4.000   6.770
  137SOL     OW 1309   4.277   0.220   5.245
  137SOL    HW1 1310   4.352   0.153   5.250
  137SOL    HW2 1311   4.275   0.274   5.329
  138SOL     OW 1312   0.343   4.901   4.318
  138SOL    HW1 1313   0.247   4.930   4.318
  138SOL    HW2 1314   0.358   4.834   4.390
  139SOL     OW 1315   2.106   6.402   4.909
  139SOL    HW1 1316   2.201   6.424   4.885
  139SOL    HW2 1317   2.061   6.362   4.829
  140SOL     OW 1318   6.975   6.053   3.646
  140SOL    HW1 1319   6.968   5.967   3.696
  140SOL    HW2 1320   7.000   6.034   3.551
  141SOL     OW 1321   0.068   1.856   5.291
  141SOL    HW1 1322   0.008   1.911   5.232
  141SOL    HW2 1323   0.082   1.766   5.250
  142SOL     OW 1324   1.689   5.865   0.734
  142SOL    HW1 1325   1.685   5.800   0.658
  142SOL    HW2 1326   1.778   5.912   0.733
  143SOL     OW 1327   5.279   4.693   2.281
  143SOL    HW1 1328   5.224   4.622   2.236
  143SOL    HW2 1329   5.340   4.650   2.347
  144SOL     OW 1330   1.609   6.791   5.921
  144SOL    HW1 1331   1.574   6.704   5.887
  144SOL    HW2 1332   1.700   6.808   5.883
  145SOL     OW 1333   0.915   4.743   0.813
  145SOL    HW1 1334   0.901   4.666   0.751
  145SOL    HW2 1335   0.837   4.750   0.876
  146SOL     OW 1336   4.615   6.712   6.011
  146SOL    HW1 1337   4.702   6.747   6.047
  146SOL    HW2 1338   4.553   6.789   5.993
  147SOL     OW 1339   6.254   2.846   6.888
  147SOL    HW1 1340   6.300   2.826   6.975
  147SOL    HW2 1341   6.320   2.841   6.813
  148SOL     OW 1342   0.597   5.254   6.247
  148SOL    HW1 1343   0.540   5.185   6.294
  148SOL    HW2 1344   0.542   5.300   6.177
  149SOL     OW 1345   2.914   1.507   4.290
  149SOL    HW1 1346   2.910   1.407   4.294
  149SOL    HW2 1347   2.866   1.539   4.208
  150SOL     OW 1348   6.170   4.904   6.135
  150SOL    HW1 1349   6.076   4.871   6.133
  150SOL    HW2 1350   6.175   4.987   6.190
  151SOL     OW 1351   3.598   2.170   1.207
  151SOL    HW1 1352   3.682   2.132   1.167
  151SOL    HW2 1353   3.522   2.156   1.144
  152SOL     OW 1354   1.769   1.287   4.395
  152SOL    HW1 1355   1.789   1.209   4.453
  152SOL    HW2 1356   1.736   1.255   4.306
  153SOL     OW 1357   2.697   0.063   2.037
  153SOL    HW1 1358   2.674   0.148   1.988
  153SOL    HW2 1359   2.741   7.018   1.975
  154SOL     OW 1360   0.374   3.238   2.846
  154SOL    HW1 1361   0.321   3.252   2.929
  154SOL    HW2 1362   0.347   3.153   2.801
  155SOL     OW 1363   0.713   1.437   3.611
  155SOL    HW1 1364   0.735   1.402   3.701
  155SOL    HW2 1365   0.712   1.537   3.613
  156SOL     OW 1366   6.684   1.890   1.540
  156SOL    HW1 1367   6.663   1.888   1.443
  156SOL    HW2 1368   6.782   1.877   1.554
  157SOL     OW 1369   5.803   3.573   2.082
  157SOL    HW1 1370   5.828   3.476   2.084
  157SOL    HW2 1371   5.873   3.627   2.129
  158SOL     OW 1372   2.496   6.842   2.304
  158SOL    HW1 1373   2.517   6.751   2.270
  158SOL    HW2 1374   2.581   6.892   2.322
  159SOL     OW 1375   4.853   4.731   1.067
  159SOL    HW1 1376   4.855   4.804   0.998
  159SOL    HW2 1377   4.779   4.668   1.046
  160SOL     OW 1378   0.235   4.526   6.341
  160SOL    HW1 1379   0.252   4.435   6.378
  160SOL    HW2 1380   0.322   4.573   6.328
  161SOL     OW 1381   1.941   5.010   4.649
  161SOL    HW1 1382   1.955   5.063   4.732
  161SOL    HW2 1383   2.002   5.044   4.577
  162SOL     OW 1384   4.147   6.494   0.116
  162SOL    HW1 1385   4.095   6.536   0.190
  162SOL    HW2 1386   4.242   6.480   0.145
  163SOL     OW 1387   4.847   5.716   1.392
  163SOL    HW1 1388   4.805   5.644   1.448
  163SOL    HW2 1389   4.832   5.805   1.435
  164SOL     OW 1390   0.042   3.759   1.619
  164SOL    HW1 1391   0.025   3.755   1.520
  164SOL    HW2 1392   7.014   3.838   1.658
  165SOL     OW 1393   5.363   3.015   1.097
  165SOL    HW1 1394   5.281   2.958   1.094
  165SOL    HW2 1395   5.375   3.062   1.010
  166SOL     OW 1396   0.062   5.212   3.344
  166SOL    HW1 1397   0.005   5.294   3.347
  166SOL    HW2 1398   0.055   5.163   3.431
  167SOL     OW 1399   6.193   1.943   0.343
  167SOL    HW1 1400   6.206   2.029   0.293
  167SOL    HW2 1401   6.095   1.928   0.357
  168SOL     OW 1402   3.023   3.273   1.190
  168SOL    HW1 1403   3.010   3.356   1.136
  168SOL    HW2 1404   2.975   3.282   1.277
  169SOL     OW 1405   3.462   0.113   2.135
  169SOL    HW1 1406   3.444   0.021   2.101
  169SOL    HW2 1407   3.467   0.111   2.235
  170SOL     OW 1408   0.550   1.940   3.540
  170SOL    HW1 1409   0.499   1.924   3.456
  170SOL    HW2 1410   0.558   1.855   3.592
  171SOL     OW 1411   3.778   4.141   0.308
  171SOL    HW1 1412   3.711   4.160   0.237
  171SOL    HW2 1413   3.732   4.107   0.390
  172SOL     OW 1414   5.919   1.469   4.414
  172SOL    HW1 1415   5.878   1.443   4.501
  172SOL    HW2 1416   5.939   1.567   4.414
  173SOL     OW 1417   6.207   0.666   4.727
  173SOL    HW1 1418   6.130   0.690   4.785
  173SOL    HW2 1419   6.175   0.651   4.633
  174SOL     OW 1420   2.696   5.624   3.714
  174SOL    HW1 1421   2.703   5.525   3.716
  174SOL    HW2 1422   2.603   5.651   3.740
  175SOL     OW 1423   1.988   6.952   1.895
  175SOL    HW1 1424   1.943   6.921   1.978
  175SOL    HW2 1425   2.038   6.876   1.853
  176SOL     OW 1426   1.905   4.115   0.610
  176SOL    HW1 1427   1.943   4.041   0.665
  176SOL    HW2 1428   1.805   4.112   0.614
  177SOL     OW 1429   5.410   2.883   2.903
  177SOL    HW1 1430   5.408   2.854   2.807
  177SOL    HW2 1431   5.333   2.944   2.921
  178SOL     OW 1432   4.892   3.562   6.159
  178SOL    HW1 1433   4.960   3.494   6.186
  178SOL    HW2 1434   4.904   3.645   6.213
  179SOL     OW 1435   3.326   1.748   6.197
  179SOL    HW1 1436   3.258   1.749   6.124
  179SOL    HW2 1437   3.307   1.671   6.259
  180SOL     OW 1438   1.313   0.852   6.413
  180SOL    HW1 1439   1.337   0.767   6.460
  180SOL    HW2 1440   1.240   0.899   6.464
  181SOL     OW 1441   3.476   1.285   6.896
  181SOL    HW1 1442   3.418   1.322   6.969
  181SOL    HW2 1443   3.561   1.252   6.934
  182SOL     OW 1444   3.969   2.237   4.681
  182SOL    HW1 1445   3.919   2.151   4.687
  182SOL    HW2 1446   3.933   2.302   4.748
  183SOL     OW 1447   3.594   1.062   3.682
  183SOL    HW1 1448   3.569   1.106   3.768
  183SOL    HW2 1449   3.678   1.010   3.694
  184SOL     OW 1450   1.569   5.698   3.540
  184SOL    HW1 1451   1.651   5.663   3.495
  184SOL    HW2 1452   1.586   5.709   3.638
  185SOL     OW 1453   1.530   2.792   6.314
  185SOL    HW1 1454   1.509   2.703   6.272
  185SOL    HW2 1455   1.479   2.801   6.400
  186SOL     OW 1456   6.654   0.923   3.790
  186SOL    HW1 1457   6.557   0.943   3.803
  186SOL    HW2 1458   6.709   0.992   3.837
  187SOL     OW 1459   4.835   1.171   3.023
  187SOL    HW1 1460   4.798   1.250   3.072
  187SOL    HW2 1461   4.935   1.177   3.021
  188SOL     OW 1462   5.948   2.428   3.177
  188SOL    HW1 1463   5.979   2.361   3.109
  188SOL    HW2 1464   5.964   2.391   3.269
  189SOL     OW 1465   1.764   5.339   2.834
  189SOL    HW1 1466   1.679   5.332   2.782
  189SOL    HW2 1467   1.756   5.413   2.901
  190SOL     OW 1468   4.051   1.480   4.955
  190SOL    HW1 1469   4.112   1.525   5.020
  190SOL    HW2 1470   3.957   1.483   4.990
  191SOL     OW 1471   5.780   5.544   6.376
  191SOL    HW1 1472   5.824   5.631   6.396
  191SOL    HW2 1473   5.849   5.475   6.357
  192SOL     OW 1474   0.286   6.425   2.157
  192SOL    HW1 1475   0.188   6.442   2.155
  192SOL    HW2 1476   0.309   6.347   2.099
  193SOL     OW 1477   4.910   2.797   5.791
  193SOL    HW1 1478   4.854   2.734   5.844
  193SOL    HW2 1479   4.890   2.891   5.818
  194SOL     OW 1480   3.524   0.782   3.145
  194SOL    HW1 1481   3.551   0.838   3.223
  194SOL    HW2 1482   3.458   0.833   3.090
  195SOL     OW 1483   1.796   5.820   3.735
  195SOL    HW1 1484   1.843   5.794   3.651
  195SOL    HW2 1485   1.750   5.908   3.721
  196SOL     OW 1486   2.237   2.615   6.813
  196SOL    HW1 1487   2.242   2.707   6.776
  196SOL    HW2 1488   2.178   2.559   6.755
  197SOL     OW 1489   2.482   1.515   1.074
  197SOL    HW1 1490   2.571   1.559   1.064
  197SOL    HW2 1491   2.439   1.543   1.160
  198SOL     OW 1492   4.213   1.341   3.116
  198SOL    HW1 1493   4.162   1.279   3.175
  198SOL    HW2 1494   4.150   1.402   3.068
  199SOL     OW 1495   1.480   2.789   3.801
  199SOL    HW1 1496   1.555   2.846   3.767
  199SOL    HW2 1497   1.394   2.817   3.758
  200SOL     OW 1498   0.465   2.742   1.063
  200SOL    HW1 1499   0.379   2.788   1.039
  200SOL    HW2 1500   0.506   2.786   1.142
  201SOL     OW 1501   0.576   7.014   5.811
  201SOL    HW1 1502   0.566   6.949   5.735
  201SOL    HW2 1503   0.622   0.077   5.779
  202SOL     OW 1504   4.554   1.014   6.827
  202SOL    HW1 1505   4.558   0.932   6.769
  202SOL    HW2 1506   4.616   1.083   6.791
  203SOL     OW 1507   6.113   2.173   5.670
  203SOL    HW1 1508   6.181   2.100   5.669
  203SOL    HW2 1509   6.040   2.152   5.605
  204SOL     OW 1510   0.669   0.274   5.498
  204SOL    HW1 1511   0.673   0.182   5.537
  204SOL    HW2 1512   0.761   0.303   5.474
  205SOL     OW 1513   1.761   2.280   3.187
  205SOL    HW1 1514   1.721   2.362   3.229
  205SOL    HW2 1515   1.712   2.259   3.102
  206SOL     OW 1516   0.756   3.088   1.542
  206SOL    HW1 1517   0.665   3.107   1.505
  206SOL    HW2 1518   0.760   2.993   1.573
  207SOL     OW 1519   5.123   1.218   3.044
  207SOL    HW1 1520   5.102   1.214   3.142
  207SOL    HW2 1521   5.166   1.305   3.022
  208SOL     OW 1522   0.083   4.610   5.516
  208SOL    HW1 1523   0.137   4.528   5.538
  208SOL    HW2 1524   0.022   4.589   5.439
  209SOL     OW 1525   6.587   4.313   2.827
  209SOL    HW1 1526   6.684   4.291   2.818
  209SOL    HW2 1527   6.539   4.287   2.743
  210SOL     OW 1528   4.028   1.667   0.531
  210SOL    HW1 1529   4.105   1.603   0.521
  210SOL    HW2 1530   4.061   1.760   0.518
  211SOL     OW 1531   0.787   0.074   2.537
  211SOL    HW1 1532   0.877   0.107   2.508
  211SOL    HW2 1533   0.761   0.120   2.622
  212SOL     OW 1534   1.527   3.891   2.746
  212SOL    HW1 1535   1.623   3.887   2.719
  212SOL    HW2 1536   1.490   3.799   2.758
  213SOL     OW 1537   1.869   5.523   0.990
  213SOL    HW1 1538   1.800   5.450   0.983
  213SOL    HW2 1539   1.890   5.558   0.899
  214SOL     OW 1540   3.911   4.807   2.479
  214SOL    HW1 1541   4.006   4.778   2.472
  214SOL    HW2 1542   3.884   4.853   2.394
  215SOL     OW 1543   2.344   4.559   1.119
  215SOL    HW1 1544   2.285   4.615   1.177
  215SOL    HW2 1545   2.427   4.536   1.169
  216SOL     OW 1546   0.856   6.940   2.892
  216SOL    HW1 1547   0.830   6.917   2.985
  216SOL    HW2 1548   0.784   6.912   2.829
  217SOL     OW 1549   0.978   2.464   5.112
  217SOL    HW1 1550   0.974   2.424   5.204
  217SOL    HW2 1551   0.934   2.554   5.114
  218SOL     OW 1552   0.863   1.885   4.738
  218SOL    HW1 1553   0.819   1.842   4.660
  218SOL    HW2 1554   0.911   1.967   4.709
  219SOL     OW 1555   4.560   0.393   0.581
  219SOL    HW1 1556   4.483   0.452   0.557
  219SOL    HW2 1557   4.646   0.438   0.554
  220SOL     OW 1558   2.592   0.012   1.119
  220SOL    HW1 1559   2.568   0.022   1.023
  220SOL    HW2 1560   2.608   0.102   1.159
  221SOL     OW 1561   6.324   4.360   1.462
  221SOL    HW1 1562   6.266   4.439   1.442
  221SOL    HW2 1563   6.371   4.332   1.378
  222SOL     OW 1564   1.584   4.391   6.720
  222SOL    HW1 1565   1.619   4.307   6.761
  222SOL    HW2 1566   1.494   4.374   6.680
  223SOL     OW 1567   6.891   2.709   4.696
  223SOL    HW1 1568   6.837   2.710   4.780
  223SOL    HW2 1569   6.874   2.793   4.645
  224SOL     OW 1570   3.413   1.966   6.341
  224SOL    HW1 1571   3.428   1.935   6.434
  224SOL    HW2 1572   3.392   1.888   6.282
  225SOL     OW 1573   4.449   3.613   6.312
  225SOL    HW1 1574   4.481   3.669   6.235
  225SOL    HW2 1575   4.522   3.605   6.380
  226SOL     OW 1576   0.708   1.598   6.313
  226SOL    HW1 1577   0.648   1.611   6.392
  226SOL    HW2 1578   0.803   1.589   6.343
  227SOL     OW 1579   2.456   4.409   2.683
  227SOL    HW1 1580   2.491   4.410   2.777
  227SOL    HW2 1581   2.489   4.489   2.634
  228SOL     OW 1582   2.031   0.961   3.063
  228SOL    HW1 1583   2.011   0.978   2.966
  228SOL    HW2 1584   2.010   0.866   3.085
  229SOL     OW 1585   5.279   5.064   6.315
  229SOL    HW1 1586   5.247   5.116   6.393
  229SOL    HW2 1587   5.379   5.059   6.317
  230SOL     OW 1588   4.375   5.972   4.802
  230SOL    HW1 1589   4.402   5.880   4.777
  230SOL    HW2 1590   4.312   6.009   4.734
  231SOL     OW 1591   5.733   0.910   6.986
  231SOL    HW1 1592   5.650   0.959   7.014
  231SOL    HW2 1593   5.769   0.858   0.045
  232SOL     OW 1594   6.997   2.856   6.386
  232SOL    HW1 1595   6.944   2.784   6.341
  232SOL    HW2 1596   6.972   2.860   6.483
  233SOL     OW 1597   3.584   1.901   3.695
  233SOL    HW1 1598   3.508   1.964   3.702
  233SOL    HW2 1599   3.612   1.892   3.599
  234SOL     OW 1600   6.261   0.784   6.531
  234SOL    HW1 1601   6.350   0.740   6.545
  234SOL    HW2 1602   6.243   0.848   6.606
  235SOL     OW 1603   5.511   3.165   2.607
  235SOL    HW1 1604   5.411   3.166   2.603
  235SOL    HW2 1605   5.546   3.251   2.571
  236SOL     OW 1606   5.298   3.307   0.211
  236SOL    HW1 1607   5.342   3.288   0.123
  236SOL    HW2 1608   5.363   3.354   0.271
  237SOL     OW 1609   0.162   4.218   2.144
  237SOL    HW1 1610   0.216   4.253   2.068
  237SOL    HW2 1611   0.189   4.265   2.228
  238SOL     OW 1612   6.725   1.143   0.832
  238SOL    HW1 1613   6.697   1.204   0.906
  238SOL    HW2 1614   6.664   1.064   0.828
  239SOL     OW 1615   1.291   3.965   0.176
  239SOL    HW1 1616   1.269   4.057   0.143
  239SOL    HW2 1617   1.263   3.956   0.271
  240SOL     OW 1618   6.914   3.074   3.442
  240SOL    HW1 1619   6.832   3.075   3.499
  240SOL    HW2 1620   6.893   3.030   3.354
  241SOL     OW 1621   2.533   2.534   4.288
  241SOL    HW1 1622   2.463   2.603   4.307
  241SOL    HW2 1623   2.601   2.533   4.361
  242SOL     OW 1624   3.646   3.645   3.223
  242SOL    HW1 1625   3.710   3.622   3.296
  242SOL    HW2 1626   3.696   3.653   3.137
  243SOL     OW 1627   4.692   1.575   6.837
  243SOL    HW1 1628   4.758   1.513   6.881
  243SOL    HW2 1629   4.631   1.613   6.906
  244SOL     OW 1630   6.014   3.514   6.041
  244SOL    HW1 1631   5.986   3.571   5.964
  244SOL    HW2 1632   6.012   3.569   6.125
  245SOL     OW 1633   4.157   1.661   4.070
  245SOL    HW1 1634   4.246   1.654   4.025
  245SOL    HW2 1635   4.153   1.599   4.147
  246SOL     OW 1636   5.013   1.750   3.291
  246SOL    HW1 1637   4.924   1.783   3.325
  246SOL    HW2 1638   5.030   1.787   3.200
  247SOL     OW 1639   2.814   1.597   1.360
  247SOL    HW1 1640   2.739   1.655   1.392
  247SOL    HW2 1641   2.860   1.643   1.283
  248SOL     OW 1642   2.203   1.163   2.772
  248SOL    HW1 1643   2.234   1.068   2.771
  248SOL    HW2 1644   2.107   1.166   2.799
  249SOL     OW 1645   5.351   0.002   5.241
  249SOL    HW1 1646   5.371   6.975   5.154
  249SOL    HW2 1647   5.377   0.098   5.234
  250SOL     OW 1648   3.960   3.438   0.600
  250SOL    HW1 1649   3.891   3.404   0.664
  250SOL    HW2 1650   3.916   3.464   0.514
  251SOL     OW 1651   4.610   3.366   5.334
  251SOL    HW1 1652   4.573   3.386   5.425
  251SOL    HW2 1653   4.598   3.446   5.275
  252SOL     OW 1654   6.071   6.945   5.665
  252SOL    HW1 1655   6.068   6.872   5.596
  252SOL    HW2 1656   6.016   0.003   5.634
  253SOL     OW 1657   3.854   4.931   6.389
  253SOL    HW1 1658   3.787   5.002   6.367
  253SOL    HW2 1659   3.946   4.963   6.365
  254SOL     OW 1660   6.825   2.277   3.604
  254SOL    HW1 1661   6.818   2.197   3.663
  254SOL    HW2 1662   6.789   2.255   3.513
  255SOL     OW 1663   1.855   4.477   5.923
  255SOL    HW1 1664   1.840   4.415   6.000
  255SOL    HW2 1665   1.893   4.426   5.846
  256SOL     OW 1666   5.321   3.420   6.455
  256SOL    HW1 1667   5.391   3.428   6.525
  256SOL    HW2 1668   5.321   3.502   6.397
  257SOL     OW 1669   5.541   0.011   2.986
  257SOL    HW1 1670   5.526   0.061   3.071
  257SOL    HW2 1671   5.484   6.948   2.985
  258SOL     OW 1672   2.427   3.693   5.300
  258SOL    HW1 1673   2.525   3.677   5.312
  258SOL    HW2 1674   2.412   3.788   5.271
  259SOL     OW 1675   5.974   1.424   1.817
  259SOL    HW1 1676   6.008   1.336   1.783
  259SOL    HW2 1677   5.874   1.421   1.822
  260SOL     OW 1678   3.973   5.818   3.265
  260SOL    HW1 1679   4.034   5.897   3.264
  260SOL    HW2 1680   3.992   5.760   3.186
  261SOL     OW 1681   5.459   4.507   1.631
  261SOL    HW1 1682   5.420   4.438   1.570
  261SOL    HW2 1683   5.405   4.511   1.715
  262SOL     OW 1684   1.364   4.001   0.630
  262SOL    HW1 1685   1.386   4.098   0.645
  262SOL    HW2 1686   1.424   3.945   0.687
  263SOL     OW 1687   1.419   0.604   4.316
  263SOL    HW1 1688   1.488   0.652   4.370
  263SOL    HW2 1689   1.448   0.599   4.221
  264SOL     OW 1690   6.587   2.524   0.272
  264SOL    HW1 1691   6.660   2.581   0.309
  264SOL    HW2 1692   6.532   2.487   0.347
  265SOL     OW 1693   6.067   6.256   2.683
  265SOL    HW1 1694   6.087   6.340   2.633
  265SOL    HW2 1695   6.094   6.177   2.627
  266SOL     OW 1696   4.516   2.969   5.908
  266SOL    HW1 1697   4.572   2.901   5.956
  266SOL    HW2 1698   4.470   3.028   5.975
  267SOL     OW 1699   1.002   1.573   5.573
  267SOL    HW1 1700   1.020   1.644   5.641
  267SOL    HW2 1701   0.905   1.549   5.576
  268SOL     OW 1702   2.569   1.219   6.425
  268SOL    HW1 1703   2.555   1.194   6.520
  268SOL    HW2 1704   2.488   1.268   6.391
  269SOL     OW 1705   2.395   3.047   0.581
  269SOL    HW1 1706   2.317   3.014   0.634
  269SOL    HW2 1707   2.364   3.078   0.491
  270SOL     OW 1708   0.781   6.078   0.461
  270SOL    HW1 1709   0.836   6.042   0.385
  270SOL    HW2 1710   0.802   6.028   0.545
  271SOL     OW 1711   0.246   1.788   6.508
  271SOL    HW1 1712   0.215   1.719   6.573
  271SOL    HW2 1713   0.176   1.860   6.500
  272SOL     OW 1714   3.593   6.633   3.692
  272SOL    HW1 1715   3.621   6.607   3.784
  272SOL    HW2 1716   3.553   6.555   3.645
  273SOL     OW 1717   1.953   4.726   5.004
  273SOL    HW1 1718   2.000   4.639   5.022
  273SOL    HW2 1719   1.873   4.709   4.947
  274SOL     OW 1720   3.506   1.667   3.218
  274SOL    HW1 1721   3.416   1.659   3.260
  274SOL    HW2 1722   3.548   1.577   3.214
  275SOL     OW 1723   6.595   5.899   2.442
  275SOL    HW1 1724   6.674   5.959   2.433
  275SOL    HW2 1725   6.582   5.875   2.538
  276SOL     OW 1726   0.034   6.519   3.756
  276SOL    HW1 1727   6.954   6.534   3.762
  276SOL    HW2 1728   0.053   6.421   3.746
  277SOL     OW 1729   1.783   3.841   0.079
  277SOL    HW1 1730   1.686   3.848   0.103
  277SOL    HW2 1731   1.834   3.914   0.123
  278SOL     OW 1732   0.156   3.361   2.646
  278SOL    HW1 1733   0.189   3.268   2.634
  278SOL    HW2 1734   0.196   3.401   2.729
  279SOL     OW 1735   5.596   2.843   4.675
  279SOL    HW1 1736   5.690   2.826   4.702
  279SOL    HW2 1737   5.590   2.851   4.575
  280SOL     OW 1738   2.797   5.577   1.896
  280SOL    HW1 1739   2.719   5.622   1.854
  280SOL    HW2 1740   2.867   5.644   1.919
  281SOL     OW 1741   1.971   4.422   1.769
  281SOL    HW1 1742   1.986   4.465   1.858
  281SOL    HW2 1743   1.960   4.323   1.781
  282SOL     OW 1744   3.076   1.193   5.613
  282SOL    HW1 1745   2.980   1.190   5.585
  282SOL    HW2 1746   3.133   1.197   5.531
  283SOL     OW 1747   5.880   2.684   6.610
  283SOL    HW1 1748   5.794   2.635   6.600
  283SOL    HW2 1749   5.903   2.729   6.523
  284SOL     OW 1750   1.564   3.388   4.309
  284SOL    HW1 1751   1.614   3.328   4.247
  284SOL    HW2 1752   1.628   3.449   4.355
  285SOL     OW 1753   5.333   5.116   4.246
  285SOL    HW1 1754   5.277   5.078   4.319
  285SOL    HW2 1755   5.298   5.087   4.157
  286SOL     OW 1756   3.523   4.313   6.865
  286SOL    HW1 1757   3.446   4.297   6.925
  286SOL    HW2 1758   3.492   4.358   6.781
  287SOL     OW 1759   1.478   2.699   1.018
  287SOL    HW1 1760   1.528   2.623   0.977
  287SOL    HW2 1761   1.415   2.665   1.087
  288SOL     OW 1762   3.672   1.835   6.296
  288SOL    HW1 1763   3.677   1.922   6.345
  288SOL    HW2 1764   3.668   1.760   6.361
  289SOL     OW 1765   1.833   4.031   5.367
  289SOL    HW1 1766   1.734   4.047   5.360
  289SOL    HW2 1767   1.853   3.935   5.352
  290SOL     OW 1768   6.518   1.586   5.025
  290SOL    HW1 1769   6.603   1.601   5.076
  290SOL    HW2 1770   6.530   1.511   4.961
  291SOL     OW 1771   0.679   1.579   3.920
  291SOL    HW1 1772   0.644   1.499   3.970
  291SOL    HW2 1773   0.738   1.633   3.980
  292SOL     OW 1774   1.855   1.173   3.172
  292SOL    HW1 1775   1.812   1.129   3.093
  292SOL    HW2 1776   1.954   1.158   3.169
  293SOL     OW 1777   4.294   6.318   3.341
  293SOL    HW1 1778   4.285   6.393   3.407
  293SOL    HW2 1779   4.209   6.307   3.290
  294SOL     OW 1780   6.043   6.291   0.064
  294SOL    HW1 1781   6.055   6.222   7.012
  294SOL    HW2 1782   6.008   6.248   0.147
  295SOL     OW 1783   3.755   0.695   2.871
  295SOL    HW1 1784   3.829   0.709   2.805
  295SOL    HW2 1785   3.792   0.703   2.964
  296SOL     OW 1786   3.825   1.642   2.939
  296SOL    HW1 1787   3.760   1.710   2.975
  296SOL    HW2 1788   3.819   1.641   2.840
  297SOL     OW 1789   2.425   4.367   3.466
  297SOL    HW1 1790   2.359   4.304   3.424
  297SOL    HW2 1791   2.414   4.366   3.566
  298SOL     OW 1792   5.536   5.959   0.725
  298SOL    HW1 1793   5.462   5.981   0.661
  298SOL    HW2 1794   5.586   6.043   0.748
  299SOL     OW 1795   6.094   2.785   5.129
  299SOL    HW1 1796   6.181   2.742   5.155
  299SOL    HW2 1797   6.019   2.725   5.155
  300SOL     OW 1798   6.484   0.538   3.339
  300SOL    HW1 1799   6.418   0.466   3.361
  300SOL    HW2 1800   6.576   0.505   3.358
  301SOL     OW 1801   5.235   3.510   6.870
  301SOL    HW1 1802   5.319   3.472   6.908
  301SOL    HW2 1803   5.258   3.577   6.799
  302SOL     OW 1804   0.865   0.406   3.679
  302SOL    HW1 1805   0.782   0.403   3.735
  302SOL    HW2 1806   0.897   0.500   3.671
  303SOL     OW 1807   5.142   0.826   2.181
  303SOL    HW1 1808   5.137   0.738   2.229
  303SOL    HW2 1809   5.120   0.900   2.244
  304SOL     OW 1810   1.848   0.230   2.855
  304SOL    HW1 1811   1.828   0.199   2.948
  304SOL    HW2 1812   1.906   0.162   2.810
  305SOL     OW 1813   0.985   3.502   6.779
  305SOL    HW1 1814   0.949   3.449   6.856
  305SOL    HW2 1815   0.984   3.599   6.802
  306SOL     OW 1816   1.820   1.123   3.954
  306SOL    HW1 1817   1.889   1.108   4.024
  306SOL    HW2 1818   1.769   1.039   3.938
  307SOL     OW 1819   4.970   0.331   1.028
  307SOL    HW1 1820   5.038   0.264   1.060
  307SOL    HW2 1821   4.879   0.302   1.058
  308SOL     OW 1822   0.432   6.010   3.215
  308SOL    HW1 1823   0.475   6.013   3.305
  308SOL    HW2 1824   0.418   6.103   3.182
  309SOL     OW 1825   3.687   4.521   5.296
  309SOL    HW1 1826   3.666   4.522   5.393
  309SOL    HW2 1827   3.664   4.431   5.258
  310SOL     OW 1828   0.002   6.516   5.676
  310SOL    HW1 1829   6.976   6.587   5.730
  310SOL    HW2 1830   0.060   6.461   5.736
  311SOL     OW 1831   6.444   5.633   1.831
  311SOL    HW1 1832   6.351   5.599   1.832
  311SOL    HW2 1833   6.484   5.625   1.923
  312SOL     OW 1834   4.771   1.502   4.889
  312SOL    HW1 1835   4.853   1.457   4.923
  312SOL    HW2 1836   4.699   1.434   4.875
  313SOL     OW 1837   2.476   4.137   1.771
  313SOL    HW1 1838   2.562   4.158   1.725
  313SOL    HW2 1839   2.448   4.215   1.827
  314SOL     OW 1840   3.445   5.586   0.495
  314SOL    HW1 1841   3.382   5.596   0.418
  314SOL    HW2 1842   3.394   5.592   0.581
  315SOL     OW 1843   0.441   2.866   3.522
  315SOL    HW1 1844   0.448   2.912   3.433
  315SOL    HW2 1845   0.452   2.768   3.510
  316SOL     OW 1846   2.153   2.788   4.105
  316SOL    HW1 1847   2.057   2.799   4.131
  316SOL    HW2 1848   2.199   2.876   4.108
  317SOL     OW 1849   0.434   1.197   6.874
  317SOL    HW1 1850   0.369   1.142   6.925
  317SOL    HW2 1851   0.483   1.258   6.937
  318SOL     OW 1852   1.573   4.647   0.968
  318SOL    HW1 1853   1.558   4.663   0.871
  318SOL    HW2 1854   1.603   4.731   1.012
  319SOL     OW 1855   1.004   6.524   1.243
  319SOL    HW1 1856   1.054   6.445   1.280
  319SOL    HW2 1857   1.039   6.607   1.285
  320SOL     OW 1858   6.291   2.611   0.336
  320SOL    HW1 1859   6.372   2.671   0.336
  320SOL    HW2 1860   6.295   2.551   0.416
  321SOL     OW 1861   1.620   2.090   1.898
  321SOL    HW1 1862   1.600   2.052   1.807
  321SOL    HW2 1863   1.551   2.158   1.921
  322SOL     OW 1864   3.867   3.002   4.698
  322SOL    HW1 1865   3.811   2.950   4.633
  322SOL    HW2 1866   3.814   3.079   4.734
  323SOL     OW 1867   0.616   4.256   0.735
  323SOL    HW1 1868   0.612   4.338   0.677
  323SOL    HW2 1869   0.629   4.284   0.830
  324SOL     OW 1870   0.883   3.030   4.403
  324SOL    HW1 1871   0.843   3.098   4.465
  324SOL    HW2 1872   0.967   3.067   4.363
  325SOL     OW 1873   1.797   3.097   1.391
  325SOL    HW1 1874   1.716   3.091   1.333
  325SOL    HW2 1875   1.770   3.088   1.487
  326SOL     OW 1876   1.991   6.449   6.841
  326SOL    HW1 1877   2.035   6.360   6.848
  326SOL    HW2 1878   1.957   6.462   6.747
  327SOL     OW 1879   0.494   4.817   4.602
  327SOL    HW1 1880   0.499   4.855   4.695
  327SOL    HW2 1881   0.413   4.759   4.594
  328SOL     OW 1882   4.018   5.175   2.334
  328SOL    HW1 1883   4.046   5.261   2.290
  328SOL    HW2 1884   4.097   5.131   2.376
  329SOL     OW 1885   3.077   3.713   3.326
  329SOL    HW1 1886   3.076   3.799   3.275
  329SOL    HW2 1887   3.005   3.653   3.292
  330SOL     OW 1888   3.589   6.640   1.529
  330SOL    HW1 1889   3.667   6.626   1.468
  330SOL    HW2 1890   3.618   6.696   1.607
  331SOL     OW 1891   4.439   5.470   6.192
  331SOL    HW1 1892   4.428   5.569   6.194
  331SOL    HW2 1893   4.352   5.426   6.217
  332SOL     OW 1894   3.315   1.804   3.702
  332SOL    HW1 1895   3.283   1.720   3.745
  332SOL    HW2 1896   3.410   1.821   3.727
  333SOL     OW 1897   4.099   6.840   6.200
  333SOL    HW1 1898   4.089   6.801   6.108
  333SOL    HW2 1899   4.105   6.940   6.192
  334SOL     OW 1900   3.368   6.858   2.092
  334SOL    HW1 1901   3.281   6.857   2.044
  334SOL    HW2 1902   3.402   6.765   2.101
  335SOL     OW 1903   3.635   5.673   3.561
  335SOL    HW1 1904   3.731   5.648   3.558
  335SOL    HW2 1905   3.588   5.634   3.481
  336SOL     OW 1906   2.355   1.084   3.473
  336SOL    HW1 1907   2.265   1.115   3.504
  336SOL    HW2 1908   2.347   1.047   3.380
  337SOL     OW 1909   0.639   3.122   1.826
  337SOL    HW1 1910   0.666   3.038   1.778
  337SOL    HW2 1911   0.660   3.201   1.769
  338SOL     OW 1912   3.043   3.141   1.702
  338SOL    HW1 1913   3.009   3.064   1.648
  338SOL    HW2 1914   3.053   3.113   1.798
  339SOL     OW 1915   3.545   0.135   2.878
  339SOL    HW1 1916   3.449   0.108   2.886
  339SOL    HW2 1917   3.552   0.222   2.830
  340SOL     OW 1918   5.510   4.524   4.672
  340SOL    HW1 1919   5.554   4.607   4.637
  340SOL    HW2 1920   5.563   4.444   4.644
  341SOL     OW 1921   5.036   6.130   4.197
  341SOL    HW1 1922   5.034   6.032   4.176
  341SOL    HW2 1923   5.129   6.158   4.221
  342SOL     OW 1924   5.749   4.754   6.945
  342SOL    HW1 1925   5.819   4.733   7.014
  342SOL    HW2 1926   5.721   4.850   6.954
  343SOL     OW 1927   3.571   6.698   1.952
  343SOL    HW1 1928   3.666   6.668   1.938
  343SOL    HW2 1929   3.562   6.793   1.924
  344SOL     OW 1930   2.012   5.272   0.497
  344SOL    HW1 1931   2.108   5.303   0.497
  344SOL    HW2 1932   2.009   5.174   0.516
  345SOL     OW 1933   0.916   0.367   5.429
  345SOL    HW1 1934   0.849   0.376   5.355
  345SOL    HW2 1935   0.894   0.433   5.502
  346SOL     OW 1936   1.487   0.187   3.000
  346SOL    HW1 1937   1.480   0.202   2.901
  346SOL    HW2 1938   1.576   0.219   3.032
  347SOL     OW 1939   5.556   6.920   6.631
  347SOL    HW1 1940   5.531   6.982   6.558
  347SOL    HW2 1941   5.628   6.961   6.687
  348SOL     OW 1942   3.982   5.160   1.111
  348SOL    HW1 1943   3.952   5.118   1.025
  348SOL    HW2 1944   4.015   5.089   1.173
  349SOL     OW 1945   0.236   4.520   2.797
  349SOL    HW1 1946   0.221   4.448   2.728
  349SOL    HW2 1947   0.183   4.499   2.879
  350SOL     OW 1948   4.088   3.644   1.589
  350SOL    HW1 1949   4.066   3.737   1.558
  350SOL    HW2 1950   4.092   3.642   1.688
  351SOL     OW 1951   2.732   1.612   0.572
  351SOL    HW1 1952   2.709   1.612   0.669
  351SOL    HW2 1953   2.822   1.570   0.559
  352SOL     OW 1954   3.324   0.455   5.836
  352SOL    HW1 1955   3.358   0.378   5.890
  352SOL    HW2 1956   3.399   0.494   5.783
  353SOL     OW 1957   1.823   6.246   0.834
  353SOL    HW1 1958   1.774   6.287   0.911
  353SOL    HW2 1959   1.758   6.226   0.760
  354SOL     OW 1960   4.243   2.006   7.013
  354SOL    HW1 1961   4.177   2.074   6.980
  354SOL    HW2 1962   4.336   2.041   7.002
  355SOL     OW 1963   6.553   3.060   2.730
  355SOL    HW1 1964   6.595   3.056   2.820
  355SOL    HW2 1965   6.455   3.076   2.740
  356SOL     OW 1966   4.555   4.774   4.421
  356SOL    HW1 1967   4.623   4.828   4.372
  356SOL    HW2 1968   4.504   4.717   4.356
  357SOL     OW 1969   0.303   5.514   5.152
  357SOL    HW1 1970   0.398   5.524   5.122
  357SOL    HW2 1971   0.263   5.604   5.167
  358SOL     OW 1972   6.352   0.007   1.655
  358SOL    HW1 1973   6.326   6.929   1.653
  358SOL    HW2 1974   6.271   0.064   1.641
  359SOL     OW 1975   1.516   2.521   2.671
  359SOL    HW1 1976   1.565   2.440   2.640
  359SOL    HW2 1977   1.579   2.599   2.676
  360SOL     OW 1978   4.712   6.941   6.868
  360SOL    HW1 1979   4.718   6.971   6.773
  360SOL    HW2 1980   4.715   0.002   6.929
  361SOL     OW 1981   5.098   5.893   3.034
  361SOL    HW1 1982   5.043   5.952   3.094
  361SOL    HW2 1983   5.052   5.885   2.945
  362SOL     OW 1984   2.580   4.370   0.679
  362SOL    HW1 1985   2.675   4.363   0.651
  362SOL    HW2 1986   2.544   4.279   0.699
  363SOL     OW 1987   3.910   5.256   4.458
  363SOL    HW1 1988   3.890   5.163   4.489
  363SOL    HW2 1989   3.977   5.298   4.519
  364SOL     OW 1990   1.110   5.563   5.597
  364SOL    HW1 1991   1.024   5.513   5.601
  364SOL    HW2 1992   1.119   5.608   5.508
  365SOL     OW 1993   5.063   5.926   2.419
  365SOL    HW1 1994   5.058   6.025   2.415
  365SOL    HW2 1995   5.153   5.896   2.385
  366SOL     OW 1996   6.357   1.130   0.051
  366SOL    HW1 1997   6.364   1.196   6.994
  366SOL    HW2 1998   6.288   1.061   0.028
  367SOL     OW 1999   5.363   3.206   0.870
  367SOL    HW1 2000   5.289   3.222   0.805
  367SOL    HW2 2001   5.446   3.252   0.837
  368SOL     OW 2002   1.542   4.380   5.185
  368SOL    HW1 2003   1.608   4.320   5.140
  368SOL    HW2 2004   1.590   4.445   5.243
  369SOL     OW 2005   7.007   4.311   1.643
  369SOL    HW1 2006   0.073   4.264   1.668
  369SOL    HW2 2007   6.957   4.336   1.726
  370SOL     OW 2008   2.600   0.475   6.129
  370SOL    HW1 2009   2.620   0.535   6.052
  370SOL    HW2 2010   2.654   0.504   6.208
  371SOL     OW 2011   3.020   3.198   0.207
  371SOL    HW1 2012   3.119   3.214   0.206
  371SOL    HW2 2013   2.973   3.284   0.225
  372SOL     OW 2014   6.922   6.777   5.770
  372SOL    HW1 2015   6.838   6.734   5.803
  372SOL    HW2 2016   6.945   6.854   5.830
  373SOL     OW 2017   0.166   6.083   0.478
  373SOL    HW1 2018   0.156   6.159   0.414
  373SOL    HW2 2019   0.189   6.119   0.569
  374SOL     OW 2020   3.350   0.270   2.643
  374SOL    HW1 2021   3.304   0.359   2.647
  374SOL    HW2 2022   3.345   0.226   2.733
  375SOL     OW 2023   6.066   4.915   3.395
  375SOL    HW1 2024   6.107   4.936   3.306
  375SOL    HW2 2025   6.132   4.934   3.467
  376SOL     OW 2026   1.566   2.541   3.897
  376SOL    HW1 2027   1.645   2.505   3.848
  376SOL    HW2 2028   1.545   2.633   3.863
  377SOL     OW 2029   5.080   2.072   2.604
  377SOL    HW1 2030   5.039   2.098   2.692
  377SOL    HW2 2031   5.088   1.972   2.600
  378SOL     OW 2032   4.239   3.399   5.631
  378SOL    HW1 2033   4.223   3.472   5.697
  378SOL    HW2 2034   4.164   3.396   5.564
  379SOL     OW 2035   5.698   3.910   1.340
  379SOL    HW1 2036   5.647   3.824   1.342
  379SOL    HW2 2037   5.652   3.977   1.398
  380SOL     OW 2038   1.465   1.337   1.152
  380SOL    HW1 2039   1.528   1.411   1.178
  380SOL    HW2 2040   1.499   1.293   1.069
  381SOL     OW 2041   3.043   4.498   1.186
  381SOL    HW1 2042   2.997   4.411   1.166
  381SOL    HW2 2043   2.980   4.573   1.168
  382SOL     OW 2044   3.330   5.714   0.257
  382SOL    HW1 2045   3.240   5.717   0.300
  382SOL    HW2 2046   3.377   5.801   0.271
  383SOL     OW 2047   6.709   2.788   0.016
  383SOL    HW1 2048   6.702   2.821   6.941
  383SOL    HW2 2049   6.618   2.785   0.057
  384SOL     OW 2050   0.964   5.347   5.281
  384SOL    HW1 2051   0.876   5.393   5.282
  384SOL    HW2 2052   0.980   5.302   5.369
  385SOL     OW 2053   4.549   6.197   0.242
  385SOL    HW1 2054   4.646   6.175   0.237
  385SOL    HW2 2055   4.495   6.118   0.212
  386SOL     OW 2056   3.907   6.480   5.434
  386SOL    HW1 2057   3.819   6.433   5.439
  386SOL    HW2 2058   3.897   6.573   5.470
  387SOL     OW 2059   6.956   0.733   4.890
  387SOL    HW1 2060   7.007   0.744   4.805
  387SOL    HW2 2061   6.936   0.636   4.905
  388SOL     OW 2062   0.096   2.211   5.123
  388SOL    HW1 2063   0.023   2.242   5.184
  388SOL    HW2 2064   0.134   2.289   5.074
  389SOL     OW 2065   4.276   4.585   1.586
  389SOL    HW1 2066   4.315   4.535   1.509
  389SOL    HW2 2067   4.179   4.605   1.568
  390SOL     OW 2068   3.820   1.353   0.244
  390SOL    HW1 2069   3.824   1.440   0.293
  390SOL    HW2 2070   3.912   1.325   0.219
  391SOL     OW 2071   2.825   3.553   6.332
  391SOL    HW1 2072   2.803   3.636   6.280
  391SOL    HW2 2073   2.752   3.535   6.398
  392SOL     OW 2074   1.574   4.140   2.395
  392SOL    HW1 2075   1.668   4.129   2.428
  392SOL    HW2 2076   1.522   4.196   2.459
  393SOL     OW 2077   0.883   4.178   0.834
  393SOL    HW1 2078   0.927   4.167   0.923
  393SOL    HW2 2079   0.812   4.108   0.823
  394SOL     OW 2080   6.779   1.797   6.368
  394SOL    HW1 2081   6.795   1.709   6.324
  394SOL    HW2 2082   6.706   1.789   6.435
  395SOL     OW 2083   5.254   4.718   1.897
  395SOL    HW1 2084   5.201   4.780   1.955
  395SOL    HW2 2085   5.351   4.723   1.923
  396SOL     OW 2086   2.962   1.817   2.794
  396SOL    HW1 2087   3.057   1.824   2.824
  396SOL    HW2 2088   2.944   1.725   2.760
  397SOL     OW 2089   4.360   1.621   5.210
  397SOL    HW1 2090   4.418   1.638   5.290
  397SOL    HW2 2091   4.412   1.641   5.127
  398SOL     OW 2092   2.257   0.574   4.958
  398SOL    HW1 2093   2.180   0.527   4.916
  398SOL    HW2 2094   2.305   0.512   5.019
  399SOL     OW 2095   5.446   6.269   3.875
  399SOL    HW1 2096   5.439   6.299   3.780
  399SOL    HW2 2097   5.370   6.308   3.928
  400SOL     OW 2098   6.414   0.528   4.848
  400SOL    HW1 2099   6.497   0.572   4.811
  400SOL    HW2 2100   6.341   0.596   4.855
  401SOL     OW 2101   6.744   5.849   5.536
  401SOL    HW1 2102   6.807   5.924   5.551
  401SOL    HW2 2103   6.794   5.771   5.498
  402SOL     OW 2104   6.909   0.156   2.668
  402SOL    HW1 2105   6.928   0.108   2.583
  402SOL    HW2 2106   6.990   0.210   2.694
  403SOL     OW 2107   2.791   0.840   6.211
  403SOL    HW1 2108   2.866   0.835   6.145
  403SOL    HW2 2109   2.799   0.765   6.277
  404SOL     OW 2110   4.227   5.111   4.785
  404SOL    HW1 2111   4.202   5.015   4.779
  404SOL    HW2 2112   4.272   5.129   4.872
  405SOL     OW 2113   2.307   4.321   4.003
  405SOL    HW1 2114   2.265   4.231   4.011
  405SOL    HW2 2115   2.361   4.340   4.086
  406SOL     OW 2116   0.074   5.236   6.018
  406SOL    HW1 2117   0.128   5.172   6.073
  406SOL    HW2 2118   7.004   5.195   5.996
  407SOL     OW 2119   1.653   2.974   4.141
  407SOL    HW1 2120   1.713   2.936   4.070
  407SOL    HW2 2121   1.630   2.903   4.206
  408SOL     OW 2122   3.123   1.271   3.552
  408SOL    HW1 2123   3.127   1.238   3.458
  408SOL    HW2 2124   3.038   1.322   3.566
  409SOL     OW 2125   0.947   3.861   2.707
  409SOL    HW1 2126   0.970   3.785   2.769
  409SOL    HW2 2127   1.021   3.875   2.642
  410SOL     OW 2128   1.808   2.090   1.276
  410SOL    HW1 2129   1.893   2.123   1.235
  410SOL    HW2 2130   1.763   2.164   1.326
  411SOL     OW 2131   0.769   2.225   1.326
  411SOL    HW1 2132   0.812   2.201   1.239
  411SOL    HW2 2133   0.785   2.321   1.346
  412SOL     OW 2134   1.815   4.950   1.919
  412SOL    HW1 2135   1.793   4.853   1.914
  412SOL    HW2 2136   1.907   4.965   1.883
  413SOL     OW 2137   4.405   5.320   2.677
  413SOL    HW1 2138   4.330   5.336   2.613
  413SOL    HW2 2139   4.458   5.240   2.647
  414SOL     OW 2140   2.578   6.387   3.673
  414SOL    HW1 2141   2.560   6.317   3.603
  414SOL    HW2 2142   2.568   6.478   3.633
  415SOL     OW 2143   6.728   0.686   0.617
  415SOL    HW1 2144   6.749   0.615   0.684
  415SOL    HW2 2145   6.710   0.772   0.664
  416SOL     OW 2146   4.906   3.241   4.744
  416SOL    HW1 2147   4.889   3.191   4.829
  416SOL    HW2 2148   4.907   3.339   4.763
  417SOL     OW 2149   3.331   2.256   6.566
  417SOL    HW1 2150   3.371   2.314   6.495
  417SOL    HW2 2151   3.241   2.292   6.592
  418SOL     OW 2152   3.967   6.226   4.564
  418SOL    HW1 2153   3.898   6.155   4.575
  418SOL    HW2 2154   4.043   6.209   4.628
  419SOL     OW 2155   0.943   0.224   1.705
  419SOL    HW1 2156   1.001   0.228   1.787
  419SOL    HW2 2157   0.880   0.301   1.705
  420SOL     OW 2158   6.125   0.803   6.211
  420SOL    HW1 2159   6.142   0.735   6.283
  420SOL    HW2 2160   6.033   0.840   6.221
  421SOL     OW 2161   5.366   4.059   2.904
  421SOL    HW1 2162   5.304   4.066   2.982
  421SOL    HW2 2163   5.399   4.151   2.879
  422SOL     OW 2164   4.964   2.970   1.609
  422SOL    HW1 2165   4.896   2.929   1.670
  422SOL    HW2 2166   5.003   3.051   1.653
  423SOL     OW 2167   3.448   1.576   5.972
  423SOL    HW1 2168   3.534   1.588   5.923
  423SOL    HW2 2169   3.417   1.664   6.008
  424SOL     OW 2170   1.255   4.150   2.899
  424SOL    HW1 2171   1.355   4.155   2.901
  424SOL    HW2 2172   1.218   4.242   2.885
  425SOL     OW 2173   2.550   0.304   5.679
  425SOL    HW1 2174   2.516   0.228   5.734
  425SOL    HW2 2175   2.486   0.322   5.604
  426SOL     OW 2176   2.349   2.721   4.334
  426SOL    HW1 2177   2.292   2.730   4.252
  426SOL    HW2 2178   2.317   2.785   4.404
  427SOL     OW 2179   3.938   2.179   3.579
  427SOL    HW1 2180   3.897   2.147   3.664
  427SOL    HW2 2181   3.886   2.146   3.501
  428SOL     OW 2182   2.568   1.334   5.593
  428SOL    HW1 2183   2.501   1.408   5.589
  428SOL    HW2 2184   2.529   1.257   5.644
  429SOL     OW 2185   1.329   5.711   4.082
  429SOL    HW1 2186   1.323   5.787   4.017
  429SOL    HW2 2187   1.395   5.733   4.153
  430SOL     OW 2188   1.284   7.011   3.277
  430SOL    HW1 2189   1.329   6.936   3.228
  430SOL    HW2 2190   1.199   0.016   3.230
  431SOL     OW 2191   3.012   1.528   2.027
  431SOL    HW1 2192   3.073   1.599   1.993
  431SOL    HW2 2193   2.994   1.462   1.954
  432SOL     OW 2194   4.178   1.838   1.487
  432SOL    HW1 2195   4.221   1.856   1.398
  432SOL    HW2 2196   4.229   1.885   1.559
  433SOL     OW 2197   2.014   6.335   0.251
  433SOL    HW1 2198   2.019   6.417   0.194
  433SOL    HW2 2199   2.097   6.329   0.306
  434SOL     OW 2200   3.941   6.294   3.462
  434SOL    HW1 2201   3.974   6.372   3.409
  434SOL    HW2 2202   3.934   6.320   3.558
  435SOL     OW 2203   2.782   1.515   6.139
  435SOL    HW1 2204   2.856   1.549   6.197
  435SOL    HW2 2205   2.767   1.578   6.063
  436SOL     OW 2206   4.911   0.071   3.027
  436SOL    HW1 2207   4.938   0.168   3.022
  436SOL    HW2 2208   4.963   0.026   3.100
  437SOL     OW 2209   6.664   0.182   4.598
  437SOL    HW1 2210   6.648   0.124   4.679
  437SOL    HW2 2211   6.577   0.195   4.550
  438SOL     OW 2212   0.616   3.897   2.963
  438SOL    HW1 2213   0.650   3.853   2.880
  438SOL    HW2 2214   0.552   3.970   2.938
  439SOL     OW 2215   6.069   0.514   3.339
  439SOL    HW1 2216   6.003   0.586   3.319
  439SOL    HW2 2217   6.021   0.431   3.369
  440SOL     OW 2218   4.590   0.959   0.446
  440SOL    HW1 2219   4.670   0.937   0.390
  440SOL    HW2 2220   4.599   1.053   0.481
  441SOL     OW 2221   0.226   4.624   3.128
  441SOL    HW1 2222   0.308   4.598   3.179
  441SOL    HW2 2223   0.247   4.702   3.070
  442SOL     OW 2224   5.774   3.399   6.103
  442SOL    HW1 2225   5.865   3.435   6.084
  442SOL    HW2 2226   5.726   3.383   6.017
  443SOL     OW 2227   4.919   3.452   2.599
  443SOL    HW1 2228   4.889   3.423   2.508
  443SOL    HW2 2229   4.917   3.373   2.660
  444SOL     OW 2230   4.159   1.017   1.444
  444SOL    HW1 2231   4.200   0.938   1.400
  444SOL    HW2 2232   4.217   1.097   1.430
  445SOL     OW 2233   1.367   5.546   2.376
  445SOL    HW1 2234   1.269   5.550   2.352
  445SOL    HW2 2235   1.377   5.529   2.474
  446SOL     OW 2236   5.625   6.943   1.645
  446SOL    HW1 2237   5.688   7.015   1.673
  446SOL    HW2 2238   5.616   6.943   1.546
  447SOL     OW 2239   6.392   4.299   0.533
  447SOL    HW1 2240   6.468   4.262   0.586
  447SOL    HW2 2241   6.306   4.279   0.580
  448SOL     OW 2242   2.693   6.493   3.051
  448SOL    HW1 2243   2.726   6.414   3.104
  448SOL    HW2 2244   2.608   6.527   3.093
  449SOL     OW 2245   2.126   3.746   4.739
  449SOL    HW1 2246   2.111   3.684   4.816
  449SOL    HW2 2247   2.147   3.837   4.774
  450SOL     OW 2248   0.970   4.846   3.319
  450SOL    HW1 2249   1.051   4.819   3.370
  450SOL    HW2 2250   0.890   4.848   3.380
  451SOL     OW 2251   0.767   1.936   2.598
  451SOL    HW1 2252   0.817   1.858   2.636
  451SOL    HW2 2253   0.683   1.903   2.554
  452SOL     OW 2254   4.594   5.884   2.513
  452SOL    HW1 2255   4.509   5.873   2.462
  452SOL    HW2 2256   4.617   5.797   2.557
  453SOL     OW 2257   3.554   0.621   0.010
  453SOL    HW1 2258   3.520   0.527   0.000
  453SOL    HW2 2259   3.478   0.683   0.024
  454SOL     OW 2260   0.078   3.687   6.540
  454SOL    HW1 2261   0.069   3.625   6.618
  454SOL    HW2 2262   0.072   3.635   6.455
  455SOL     OW 2263   6.113   4.515   6.457
  455SOL    HW1 2264   6.131   4.530   6.554
  455SOL    HW2 2265   6.179   4.566   6.402
  456SOL     OW 2266   2.749   0.753   2.208
  456SOL    HW1 2267   2.810   0.676   2.231
  456SOL    HW2 2268   2.766   0.781   2.114
  457SOL     OW 2269   2.449   0.439   6.884
  457SOL    HW1 2270   2.489   0.494   6.957
  457SOL    HW2 2271   2.359   0.475   6.861
  458SOL     OW 2272   2.721   1.176   3.637
  458SOL    HW1 2273   2.663   1.191   3.717
  458SOL    HW2 2274   2.776   1.093   3.651
  459SOL     OW 2275   2.851   0.370   4.110
  459SOL    HW1 2276   2.784   0.415   4.049
  459SOL    HW2 2277   2.871   0.430   4.187
  460SOL     OW 2278   1.125   1.927   5.098
  460SOL    HW1 2279   1.166   1.927   5.189
  460SOL    HW2 2280   1.169   1.856   5.042
  461SOL     OW 2281   0.851   5.064   5.756
  461SOL    HW1 2282   0.823   4.969   5.773
  461SOL    HW2 2283   0.792   5.125   5.809
  462SOL     OW 2284   3.113   4.000   4.260
  462SOL    HW1 2285   3.139   4.068   4.329
  462SOL    HW2 2286   3.034   3.948   4.292
  463SOL     OW 2287   5.536   6.908   2.509
  463SOL    HW1 2288   5.555   6.980   2.442
  463SOL    HW2 2289   5.588   6.927   2.593
  464SOL     OW 2290   3.872   5.761   5.890
  464SOL    HW1 2291   3.821   5.675   5.891
  464SOL    HW2 2292   3.931   5.763   5.809
  465SOL     OW 2293   0.991   3.441   0.030
  465SOL    HW1 2294   0.952   3.408   0.116
  465SOL    HW2 2295   1.006   3.539   0.035
  466SOL     OW 2296   4.191   5.624   4.673
  466SOL    HW1 2297   4.289   5.643   4.667
  466SOL    HW2 2298   4.140   5.710   4.665
  467SOL     OW 2299   6.600   0.125   1.608
  467SOL    HW1 2300   6.604   0.115   1.508
  467SOL    HW2 2301   6.525   0.069   1.644
  468SOL     OW 2302   3.952   0.047   6.634
  468SOL    HW1 2303   3.906   0.096   6.560
  468SOL    HW2 2304   4.042   0.018   6.603
  469SOL     OW 2305   2.878   4.973   6.058
  469SOL    HW1 2306   2.872   4.919   6.141
  469SOL    HW2 2307   2.787   4.981   6.017
  470SOL     OW 2308   1.998   5.146   2.537
  470SOL    HW1 2309   2.012   5.060   2.488
  470SOL    HW2 2310   1.964   5.216   2.474
  471SOL     OW 2311   2.095   2.658   4.575
  471SOL    HW1 2312   2.105   2.752   4.544
  471SOL    HW2 2313   2.185   2.619   4.595
  472SOL     OW 2314   5.584   4.038   6.161
  472SOL    HW1 2315   5.562   3.952   6.114
  472SOL    HW2 2316   5.505   4.099   6.159
  473SOL     OW 2317   0.087   2.888   2.050
  473SOL    HW1 2318   7.014   2.912   2.021
  473SOL    HW2 2319   0.129   2.967   2.096
  474SOL     OW 2320   4.987   6.223   3.872
  474SOL    HW1 2321   4.980   6.317   3.838
  474SOL    HW2 2322   4.897   6.181   3.874
  475SOL     OW 2323   6.071   1.780   0.684
  475SOL    HW1 2324   6.144   1.752   0.622
  475SOL    HW2 2325   6.069   1.880   0.691
  476SOL     OW 2326   0.900   4.657   1.320
  476SOL    HW1 2327   0.845   4.735   1.290
  476SOL    HW2 2328   0.996   4.684   1.323
  477SOL     OW 2329   1.285   4.604   3.940
  477SOL    HW1 2330   1.202   4.658   3.949
  477SOL    HW2 2331   1.284   4.530   4.007
  478SOL     OW 2332   4.831   5.977   1.518
  478SOL    HW1 2333   4.858   5.976   1.614
  478SOL    HW2 2334   4.893   6.037   1.466
  479SOL     OW 2335   3.514   3.787   3.508
  479SOL    HW1 2336   3.437   3.779   3.446
  479SOL    HW2 2337   3.529   3.700   3.554
  480SOL     OW 2338   1.749   0.072   3.082
  480SOL    HW1 2339   1.680   0.014   3.040
  480SOL    HW2 2340   1.789   0.025   3.161
  481SOL     OW 2341   0.203   6.891   0.814
  481SOL    HW1 2342   0.189   6.879   0.912
  481SOL    HW2 2343   0.292   6.933   0.797
  482SOL     OW 2344   4.222   5.550   1.424
  482SOL    HW1 2345   4.168   5.587   1.349
  482SOL    HW2 2346   4.293   5.616   1.450
  483SOL     OW 2347   5.273   1.913   3.554
  483SOL    HW1 2348   5.316   1.995   3.517
  483SOL    HW2 2349   5.320   1.832   3.519
  484SOL     OW 2350   2.160   4.150   4.488
  484SOL    HW1 2351   2.091   4.183   4.552
  484SOL    HW2 2352   2.235   4.216   4.484
  485SOL     OW 2353   5.274   3.110   1.680
  485SOL    HW1 2354   5.324   3.058   1.611
  485SOL    HW2 2355   5.195   3.155   1.637
  486SOL     OW 2356   6.240   6.205   6.331
  486SOL    HW1 2357   6.186   6.167   6.405
  486SOL    HW2 2358   6.236   6.305   6.335
  487SOL     OW 2359   6.718   6.905   5.432
  487SOL    HW1 2360   6.765   6.975   5.486
  487SOL    HW2 2361   6.766   6.818   5.441
  488SOL     OW 2362   1.544   5.725   2.919
  488SOL    HW1 2363   1.570   5.808   2.870
  488SOL    HW2 2364   1.624   5.684   2.962
  489SOL     OW 2365   0.880   5.866   5.870
  489SOL    HW1 2366   0.842   5.955   5.846
  489SOL    HW2 2367   0.805   5.801   5.886
  490SOL     OW 2368   1.232   4.133   5.671
  490SOL    HW1 2369   1.312   4.188   5.645
  490SOL    HW2 2370   1.259   4.037   5.679
  491SOL     OW 2371   0.480   2.437   0.340
  491SOL    HW1 2372   0.402   2.474   0.390
  491SOL    HW2 2373   0.484   2.338   0.353
  492SOL     OW 2374   1.686   2.167   5.828
  492SOL    HW1 2375   1.587   2.154   5.841
  492SOL    HW2 2376   1.704   2.262   5.803
  493SOL     OW 2377   2.384   5.703   4.634
  493SOL    HW1 2378   2.448   5.626   4.627
  493SOL    HW2 2379   2.341   5.719   4.546
  494SOL     OW 2380   2.679   6.136   5.184
  494SOL    HW1 2381   2.692   6.126   5.085
  494SOL    HW2 2382   2.738   6.208   5.218
  495SOL     OW 2383   3.759   4.768   5.844
  495SOL    HW1 2384   3.790   4.786   5.751
  495SOL    HW2 2385   3.664   4.739   5.843
  496SOL     OW 2386   5.201   1.675   2.804
  496SOL    HW1 2387   5.104   1.698   2.794
  496SOL    HW2 2388   5.240   1.726   2.881
  497SOL     OW 2389   3.241   1.371   0.250
  497SOL    HW1 2390   3.288   1.313   0.183
  497SOL    HW2 2391   3.270   1.345   0.342
  498SOL     OW 2392   0.887   6.556   1.578
  498SOL    HW1 2393   0.902   6.470   1.530
  498SOL    HW2 2394   0.955   6.567   1.650
  499SOL     OW 2395   2.729   6.059   6.412
  499SOL    HW1 2396   2.675   6.107   6.481
  499SOL    HW2 2397   2.808   6.116   6.387
  500SOL     OW 2398   6.170   2.471   0.117
  500SOL    HW1 2399   6.196   2.495   0.023
  500SOL    HW2 2400   6.195   2.544   0.179
  501SOL     OW 2401   0.977   0.658   3.729
  501SOL    HW1 2402   1.033   0.702   3.798
  501SOL    HW2 2403   1.005   0.689   3.638
  502SOL     OW 2404   2.262   5.173   6.582
  502SOL    HW1 2405   2.187   5.223   6.624
  502SOL    HW2 2406   2.339   5.168   6.646
  503SOL     OW 2407   3.953   4.784   6.903
  503SOL    HW1 2408   3.959   4.771   6.804
  503SOL    HW2 2409   3.859   4.803   6.928
  504SOL     OW 2410   5.880   6.517   2.174
  504SOL    HW1 2411   5.798   6.543   2.225
  504SOL    HW2 2412   5.940   6.596   2.163
  505SOL     OW 2413   5.169   6.702   5.106
  505SOL    HW1 2414   5.071   6.683   5.110
  505SOL    HW2 2415   5.200   6.741   5.193
  506SOL     OW 2416   4.235   5.217   2.944
  506SOL    HW1 2417   4.272   5.283   2.878
  506SOL    HW2 2418   4.262   5.244   3.037
  507SOL     OW 2419   3.295   0.814   0.596
  507SOL    HW1 2420   3.246   0.762   0.526
  507SOL    HW2 2421   3.267   0.782   0.687
  508SOL     OW 2422   7.005   5.138   3.604
  508SOL    HW1 2423   0.002   5.237   3.609
  508SOL    HW2 2424   6.907   5.121   3.589
  509SOL     OW 2425   4.647   6.974   5.700
  509SOL    HW1 2426   4.655   6.922   5.615
  509SOL    HW2 2427   4.552   6.969   5.733
  510SOL     OW 2428   6.843   3.688   0.299
  510SOL    HW1 2429   6.744   3.691   0.311
  510SOL    HW2 2430   6.869   3.597   0.266
  511SOL     OW 2431   0.966   2.006   0.587
  511SOL    HW1 2432   0.871   1.976   0.578
  511SOL    HW2 2433   1.012   1.952   0.658
  512SOL     OW 2434   6.558   2.523   5.672
  512SOL    HW1 2435   6.600   2.444   5.716
  512SOL    HW2 2436   6.561   2.601   5.733
  513SOL     OW 2437   5.331   0.778   2.546
  513SOL    HW1 2438   5.258   0.719   2.581
  513SOL    HW2 2439   5.292   0.864   2.515
  514SOL     OW 2440   6.454   6.572   3.930
  514SOL    HW1 2441   6.411   6.637   3.867
  514SOL    HW2 2442   6.538   6.611   3.966
  515SOL     OW 2443   3.809   0.194   6.459
  515SOL    HW1 2444   3.858   0.227   6.378
  515SOL    HW2 2445   3.773   0.272   6.510
  516SOL     OW 2446   2.412   5.784   1.561
  516SOL    HW1 2447   2.333   5.835   1.595
  516SOL    HW2 2448   2.463   5.842   1.497
  517SOL     OW 2449   3.213   5.383   1.963
  517SOL    HW1 2450   3.207   5.443   1.883
  517SOL    HW2 2451   3.258   5.298   1.938
  518SOL     OW 2452   2.148   3.281   3.674
  518SOL    HW1 2453   2.071   3.245   3.726
  518SOL    HW2 2454   2.121   3.291   3.578
  519SOL     OW 2455   0.378   6.925   3.083
  519SOL    HW1 2456   0.367   6.825   3.086
  519SOL    HW2 2457   0.299   6.969   3.125
  520SOL     OW 2458   0.992   3.047   0.313
  520SOL    HW1 2459   1.037   2.978   0.257
  520SOL    HW2 2460   0.997   3.020   0.409
  521SOL     OW 2461   6.180   5.627   4.613
  521SOL    HW1 2462   6.193   5.582   4.525
  521SOL    HW2 2463   6.098   5.591   4.657
  522SOL     OW 2464   4.014   3.881   1.441
  522SOL    HW1 2465   3.955   3.855   1.365
  522SOL    HW2 2466   3.970   3.952   1.496
  523SOL     OW 2467   0.589   6.502   1.570
  523SOL    HW1 2468   0.525   6.564   1.615
  523SOL    HW2 2469   0.682   6.538   1.577
  524SOL     OW 2470   0.010   2.274   1.814
  524SOL    HW1 2471   6.952   2.334   1.833
  524SOL    HW2 2472   0.085   2.295   1.877
  525SOL     OW 2473   1.819   3.559   5.998
  525SOL    HW1 2474   1.822   3.536   5.901
  525SOL    HW2 2475   1.900   3.613   6.021
  526SOL     OW 2476   2.826   6.787   4.200
  526SOL    HW1 2477   2.914   6.829   4.222
  526SOL    HW2 2478   2.831   6.744   4.110
  527SOL     OW 2479   0.786   1.676   0.453
  527SOL    HW1 2480   0.822   1.767   0.435
  527SOL    HW2 2481   0.861   1.611   0.464
  528SOL     OW 2482   6.748   3.266   4.371
  528SOL    HW1 2483   6.839   3.274   4.410
  528SOL    HW2 2484   6.729   3.346   4.314
  529SOL     OW 2485   1.935   0.471   6.484
  529SOL    HW1 2486   2.034   0.461   6.492
  529SOL    HW2 2487   1.890   0.406   6.546
  530SOL     OW 2488   3.959   3.699   0.748
  530SOL    HW1 2489   3.895   3.689   0.824
  530SOL    HW2 2490   3.944   3.624   0.683
  531SOL     OW 2491   1.513   0.420   1.372
  531SOL    HW1 2492   1.598   0.375   1.344
  531SOL    HW2 2493   1.533   0.509   1.413
  532SOL     OW 2494   2.800   2.065   1.095
  532SOL    HW1 2495   2.809   2.118   1.011
  532SOL    HW2 2496   2.823   2.123   1.174
  533SOL     OW 2497   3.517   0.546   4.392
  533SOL    HW1 2498   3.526   0.447   4.389
  533SOL    HW2 2499   3.536   0.583   4.301
  534SOL     OW 2500   0.995   5.192   1.431
  534SOL    HW1 2501   0.966   5.213   1.525
  534SOL    HW2 2502   1.045   5.106   1.431
  535SOL     OW 2503   5.114   3.581   4.009
  535SOL    HW1 2504   5.152   3.489   4.002
  535SOL    HW2 2505   5.026   3.577   4.057
  536SOL     OW 2506   6.383   5.998   2.315
  536SOL    HW1 2507   6.384   6.009   2.216
  536SOL    HW2 2508   6.476   6.005   2.351
  537SOL     OW 2509   2.802   1.320   4.532
  537SOL    HW1 2510   2.783   1.418   4.538
  537SOL    HW2 2511   2.820   1.295   4.437
  538SOL     OW 2512   2.701   4.625   5.558
  538SOL    HW1 2513   2.685   4.714   5.601
  538SOL    HW2 2514   2.694   4.634   5.459
  539SOL     OW 2515   1.158   6.881   0.116
  539SOL    HW1 2516   1.215   6.889   0.198
  539SOL    HW2 2517   1.071   6.836   0.140
  540SOL     OW 2518   0.758   0.642   3.934
  540SOL    HW1 2519   0.720   0.559   3.894
  540SOL    HW2 2520   0.836   0.673   3.879
  541SOL     OW 2521   4.448   6.287   4.314
  541SOL    HW1 2522   4.350   6.288   4.328
  541SOL    HW2 2523   4.494   6.338   4.387
  542SOL     OW 2524   3.096   0.164   6.624
  542SOL    HW1 2525   3.131   0.079   6.663
  542SOL    HW2 2526   3.041   0.143   6.543
  543SOL     OW 2527   5.622   2.210   4.226
  543SOL    HW1 2528   5.562   2.132   4.210
  543SOL    HW2 2529   5.715   2.187   4.197
  544SOL     OW 2530   1.353   3.766   1.218
  544SOL    HW1 2531   1.300   3.816   1.149
  544SOL    HW2 2532   1.444   3.747   1.182
  545SOL     OW 2533   6.030   1.653   1.173
  545SOL    HW1 2534   5.937   1.632   1.145
  545SOL    HW2 2535   6.056   1.743   1.137
  546SOL     OW 2536   0.506   3.843   2.522
  546SOL    HW1 2537   0.463   3.933   2.521
  546SOL    HW2 2538   0.469   3.789   2.597
  547SOL     OW 2539   4.118   1.608   6.349
  547SOL    HW1 2540   4.131   1.592   6.251
  547SOL    HW2 2541   4.087   1.524   6.393
  548SOL     OW 2542   3.160   3.036   6.850
  548SOL    HW1 2543   3.124   2.977   6.778
  548SOL    HW2 2544   3.085   3.084   6.895
  549SOL     OW 2545   6.146   2.307   0.872
  549SOL    HW1 2546   6.123   2.404   0.869
  549SOL    HW2 2547   6.182   2.284   0.963
  550SOL     OW 2548   0.087   5.680   3.114
  550SOL    HW1 2549   0.042   5.722   3.035
  550SOL    HW2 2550   0.104   5.750   3.183
  551SOL     OW 2551   6.212   1.213   0.274
  551SOL    HW1 2552   6.274   1.212   0.352
  551SOL    HW2 2553   6.260   1.184   0.192
  552SOL     OW 2554   6.097   5.312   5.461
  552SOL    HW1 2555   6.039   5.383   5.422
  552SOL    HW2 2556   6.192   5.343   5.463
  553SOL     OW 2557   3.253   0.888   5.348
  553SOL    HW1 2558   3.204   0.885   5.261
  553SOL    HW2 2559   3.233   0.806   5.401
  554SOL     OW 2560   5.972   5.938   0.819
  554SOL    HW1 2561   5.930   5.959   0.907
  554SOL    HW2 2562   5.912   5.968   0.745
  555SOL     OW 2563   2.206   4.629   6.023
  555SOL    HW1 2564   2.161   4.593   6.105
  555SOL    HW2 2565   2.162   4.590   5.942
  556SOL     OW 2566   4.911   1.230   3.561
  556SOL    HW1 2567   4.830   1.193   3.516
  556SOL    HW2 2568   4.967   1.278   3.494
  557SOL     OW 2569   6.485   4.280   6.225
  557SOL    HW1 2570   6.523   4.373   6.219
  557SOL    HW2 2571   6.388   4.285   6.250
  558SOL     OW 2572   3.437   3.721   2.413
  558SOL    HW1 2573   3.398   3.808   2.441
  558SOL    HW2 2574   3.533   3.717   2.441
  559SOL     OW 2575   6.194   6.520   5.564
  559SOL    HW1 2576   6.205   6.541   5.467
  559SOL    HW2 2577   6.178   6.422   5.576
  560SOL     OW 2578   6.459   3.351   2.782
  560SOL    HW1 2579   6.426   3.407   2.706
  560SOL    HW2 2580   6.538   3.298   2.752
  561SOL     OW 2581   0.988   3.000   6.493
  561SOL    HW1 2582   0.938   2.935   6.436
  561SOL    HW2 2583   1.043   3.059   6.435
  562SOL     OW 2584   3.887   0.458   5.584
  562SOL    HW1 2585   3.924   0.418   5.500
  562SOL    HW2 2586   3.890   0.391   5.657
  563SOL     OW 2587   1.654   2.253   4.196
  563SOL    HW1 2588   1.627   2.213   4.283
  563SOL    HW2 2589   1.599   2.213   4.122
  564SOL     OW 2590   0.244   1.963   5.026
  564SOL    HW1 2591   0.189   2.030   5.075
  564SOL    HW2 2592   0.337   1.962   5.062
  565SOL     OW 2593   3.479   3.372   3.453
  565SOL    HW1 2594   3.494   3.297   3.389
  565SOL    HW2 2595   3.404   3.430   3.421
  566SOL     OW 2596   3.103   6.365   3.004
  566SOL    HW1 2597   3.142   6.287   3.053
  566SOL    HW2 2598   3.042   6.332   2.932
  567SOL     OW 2599   2.208   3.161   6.659
  567SOL    HW1 2600   2.273   3.102   6.707
  567SOL    HW2 2601   2.220   3.255   6.691
  568SOL     OW 2602   6.834   0.037   0.781
  568SOL    HW1 2603   6.868   0.050   0.874
  568SOL    HW2 2604   6.832   0.125   0.734
  569SOL     OW 2605   0.065   1.879   0.400
  569SOL    HW1 2606   7.000   1.860   0.350
  569SOL    HW2 2607   0.143   1.848   0.346
  570SOL     OW 2608   2.788   0.295   5.808
  570SOL    HW1 2609   2.847   0.326   5.733
  570SOL    HW2 2610   2.692   0.297   5.779
  571SOL     OW 2611   2.614   5.001   2.662
  571SOL    HW1 2612   2.642   4.910   2.693
  571SOL    HW2 2613   2.664   5.071   2.714
  572SOL     OW 2614   2.310   6.794   4.196
  572SOL    HW1 2615   2.231   6.850   4.172
  572SOL    HW2 2616   2.390   6.852   4.210
  573SOL     OW 2617   6.949   1.478   5.443
  573SOL    HW1 2618   6.983   1.534   5.368
  573SOL    HW2 2619   6.929   1.386   5.408
  574SOL     OW 2620   2.651   1.666   5.559
  574SOL    HW1 2621   2.597   1.584   5.578
  574SOL    HW2 2622   2.659   1.678   5.460
  575SOL     OW 2623   3.068   3.493   0.785
  575SOL    HW1 2624   3.137   3.433   0.744
  575SOL    HW2 2625   3.009   3.440   0.845
  576SOL     OW 2626   1.882   3.121   2.981
  576SOL    HW1 2627   1.887   3.030   2.939
  576SOL    HW2 2628   1.941   3.125   3.061
  577SOL     OW 2629   0.928   1.423   1.713
  577SOL    HW1 2630   0.992   1.362   1.666
  577SOL    HW2 2631   0.905   1.384   1.802
  578SOL     OW 2632   1.967   5.395   6.487
  578SOL    HW1 2633   1.982   5.308   6.535
  578SOL    HW2 2634   1.918   5.458   6.548
  579SOL     OW 2635   2.496   4.487   2.261
  579SOL    HW1 2636   2.501   4.586   2.277
  579SOL    HW2 2637   2.534   4.466   2.171
  580SOL     OW 2638   4.343   5.164   5.067
  580SOL    HW1 2639   4.392   5.077   5.070
  580SOL    HW2 2640   4.409   5.239   5.074
  581SOL     OW 2641   1.508   3.134   3.969
  581SOL    HW1 2642   1.575   3.197   3.931
  581SOL    HW2 2643   1.555   3.067   4.027
  582SOL     OW 2644   5.191   5.270   3.703
  582SOL    HW1 2645   5.284   5.234   3.712
  582SOL    HW2 2646   5.195   5.370   3.698
  583SOL     OW 2647   3.241   4.785   5.863
  583SOL    HW1 2648   3.262   4.834   5.778
  583SOL    HW2 2649   3.148   4.748   5.858
  584SOL     OW 2650   4.370   0.765   6.914
  584SOL    HW1 2651   4.334   0.710   6.839
  584SOL    HW2 2652   4.307   0.840   6.934
  585SOL     OW 2653   2.668   6.392   1.567
  585SOL    HW1 2654   2.747   6.335   1.544
  585SOL    HW2 2655   2.677   6.482   1.524
  586SOL     OW 2656   4.444   6.896   1.123
  586SOL    HW1 2657   4.534   6.882   1.081
  586SOL    HW2 2658   4.451   6.877   1.221
  587SOL     OW 2659   5.441   2.156   1.959
  587SOL    HW1 2660   5.380   2.105   2.020
  587SOL    HW2 2661   5.437   2.253   1.982
  588SOL     OW 2662   1.149   5.645   2.044
  588SOL    HW1 2663   1.127   5.735   2.081
  588SOL    HW2 2664   1.136   5.646   1.945
  589SOL     OW 2665   3.577   6.083   1.380
  589SOL    HW1 2666   3.572   6.179   1.407
  589SOL    HW2 2667   3.503   6.063   1.316
  590SOL     OW 2668   4.786   1.389   7.012
  590SOL    HW1 2669   4.769   1.331   0.073
  590SOL    HW2 2670   4.884   1.403   7.002
  591SOL     OW 2671   4.264   6.076   4.545
  591SOL    HW1 2672   4.286   6.033   4.457
  591SOL    HW2 2673   4.267   6.175   4.535
  592SOL     OW 2674   4.424   2.282   4.551
  592SOL    HW1 2675   4.419   2.298   4.649
  592SOL    HW2 2676   4.499   2.335   4.512
  593SOL     OW 2677   3.468   1.765   5.394
  593SOL    HW1 2678   3.423   1.681   5.363
  593SOL    HW2 2679   3.536   1.742   5.464
  594SOL     OW 2680   6.257   1.459   1.560
  594SOL    HW1 2681   6.179   1.505   1.519
  594SOL    HW2 2682   6.288   1.385   1.500
  595SOL     OW 2683   5.272   6.148   2.679
  595SOL    HW1 2684   5.263   6.050   2.666
  595SOL    HW2 2685   5.221   6.176   2.761
  596SOL     OW 2686   6.752   4.241   3.923
  596SOL    HW1 2687   6.846   4.221   3.948
  596SOL    HW2 2688   6.689   4.194   3.986
  597SOL     OW 2689   2.907   0.146   6.434
  597SOL    HW1 2690   2.814   0.174   6.456
  597SOL    HW2 2691   2.904   0.058   6.385
  598SOL     OW 2692   2.944   3.176   4.781
  598SOL    HW1 2693   2.988   3.131   4.859
  598SOL    HW2 2694   2.884   3.111   4.735
  599SOL     OW 2695   1.044   6.080   1.918
  599SOL    HW1 2696   1.120   6.094   1.854
  599SOL    HW2 2697   1.065   6.002   1.977
  600SOL     OW 2698   6.968   4.046   5.098
  600SOL    HW1 2699   0.042   4.022   5.069
  600SOL    HW2 2700   6.911   3.964   5.098
  601SOL     OW 2701   1.355   0.784   5.135
  601SOL    HW1 2702   1.257   0.762   5.134
  601SOL    HW2 2703   1.407   0.704   5.165
  602SOL     OW 2704   3.054   6.062   4.485
  602SOL    HW1 2705   3.151   6.089   4.483
  602SOL    HW2 2706   3.003   6.118   4.420
  603SOL     OW 2707   1.814   0.917   5.456
  603SOL    HW1 2708   1.733   0.919   5.398
  603SOL    HW2 2709   1.792   0.958   5.545
  604SOL     OW 2710   6.545   2.526   1.919
  604SOL    HW1 2711   6.513   2.598   1.856
  604SOL    HW2 2712   6.474   2.457   1.929
  605SOL     OW 2713   6.956   5.145   2.372
  605SOL    HW1 2714   6.874   5.142   2.315
  605SOL    HW2 2715   6.999   5.055   2.373
  606SOL     OW 2716   3.592   0.375   4.867
  606SOL    HW1 2717   3.660   0.311   4.903
  606SOL    HW2 2718   3.639   0.450   4.819
  607SOL     OW 2719   1.223   4.878   6.263
  607SOL    HW1 2720   1.207   4.782   6.288
  607SOL    HW2 2721   1.186   4.895   6.172
  608SOL     OW 2722   3.432   0.483   5.598
  608SOL    HW1 2723   3.358   0.417   5.590
  608SOL    HW2 2724   3.433   0.541   5.517
  609SOL     OW 2725   4.018   2.623   1.696
  609SOL    HW1 2726   3.997   2.719   1.716
  609SOL    HW2 2727   4.046   2.614   1.601
  610SOL     OW 2728   4.663   3.571   0.667
  610SOL    HW1 2729   4.656   3.526   0.756
  610SOL    HW2 2730   4.711   3.511   0.603
  611SOL     OW 2731   3.719   0.061   2.064
  611SOL    HW1 2732   3.801   0.110   2.094
  611SOL    HW2 2733   3.638   0.111   2.095
  612SOL     OW 2734   3.918   4.558   5.815
  612SOL    HW1 2735   3.916   4.529   5.719
  612SOL    HW2 2736   3.852   4.632   5.829
  613SOL     OW 2737   4.492   5.436   5.232
  613SOL    HW1 2738   4.562   5.489   5.279
  613SOL    HW2 2739   4.410   5.430   5.289
  614SOL     OW 2740   5.118   5.747   5.867
  614SOL    HW1 2741   5.057   5.670   5.847
  614SOL    HW2 2742   5.161   5.779   5.783
  615SOL     OW 2743   0.374   4.970   1.015
  615SOL    HW1 2744   0.308   4.945   1.086
  615SOL    HW2 2745   0.327   4.976   0.927
  616SOL     OW 2746   5.855   2.991   3.180
  616SOL    HW1 2747   5.827   2.982   3.276
  616SOL    HW2 2748   5.777   3.022   3.125
  617SOL     OW 2749   2.538   5.391   6.130
  617SOL    HW1 2750   2.638   5.388   6.130
  617SOL    HW2 2751   2.502   5.304   6.164
  618SOL     OW 2752   1.196   1.227   1.965
  618SOL    HW1 2753   1.270   1.160   1.975
  618SOL    HW2 2754   1.173   1.264   2.054
  619SOL     OW 2755   0.907   1.296   6.507
  619SOL    HW1 2756   0.986   1.356   6.518
  619SOL    HW2 2757   0.862   1.284   6.595
  620SOL     OW 2758   4.827   3.431   0.202
  620SOL    HW1 2759   4.750   3.398   0.147
  620SOL    HW2 2760   4.912   3.419   0.151
  621SOL     OW 2761   0.576   4.746   0.538
  621SOL    HW1 2762   0.502   4.810   0.563
  621SOL    HW2 2763   0.654   4.798   0.504
  622SOL     OW 2764   2.108   1.461   0.247
  622SOL    HW1 2765   2.204   1.488   0.243
  622SOL    HW2 2766   2.061   1.515   0.316
  623SOL     OW 2767   0.677   4.831   6.290
  623SOL    HW1 2768   0.672   4.909   6.353
  623SOL    HW2 2769   0.751   4.847   6.224
  624SOL     OW 2770   1.016   2.922   2.983
  624SOL    HW1 2771   1.025   2.944   3.080
  624SOL    HW2 2772   1.061   2.835   2.965
  625SOL     OW 2773   2.834   1.313   2.269
  625SOL    HW1 2774   2.923   1.283   2.303
  625SOL    HW2 2775   2.831   1.413   2.267
  626SOL     OW 2776   1.898   6.556   4.278
  626SOL    HW1 2777   1.902   6.624   4.205
  626SOL    HW2 2778   1.991   6.524   4.299
  627SOL     OW 2779   5.401   0.700   0.504
  627SOL    HW1 2780   5.323   0.708   0.565
  627SOL    HW2 2781   5.467   0.773   0.526
  628SOL     OW 2782   4.814   4.274   4.381
  628SOL    HW1 2783   4.792   4.182   4.412
  628SOL    HW2 2784   4.744   4.338   4.414
  629SOL     OW 2785   0.332   0.125   1.315
  629SOL    HW1 2786   0.324   0.207   1.259
  629SOL    HW2 2787   0.425   0.089   1.309
  630SOL     OW 2788   4.189   1.520   0.990
  630SOL    HW1 2789   4.153   1.527   1.083
  630SOL    HW2 2790   4.281   1.480   0.994
  631SOL     OW 2791   2.324   6.861   5.662
  631SOL    HW1 2792   2.272   6.931   5.711
  631SOL    HW2 2793   2.412   6.900   5.632
  632SOL     OW 2794   2.441   0.973   1.029
  632SOL    HW1 2795   2.446   1.073   1.023
  632SOL    HW2 2796   2.348   0.946   1.054
  633SOL     OW 2797   3.214   6.587   6.725
  633SOL    HW1 2798   3.298   6.597   6.778
  633SOL    HW2 2799   3.235   6.595   6.628
  634SOL     OW 2800   4.068   5.841   1.067
  634SOL    HW1 2801   4.031   5.786   0.992
  634SOL    HW2 2802   4.036   5.935   1.058
  635SOL     OW 2803   2.761   0.112   2.805
  635SOL    HW1 2804   2.819   0.078   2.731
  635SOL    HW2 2805   2.681   0.053   2.815
  636SOL     OW 2806   4.991   5.260   6.652
  636SOL    HW1 2807   5.084   5.224   6.647
  636SOL    HW2 2808   4.947   5.251   6.563
  637SOL     OW 2809   5.039   4.827   1.258
  637SOL    HW1 2810   4.970   4.805   1.190
  637SOL    HW2 2811   5.088   4.743   1.283
  638SOL     OW 2812   4.747   1.110   1.896
  638SOL    HW1 2813   4.667   1.149   1.941
  638SOL    HW2 2814   4.818   1.093   1.964
  639SOL     OW 2815   4.068   4.802   2.146
  639SOL    HW1 2816   4.075   4.752   2.060
  639SOL    HW2 2817   3.972   4.815   2.169
  640SOL     OW 2818   3.119   4.154   5.038
  640SOL    HW1 2819   3.093   4.244   5.073
  640SOL    HW2 2820   3.113   4.155   4.938
  641SOL     OW 2821   6.887   5.877   4.980
  641SOL    HW1 2822   6.809   5.855   4.922
  641SOL    HW2 2823   6.856   5.930   5.058
  642SOL     OW 2824   0.513   4.959   4.823
  642SOL    HW1 2825   0.418   4.981   4.843
  642SOL    HW2 2826   0.571   4.986   4.900
  643SOL     OW 2827   6.204   5.329   6.011
  643SOL    HW1 2828   6.216   5.408   6.070
  643SOL    HW2 2829   6.108   5.321   5.984
  644SOL     OW 2830   0.781   6.523   2.756
  644SOL    HW1 2831   0.717   6.450   2.775
  644SOL    HW2 2832   0.760   6.602   2.815
  645SOL     OW 2833   5.308   2.755   4.103
  645SOL    HW1 2834   5.355   2.762   4.191
  645SOL    HW2 2835   5.317   2.661   4.068
  646SOL     OW 2836   1.342   1.237   4.663
  646SOL    HW1 2837   1.294   1.167   4.716
  646SOL    HW2 2838   1.327   1.326   4.706
  647SOL     OW 2839   6.114   2.965   0.253
  647SOL    HW1 2840   6.077   2.904   0.323
  647SOL    HW2 2841   6.094   2.928   0.163
  648SOL     OW 2842   5.629   4.351   2.036
  648SOL    HW1 2843   5.660   4.256   2.032
  648SOL    HW2 2844   5.646   4.396   1.948
  649SOL     OW 2845   4.262   4.680   0.962
  649SOL    HW1 2846   4.298   4.767   0.998
  649SOL    HW2 2847   4.321   4.605   0.990
  650SOL     OW 2848   4.777   4.259   0.456
  650SOL    HW1 2849   4.847   4.328   0.473
  650SOL    HW2 2850   4.817   4.168   0.466
  651SOL     OW 2851   0.863   5.932   0.725
  651SOL    HW1 2852   0.778   5.921   0.778
  651SOL    HW2 2853   0.941   5.931   0.787
  652SOL     OW 2854   4.557   1.552   2.617
  652SOL    HW1 2855   4.570   1.618   2.691
  652SOL    HW2 2856   4.496   1.479   2.648
  653SOL     OW 2857   3.845   4.971   4.052
  653SOL    HW1 2858   3.765   4.948   3.997
  653SOL    HW2 2859   3.918   5.004   3.992
  654SOL     OW 2860   0.136   4.734   6.757
  654SOL    HW1 2861   0.205   4.684   6.810
  654SOL    HW2 2862   0.075   4.668   6.711
  655SOL     OW 2863   0.832   0.550   0.869
  655SOL    HW1 2864   0.832   0.494   0.786
  655SOL    HW2 2865   0.827   0.490   0.949
  656SOL     OW 2866   2.377   6.566   2.659
  656SOL    HW1 2867   2.288   6.521   2.651
  656SOL    HW2 2868   2.370   6.660   2.626
  657SOL     OW 2869   3.642   1.445   0.511
  657SOL    HW1 2870   3.721   1.384   0.507
  657SOL    HW2 2871   3.587   1.422   0.591
  658SOL     OW 2872   2.960   4.004   0.037
  658SOL    HW1 2873   2.971   3.910   0.071
  658SOL    HW2 2874   2.912   4.002   6.969
  659SOL     OW 2875   3.178   6.890   0.079
  659SOL    HW1 2876   3.148   6.972   0.029
  659SOL    HW2 2877   3.150   6.809   0.029
  660SOL     OW 2878   3.623   5.269   2.626
  660SOL    HW1 2879   3.573   5.216   2.694
  660SOL    HW2 2880   3.715   5.231   2.615
  661SOL     OW 2881   4.027   5.691   3.041
  661SOL    HW1 2882   4.016   5.724   2.947
  661SOL    HW2 2883   4.012   5.592   3.043
  662SOL     OW 2884   3.333   1.396   6.168
  662SOL    HW1 2885   3.373   1.459   6.102
  662SOL    HW2 2886   3.240   1.372   6.139
  663SOL     OW 2887   2.642   5.173   5.305
  663SOL    HW1 2888   2.576   5.229   5.256
  663SOL    HW2 2889   2.708   5.134   5.240
  664SOL     OW 2890   6.771   0.257   6.836
  664SOL    HW1 2891   6.841   0.253   6.765
  664SOL    HW2 2892   6.758   0.166   6.876
  665SOL     OW 2893   2.650   5.518   3.365
  665SOL    HW1 2894   2.602   5.469   3.438
  665SOL    HW2 2895   2.674   5.453   3.292
  666SOL     OW 2896   3.707   0.358   1.753
  666SOL    HW1 2897   3.728   0.360   1.851
  666SOL    HW2 2898   3.726   0.448   1.714
  667SOL     OW 2899   0.969   6.447   1.949
  667SOL    HW1 2900   0.947   6.410   2.039
  667SOL    HW2 2901   0.886   6.449   1.893
  668SOL     OW 2902   5.624   4.462   6.083
  668SOL    HW1 2903   5.692   4.434   6.015
  668SOL    HW2 2904   5.619   4.392   6.154
  669SOL     OW 2905   5.417   1.271   2.632
  669SOL    HW1 2906   5.379   1.364   2.627
  669SOL    HW2 2907   5.342   1.205   2.623
  670SOL     OW 2908   1.290   2.345   3.578
  670SOL    HW1 2909   1.237   2.421   3.616
  670SOL    HW2 2910   1.355   2.313   3.646
  671SOL     OW 2911   2.213   6.213   1.458
  671SOL    HW1 2912   2.150   6.206   1.535
  671SOL    HW2 2913   2.181   6.155   1.383
  672SOL     OW 2914   0.423   6.438   1.833
  672SOL    HW1 2915   0.360   6.505   1.795
  672SOL    HW2 2916   0.439   6.459   1.930
  673SOL     OW 2917   5.425   6.378   1.029
  673SOL    HW1 2918   5.437   6.469   0.989
  673SOL    HW2 2919   5.334   6.343   1.006
  674SOL     OW 2920   6.885   1.363   4.916
  674SOL    HW1 2921   6.871   1.307   4.998
  674SOL    HW2 2922   6.981   1.358   4.889
  675SOL     OW 2923   5.995   2.475   2.555
  675SOL    HW1 2924   6.022   2.454   2.649
  675SOL    HW2 2925   5.907   2.522   2.555
  676SOL     OW 2926   2.199   4.573   5.395
  676SOL    HW1 2927   2.155   4.585   5.484
  676SOL    HW2 2928   2.297   4.556   5.408
  677SOL     OW 2929   4.611   1.193   1.254
  677SOL    HW1 2930   4.595   1.160   1.160
  677SOL    HW2 2931   4.627   1.114   1.314
  678SOL     OW 2932   2.405   4.154   5.607
  678SOL    HW1 2933   2.425   4.127   5.513
  678SOL    HW2 2934   2.318   4.113   5.636
  679SOL     OW 2935   4.939   1.371   5.228
  679SOL    HW1 2936   4.954   1.335   5.136
  679SOL    HW2 2937   4.856   1.427   5.228
  680SOL     OW 2938   5.193   6.970   4.026
  680SOL    HW1 2939   5.168   6.978   3.929
  680SOL    HW2 2940   5.110   6.971   4.082
  681SOL     OW 2941   5.200   6.029   2.138
  681SOL    HW1 2942   5.243   6.119   2.144
  681SOL    HW2 2943   5.242   5.967   2.204
  682SOL     OW 2944   0.963   1.265   2.582
  682SOL    HW1 2945   1.034   1.196   2.572
  682SOL    HW2 2946   0.930   1.293   2.492
  683SOL     OW 2947   4.159   3.763   1.067
  683SOL    HW1 2948   4.197   3.751   1.158
  683SOL    HW2 2949   4.194   3.692   1.006
  684SOL     OW 2950   6.249   0.171   6.403
  684SOL    HW1 2951   6.210   0.121   6.326
  684SOL    HW2 2952   6.294   0.253   6.369
  685SOL     OW 2953   3.522   0.934   3.356
  685SOL    HW1 2954   3.562   0.942   3.447
  685SOL    HW2 2955   3.482   1.022   3.330
  686SOL     OW 2956   3.976   1.268   4.280
  686SOL    HW1 2957   4.053   1.312   4.235
  686SOL    HW2 2958   4.009   1.196   4.342
  687SOL     OW 2959   1.297   1.924   4.597
  687SOL    HW1 2960   1.263   1.877   4.516
  687SOL    HW2 2961   1.225   1.982   4.635
  688SOL     OW 2962   6.657   1.599   6.571
  688SOL    HW1 2963   6.653   1.500   6.575
  688SOL    HW2 2964   6.614   1.638   6.653
  689SOL     OW 2965   1.494   5.072   5.435
  689SOL    HW1 2966   1.414   5.092   5.491
  689SOL    HW2 2967   1.577   5.095   5.486
  690SOL     OW 2968   6.348   3.759   2.669
  690SOL    HW1 2969   6.332   3.688   2.737
  690SOL    HW2 2970   6.273   3.824   2.670
  691SOL     OW 2971   4.049   1.719   6.837
  691SOL    HW1 2972   4.148   1.732   6.840
  691SOL    HW2 2973   4.020   1.670   6.920
  692SOL     OW 2974   2.891   1.633   5.151
  692SOL    HW1 2975   2.922   1.644   5.246
  692SOL    HW2 2976   2.921   1.711   5.097
  693SOL     OW 2977   4.941   6.141   3.473
  693SOL    HW1 2978   5.001   6.139   3.553
  693SOL    HW2 2979   4.905   6.233   3.461
  694SOL     OW 2980   4.469   5.723   4.714
  694SOL    HW1 2981   4.532   5.750   4.641
  694SOL    HW2 2982   4.521   5.694   4.794
  695SOL     OW 2983   3.079   6.425   3.923
  695SOL    HW1 2984   3.012   6.360   3.888
  695SOL    HW2 2985   3.038   6.516   3.925
  696SOL     OW 2986   5.071   3.931   3.042
  696SOL    HW1 2987   5.138   3.887   3.101
  696SOL    HW2 2988   5.006   3.864   3.007
  697SOL     OW 2989   0.539   4.835   2.439
  697SOL    HW1 2990   0.623   4.881   2.471
  697SOL    HW2 2991   0.535   4.840   2.340
  698SOL     OW 2992   5.037   6.688   1.455
  698SOL    HW1 2993   5.033   6.723   1.549
  698SOL    HW2 2994   5.052   6.763   1.392
  699SOL     OW 2995   2.825   2.117   0.619
  699SOL    HW1 2996   2.850   2.127   0.522
  699SOL    HW2 2997   2.878   2.043   0.660
  700SOL     OW 2998   3.277   0.128   2.882
  700SOL    HW1 2999   3.229   0.055   2.834
  700SOL    HW2 3000   3.211   0.183   2.934
  701SOL     OW 3001   6.258   4.664   1.473
  701SOL    HW1 3002   6.297   4.751   1.504
  701SOL    HW2 3003   6.188   4.682   1.404
  702SOL     OW 3004   2.830   1.238   4.269
  702SOL    HW1 3005   2.829   1.270   4.175
  702SOL    HW2 3006   2.816   1.139   4.271
  703SOL     OW 3007   2.896   2.808   5.813
  703SOL    HW1 3008   2.928   2.880   5.751
  703SOL    HW2 3009   2.801   2.826   5.838
  704SOL     OW 3010   1.688   2.899   5.951
  704SOL    HW1 3011   1.638   2.921   5.867
  704SOL    HW2 3012   1.636   2.930   6.030
  705SOL     OW 3013   6.803   5.965   4.036
  705SOL    HW1 3014   6.769   6.056   4.014
  705SOL    HW2 3015   6.845   5.924   3.955
  706SOL     OW 3016   4.530   0.927   5.409
  706SOL    HW1 3017   4.441   0.883   5.422
  706SOL    HW2 3018   4.522   1.024   5.433
  707SOL     OW 3019   3.534   4.902   3.597
  707SOL    HW1 3020   3.604   4.831   3.591
  707SOL    HW2 3021   3.506   4.929   3.505
  708SOL     OW 3022   2.700   0.972   3.225
  708SOL    HW1 3023   2.609   0.932   3.213
  708SOL    HW2 3024   2.691   1.059   3.274
  709SOL     OW 3025   2.184   0.127   1.971
  709SOL    HW1 3026   2.106   0.064   1.977
  709SOL    HW2 3027   2.220   0.126   1.878
  710SOL     OW 3028   4.718   2.863   1.701
  710SOL    HW1 3029   4.722   2.938   1.767
  710SOL    HW2 3030   4.624   2.827   1.699
  711SOL     OW 3031   0.298   2.365   5.749
  711SOL    HW1 3032   0.385   2.409   5.772
  711SOL    HW2 3033   0.259   2.325   5.832
  712SOL     OW 3034   4.553   2.947   0.786
  712SOL    HW1 3035   4.574   2.991   0.874
  712SOL    HW2 3036   4.635   2.903   0.751
  713SOL     OW 3037   4.001   2.746   5.335
  713SOL    HW1 3038   4.042   2.678   5.274
  713SOL    HW2 3039   3.908   2.768   5.303
  714SOL     OW 3040   5.751   4.661   3.379
  714SOL    HW1 3041   5.851   4.668   3.373
  714SOL    HW2 3042   5.716   4.736   3.435
  715SOL     OW 3043   6.240   4.868   5.858
  715SOL    HW1 3044   6.240   4.930   5.937
  715SOL    HW2 3045   6.151   4.870   5.814
  716SOL     OW 3046   1.897   0.909   2.471
  716SOL    HW1 3047   1.894   0.829   2.411
  716SOL    HW2 3048   1.963   0.975   2.435
  717SOL     OW 3049   5.444   5.032   3.819
  717SOL    HW1 3050   5.475   4.938   3.834
  717SOL    HW2 3051   5.489   5.069   3.738
  718SOL     OW 3052   5.232   1.756   4.190
  718SOL    HW1 3053   5.236   1.834   4.252
  718SOL    HW2 3054   5.158   1.770   4.124
  719SOL     OW 3055   6.373   0.709   2.508
  719SOL    HW1 3056   6.352   0.734   2.603
  719SOL    HW2 3057   6.471   0.687   2.500
  720SOL     OW 3058   1.722   1.016   0.152
  720SOL    HW1 3059   1.643   1.077   0.148
  720SOL    HW2 3060   1.795   1.053   0.094
  721SOL     OW 3061   0.138   2.593   2.824
  721SOL    HW1 3062   0.164   2.684   2.856
  721SOL    HW2 3063   0.154   2.587   2.726
  722SOL     OW 3064   4.351   0.093   6.846
  722SOL    HW1 3065   4.388   0.107   6.938
  722SOL    HW2 3066   4.265   0.043   6.852
  723SOL     OW 3067   2.096   6.310   3.935
  723SOL    HW1 3068   1.997   6.298   3.944
  723SOL    HW2 3069   2.117   6.408   3.925
  724SOL     OW 3070   1.160   1.380   3.680
  724SOL    HW1 3071   1.164   1.355   3.584
  724SOL    HW2 3072   1.065   1.389   3.709
  725SOL     OW 3073   2.011   4.511   2.043
  725SOL    HW1 3074   2.001   4.541   2.138
  725SOL    HW2 3075   2.107   4.517   2.016
  726SOL     OW 3076   2.366   5.092   0.445
  726SOL    HW1 3077   2.350   5.024   0.516
  726SOL    HW2 3078   2.342   5.183   0.479
  727SOL     OW 3079   4.386   5.242   5.849
  727SOL    HW1 3080   4.345   5.247   5.939
  727SOL    HW2 3081   4.320   5.203   5.784
  728SOL     OW 3082   6.915   3.266   4.909
  728SOL    HW1 3083   6.972   3.232   4.835
  728SOL    HW2 3084   6.831   3.305   4.871
  729SOL     OW 3085   0.135   3.175   1.143
  729SOL    HW1 3086   0.167   3.269   1.161
  729SOL    HW2 3087   0.048   3.160   1.190
  730SOL     OW 3088   4.958   0.768   2.808
  730SOL    HW1 3089   5.042   0.817   2.833
  730SOL    HW2 3090   4.889   0.781   2.879
  731SOL     OW 3091   4.492   4.391   6.909
  731SOL    HW1 3092   4.548   4.455   6.961
  731SOL    HW2 3093   4.551   4.321   6.867
  732SOL     OW 3094   4.771   1.710   3.010
  732SOL    HW1 3095   4.728   1.737   3.095
  732SOL    HW2 3096   4.842   1.642   3.029
  733SOL     OW 3097   6.319   6.501   3.222
  733SOL    HW1 3098   6.390   6.571   3.221
  733SOL    HW2 3099   6.230   6.545   3.235
  734SOL     OW 3100   5.827   5.362   2.771
  734SOL    HW1 3101   5.750   5.412   2.731
  734SOL    HW2 3102   5.890   5.427   2.812
  735SOL     OW 3103   5.631   0.740   1.972
  735SOL    HW1 3104   5.627   0.814   1.905
  735SOL    HW2 3105   5.547   0.685   1.965
  736SOL     OW 3106   1.394   1.478   4.172
  736SOL    HW1 3107   1.307   1.462   4.125
  736SOL    HW2 3108   1.398   1.420   4.253
  737SOL     OW 3109   5.831   0.956   6.517
  737SOL    HW1 3110   5.737   0.988   6.519
  737SOL    HW2 3111   5.852   0.908   6.602
  738SOL     OW 3112   2.518   4.184   1.281
  738SOL    HW1 3113   2.546   4.098   1.236
  738SOL    HW2 3114   2.478   4.164   1.370
  739SOL     OW 3115   2.983   6.777   4.861
  739SOL    HW1 3116   2.888   6.787   4.888
  739SOL    HW2 3117   2.988   6.751   4.764
  740SOL     OW 3118   5.635   2.227   3.128
  740SOL    HW1 3119   5.632   2.240   3.227
  740SOL    HW2 3120   5.606   2.134   3.106
  741SOL     OW 3121   2.648   0.452   3.973
  741SOL    HW1 3122   2.654   0.552   3.972
  741SOL    HW2 3123   2.552   0.425   3.963
  742SOL     OW 3124   1.585   6.602   1.137
  742SOL    HW1 3125   1.626   6.650   1.216
  742SOL    HW2 3126   1.649   6.533   1.104
  743SOL     OW 3127   1.053   6.091   3.828
  743SOL    HW1 3128   0.989   6.166   3.813
  743SOL    HW2 3129   1.045   6.025   3.752
  744SOL     OW 3130   5.489   1.328   0.468
  744SOL    HW1 3131   5.456   1.249   0.417
  744SOL    HW2 3132   5.584   1.312   0.496
  745SOL     OW 3133   2.207   5.742   4.859
  745SOL    HW1 3134   2.196   5.655   4.907
  745SOL    HW2 3135   2.283   5.736   4.794
  746SOL     OW 3136   5.511   4.613   5.653
  746SOL    HW1 3137   5.444   4.597   5.580
  746SOL    HW2 3138   5.574   4.535   5.657
  747SOL     OW 3139   5.419   5.490   3.306
  747SOL    HW1 3140   5.325   5.457   3.298
  747SOL    HW2 3141   5.481   5.413   3.322
  748SOL     OW 3142   5.504   5.940   2.537
  748SOL    HW1 3143   5.434   5.928   2.607
  748SOL    HW2 3144   5.556   5.855   2.528
  749SOL     OW 3145   5.106   4.396   3.560
  749SOL    HW1 3146   5.040   4.462   3.596
  749SOL    HW2 3147   5.105   4.313   3.616
  750SOL     OW 3148   2.583   1.718   1.943
  750SOL    HW1 3149   2.510   1.666   1.899
  750SOL    HW2 3150   2.651   1.744   1.875
  751SOL     OW 3151   4.738   1.236   0.245
  751SOL    HW1 3152   4.799   1.218   0.323
  751SOL    HW2 3153   4.730   1.154   0.189
  752SOL     OW 3154   3.218   2.545   5.360
  752SOL    HW1 3155   3.156   2.622   5.342
  752SOL    HW2 3156   3.226   2.489   5.278
  753SOL     OW 3157   3.844   4.136   5.032
  753SOL    HW1 3158   3.886   4.066   4.974
  753SOL    HW2 3159   3.889   4.139   5.121
  754SOL     OW 3160   5.528   0.876   6.349
  754SOL    HW1 3161   5.462   0.903   6.279
  754SOL    HW2 3162   5.505   0.785   6.384
  755SOL     OW 3163   3.213   4.330   5.277
  755SOL    HW1 3164   3.295   4.378   5.246
  755SOL    HW2 3165   3.155   4.392   5.329
  756SOL     OW 3166   2.719   5.374   6.401
  756SOL    HW1 3167   2.762   5.359   6.312
  756SOL    HW2 3168   2.747   5.463   6.437
  757SOL     OW 3169   1.774   6.831   2.384
  757SOL    HW1 3170   1.748   6.919   2.424
  757SOL    HW2 3171   1.703   6.764   2.404
  758SOL     OW 3172   3.383   1.389   4.083
  758SOL    HW1 3173   3.317   1.459   4.109
  758SOL    HW2 3174   3.374   1.311   4.144
  759SOL     OW 3175   0.261   2.963   4.311
  759SOL    HW1 3176   0.324   2.958   4.388
  759SOL    HW2 3177   0.308   2.935   4.227
  760SOL     OW 3178   6.847   0.010   3.635
  760SOL    HW1 3179   6.901   0.091   3.612
  760SOL    HW2 3180   6.764   0.009   3.580
  761SOL     OW 3181   4.694   4.098   5.446
  761SOL    HW1 3182   4.608   4.144   5.469
  761SOL    HW2 3183   4.699   4.084   5.347
  762SOL     OW 3184   2.742   6.120   4.925
  762SOL    HW1 3185   2.823   6.062   4.923
  762SOL    HW2 3186   2.661   6.066   4.906
  763SOL     OW 3187   5.761   0.425   6.645
  763SOL    HW1 3188   5.721   0.455   6.732
  763SOL    HW2 3189   5.771   0.504   6.584
  764SOL     OW 3190   5.271   6.767   5.358
  764SOL    HW1 3191   5.310   6.858   5.343
  764SOL    HW2 3192   5.326   6.717   5.425
  765SOL     OW 3193   0.681   6.420   0.989
  765SOL    HW1 3194   0.698   6.414   1.087
  765SOL    HW2 3195   0.752   6.475   0.946
  766SOL     OW 3196   1.584   2.583   5.078
  766SOL    HW1 3197   1.545   2.584   5.170
  766SOL    HW2 3198   1.512   2.567   5.012
  767SOL     OW 3199   0.098   6.773   3.673
  767SOL    HW1 3200   0.015   6.828   3.673
  767SOL    HW2 3201   0.074   6.677   3.687
  768SOL     OW 3202   2.384   6.313   2.206
  768SOL    HW1 3203   2.468   6.323   2.260
  768SOL    HW2 3204   2.407   6.309   2.109
  769SOL     OW 3205   2.926   1.876   5.028
  769SOL    HW1 3206   2.975   1.890   4.942
  769SOL    HW2 3207   2.892   1.964   5.062
  770SOL     OW 3208   2.317   4.681   4.347
  770SOL    HW1 3209   2.382   4.629   4.402
  770SOL    HW2 3210   2.350   4.685   4.252
  771SOL     OW 3211   1.238   5.423   2.611
  771SOL    HW1 3212   1.251   5.496   2.678
  771SOL    HW2 3213   1.239   5.335   2.658
  772SOL     OW 3214   5.114   4.746   6.777
  772SOL    HW1 3215   5.130   4.699   6.863
  772SOL    HW2 3216   5.047   4.819   6.791
  773SOL     OW 3217   0.998   3.382   3.777
  773SOL    HW1 3218   1.080   3.408   3.828
  773SOL    HW2 3219   1.001   3.284   3.757
  774SOL     OW 3220   2.063   1.219   3.526
  774SOL    HW1 3221   2.052   1.137   3.470
  774SOL    HW2 3222   2.054   1.300   3.469
  775SOL     OW 3223   2.202   4.093   4.091
  775SOL    HW1 3224   2.173   4.003   4.061
  775SOL    HW2 3225   2.214   4.094   4.190
  776SOL     OW 3226   1.794   6.295   6.353
  776SOL    HW1 3227   1.872   6.274   6.294
  776SOL    HW2 3228   1.721   6.337   6.298
  777SOL     OW 3229   2.151   4.084   7.002
  777SOL    HW1 3230   2.240   4.090   6.956
  777SOL    HW2 3231   2.114   3.992   6.991
  778SOL     OW 3232   3.715   6.896   1.654
  778SOL    HW1 3233   3.659   6.925   1.732
  778SOL    HW2 3234   3.693   6.953   1.575
  779SOL     OW 3235   0.160   2.216   2.305
  779SOL    HW1 3236   0.108   2.131   2.300
  779SOL    HW2 3237   0.198   2.227   2.396
  780SOL     OW 3238   1.507   2.028   5.313
  780SOL    HW1 3239   1.431   2.093   5.315
  780SOL    HW2 3240   1.489   1.953   5.376
  781SOL     OW 3241   0.720   3.961   0.798
  781SOL    HW1 3242   0.695   3.895   0.727
  781SOL    HW2 3243   0.661   3.946   0.878
  782SOL     OW 3244   1.751   3.851   6.313
  782SOL    HW1 3245   1.688   3.927   6.330
  782SOL    HW2 3246   1.787   3.817   6.400
  783SOL     OW 3247   5.725   4.368   6.682
  783SOL    HW1 3248   5.780   4.449   6.703
  783SOL    HW2 3249   5.628   4.394   6.676
  784SOL     OW 3250   3.199   6.439   1.053
  784SOL    HW1 3251   3.111   6.391   1.052
  784SOL    HW2 3252   3.264   6.388   1.110
  785SOL     OW 3253   0.525   0.202   4.418
  785SOL    HW1 3254   0.574   0.221   4.333
  785SOL    HW2 3255   0.590   0.170   4.488
  786SOL     OW 3256   6.533   1.077   3.499
  786SOL    HW1 3257   6.461   1.025   3.452
  786SOL    HW2 3258   6.496   1.163   3.532
  787SOL     OW 3259   2.709   0.095   0.406
  787SOL    HW1 3260   2.743   0.025   0.469
  787SOL    HW2 3261   2.781   0.119   0.341
  788SOL     OW 3262   4.130   3.352   0.936
  788SOL    HW1 3263   4.033   3.366   0.954
  788SOL    HW2 3264   4.174   3.314   1.018
  789SOL     OW 3265   4.602   5.400   1.360
  789SOL    HW1 3266   4.621   5.305   1.385
  789SOL    HW2 3267   4.638   5.461   1.430
  790SOL     OW 3268   0.635   3.013   2.116
  790SOL    HW1 3269   0.575   2.938   2.144
  790SOL    HW2 3270   0.606   3.046   2.026
  791SOL     OW 3271   3.459   5.080   4.987
  791SOL    HW1 3272   3.366   5.095   5.021
  791SOL    HW2 3273   3.459   5.085   4.887
  792SOL     OW 3274   1.116   1.067   0.958
  792SOL    HW1 3275   1.101   0.968   0.965
  792SOL    HW2 3276   1.051   1.105   0.892
  793SOL     OW 3277   3.462   5.839   3.822
  793SOL    HW1 3278   3.487   5.742   3.822
  793SOL    HW2 3279   3.529   5.890   3.768
  794SOL     OW 3280   3.169   3.410   3.687
  794SOL    HW1 3281   3.138   3.355   3.610
  794SOL    HW2 3282   3.090   3.455   3.729
  795SOL     OW 3283   4.002   0.712   6.281
  795SOL    HW1 3284   3.909   0.738   6.255
  795SOL    HW2 3285   4.028   0.629   6.232
  796SOL     OW 3286   1.762   3.246   6.868
  796SOL    HW1 3287   1.672   3.285   6.853
  796SOL    HW2 3288   1.830   3.320   6.876
  797SOL     OW 3289   4.995   0.003   0.725
  797SOL    HW1 3290   4.981   6.937   0.673
  797SOL    HW2 3291   4.907   0.046   0.744
  798SOL     OW 3292   3.903   6.861   0.497
  798SOL    HW1 3293   3.877   6.807   0.577
  798SOL    HW2 3294   3.915   6.957   0.524
  799SOL     OW 3295   1.276   1.902   6.796
  799SOL    HW1 3296   1.342   1.960   6.845
  799SOL    HW2 3297   1.226   1.845   6.861
  800SOL     OW 3298   6.239   1.988   1.393
  800SOL    HW1 3299   6.162   2.048   1.416
  800SOL    HW2 3300   6.226   1.899   1.437
  801SOL     OW 3301   1.907   5.357   5.446
  801SOL    HW1 3302   1.842   5.305   5.501
  801SOL    HW2 3303   1.998   5.353   5.489
  802SOL     OW 3304   5.173   2.262   6.988
  802SOL    HW1 3305   5.217   2.298   0.051
  802SOL    HW2 3306   5.135   2.337   6.935
  803SOL     OW 3307   2.672   0.778   5.427
  803SOL    HW1 3308   2.685   0.876   5.440
  803SOL    HW2 3309   2.760   0.734   5.411
  804SOL     OW 3310   6.598   0.434   1.639
  804SOL    HW1 3311   6.580   0.336   1.628
  804SOL    HW2 3312   6.612   0.455   1.736
  805SOL     OW 3313   3.149   0.959   3.644
  805SOL    HW1 3314   3.197   0.992   3.726
  805SOL    HW2 3315   3.120   1.038   3.589
  806SOL     OW 3316   1.317   6.326   5.297
  806SOL    HW1 3317   1.411   6.358   5.312
  806SOL    HW2 3318   1.265   6.395   5.248
  807SOL     OW 3319   0.517   6.356   5.323
  807SOL    HW1 3320   0.539   6.453   5.315
  807SOL    HW2 3321   0.471   6.325   5.240
  808SOL     OW 3322   5.427   2.781   0.308
  808SOL    HW1 3323   5.390   2.773   0.215
  808SOL    HW2 3324   5.521   2.747   0.310
  809SOL     OW 3325   1.149   5.436   0.219
  809SOL    HW1 3326   1.107   5.432   0.128
  809SOL    HW2 3327   1.172   5.344   0.249
  810SOL     OW 3328   2.846   3.391   0.314
  810SOL    HW1 3329   2.807   3.456   0.249
  810SOL    HW2 3330   2.800   3.400   0.402
  811SOL     OW 3331   5.442   4.890   4.540
  811SOL    HW1 3332   5.478   4.978   4.509
  811SOL    HW2 3333   5.364   4.864   4.484
  812SOL     OW 3334   0.873   2.553   2.503
  812SOL    HW1 3335   0.785   2.512   2.480
  812SOL    HW2 3336   0.858   2.638   2.554
  813SOL     OW 3337   1.648   1.951   4.896
  813SOL    HW1 3338   1.583   2.005   4.841
  813SOL    HW2 3339   1.601   1.914   4.976
  814SOL     OW 3340   1.198   5.431   3.059
  814SOL    HW1 3341   1.105   5.428   3.023
  814SOL    HW2 3342   1.203   5.497   3.134
  815SOL     OW 3343   4.910   2.075   4.071
  815SOL    HW1 3344   4.914   2.029   4.160
  815SOL    HW2 3345   4.841   2.147   4.074
  816SOL     OW 3346   5.252   3.739   0.323
  816SOL    HW1 3347   5.220   3.820   0.372
  816SOL    HW2 3348   5.234   3.657   0.378
  817SOL     OW 3349   1.124   5.077   0.212
  817SOL    HW1 3350   1.195   5.034   0.268
  817SOL    HW2 3351   1.059   5.125   0.271
  818SOL     OW 3352   5.850   2.845   3.814
  818SOL    HW1 3353   5.795   2.800   3.885
  818SOL    HW2 3354   5.790   2.874   3.739
  819SOL     OW 3355   5.170   2.515   2.080
  819SOL    HW1 3356   5.144   2.493   2.174
  819SOL    HW2 3357   5.268   2.499   2.069
  820SOL     OW 3358   2.185   1.910   5.180
  820SOL    HW1 3359   2.156   2.005   5.169
  820SOL    HW2 3360   2.280   1.908   5.212
  821SOL     OW 3361   5.496   3.972   5.123
  821SOL    HW1 3362   5.453   4.057   5.093
  821SOL    HW2 3363   5.443   3.894   5.090
  822SOL     OW 3364   0.933   4.555   3.825
  822SOL    HW1 3365   0.939   4.467   3.779
  822SOL    HW2 3366   0.856   4.553   3.889
  823SOL     OW 3367   0.917   3.533   5.884
  823SOL    HW1 3368   0.887   3.536   5.979
  823SOL    HW2 3369   0.880   3.611   5.835
  824SOL     OW 3370   5.446   1.171   5.478
  824SOL    HW1 3371   5.378   1.178   5.551
  824SOL    HW2 3372   5.510   1.248   5.485
  825SOL     OW 3373   6.663   5.918   0.912
  825SOL    HW1 3374   6.692   5.953   1.001
  825SOL    HW2 3375   6.705   5.973   0.840
  826SOL     OW 3376   3.838   1.227   5.571
  826SOL    HW1 3377   3.857   1.241   5.473
  826SOL    HW2 3378   3.785   1.305   5.605
  827SOL     OW 3379   3.416   3.903   4.211
  827SOL    HW1 3380   3.453   3.991   4.181
  827SOL    HW2 3381   3.357   3.917   4.290
  828SOL     OW 3382   6.196   5.884   4.768
  828SOL    HW1 3383   6.188   5.811   4.700
  828SOL    HW2 3384   6.291   5.912   4.777
  829SOL     OW 3385   3.323   2.856   2.847
  829SOL    HW1 3386   3.410   2.815   2.819
  829SOL    HW2 3387   3.340   2.944   2.891
  830SOL     OW 3388   6.704   4.505   0.173
  830SOL    HW1 3389   6.610   4.486   0.144
  830SOL    HW2 3390   6.703   4.557   0.259
  831SOL     OW 3391   5.864   5.984   1.076
  831SOL    HW1 3392   5.864   5.929   1.159
  831SOL    HW2 3393   5.829   6.076   1.097
  832SOL     OW 3394   3.413   1.887   4.833
  832SOL    HW1 3395   3.389   1.819   4.903
  832SOL    HW2 3396   3.448   1.840   4.752
  833SOL     OW 3397   1.688   3.371   6.172
  833SOL    HW1 3398   1.606   3.325   6.138
  833SOL    HW2 3399   1.740   3.407   6.094
  834SOL     OW 3400   4.858   3.423   6.745
  834SOL    HW1 3401   4.890   3.488   6.814
  834SOL    HW2 3402   4.825   3.340   6.791
  835SOL     OW 3403   1.141   0.252   4.145
  835SOL    HW1 3404   1.173   0.324   4.082
  835SOL    HW2 3405   1.201   0.248   4.225
  836SOL     OW 3406   3.197   1.153   5.345
  836SOL    HW1 3407   3.103   1.166   5.312
  836SOL    HW2 3408   3.218   1.055   5.345
  837SOL     OW 3409   1.785   0.485   0.592
  837SOL    HW1 3410   1.735   0.459   0.675
  837SOL    HW2 3411   1.808   0.582   0.595
  838SOL     OW 3412   2.132   5.842   3.701
  838SOL    HW1 3413   2.204   5.883   3.644
  838SOL    HW2 3414   2.057   5.908   3.711
  839SOL     OW 3415   1.603   1.557   1.213
  839SOL    HW1 3416   1.599   1.643   1.161
  839SOL    HW2 3417   1.698   1.534   1.232
  840SOL     OW 3418   5.312   5.634   0.141
  840SOL    HW1 3419   5.390   5.697   0.152
  840SOL    HW2 3420   5.250   5.671   0.071
  841SOL     OW 3421   3.809   4.824   5.586
  841SOL    HW1 3422   3.882   4.891   5.592
  841SOL    HW2 3423   3.776   4.819   5.491
  842SOL     OW 3424   2.980   0.505   0.489
  842SOL    HW1 3425   2.896   0.524   0.540
  842SOL    HW2 3426   3.051   0.475   0.551
  843SOL     OW 3427   1.021   1.580   1.977
  843SOL    HW1 3428   0.978   1.493   2.000
  843SOL    HW2 3429   1.115   1.563   1.947
  844SOL     OW 3430   6.402   0.014   1.227
  844SOL    HW1 3431   6.405   0.002   1.127
  844SOL    HW2 3432   6.308   0.003   1.259
  845SOL     OW 3433   3.401   1.910   2.879
  845SOL    HW1 3434   3.373   1.860   2.797
  845SOL    HW2 3435   3.365   2.003   2.876
  846SOL     OW 3436   2.586   2.015   0.380
  846SOL    HW1 3437   2.523   2.043   0.453
  846SOL    HW2 3438   2.678   2.048   0.401
  847SOL     OW 3439   2.739   3.748   1.342
  847SOL    HW1 3440   2.763   3.828   1.396
  847SOL    HW2 3441   2.640   3.732   1.346
  848SOL     OW 3442   6.674   6.247   6.272
  848SOL    HW1 3443   6.725   6.261   6.187
  848SOL    HW2 3444   6.592   6.194   6.254
  849SOL     OW 3445   6.151   4.065   0.323
  849SOL    HW1 3446   6.208   4.014   0.386
  849SOL    HW2 3447   6.198   4.075   0.235
  850SOL     OW 3448   0.150   0.687   5.445
  850SOL    HW1 3449   0.064   0.637   5.436
  850SOL    HW2 3450   0.226   0.628   5.416
  851SOL     OW 3451   6.493   2.951   6.166
  851SOL    HW1 3452   6.574   2.929   6.112
  851SOL    HW2 3453   6.483   3.050   6.173
  852SOL     OW 3454   0.016   3.365   2.107
  852SOL    HW1 3455   6.972   3.346   2.032
  852SOL    HW2 3456   0.070   3.284   2.127
  853SOL     OW 3457   2.182   4.059   0.290
  853SOL    HW1 3458   2.154   3.963   0.294
  853SOL    HW2 3459   2.201   4.084   0.195
  854SOL     OW 3460   6.231   6.492   6.954
  854SOL    HW1 3461   6.326   6.499   6.924
  854SOL    HW2 3462   6.189   6.410   6.915
  855SOL     OW 3463   6.625   1.041   0.522
  855SOL    HW1 3464   6.701   1.101   0.498
  855SOL    HW2 3465   6.595   0.990   0.441
  856SOL     OW 3466   2.252   6.543   6.812
  856SOL    HW1 3467   2.154   6.552   6.831
  856SOL    HW2 3468   2.295   6.634   6.816
  857SOL     OW 3469   6.973   5.251   4.251
  857SOL    HW1 3470   6.961   5.228   4.154
  857SOL    HW2 3471   6.886   5.282   4.289
  858SOL     OW 3472   3.829   3.450   0.359
  858SOL    HW1 3473   3.912   3.428   0.309
  858SOL    HW2 3474   3.779   3.365   0.379
  859SOL     OW 3475   4.202   6.935   5.346
  859SOL    HW1 3476   4.183   6.997   5.270
  859SOL    HW2 3477   4.291   6.892   5.333
  860SOL     OW 3478   5.212   2.768   5.502
  860SOL    HW1 3479   5.282   2.748   5.570
  860SOL    HW2 3480   5.152   2.840   5.535
  861SOL     OW 3481   2.295   5.795   2.481
  861SOL    HW1 3482   2.254   5.741   2.555
  861SOL    HW2 3483   2.223   5.829   2.421
  862SOL     OW 3484   1.662   4.235   3.757
  862SOL    HW1 3485   1.640   4.145   3.795
  862SOL    HW2 3486   1.578   4.282   3.732
  863SOL     OW 3487   0.439   0.256   6.439
  863SOL    HW1 3488   0.500   0.245   6.517
  863SOL    HW2 3489   0.453   0.346   6.398
  864SOL     OW 3490   5.022   6.977   5.138
  864SOL    HW1 3491   4.932   7.009   5.167
  864SOL    HW2 3492   5.065   0.029   5.081
  865SOL     OW 3493   1.965   5.620   4.236
  865SOL    HW1 3494   1.945   5.683   4.162
  865SOL    HW2 3495   1.887   5.617   4.299
  866SOL     OW 3496   2.098   6.408   1.891
  866SOL    HW1 3497   2.146   6.445   1.970
  866SOL    HW2 3498   2.165   6.375   1.824
  867SOL     OW 3499   5.930   1.905   0.391
  867SOL    HW1 3500   5.861   1.967   0.356
  867SOL    HW2 3501   5.886   1.831   0.443
  868SOL     OW 3502   6.804   2.327   2.147
  868SOL    HW1 3503   6.806   2.235   2.108
  868SOL    HW2 3504   6.712   2.346   2.182
  869SOL     OW 3505   0.234   4.033   3.715
  869SOL    HW1 3506   0.224   4.076   3.625
  869SOL    HW2 3507   0.191   4.092   3.784
  870SOL     OW 3508   3.075   5.129   1.329
  870SOL    HW1 3509   2.982   5.093   1.336
  870SOL    HW2 3510   3.115   5.135   1.421
  871SOL     OW 3511   5.006   1.917   3.601
  871SOL    HW1 3512   4.998   1.820   3.622
  871SOL    HW2 3513   5.096   1.935   3.560
  872SOL     OW 3514   6.627   2.697   4.124
  872SOL    HW1 3515   6.701   2.660   4.068
  872SOL    HW2 3516   6.550   2.723   4.065
  873SOL     OW 3517   4.542   6.658   5.604
  873SOL    HW1 3518   4.473   6.705   5.660
  873SOL    HW2 3519   4.605   6.608   5.664
  874SOL     OW 3520   5.670   3.908   0.511
  874SOL    HW1 3521   5.753   3.955   0.482
  874SOL    HW2 3522   5.677   3.811   0.488
  875SOL     OW 3523   4.989   5.252   1.308
  875SOL    HW1 3524   4.891   5.236   1.321
  875SOL    HW2 3525   5.040   5.196   1.373
  876SOL     OW 3526   0.466   5.611   2.099
  876SOL    HW1 3527   0.380   5.568   2.127
  876SOL    HW2 3528   0.542   5.548   2.118
  877SOL     OW 3529   3.308   4.259   7.014
  877SOL    HW1 3530   3.227   4.306   0.030
  877SOL    HW2 3531   3.279   4.177   6.965
  878SOL     OW 3532   3.978   0.289   3.999
  878SOL    HW1 3533   4.041   0.279   3.922
  878SOL    HW2 3534   3.890   0.249   3.975
  879SOL     OW 3535   4.733   0.582   0.494
  879SOL    HW1 3536   4.755   0.583   0.396
  879SOL    HW2 3537   4.816   0.604   0.547
  880SOL     OW 3538   2.960   3.776   3.573
  880SOL    HW1 3539   2.978   3.868   3.609
  880SOL    HW2 3540   3.011   3.763   3.488
  881SOL     OW 3541   4.550   2.586   5.112
  881SOL    HW1 3542   4.477   2.636   5.159
  881SOL    HW2 3543   4.535   2.488   5.124
  882SOL     OW 3544   0.702   3.219   4.550
  882SOL    HW1 3545   0.793   3.236   4.586
  882SOL    HW2 3546   0.634   3.268   4.606
  883SOL     OW 3547   3.130   0.224   2.511
  883SOL    HW1 3548   3.100   0.157   2.579
  883SOL    HW2 3549   3.230   0.229   2.511
  884SOL     OW 3550   4.853   3.099   4.972
  884SOL    HW1 3551   4.945   3.062   4.982
  884SOL    HW2 3552   4.813   3.114   5.063
  885SOL     OW 3553   2.754   1.419   5.779
  885SOL    HW1 3554   2.828   1.467   5.733
  885SOL    HW2 3555   2.704   1.362   5.714
  886SOL     OW 3556   3.409   0.589   0.310
  886SOL    HW1 3557   3.322   0.624   0.345
  886SOL    HW2 3558   3.422   0.621   0.216
  887SOL     OW 3559   3.847   0.492   3.702
  887SOL    HW1 3560   3.943   0.517   3.703
  887SOL    HW2 3561   3.834   0.406   3.752
  888SOL     OW 3562   0.697   0.836   2.948
  888SOL    HW1 3563   0.718   0.925   2.907
  888SOL    HW2 3564   0.770   0.772   2.928
  889SOL     OW 3565   0.938   3.787   6.711
  889SOL    HW1 3566   0.929   3.844   6.792
  889SOL    HW2 3567   0.849   3.773   6.668
  890SOL     OW 3568   2.083   5.566   3.740
  890SOL    HW1 3569   2.104   5.651   3.692
  890SOL    HW2 3570   1.986   5.545   3.728
  891SOL     OW 3571   5.422   5.156   0.979
  891SOL    HW1 3572   5.460   5.072   0.940
  891SOL    HW2 3573   5.377   5.136   1.066
  892SOL     OW 3574   2.528   3.979   5.805
  892SOL    HW1 3575   2.534   4.059   5.746
  892SOL    HW2 3576   2.540   3.896   5.751
  893SOL     OW 3577   2.052   6.241   2.821
  893SOL    HW1 3578   2.073   6.289   2.906
  893SOL    HW2 3579   2.062   6.303   2.743
  894SOL     OW 3580   0.971   3.562   1.549
  894SOL    HW1 3581   0.873   3.566   1.533
  894SOL    HW2 3582   1.016   3.639   1.504
  895SOL     OW 3583   0.548   5.234   3.231
  895SOL    HW1 3584   0.485   5.286   3.289
  895SOL    HW2 3585   0.642   5.257   3.255
  896SOL     OW 3586   6.506   5.375   0.423
  896SOL    HW1 3587   6.544   5.451   0.475
  896SOL    HW2 3588   6.414   5.354   0.456
  897SOL     OW 3589   5.102   1.492   0.638
  897SOL    HW1 3590   5.105   1.392   0.650
  897SOL    HW2 3591   5.007   1.521   0.629
  898SOL     OW 3592   3.454   5.411   2.477
  898SOL    HW1 3593   3.363   5.396   2.514
  898SOL    HW2 3594   3.522   5.366   2.535
  899SOL     OW 3595   0.718   5.434   6.029
  899SOL    HW1 3596   0.628   5.470   6.054
  899SOL    HW2 3597   0.787   5.506   6.039
  900SOL     OW 3598   5.768   6.686   0.113
  900SOL    HW1 3599   5.804   6.656   0.202
  900SOL    HW2 3600   5.775   6.785   0.106
  901SOL     OW 3601   1.859   0.395   2.555
  901SOL    HW1 3602   1.922   0.472   2.543
  901SOL    HW2 3603   1.765   0.426   2.538
  902SOL     OW 3604   6.669   3.373   0.513
  902SOL    HW1 3605   6.569   3.377   0.505
  902SOL    HW2 3606   6.694   3.309   0.585
  903SOL     OW 3607   0.010   2.390   6.309
  903SOL    HW1 3608   0.047   2.435   6.228
  903SOL    HW2 3609   7.006   2.295   6.286
  904SOL     OW 3610   2.981   2.288   3.887
  904SOL    HW1 3611   2.905   2.310   3.826
  904SOL    HW2 3612   3.060   2.259   3.834
  905SOL     OW 3613   5.493   2.426   0.220
  905SOL    HW1 3614   5.542   2.382   0.295
  905SOL    HW2 3615   5.545   2.505   0.188
  906SOL     OW 3616   0.585   1.977   5.827
  906SOL    HW1 3617   0.528   2.002   5.749
  906SOL    HW2 3618   0.527   1.967   5.909
  907SOL     OW 3619   4.988   3.636   6.842
  907SOL    HW1 3620   5.002   3.658   6.939
  907SOL    HW2 3621   5.072   3.595   6.805
  908SOL     OW 3622   2.525   4.745   2.284
  908SOL    HW1 3623   2.536   4.742   2.185
  908SOL    HW2 3624   2.550   4.836   2.317
  909SOL     OW 3625   4.299   5.052   6.563
  909SOL    HW1 3626   4.314   5.129   6.625
  909SOL    HW2 3627   4.295   4.967   6.617
  910SOL     OW 3628   2.728   2.892   1.303
  910SOL    HW1 3629   2.667   2.878   1.226
  910SOL    HW2 3630   2.819   2.917   1.270
  911SOL     OW 3631   1.657   5.830   6.050
  911SOL    HW1 3632   1.624   5.868   5.963
  911SOL    HW2 3633   1.738   5.881   6.080
  912SOL     OW 3634   5.208   2.937   3.506
  912SOL    HW1 3635   5.123   2.983   3.533
  912SOL    HW2 3636   5.205   2.918   3.408
  913SOL     OW 3637   5.321   6.394   3.359
  913SOL    HW1 3638   5.386   6.375   3.286
  913SOL    HW2 3639   5.228   6.392   3.323
  914SOL     OW 3640   2.589   0.604   6.652
  914SOL    HW1 3641   2.623   0.658   6.729
  914SOL    HW2 3642   2.556   0.516   6.685
  915SOL     OW 3643   5.887   5.143   0.289
  915SOL    HW1 3644   5.862   5.220   0.348
  915SOL    HW2 3645   5.806   5.109   0.241
  916SOL     OW 3646   1.158   2.239   2.461
  916SOL    HW1 3647   1.216   2.298   2.517
  916SOL    HW2 3648   1.181   2.253   2.364
  917SOL     OW 3649   0.342   6.725   0.543
  917SOL    HW1 3650   0.440   6.733   0.562
  917SOL    HW2 3651   0.291   6.731   0.629
  918SOL     OW 3652   2.396   6.635   0.953
  918SOL    HW1 3653   2.409   6.650   1.052
  918SOL    HW2 3654   2.483   6.607   0.912
  919SOL     OW 3655   5.766   1.647   3.545
  919SOL    HW1 3656   5.690   1.698   3.586
  919SOL    HW2 3657   5.852   1.672   3.591
  920SOL     OW 3658   2.452   4.451   1.549
  920SOL    HW1 3659   2.368   4.471   1.599
  920SOL    HW2 3660   2.528   4.441   1.614
  921SOL     OW 3661   5.331   5.996   4.515
  921SOL    HW1 3662   5.305   5.954   4.602
  921SOL    HW2 3663   5.374   6.085   4.533
  922SOL     OW 3664   3.793   3.250   4.357
  922SOL    HW1 3665   3.781   3.322   4.288
  922SOL    HW2 3666   3.889   3.245   4.384
  923SOL     OW 3667   2.211   2.946   5.513
  923SOL    HW1 3668   2.288   2.985   5.562
  923SOL    HW2 3669   2.237   2.858   5.473
  924SOL     OW 3670   6.844   4.144   2.279
  924SOL    HW1 3671   6.839   4.045   2.283
  924SOL    HW2 3672   6.932   4.174   2.317
  925SOL     OW 3673   6.630   1.759   0.382
  925SOL    HW1 3674   6.564   1.728   0.314
  925SOL    HW2 3675   6.627   1.859   0.388
  926SOL     OW 3676   0.394   1.819   1.772
  926SOL    HW1 3677   0.481   1.868   1.769
  926SOL    HW2 3678   0.355   1.813   1.680
  927SOL     OW 3679   5.715   4.005   3.941
  927SOL    HW1 3680   5.681   4.003   4.036
  927SOL    HW2 3681   5.782   4.079   3.931
  928SOL     OW 3682   3.280   6.079   6.696
  928SOL    HW1 3683   3.352   6.058   6.631
  928SOL    HW2 3684   3.290   6.021   6.777
  929SOL     OW 3685   6.366   1.220   6.631
  929SOL    HW1 3686   6.302   1.234   6.556
  929SOL    HW2 3687   6.458   1.249   6.602
  930SOL     OW 3688   4.306   4.785   6.234
  930SOL    HW1 3689   4.273   4.737   6.153
  930SOL    HW2 3690   4.398   4.753   6.256
  931SOL     OW 3691   6.219   2.548   3.711
  931SOL    HW1 3692   6.187   2.638   3.741
  931SOL    HW2 3693   6.238   2.550   3.613
  932SOL     OW 3694   3.724   0.619   3.478
  932SOL    HW1 3695   3.777   0.574   3.549
  932SOL    HW2 3696   3.639   0.654   3.517
  933SOL     OW 3697   1.659   4.919   2.837
  933SOL    HW1 3698   1.723   4.866   2.781
  933SOL    HW2 3699   1.709   4.970   2.907
  934SOL     OW 3700   2.259   5.663   6.104
  934SOL    HW1 3701   2.274   5.566   6.124
  934SOL    HW2 3702   2.329   5.696   6.041
  935SOL     OW 3703   5.380   3.871   3.254
  935SOL    HW1 3704   5.311   3.812   3.298
  935SOL    HW2 3705   5.337   3.957   3.227
  936SOL     OW 3706   1.582   0.164   6.120
  936SOL    HW1 3707   1.548   0.085   6.069
  936SOL    HW2 3708   1.574   0.147   6.219
  937SOL     OW 3709   4.259   0.819   5.543
  937SOL    HW1 3710   4.344   0.768   5.551
  937SOL    HW2 3711   4.215   0.827   5.632
  938SOL     OW 3712   6.774   5.534   3.709
  938SOL    HW1 3713   6.730   5.507   3.624
  938SOL    HW2 3714   6.715   5.598   3.758
  939SOL     OW 3715   6.984   6.870   4.958
  939SOL    HW1 3716   6.992   6.909   4.867
  939SOL    HW2 3717   7.000   6.771   4.953
  940SOL     OW 3718   1.454   5.021   0.722
  940SOL    HW1 3719   1.513   5.100   0.709
  940SOL    HW2 3720   1.506   4.937   0.706
  941SOL     OW 3721   4.192   0.337   6.198
  941SOL    HW1 3722   4.179   0.238   6.200
  941SOL    HW2 3723   4.105   0.381   6.177
  942SOL     OW 3724   6.947   5.471   0.960
  942SOL    HW1 3725   6.883   5.399   0.933
  942SOL    HW2 3726   6.942   5.547   0.895
  943SOL     OW 3727   2.806   4.766   2.424
  943SOL    HW1 3728   2.777   4.713   2.503
  943SOL    HW2 3729   2.734   4.831   2.400
  944SOL     OW 3730   0.438   6.240   4.271
  944SOL    HW1 3731   0.513   6.305   4.277
  944SOL    HW2 3732   0.418   6.203   4.362
  945SOL     OW 3733   0.792   5.534   5.428
  945SOL    HW1 3734   0.694   5.515   5.415
  945SOL    HW2 3735   0.832   5.462   5.484
  946SOL     OW 3736   4.839   4.561   3.887
  946SOL    HW1 3737   4.905   4.578   3.960
  946SOL    HW2 3738   4.768   4.631   3.890
  947SOL     OW 3739   3.908   3.863   3.774
  947SOL    HW1 3740   3.813   3.890   3.790
  947SOL    HW2 3741   3.945   3.817   3.855
  948SOL     OW 3742   4.868   1.598   2.187
  948SOL    HW1 3743   4.922   1.670   2.233
  948SOL    HW2 3744   4.796   1.566   2.249
  949SOL     OW 3745   3.148   6.313   7.019
  949SOL    HW1 3746   3.226   6.299   6.958
  949SOL    HW2 3747   3.177   6.368   0.078
  950SOL     OW 3748   6.778   6.086   1.867
  950SOL    HW1 3749   6.758   6.071   1.963
  950SOL    HW2 3750   6.692   6.099   1.817
  951SOL     OW 3751   1.430   0.251   3.280
  951SOL    HW1 3752   1.451   0.223   3.186
  951SOL    HW2 3753   1.369   0.184   3.322
  952SOL     OW 3754   4.139   2.068   1.943
  952SOL    HW1 3755   4.199   2.127   1.997
  952SOL    HW2 3756   4.066   2.123   1.902
  953SOL     OW 3757   0.142   5.371   4.863
  953SOL    HW1 3758   0.060   5.328   4.899
  953SOL    HW2 3759   0.187   5.424   4.936
  954SOL     OW 3760   4.734   5.633   2.525
  954SOL    HW1 3761   4.816   5.689   2.519
  954SOL    HW2 3762   4.703   5.609   2.433
  955SOL     OW 3763   1.142   4.135   6.664
  955SOL    HW1 3764   1.203   4.078   6.718
  955SOL    HW2 3765   1.196   4.195   6.605
  956SOL     OW 3766   6.647   0.399   1.164
  956SOL    HW1 3767   6.625   0.354   1.250
  956SOL    HW2 3768   6.610   0.492   1.165
  957SOL     OW 3769   6.441   2.241   3.570
  957SOL    HW1 3770   6.462   2.309   3.500
  957SOL    HW2 3771   6.447   2.283   3.661
  958SOL     OW 3772   5.335   6.789   2.292
  958SOL    HW1 3773   5.346   6.831   2.382
  958SOL    HW2 3774   5.257   6.726   2.294
  959SOL     OW 3775   3.491   0.077   3.926
  959SOL    HW1 3776   3.432   0.145   3.969
  959SOL    HW2 3777   3.519   0.009   3.995
  960SOL     OW 3778   0.875   0.451   0.234
  960SOL    HW1 3779   0.889   0.414   0.142
  960SOL    HW2 3780   0.912   0.387   0.301
  961SOL     OW 3781   2.965   6.278   3.419
  961SOL    HW1 3782   2.892   6.249   3.481
  961SOL    HW2 3783   2.932   6.353   3.362
  962SOL     OW 3784   6.483   6.973   5.314
  962SOL    HW1 3785   6.575   6.951   5.345
  962SOL    HW2 3786   6.485   0.036   5.257
  963SOL     OW 3787   4.630   2.741   1.174
  963SOL    HW1 3788   4.618   2.645   1.147
  963SOL    HW2 3789   4.541   2.781   1.195
  964SOL     OW 3790   5.127   4.194   5.073
  964SOL    HW1 3791   5.224   4.191   5.048
  964SOL    HW2 3792   5.090   4.285   5.051
  965SOL     OW 3793   5.561   2.356   2.896
  965SOL    HW1 3794   5.610   2.320   2.975
  965SOL    HW2 3795   5.525   2.280   2.842
  966SOL     OW 3796   5.209   1.961   3.843
  966SOL    HW1 3797   5.134   1.926   3.898
  966SOL    HW2 3798   5.191   1.942   3.746
  967SOL     OW 3799   4.908   4.213   6.070
  967SOL    HW1 3800   4.917   4.149   5.994
  967SOL    HW2 3801   4.816   4.253   6.070
  968SOL     OW 3802   3.915   0.189   1.630
  968SOL    HW1 3803   4.002   0.237   1.624
  968SOL    HW2 3804   3.844   0.252   1.662
  969SOL     OW 3805   3.360   4.684   5.555
  969SOL    HW1 3806   3.422   4.753   5.518
  969SOL    HW2 3807   3.413   4.602   5.578
  970SOL     OW 3808   6.069   0.374   5.765
  970SOL    HW1 3809   5.976   0.338   5.763
  970SOL    HW2 3810   6.134   0.300   5.753
  971SOL     OW 3811   6.616   4.435   3.244
  971SOL    HW1 3812   6.538   4.381   3.211
  971SOL    HW2 3813   6.643   4.403   3.335
  972SOL     OW 3814   0.098   2.242   1.290
  972SOL    HW1 3815   0.014   2.213   1.244
  972SOL    HW2 3816   0.093   2.220   1.387
  973SOL     OW 3817   0.236   4.145   6.516
  973SOL    HW1 3818   0.212   4.163   6.611
  973SOL    HW2 3819   0.157   4.106   6.468
  974SOL     OW 3820   0.049   5.025   4.402
  974SOL    HW1 3821   0.003   5.096   4.349
  974SOL    HW2 3822   0.133   5.063   4.441
  975SOL     OW 3823   1.954   6.892   2.172
  975SOL    HW1 3824   1.880   6.868   2.234
  975SOL    HW2 3825   2.042   6.882   2.219
  976SOL     OW 3826   6.285   4.426   2.008
  976SOL    HW1 3827   6.327   4.356   1.951
  976SOL    HW2 3828   6.226   4.383   2.076
  977SOL     OW 3829   0.308   1.481   2.337
  977SOL    HW1 3830   0.367   1.401   2.342
  977SOL    HW2 3831   0.267   1.497   2.427
  978SOL     OW 3832   5.446   2.507   2.335
  978SOL    HW1 3833   5.453   2.594   2.284
  978SOL    HW2 3834   5.422   2.526   2.430
  979SOL     OW 3835   0.132   3.431   0.449
  979SOL    HW1 3836   0.138   3.331   0.451
  979SOL    HW2 3837   0.047   3.460   0.492
  980SOL     OW 3838   3.777   1.527   5.079
  980SOL    HW1 3839   3.696   1.501   5.026
  980SOL    HW2 3840   3.749   1.574   5.162
  981SOL     OW 3841   6.633   0.018   4.843
  981SOL    HW1 3842   6.674   6.956   4.800
  981SOL    HW2 3843   6.684   0.039   4.927
  982SOL     OW 3844   0.547   1.574   5.284
  982SOL    HW1 3845   0.597   1.659   5.291
  982SOL    HW2 3846   0.463   1.588   5.231
  983SOL     OW 3847   0.697   3.582   3.784
  983SOL    HW1 3848   0.762   3.602   3.711
  983SOL    HW2 3849   0.734   3.511   3.844
  984SOL     OW 3850   1.574   1.959   2.797
  984SOL    HW1 3851   1.496   1.903   2.826
  984SOL    HW2 3852   1.549   2.056   2.800
  985SOL     OW 3853   6.185   3.926   4.344
  985SOL    HW1 3854   6.274   3.969   4.326
  985SOL    HW2 3855   6.190   3.830   4.317
  986SOL     OW 3856   5.362   4.445   1.252
  986SOL    HW1 3857   5.355   4.378   1.326
  986SOL    HW2 3858   5.344   4.537   1.288
  987SOL     OW 3859   5.795   5.163   3.496
  987SOL    HW1 3860   5.832   5.078   3.535
  987SOL    HW2 3861   5.861   5.203   3.433
  988SOL     OW 3862   3.421   3.969   1.541
  988SOL    HW1 3863   3.486   3.989   1.614
  988SOL    HW2 3864   3.335   3.937   1.581
  989SOL     OW 3865   0.112   2.023   0.894
  989SOL    HW1 3866   0.163   2.068   0.967
  989SOL    HW2 3867   0.161   2.032   0.807
  990SOL     OW 3868   3.407   0.176   3.198
  990SOL    HW1 3869   3.502   0.172   3.227
  990SOL    HW2 3870   3.358   0.097   3.235
  991SOL     OW 3871   6.912   4.253   4.238
  991SOL    HW1 3872   6.883   4.349   4.239
  991SOL    HW2 3873   7.005   4.247   4.202
  992SOL     OW 3874   0.376   2.849   1.483
  992SOL    HW1 3875   0.287   2.843   1.437
  992SOL    HW2 3876   0.449   2.853   1.414
  993SOL     OW 3877   1.784   5.067   0.861
  993SOL    HW1 3878   1.840   5.106   0.934
  993SOL    HW2 3879   1.749   5.141   0.803
  994SOL     OW 3880   3.411   6.365   1.207
  994SOL    HW1 3881   3.397   6.460   1.178
  994SOL    HW2 3882   3.416   6.361   1.306
  995SOL     OW 3883   5.241   3.947   5.377
  995SOL    HW1 3884   5.187   4.025   5.409
  995SOL    HW2 3885   5.334   3.953   5.413
  996SOL     OW 3886   3.811   6.256   5.722
  996SOL    HW1 3887   3.784   6.328   5.658
  996SOL    HW2 3888   3.731   6.228   5.776
  997SOL     OW 3889   1.538   6.239   4.121
  997SOL    HW1 3890   1.627   6.198   4.140
  997SOL    HW2 3891   1.524   6.241   4.022
  998SOL     OW 3892   5.850   0.244   6.244
  998SOL    HW1 3893   5.906   0.236   6.327
  998SOL    HW2 3894   5.858   0.337   6.208
  999SOL     OW 3895   4.895   3.513   1.926
  999SOL    HW1 3896   4.898   3.449   2.002
  999SOL    HW2 3897   4.824   3.486   1.862
 1000SOL     OW 3898   3.852   1.530   1.736
 1000SOL    HW1 3899   3.853   1.614   1.790
 1000SOL    HW2 3900   3.904   1.544   1.651
 1001SOL     OW 3901   3.171   6.568   2.330
 1001SOL    HW1 3902   3.240   6.496   2.338
 1001SOL    HW2 3903   3.205   6.652   2.372
 1002SOL     OW 3904   5.602   2.899   1.184
 1002SOL    HW1 3905   5.510   2.933   1.162
 1002SOL    HW2 3906   5.600   2.857   1.275
 1003SOL     OW 3907   1.531   5.964   2.044
 1003SOL    HW1 3908   1.483   5.970   2.132
 1003SOL    HW2 3909   1.506   5.879   1.998
 1004SOL     OW 3910   5.667   1.920   3.290
 1004SOL    HW1 3911   5.679   1.827   3.257
 1004SOL    HW2 3912   5.569   1.942   3.294
 1005SOL     OW 3913   1.384   4.895   4.856
 1005SOL    HW1 3914   1.321   4.963   4.819
 1005SOL    HW2 3915   1.475   4.909   4.818
 1006SOL     OW 3916   2.584   3.911   0.476
 1006SOL    HW1 3917   2.664   3.878   0.526
 1006SOL    HW2 3918   2.589   4.011   0.467
 1007SOL     OW 3919   4.420   1.992   6.471
 1007SOL    HW1 3920   4.513   1.956   6.478
 1007SOL    HW2 3921   4.378   1.958   6.386
 1008SOL     OW 3922   0.647   4.837   5.138
 1008SOL    HW1 3923   0.576   4.767   5.148
 1008SOL    HW2 3924   0.703   4.816   5.058
 1009SOL     OW 3925   6.101   5.041   5.289
 1009SOL    HW1 3926   6.139   5.133   5.287
 1009SOL    HW2 3927   6.134   4.993   5.371
 1010SOL     OW 3928   2.197   3.316   1.298
 1010SOL    HW1 3929   2.192   3.389   1.366
 1010SOL    HW2 3930   2.275   3.257   1.319
 1011SOL     OW 3931   0.821   4.976   2.519
 1011SOL    HW1 3932   0.894   4.937   2.575
 1011SOL    HW2 3933   0.860   5.046   2.458
 1012SOL     OW 3934   5.944   0.421   2.427
 1012SOL    HW1 3935   6.032   0.464   2.448
 1012SOL    HW2 3936   5.885   0.488   2.381
 1013SOL     OW 3937   6.963   0.718   6.121
 1013SOL    HW1 3938   6.932   0.628   6.153
 1013SOL    HW2 3939   6.883   0.774   6.098
 1014SOL     OW 3940   1.307   5.139   4.038
 1014SOL    HW1 3941   1.270   5.064   3.982
 1014SOL    HW2 3942   1.371   5.102   4.105
 1015SOL     OW 3943   3.319   0.312   6.548
 1015SOL    HW1 3944   3.234   0.282   6.591
 1015SOL    HW2 3945   3.370   0.233   6.515
 1016SOL     OW 3946   5.041   4.417   1.618
 1016SOL    HW1 3947   5.113   4.374   1.673
 1016SOL    HW2 3948   5.047   4.516   1.628
 1017SOL     OW 3949   1.810   1.354   2.205
 1017SOL    HW1 3950   1.821   1.414   2.125
 1017SOL    HW2 3951   1.789   1.410   2.285
 1018SOL     OW 3952   0.420   5.236   3.628
 1018SOL    HW1 3953   0.483   5.298   3.675
 1018SOL    HW2 3954   0.348   5.207   3.692
 1019SOL     OW 3955   0.077   4.987   0.454
 1019SOL    HW1 3956   0.001   5.012   0.514
 1019SOL    HW2 3957   0.044   4.925   0.383
 1020SOL     OW 3958   6.865   0.360   1.353
 1020SOL    HW1 3959   6.792   0.354   1.285
 1020SOL    HW2 3960   6.916   0.274   1.355
 1021SOL     OW 3961   6.020   5.640   1.510
 1021SOL    HW1 3962   5.938   5.640   1.453
 1021SOL    HW2 3963   6.099   5.610   1.457
 1022SOL     OW 3964   2.537   6.346   6.496
 1022SOL    HW1 3965   2.492   6.257   6.505
 1022SOL    HW2 3966   2.469   6.415   6.473
 1023SOL     OW 3967   0.187   1.750   3.352
 1023SOL    HW1 3968   0.263   1.810   3.375
 1023SOL    HW2 3969   0.166   1.692   3.431
 1024SOL     OW 3970   1.442   2.082   4.767
 1024SOL    HW1 3971   1.443   2.171   4.721
 1024SOL    HW2 3972   1.414   2.012   4.702
 1025SOL     OW 3973   5.116   3.740   0.074
 1025SOL    HW1 3974   5.176   3.809   0.034
 1025SOL    HW2 3975   5.161   3.700   0.154
 1026SOL     OW 3976   3.162   2.573   1.293
 1026SOL    HW1 3977   3.192   2.667   1.280
 1026SOL    HW2 3978   3.074   2.573   1.342
 1027SOL     OW 3979   1.189   6.357   1.348
 1027SOL    HW1 3980   1.112   6.357   1.412
 1027SOL    HW2 3981   1.274   6.345   1.398
 1028SOL     OW 3982   1.061   5.744   2.895
 1028SOL    HW1 3983   1.080   5.838   2.922
 1028SOL    HW2 3984   1.147   5.694   2.885
 1029SOL     OW 3985   1.480   1.955   5.708
 1029SOL    HW1 3986   1.522   1.864   5.713
 1029SOL    HW2 3987   1.401   1.951   5.647
 1030SOL     OW 3988   3.278   3.462   1.456
 1030SOL    HW1 3989   3.201   3.513   1.418
 1030SOL    HW2 3990   3.349   3.526   1.486
 1031SOL     OW 3991   3.684   3.525   1.481
 1031SOL    HW1 3992   3.611   3.593   1.475
 1031SOL    HW2 3993   3.739   3.528   1.397
 1032SOL     OW 3994   1.897   1.522   6.012
 1032SOL    HW1 3995   1.807   1.547   6.048
 1032SOL    HW2 3996   1.950   1.605   5.994
 1033SOL     OW 3997   0.771   6.085   2.149
 1033SOL    HW1 3998   0.755   5.994   2.111
 1033SOL    HW2 3999   0.869   6.105   2.149
 1034SOL     OW 4000   3.545   6.918   4.796
 1034SOL    HW1 4001   3.486   6.886   4.869
 1034SOL    HW2 4002   3.503   6.896   4.707
 1035SOL     OW 4003   0.590   1.377   5.887
 1035SOL    HW1 4004   0.679   1.385   5.932
 1035SOL    HW2 4005   0.568   1.463   5.841
 1036SOL     OW 4006   5.159   1.782   1.198
 1036SOL    HW1 4007   5.192   1.768   1.105
 1036SOL    HW2 4008   5.131   1.877   1.209
 1037SOL     OW 4009   1.895   2.415   2.691
 1037SOL    HW1 4010   1.831   2.338   2.692
 1037SOL    HW2 4011   1.896   2.458   2.781
 1038SOL     OW 4012   2.878   0.366   6.908
 1038SOL    HW1 4013   2.938   0.384   6.830
 1038SOL    HW2 4014   2.863   0.451   6.959
 1039SOL     OW 4015   3.521   3.184   3.661
 1039SOL    HW1 4016   3.535   3.246   3.584
 1039SOL    HW2 4017   3.549   3.092   3.635
 1040SOL     OW 4018   3.954   1.005   2.811
 1040SOL    HW1 4019   3.912   0.998   2.902
 1040SOL    HW2 4020   3.979   0.914   2.779
 1041SOL     OW 4021   6.485   6.396   5.196
 1041SOL    HW1 4022   6.532   6.484   5.187
 1041SOL    HW2 4023   6.397   6.410   5.242
 1042SOL     OW 4024   4.719   4.495   2.320
 1042SOL    HW1 4025   4.656   4.498   2.242
 1042SOL    HW2 4026   4.768   4.582   2.326
 1043SOL     OW 4027   3.125   1.127   3.289
 1043SOL    HW1 4028   3.069   1.125   3.207
 1043SOL    HW2 4029   3.153   1.034   3.314
 1044SOL     OW 4030   5.991   4.697   1.340
 1044SOL    HW1 4031   5.997   4.767   1.412
 1044SOL    HW2 4032   5.946   4.737   1.260
 1045SOL     OW 4033   2.365   0.754   3.830
 1045SOL    HW1 4034   2.425   0.784   3.904
 1045SOL    HW2 4035   2.284   0.812   3.827
 1046SOL     OW 4036   3.479   1.231   1.005
 1046SOL    HW1 4037   3.408   1.165   0.982
 1046SOL    HW2 4038   3.456   1.275   1.092
 1047SOL     OW 4039   3.137   0.026   3.241
 1047SOL    HW1 4040   3.202   6.975   3.270
 1047SOL    HW2 4041   3.087   0.061   3.320
 1048SOL     OW 4042   1.962   5.787   2.032
 1048SOL    HW1 4043   1.901   5.723   1.985
 1048SOL    HW2 4044   2.057   5.768   2.005
 1049SOL     OW 4045   3.756   0.174   5.206
 1049SOL    HW1 4046   3.842   0.199   5.252
 1049SOL    HW2 4047   3.688   0.244   5.224
 1050SOL     OW 4048   3.561   5.045   3.824
 1050SOL    HW1 4049   3.633   5.111   3.799
 1050SOL    HW2 4050   3.552   4.977   3.752
 1051SOL     OW 4051   0.136   0.117   0.219
 1051SOL    HW1 4052   0.052   0.166   0.193
 1051SOL    HW2 4053   0.210   0.182   0.233
 1052SOL     OW 4054   3.899   0.631   6.545
 1052SOL    HW1 4055   3.970   0.581   6.594
 1052SOL    HW2 4056   3.941   0.685   6.472
 1053SOL     OW 4057   6.102   3.655   2.473
 1053SOL    HW1 4058   6.185   3.676   2.421
 1053SOL    HW2 4059   6.037   3.730   2.463
 1054SOL     OW 4060   3.622   4.449   0.390
 1054SOL    HW1 4061   3.554   4.507   0.436
 1054SOL    HW2 4062   3.652   4.377   0.452
 1055SOL     OW 4063   3.917   5.780   6.719
 1055SOL    HW1 4064   3.979   5.702   6.727
 1055SOL    HW2 4065   3.923   5.835   6.802
 1056SOL     OW 4066   2.377   4.493   0.377
 1056SOL    HW1 4067   2.348   4.527   0.466
 1056SOL    HW2 4068   2.474   4.516   0.363
 1057SOL     OW 4069   3.663   1.925   1.462
 1057SOL    HW1 4070   3.758   1.943   1.435
 1057SOL    HW2 4071   3.633   1.995   1.528
 1058SOL     OW 4072   3.533   2.109   2.725
 1058SOL    HW1 4073   3.439   2.137   2.744
 1058SOL    HW2 4074   3.595   2.185   2.745
 1059SOL     OW 4075   2.379   6.085   1.763
 1059SOL    HW1 4076   2.414   6.173   1.796
 1059SOL    HW2 4077   2.356   6.027   1.841
 1060SOL     OW 4078   0.246   5.778   5.238
 1060SOL    HW1 4079   0.157   5.813   5.267
 1060SOL    HW2 4080   0.298   5.851   5.194
 1061SOL     OW 4081   7.017   4.321   0.388
 1061SOL    HW1 4082   0.062   4.369   0.448
 1061SOL    HW2 4083   7.019   4.223   0.407
 1062SOL     OW 4084   3.794   6.294   5.080
 1062SOL    HW1 4085   3.870   6.354   5.053
 1062SOL    HW2 4086   3.805   6.204   5.038
 1063SOL     OW 4087   1.455   6.433   5.583
 1063SOL    HW1 4088   1.496   6.457   5.495
 1063SOL    HW2 4089   1.359   6.411   5.570
 1064SOL     OW 4090   0.598   4.353   1.002
 1064SOL    HW1 4091   0.673   4.397   1.051
 1064SOL    HW2 4092   0.546   4.423   0.953
 1065SOL     OW 4093   3.728   0.562   4.732
 1065SOL    HW1 4094   3.763   0.523   4.647
 1065SOL    HW2 4095   3.723   0.661   4.724
 1066SOL     OW 4096   4.310   0.699   2.075
 1066SOL    HW1 4097   4.336   0.696   2.172
 1066SOL    HW2 4098   4.210   0.701   2.069
 1067SOL     OW 4099   3.035   1.438   0.548
 1067SOL    HW1 4100   3.044   1.502   0.624
 1067SOL    HW2 4101   3.124   1.397   0.528
 1068SOL     OW 4102   5.884   3.459   1.296
 1068SOL    HW1 4103   5.876   3.368   1.255
 1068SOL    HW2 4104   5.856   3.455   1.392
 1069SOL     OW 4105   6.541   4.267   0.979
 1069SOL    HW1 4106   6.484   4.311   0.910
 1069SOL    HW2 4107   6.506   4.176   0.998
 1070SOL     OW 4108   1.899   0.688   2.329
 1070SOL    HW1 4109   1.811   0.644   2.315
 1070SOL    HW2 4110   1.946   0.697   2.241
 1071SOL     OW 4111   6.557   2.253   4.804
 1071SOL    HW1 4112   6.639   2.207   4.770
 1071SOL    HW2 4113   6.536   2.331   4.745
 1072SOL     OW 4114   3.431   1.181   2.271
 1072SOL    HW1 4115   3.349   1.124   2.280
 1072SOL    HW2 4116   3.502   1.148   2.333
 1073SOL     OW 4117   5.403   1.990   3.280
 1073SOL    HW1 4118   5.380   2.087   3.272
 1073SOL    HW2 4119   5.331   1.935   3.237
 1074SOL     OW 4120   3.134   5.061   1.711
 1074SOL    HW1 4121   3.058   5.091   1.770
 1074SOL    HW2 4122   3.209   5.029   1.768
 1075SOL     OW 4123   5.705   2.168   5.164
 1075SOL    HW1 4124   5.620   2.206   5.129
 1075SOL    HW2 4125   5.693   2.070   5.180
 1076SOL     OW 4126   2.184   3.994   4.840
 1076SOL    HW1 4127   2.228   4.024   4.925
 1076SOL    HW2 4128   2.210   4.055   4.765
 1077SOL     OW 4129   6.683   0.491   6.948
 1077SOL    HW1 4130   6.722   0.415   6.897
 1077SOL    HW2 4131   6.742   0.512   0.007
 1078SOL     OW 4132   6.849   6.331   3.853
 1078SOL    HW1 4133   6.938   6.326   3.899
 1078SOL    HW2 4134   6.777   6.298   3.914
 1079SOL     OW 4135   1.405   6.147   2.484
 1079SOL    HW1 4136   1.408   6.224   2.422
 1079SOL    HW2 4137   1.497   6.108   2.494
 1080SOL     OW 4138   2.451   5.306   5.170
 1080SOL    HW1 4139   2.421   5.378   5.232
 1080SOL    HW2 4140   2.381   5.291   5.100
 1081SOL     OW 4141   6.163   5.610   4.330
 1081SOL    HW1 4142   6.250   5.562   4.332
 1081SOL    HW2 4143   6.176   5.705   4.356
 1082SOL     OW 4144   5.591   6.806   6.157
 1082SOL    HW1 4145   5.611   6.770   6.248
 1082SOL    HW2 4146   5.496   6.786   6.133
 1083SOL     OW 4147   5.003   3.986   0.927
 1083SOL    HW1 4148   4.923   4.041   0.903
 1083SOL    HW2 4149   5.027   3.926   0.851
 1084SOL     OW 4150   7.006   0.233   6.655
 1084SOL    HW1 4151   0.004   0.326   6.623
 1084SOL    HW2 4152   6.974   0.176   6.579
 1085SOL     OW 4153   1.788   3.944   4.060
 1085SOL    HW1 4154   1.835   3.867   4.105
 1085SOL    HW2 4155   1.689   3.930   4.066
 1086SOL     OW 4156   6.436   4.354   6.607
 1086SOL    HW1 4157   6.530   4.321   6.596
 1086SOL    HW2 4158   6.378   4.314   6.536
 1087SOL     OW 4159   1.764   0.416   5.475
 1087SOL    HW1 4160   1.796   0.510   5.487
 1087SOL    HW2 4161   1.720   0.385   5.559
 1088SOL     OW 4162   0.205   4.937   3.473
 1088SOL    HW1 4163   0.293   4.955   3.515
 1088SOL    HW2 4164   0.141   4.902   3.541
 1089SOL     OW 4165   6.896   4.883   4.681
 1089SOL    HW1 4166   6.853   4.946   4.747
 1089SOL    HW2 4167   6.961   4.933   4.624
 1090SOL     OW 4168   5.350   1.712   4.503
 1090SOL    HW1 4169   5.345   1.809   4.528
 1090SOL    HW2 4170   5.306   1.657   4.574
 1091SOL     OW 4171   2.215   3.029   3.740
 1091SOL    HW1 4172   2.215   2.939   3.695
 1091SOL    HW2 4173   2.239   3.099   3.673
 1092SOL     OW 4174   1.163   4.743   0.947
 1092SOL    HW1 4175   1.186   4.840   0.950
 1092SOL    HW2 4176   1.074   4.730   0.902
 1093SOL     OW 4177   2.319   6.410   1.306
 1093SOL    HW1 4178   2.250   6.346   1.340
 1093SOL    HW2 4179   2.385   6.360   1.248
 1094SOL     OW 4180   1.169   0.537   2.950
 1094SOL    HW1 4181   1.075   0.506   2.936
 1094SOL    HW2 4182   1.205   0.497   3.034
 1095SOL     OW 4183   6.872   3.067   6.977
 1095SOL    HW1 4184   6.909   3.159   6.993
 1095SOL    HW2 4185   6.787   3.074   6.926
 1096SOL     OW 4186   2.599   5.497   1.141
 1096SOL    HW1 4187   2.649   5.536   1.218
 1096SOL    HW2 4188   2.501   5.500   1.160
 1097SOL     OW 4189   2.459   5.226   3.802
 1097SOL    HW1 4190   2.558   5.219   3.794
 1097SOL    HW2 4191   2.427   5.168   3.877
 1098SOL     OW 4192   5.817   4.372   0.335
 1098SOL    HW1 4193   5.775   4.399   0.248
 1098SOL    HW2 4194   5.749   4.328   0.393
 1099SOL     OW 4195   4.546   1.495   5.968
 1099SOL    HW1 4196   4.611   1.501   5.893
 1099SOL    HW2 4197   4.571   1.419   6.029
 1100SOL     OW 4198   3.991   0.949   3.875
 1100SOL    HW1 4199   4.024   1.042   3.890
 1100SOL    HW2 4200   4.063   0.883   3.895
 1101SOL     OW 4201   5.878   3.485   5.444
 1101SOL    HW1 4202   5.885   3.393   5.484
 1101SOL    HW2 4203   5.787   3.523   5.463
 1102SOL     OW 4204   2.201   0.702   4.460
 1102SOL    HW1 4205   2.182   0.798   4.437
 1102SOL    HW2 4206   2.210   0.692   4.559
 1103SOL     OW 4207   2.861   0.636   6.688
 1103SOL    HW1 4208   2.896   0.543   6.695
 1103SOL    HW2 4209   2.859   0.664   6.592
 1104SOL     OW 4210   0.764   4.137   2.872
 1104SOL    HW1 4211   0.730   4.171   2.784
 1104SOL    HW2 4212   0.789   4.041   2.863
 1105SOL     OW 4213   5.436   1.550   4.997
 1105SOL    HW1 4214   5.447   1.648   4.976
 1105SOL    HW2 4215   5.448   1.536   5.095
 1106SOL     OW 4216   0.697   1.314   0.329
 1106SOL    HW1 4217   0.635   1.264   0.390
 1106SOL    HW2 4218   0.750   1.249   0.274
 1107SOL     OW 4219   1.194   0.721   6.857
 1107SOL    HW1 4220   1.118   0.719   6.791
 1107SOL    HW2 4221   1.279   0.699   6.810
 1108SOL     OW 4222   3.134   6.328   4.155
 1108SOL    HW1 4223   3.140   6.390   4.233
 1108SOL    HW2 4224   3.119   6.381   4.071
 1109SOL     OW 4225   5.391   1.620   3.991
 1109SOL    HW1 4226   5.339   1.650   4.071
 1109SOL    HW2 4227   5.457   1.690   3.966
 1110SOL     OW 4228   3.539   0.876   2.847
 1110SOL    HW1 4229   3.618   0.827   2.884
 1110SOL    HW2 4230   3.480   0.812   2.798
 1111SOL     OW 4231   4.841   3.842   6.060
 1111SOL    HW1 4232   4.888   3.915   6.009
 1111SOL    HW2 4233   4.884   3.832   6.150
 1112SOL     OW 4234   6.041   0.905   2.618
 1112SOL    HW1 4235   5.988   0.961   2.682
 1112SOL    HW2 4236   6.125   0.873   2.663
 1113SOL     OW 4237   6.373   4.400   2.565
 1113SOL    HW1 4238   6.351   4.466   2.636
 1113SOL    HW2 4239   6.394   4.449   2.480
 1114SOL     OW 4240   4.299   2.524   5.961
 1114SOL    HW1 4241   4.256   2.543   6.050
 1114SOL    HW2 4242   4.263   2.439   5.924
 1115SOL     OW 4243   2.975   3.911   6.116
 1115SOL    HW1 4244   2.953   3.860   6.032
 1115SOL    HW2 4245   3.036   3.986   6.094
 1116SOL     OW 4246   5.346   0.926   6.818
 1116SOL    HW1 4247   5.423   0.985   6.794
 1116SOL    HW2 4248   5.288   0.912   6.738
 1117SOL     OW 4249   0.964   2.597   1.622
 1117SOL    HW1 4250   0.899   2.659   1.578
 1117SOL    HW2 4251   1.045   2.648   1.651
 1118SOL     OW 4252   3.131   5.374   0.157
 1118SOL    HW1 4253   3.214   5.384   0.102
 1118SOL    HW2 4254   3.100   5.279   0.154
 1119SOL     OW 4255   4.251   4.811   3.615
 1119SOL    HW1 4256   4.252   4.840   3.520
 1119SOL    HW2 4257   4.340   4.769   3.638
 1120SOL     OW 4258   6.509   5.668   0.916
 1120SOL    HW1 4259   6.546   5.760   0.912
 1120SOL    HW2 4260   6.427   5.662   0.858
 1121SOL     OW 4261   0.710   4.847   4.179
 1121SOL    HW1 4262   0.755   4.820   4.264
 1121SOL    HW2 4263   0.651   4.926   4.196
 1122SOL     OW 4264   5.745   2.665   2.295
 1122SOL    HW1 4265   5.752   2.657   2.394
 1122SOL    HW2 4266   5.658   2.707   2.271
 1123SOL     OW 4267   4.276   2.321   3.141
 1123SOL    HW1 4268   4.185   2.320   3.099
 1123SOL    HW2 4269   4.268   2.314   3.240
 1124SOL     OW 4270   1.956   3.001   4.856
 1124SOL    HW1 4271   2.011   2.952   4.923
 1124SOL    HW2 4272   1.913   2.935   4.794
 1125SOL     OW 4273   1.674   3.640   4.189
 1125SOL    HW1 4274   1.758   3.654   4.136
 1125SOL    HW2 4275   1.697   3.621   4.284
 1126SOL     OW 4276   4.442   5.717   5.515
 1126SOL    HW1 4277   4.498   5.654   5.569
 1126SOL    HW2 4278   4.467   5.812   5.537
 1127SOL     OW 4279   5.326   5.767   3.763
 1127SOL    HW1 4280   5.418   5.730   3.775
 1127SOL    HW2 4281   5.324   5.862   3.797
 1128SOL     OW 4282   6.140   1.415   3.622
 1128SOL    HW1 4283   6.040   1.417   3.624
 1128SOL    HW2 4284   6.174   1.507   3.602
 1129SOL     OW 4285   1.855   0.038   1.156
 1129SOL    HW1 4286   1.762   0.002   1.143
 1129SOL    HW2 4287   1.917   6.982   1.180
 1130SOL     OW 4288   2.141   4.953   3.121
 1130SOL    HW1 4289   2.113   4.911   3.207
 1130SOL    HW2 4290   2.171   5.046   3.137
 1131SOL     OW 4291   0.968   6.800   3.648
 1131SOL    HW1 4292   0.958   6.803   3.748
 1131SOL    HW2 4293   0.931   6.884   3.609
 1132SOL     OW 4294   4.064   1.140   3.270
 1132SOL    HW1 4295   3.979   1.141   3.218
 1132SOL    HW2 4296   4.048   1.176   3.362
 1133SOL     OW 4297   1.146   6.518   5.121
 1133SOL    HW1 4298   1.228   6.576   5.121
 1133SOL    HW2 4299   1.070   6.568   5.161
 1134SOL     OW 4300   4.821   0.108   1.297
 1134SOL    HW1 4301   4.757   0.118   1.221
 1134SOL    HW2 4302   4.773   0.123   1.384
 1135SOL     OW 4303   1.801   6.463   3.621
 1135SOL    HW1 4304   1.768   6.532   3.557
 1135SOL    HW2 4305   1.828   6.381   3.571
 1136SOL     OW 4306   2.755   5.915   2.610
 1136SOL    HW1 4307   2.678   5.851   2.602
 1136SOL    HW2 4308   2.813   5.908   2.529
 1137SOL     OW 4309   0.261   5.934   6.860
 1137SOL    HW1 4310   0.241   5.837   6.876
 1137SOL    HW2 4311   0.355   5.943   6.826
 1138SOL     OW 4312   2.151   2.922   5.073
 1138SOL    HW1 4313   2.243   2.940   5.040
 1138SOL    HW2 4314   2.150   2.838   5.127
 1139SOL     OW 4315   2.704   4.738   4.139
 1139SOL    HW1 4316   2.768   4.731   4.063
 1139SOL    HW2 4317   2.754   4.757   4.223
 1140SOL     OW 4318   2.117   1.321   1.879
 1140SOL    HW1 4319   2.202   1.269   1.873
 1140SOL    HW2 4320   2.133   1.406   1.929
 1141SOL     OW 4321   5.887   4.930   6.003
 1141SOL    HW1 4322   5.938   4.928   5.917
 1141SOL    HW2 4323   5.792   4.954   5.985
 1142SOL     OW 4324   2.411   0.100   2.948
 1142SOL    HW1 4325   2.450   0.014   2.914
 1142SOL    HW2 4326   2.463   0.131   3.028
 1143SOL     OW 4327   0.831   4.066   1.607
 1143SOL    HW1 4328   0.817   3.980   1.656
 1143SOL    HW2 4329   0.916   4.062   1.556
 1144SOL     OW 4330   5.452   4.508   2.495
 1144SOL    HW1 4331   5.535   4.508   2.439
 1144SOL    HW2 4332   5.421   4.413   2.509
 1145SOL     OW 4333   1.234   1.599   0.386
 1145SOL    HW1 4334   1.220   1.668   0.315
 1145SOL    HW2 4335   1.245   1.510   0.344
 1146SOL     OW 4336   0.792   0.704   1.900
 1146SOL    HW1 4337   0.769   0.797   1.929
 1146SOL    HW2 4338   0.847   0.660   1.971
 1147SOL     OW 4339   3.006   6.234   1.117
 1147SOL    HW1 4340   2.953   6.290   1.181
 1147SOL    HW2 4341   2.974   6.140   1.120
 1148SOL     OW 4342   3.784   6.203   1.920
 1148SOL    HW1 4343   3.816   6.112   1.946
 1148SOL    HW2 4344   3.772   6.259   2.002
 1149SOL     OW 4345   5.712   2.424   1.540
 1149SOL    HW1 4346   5.721   2.327   1.564
 1149SOL    HW2 4347   5.719   2.480   1.623
 1150SOL     OW 4348   1.389   4.012   6.707
 1150SOL    HW1 4349   1.470   3.986   6.758
 1150SOL    HW2 4350   1.401   3.988   6.611
 1151SOL     OW 4351   6.355   5.011   3.502
 1151SOL    HW1 4352   6.415   5.001   3.423
 1151SOL    HW2 4353   6.388   4.954   3.577
 1152SOL     OW 4354   4.856   0.882   6.838
 1152SOL    HW1 4355   4.938   0.828   6.817
 1152SOL    HW2 4356   4.817   0.917   6.753
 1153SOL     OW 4357   6.517   6.789   1.346
 1153SOL    HW1 4358   6.616   6.777   1.359
 1153SOL    HW2 4359   6.500   6.876   1.301
 1154SOL     OW 4360   1.501   3.610   2.208
 1154SOL    HW1 4361   1.473   3.573   2.119
 1154SOL    HW2 4362   1.579   3.559   2.242
 1155SOL     OW 4363   2.027   6.805   4.742
 1155SOL    HW1 4364   1.986   6.715   4.753
 1155SOL    HW2 4365   2.025   6.831   4.645
 1156SOL     OW 4366   3.906   1.812   4.906
 1156SOL    HW1 4367   3.945   1.747   4.972
 1156SOL    HW2 4368   3.978   1.875   4.877
 1157SOL     OW 4369   4.207   0.378   5.573
 1157SOL    HW1 4370   4.262   0.296   5.593
 1157SOL    HW2 4371   4.137   0.388   5.644
 1158SOL     OW 4372   5.427   5.752   3.386
 1158SOL    HW1 4373   5.340   5.801   3.390
 1158SOL    HW2 4374   5.412   5.663   3.343
 1159SOL     OW 4375   6.859   5.932   2.727
 1159SOL    HW1 4376   6.895   5.988   2.652
 1159SOL    HW2 4377   6.867   5.835   2.704
 1160SOL     OW 4378   4.090   6.971   0.790
 1160SOL    HW1 4379   4.039   6.938   0.870
 1160SOL    HW2 4380   4.036   0.022   0.744
 1161SOL     OW 4381   6.796   5.507   6.928
 1161SOL    HW1 4382   6.777   5.543   0.001
 1161SOL    HW2 4383   6.727   5.439   6.904
 1162SOL     OW 4384   2.032   3.063   5.285
 1162SOL    HW1 4385   2.095   3.047   5.361
 1162SOL    HW2 4386   2.077   3.036   5.199
 1163SOL     OW 4387   6.071   4.546   1.659
 1163SOL    HW1 4388   6.027   4.477   1.602
 1163SOL    HW2 4389   6.156   4.577   1.615
 1164SOL     OW 4390   5.186   1.972   4.347
 1164SOL    HW1 4391   5.087   1.981   4.350
 1164SOL    HW2 4392   5.225   2.007   4.432
 1165SOL     OW 4393   4.322   6.625   3.220
 1165SOL    HW1 4394   4.271   6.593   3.300
 1165SOL    HW2 4395   4.401   6.677   3.249
 1166SOL     OW 4396   2.384   6.561   6.443
 1166SOL    HW1 4397   2.320   6.637   6.446
 1166SOL    HW2 4398   2.468   6.588   6.396
 1167SOL     OW 4399   5.157   4.012   2.228
 1167SOL    HW1 4400   5.175   4.065   2.145
 1167SOL    HW2 4401   5.081   3.949   2.212
 1168SOL     OW 4402   5.777   2.615   2.589
 1168SOL    HW1 4403   5.838   2.692   2.610
 1168SOL    HW2 4404   5.699   2.617   2.651
 1169SOL     OW 4405   5.534   1.098   5.812
 1169SOL    HW1 4406   5.447   1.144   5.825
 1169SOL    HW2 4407   5.518   1.001   5.797
 1170SOL     OW 4408   4.895   0.348   3.061
 1170SOL    HW1 4409   4.966   0.418   3.057
 1170SOL    HW2 4410   4.819   0.380   3.119
 1171SOL     OW 4411   1.622   0.400   0.817
 1171SOL    HW1 4412   1.577   0.324   0.863
 1171SOL    HW2 4413   1.554   0.459   0.774
 1172SOL     OW 4414   6.535   3.751   0.589
 1172SOL    HW1 4415   6.555   3.705   0.502
 1172SOL    HW2 4416   6.439   3.738   0.612
 1173SOL     OW 4417   3.075   1.163   1.232
 1173SOL    HW1 4418   3.091   1.176   1.330
 1173SOL    HW2 4419   3.055   1.251   1.190
 1174SOL     OW 4420   3.917   3.789   1.175
 1174SOL    HW1 4421   3.850   3.795   1.100
 1174SOL    HW2 4422   4.005   3.758   1.138
 1175SOL     OW 4423   4.140   3.019   5.620
 1175SOL    HW1 4424   4.185   3.096   5.666
 1175SOL    HW2 4425   4.045   3.043   5.599
 1176SOL     OW 4426   5.021   3.495   5.896
 1176SOL    HW1 4427   5.111   3.473   5.933
 1176SOL    HW2 4428   4.954   3.493   5.970
 1177SOL     OW 4429   6.011   2.194   4.568
 1177SOL    HW1 4430   5.938   2.241   4.616
 1177SOL    HW2 4431   6.088   2.257   4.555
 1178SOL     OW 4432   3.115   4.521   0.754
 1178SOL    HW1 4433   3.156   4.492   0.840
 1178SOL    HW2 4434   3.178   4.505   0.678
 1179SOL     OW 4435   2.316   6.110   0.180
 1179SOL    HW1 4436   2.270   6.174   0.242
 1179SOL    HW2 4437   2.256   6.031   0.162
 1180SOL     OW 4438   3.490   5.764   1.474
 1180SOL    HW1 4439   3.586   5.790   1.482
 1180SOL    HW2 4440   3.483   5.669   1.445
 1181SOL     OW 4441   0.820   5.360   6.803
 1181SOL    HW1 4442   0.835   5.426   6.729
 1181SOL    HW2 4443   0.750   5.294   6.775
 1182SOL     OW 4444   3.597   5.510   2.871
 1182SOL    HW1 4445   3.534   5.538   2.799
 1182SOL    HW2 4446   3.679   5.471   2.831
 1183SOL     OW 4447   1.692   4.571   6.989
 1183SOL    HW1 4448   1.622   4.642   6.979
 1183SOL    HW2 4449   1.655   4.483   6.960
 1184SOL     OW 4450   0.868   0.601   4.823
 1184SOL    HW1 4451   0.908   0.540   4.754
 1184SOL    HW2 4452   0.877   0.696   4.792
 1185SOL     OW 4453   6.806   1.047   6.395
 1185SOL    HW1 4454   6.781   0.950   6.394
 1185SOL    HW2 4455   6.769   1.092   6.314
 1186SOL     OW 4456   5.060   5.706   4.361
 1186SOL    HW1 4457   5.000   5.642   4.312
 1186SOL    HW2 4458   5.010   5.746   4.438
 1187SOL     OW 4459   6.672   7.005   6.641
 1187SOL    HW1 4460   6.675   6.988   6.740
 1187SOL    HW2 4461   6.765   7.001   6.604
 1188SOL     OW 4462   2.998   6.141   4.768
 1188SOL    HW1 4463   3.015   6.139   4.670
 1188SOL    HW2 4464   2.992   6.047   4.803
 1189SOL     OW 4465   6.990   3.435   2.860
 1189SOL    HW1 4466   6.893   3.442   2.839
 1189SOL    HW2 4467   0.022   3.422   2.775
 1190SOL     OW 4468   1.934   5.845   3.481
 1190SOL    HW1 4469   2.012   5.784   3.467
 1190SOL    HW2 4470   1.927   5.909   3.404
 1191SOL     OW 4471   4.102   4.926   3.296
 1191SOL    HW1 4472   4.192   4.932   3.339
 1191SOL    HW2 4473   4.108   4.870   3.213
 1192SOL     OW 4474   3.722   5.896   3.174
 1192SOL    HW1 4475   3.816   5.883   3.206
 1192SOL    HW2 4476   3.659   5.885   3.251
 1193SOL     OW 4477   5.901   4.572   4.585
 1193SOL    HW1 4478   5.810   4.601   4.555
 1193SOL    HW2 4479   5.951   4.650   4.623
 1194SOL     OW 4480   5.562   0.366   1.760
 1194SOL    HW1 4481   5.526   0.383   1.852
 1194SOL    HW2 4482   5.616   0.445   1.731
 1195SOL     OW 4483   5.996   5.067   2.144
 1195SOL    HW1 4484   5.953   5.070   2.234
 1195SOL    HW2 4485   5.936   5.113   2.078
 1196SOL     OW 4486   0.325   6.291   3.175
 1196SOL    HW1 4487   0.407   6.342   3.147
 1196SOL    HW2 4488   0.257   6.295   3.102
 1197SOL     OW 4489   3.344   0.781   0.078
 1197SOL    HW1 4490   3.369   0.861   0.133
 1197SOL    HW2 4491   3.249   0.758   0.095
 1198SOL     OW 4492   0.829   2.677   1.243
 1198SOL    HW1 4493   0.897   2.605   1.224
 1198SOL    HW2 4494   0.870   2.745   1.303
 1199SOL     OW 4495   4.481   5.101   1.597
 1199SOL    HW1 4496   4.569   5.113   1.552
 1199SOL    HW2 4497   4.472   5.006   1.629
 1200SOL     OW 4498   3.451   3.250   2.709
 1200SOL    HW1 4499   3.399   3.204   2.637
 1200SOL    HW2 4500   3.521   3.187   2.745
 1201SOL     OW 4501   1.241   1.008   4.777
 1201SOL    HW1 4502   1.318   0.949   4.801
 1201SOL    HW2 4503   1.195   0.971   4.696
 1202SOL     OW 4504   1.021   5.873   6.396
 1202SOL    HW1 4505   1.030   5.945   6.465
 1202SOL    HW2 4506   0.964   5.906   6.321
 1203SOL     OW 4507   5.038   5.907   6.342
 1203SOL    HW1 4508   5.005   5.968   6.415
 1203SOL    HW2 4509   4.994   5.932   6.256
 1204SOL     OW 4510   2.429   0.331   1.816
 1204SOL    HW1 4511   2.377   0.258   1.772
 1204SOL    HW2 4512   2.366   0.400   1.852
 1205SOL     OW 4513   4.781   4.356   1.712
 1205SOL    HW1 4514   4.741   4.422   1.775
 1205SOL    HW2 4515   4.874   4.385   1.690
 1206SOL     OW 4516   3.203   2.965   4.644
 1206SOL    HW1 4517   3.206   2.899   4.718
 1206SOL    HW2 4518   3.195   3.057   4.682
 1207SOL     OW 4519   2.531   0.081   1.576
 1207SOL    HW1 4520   2.482   0.098   1.662
 1207SOL    HW2 4521   2.509   0.152   1.510
 1208SOL     OW 4522   3.581   3.800   6.994
 1208SOL    HW1 4523   3.575   3.873   6.925
 1208SOL    HW2 4524   3.677   3.785   7.018
 1209SOL     OW 4525   3.650   0.320   5.517
 1209SOL    HW1 4526   3.698   0.377   5.451
 1209SOL    HW2 4527   3.566   0.367   5.546
 1210SOL     OW 4528   2.752   6.728   3.399
 1210SOL    HW1 4529   2.795   6.669   3.467
 1210SOL    HW2 4530   2.817   6.743   3.324
 1211SOL     OW 4531   1.641   3.742   1.074
 1211SOL    HW1 4532   1.722   3.776   1.026
 1211SOL    HW2 4533   1.660   3.736   1.172
 1212SOL     OW 4534   0.353   0.500   6.283
 1212SOL    HW1 4535   0.390   0.531   6.196
 1212SOL    HW2 4536   0.283   0.430   6.267
 1213SOL     OW 4537   5.768   2.634   0.025
 1213SOL    HW1 4538   5.739   2.723   7.008
 1213SOL    HW2 4539   5.847   2.601   6.991
 1214SOL     OW 4540   6.810   2.061   0.919
 1214SOL    HW1 4541   6.908   2.073   0.901
 1214SOL    HW2 4542   6.797   1.981   0.978
 1215SOL     OW 4543   1.574   4.425   4.355
 1215SOL    HW1 4544   1.652   4.441   4.415
 1215SOL    HW2 4545   1.603   4.371   4.276
 1216SOL     OW 4546   4.022   0.404   0.206
 1216SOL    HW1 4547   4.088   0.418   0.279
 1216SOL    HW2 4548   4.033   0.312   0.168
 1217SOL     OW 4549   1.570   4.449   0.621
 1217SOL    HW1 4550   1.662   4.488   0.633
 1217SOL    HW2 4551   1.514   4.513   0.569
 1218SOL     OW 4552   1.489   5.038   4.190
 1218SOL    HW1 4553   1.519   5.060   4.282
 1218SOL    HW2 4554   1.530   4.951   4.161
 1219SOL     OW 4555   4.692   5.878   2.191
 1219SOL    HW1 4556   4.675   5.973   2.219
 1219SOL    HW2 4557   4.718   5.824   2.271
 1220SOL     OW 4558   1.423   5.036   3.029
 1220SOL    HW1 4559   1.494   5.106   3.039
 1220SOL    HW2 4560   1.370   5.030   3.114
 1221SOL     OW 4561   5.378   3.012   5.752
 1221SOL    HW1 4562   5.332   3.087   5.704
 1221SOL    HW2 4563   5.309   2.954   5.795
 1222SOL     OW 4564   6.129   6.717   0.060
 1222SOL    HW1 4565   6.154   6.632   0.013
 1222SOL    HW2 4566   6.150   6.795   0.001
 1223SOL     OW 4567   4.131   0.465   0.458
 1223SOL    HW1 4568   4.071   0.544   0.465
 1223SOL    HW2 4569   4.098   0.391   0.517
 1224SOL     OW 4570   2.337   6.910   1.287
 1224SOL    HW1 4571   2.420   6.965   1.290
 1224SOL    HW2 4572   2.361   6.813   1.287
 1225SOL     OW 4573   3.181   4.124   6.091
 1225SOL    HW1 4574   3.280   4.122   6.072
 1225SOL    HW2 4575   3.141   4.204   6.045
 1226SOL     OW 4576   2.378   4.176   1.510
 1226SOL    HW1 4577   2.405   4.157   1.605
 1226SOL    HW2 4578   2.394   4.272   1.489
 1227SOL     OW 4579   6.742   3.090   6.726
 1227SOL    HW1 4580   6.658   3.045   6.696
 1227SOL    HW2 4581   6.768   3.161   6.660
 1228SOL     OW 4582   3.714   2.669   6.693
 1228SOL    HW1 4583   3.661   2.754   6.690
 1228SOL    HW2 4584   3.777   2.667   6.616
 1229SOL     OW 4585   4.698   4.646   6.472
 1229SOL    HW1 4586   4.741   4.558   6.454
 1229SOL    HW2 4587   4.718   4.674   6.566
 1230SOL     OW 4588   4.106   0.635   4.443
 1230SOL    HW1 4589   4.011   0.657   4.468
 1230SOL    HW2 4590   4.121   0.536   4.455
 1231SOL     OW 4591   2.084   3.651   5.263
 1231SOL    HW1 4592   2.133   3.738   5.272
 1231SOL    HW2 4593   2.054   3.639   5.169
 1232SOL     OW 4594   1.082   2.746   5.379
 1232SOL    HW1 4595   0.997   2.742   5.432
 1232SOL    HW2 4596   1.092   2.838   5.340
 1233SOL     OW 4597   1.210   2.761   5.618
 1233SOL    HW1 4598   1.162   2.833   5.669
 1233SOL    HW2 4599   1.167   2.750   5.529
 1234SOL     OW 4600   6.679   4.682   4.656
 1234SOL    HW1 4601   6.633   4.674   4.744
 1234SOL    HW2 4602   6.748   4.754   4.661
 1235SOL     OW 4603   6.597   5.426   2.432
 1235SOL    HW1 4604   6.684   5.394   2.394
 1235SOL    HW2 4605   6.555   5.353   2.485
 1236SOL     OW 4606   5.138   1.053   6.404
 1236SOL    HW1 4607   5.165   0.969   6.358
 1236SOL    HW2 4608   5.201   1.071   6.480
 1237SOL     OW 4609   2.630   4.404   6.082
 1237SOL    HW1 4610   2.634   4.411   5.983
 1237SOL    HW2 4611   2.683   4.478   6.123
 1238SOL     OW 4612   2.024   1.201   1.341
 1238SOL    HW1 4613   2.017   1.107   1.308
 1238SOL    HW2 4614   2.116   1.216   1.378
 1239SOL     OW 4615   0.160   6.000   6.394
 1239SOL    HW1 4616   0.143   6.018   6.491
 1239SOL    HW2 4617   0.153   5.902   6.376
 1240SOL     OW 4618   5.446   6.117   1.744
 1240SOL    HW1 4619   5.426   6.146   1.650
 1240SOL    HW2 4620   5.522   6.171   1.780
 1241SOL     OW 4621   6.400   3.265   4.795
 1241SOL    HW1 4622   6.453   3.323   4.733
 1241SOL    HW2 4623   6.326   3.221   4.744
 1242SOL     OW 4624   1.762   3.574   0.131
 1242SOL    HW1 4625   1.685   3.536   0.079
 1242SOL    HW2 4626   1.787   3.663   0.092
 1243SOL     OW 4627   2.162   5.195   5.332
 1243SOL    HW1 4628   2.151   5.238   5.243
 1243SOL    HW2 4629   2.140   5.098   5.326
 1244SOL     OW 4630   0.144   0.542   2.969
 1244SOL    HW1 4631   0.200   0.460   2.979
 1244SOL    HW2 4632   0.179   0.598   2.894
 1245SOL     OW 4633   2.756   3.354   6.902
 1245SOL    HW1 4634   2.753   3.429   6.969
 1245SOL    HW2 4635   2.849   3.344   6.868
 1246SOL     OW 4636   2.252   6.746   2.022
 1246SOL    HW1 4637   2.256   6.654   2.061
 1246SOL    HW2 4638   2.243   6.813   2.096
 1247SOL     OW 4639   3.065   6.873   6.406
 1247SOL    HW1 4640   3.067   6.839   6.312
 1247SOL    HW2 4641   3.158   6.889   6.437
 1248SOL     OW 4642   1.268   6.352   3.682
 1248SOL    HW1 4643   1.253   6.321   3.588
 1248SOL    HW2 4644   1.189   6.327   3.738
 1249SOL     OW 4645   5.803   3.523   3.299
 1249SOL    HW1 4646   5.825   3.452   3.232
 1249SOL    HW2 4647   5.784   3.481   3.388
 1250SOL     OW 4648   1.499   4.689   4.336
 1250SOL    HW1 4649   1.531   4.729   4.250
 1250SOL    HW2 4650   1.502   4.589   4.329
 1251SOL     OW 4651   4.112   1.018   4.455
 1251SOL    HW1 4652   4.130   0.990   4.550
 1251SOL    HW2 4653   4.186   0.985   4.396
 1252SOL     OW 4654   3.482   3.558   5.984
 1252SOL    HW1 4655   3.449   3.641   6.030
 1252SOL    HW2 4656   3.483   3.572   5.885
 1253SOL     OW 4657   3.459   5.433   2.127
 1253SOL    HW1 4658   3.484   5.349   2.174
 1253SOL    HW2 4659   3.397   5.412   2.052
 1254SOL     OW 4660   6.315   2.113   3.337
 1254SOL    HW1 4661   6.252   2.092   3.412
 1254SOL    HW2 4662   6.358   2.201   3.354
 1255SOL     OW 4663   0.367   0.300   5.501
 1255SOL    HW1 4664   0.464   0.283   5.482
 1255SOL    HW2 4665   0.328   0.354   5.426
 1256SOL     OW 4666   6.341   0.283   2.460
 1256SOL    HW1 4667   6.438   0.295   2.479
 1256SOL    HW2 4668   6.298   0.372   2.444
 1257SOL     OW 4669   6.818   0.737   3.215
 1257SOL    HW1 4670   6.873   0.667   3.262
 1257SOL    HW2 4671   6.764   0.787   3.283
 1258SOL     OW 4672   1.079   6.266   3.059
 1258SOL    HW1 4673   1.088   6.169   3.082
 1258SOL    HW2 4674   1.047   6.276   2.966
 1259SOL     OW 4675   4.094   1.944   5.503
 1259SOL    HW1 4676   4.141   1.952   5.415
 1259SOL    HW2 4677   4.106   1.852   5.539
 1260SOL     OW 4678   0.910   1.055   6.836
 1260SOL    HW1 4679   0.824   1.051   6.786
 1260SOL    HW2 4680   0.903   1.000   6.920
 1261SOL     OW 4681   0.365   5.024   0.148
 1261SOL    HW1 4682   0.365   5.039   0.049
 1261SOL    HW2 4683   0.306   4.946   0.170
 1262SOL     OW 4684   5.574   5.711   1.979
 1262SOL    HW1 4685   5.560   5.737   1.883
 1262SOL    HW2 4686   5.613   5.788   2.028
 1263SOL     OW 4687   0.543   1.826   2.512
 1263SOL    HW1 4688   0.470   1.816   2.580
 1263SOL    HW2 4689   0.506   1.808   2.421
 1264SOL     OW 4690   1.084   3.546   5.314
 1264SOL    HW1 4691   1.156   3.551   5.244
 1264SOL    HW2 4692   1.095   3.623   5.377
 1265SOL     OW 4693   6.122   5.745   5.339
 1265SOL    HW1 4694   6.117   5.783   5.431
 1265SOL    HW2 4695   6.156   5.814   5.276
 1266SOL     OW 4696   1.460   0.814   4.876
 1266SOL    HW1 4697   1.553   0.782   4.862
 1266SOL    HW2 4698   1.434   0.802   4.972
 1267SOL     OW 4699   4.756   0.762   2.146
 1267SOL    HW1 4700   4.751   0.780   2.047
 1267SOL    HW2 4701   4.745   0.665   2.163
 1268SOL     OW 4702   4.123   2.391   5.427
 1268SOL    HW1 4703   4.216   2.354   5.426
 1268SOL    HW2 4704   4.111   2.451   5.348
 1269SOL     OW 4705   5.679   2.507   3.944
 1269SOL    HW1 4706   5.742   2.570   3.989
 1269SOL    HW2 4707   5.635   2.552   3.866
 1270SOL     OW 4708   1.626   4.483   2.443
 1270SOL    HW1 4709   1.577   4.424   2.507
 1270SOL    HW2 4710   1.579   4.484   2.355
 1271SOL     OW 4711   1.637   1.158   1.481
 1271SOL    HW1 4712   1.593   1.127   1.397
 1271SOL    HW2 4713   1.568   1.167   1.553
 1272SOL     OW 4714   6.613   4.060   0.193
 1272SOL    HW1 4715   6.623   4.150   0.233
 1272SOL    HW2 4716   6.676   4.050   0.116
 1273SOL     OW 4717   1.202   4.341   5.231
 1273SOL    HW1 4718   1.193   4.281   5.152
 1273SOL    HW2 4719   1.200   4.436   5.201
 1274SOL     OW 4720   0.581   4.779   2.098
 1274SOL    HW1 4721   0.560   4.787   2.000
 1274SOL    HW2 4722   0.509   4.824   2.151
 1275SOL     OW 4723   2.796   0.763   3.101
 1275SOL    HW1 4724   2.727   0.699   3.133
 1275SOL    HW2 4725   2.784   0.851   3.147
 1276SOL     OW 4726   5.253   4.849   4.345
 1276SOL    HW1 4727   5.276   4.846   4.248
 1276SOL    HW2 4728   5.212   4.762   4.372
 1277SOL     OW 4729   0.264   5.668   6.932
 1277SOL    HW1 4730   0.206   5.602   6.884
 1277SOL    HW2 4731   0.326   5.619   6.992
 1278SOL     OW 4732   1.166   6.104   2.572
 1278SOL    HW1 4733   1.260   6.109   2.538
 1278SOL    HW2 4734   1.115   6.184   2.542
 1279SOL     OW 4735   3.184   2.637   6.504
 1279SOL    HW1 4736   3.148   2.545   6.495
 1279SOL    HW2 4737   3.111   2.704   6.485
 1280SOL     OW 4738   3.299   1.651   3.371
 1280SOL    HW1 4739   3.231   1.720   3.395
 1280SOL    HW2 4740   3.299   1.579   3.440
 1281SOL     OW 4741   3.410   6.241   3.925
 1281SOL    HW1 4742   3.495   6.265   3.879
 1281SOL    HW2 4743   3.332   6.265   3.867
 1282SOL     OW 4744   6.911   2.844   0.788
 1282SOL    HW1 4745   7.006   2.820   0.771
 1282SOL    HW2 4746   6.886   2.817   0.881
 1283SOL     OW 4747   5.785   3.355   5.140
 1283SOL    HW1 4748   5.733   3.309   5.068
 1283SOL    HW2 4749   5.816   3.288   5.208
 1284SOL     OW 4750   3.573   1.578   1.234
 1284SOL    HW1 4751   3.576   1.591   1.334
 1284SOL    HW2 4752   3.660   1.608   1.194
 1285SOL     OW 4753   3.450   1.790   4.583
 1285SOL    HW1 4754   3.545   1.760   4.590
 1285SOL    HW2 4755   3.443   1.867   4.519
 1286SOL     OW 4756   5.147   2.262   1.870
 1286SOL    HW1 4757   5.110   2.329   1.934
 1286SOL    HW2 4758   5.233   2.297   1.832
 1287SOL     OW 4759   0.052   4.661   4.706
 1287SOL    HW1 4760   0.003   4.748   4.703
 1287SOL    HW2 4761   7.011   4.591   4.745
 1288SOL     OW 4762   4.387   4.055   6.248
 1288SOL    HW1 4763   4.388   4.007   6.336
 1288SOL    HW2 4764   4.326   4.134   6.253
 1289SOL     OW 4765   6.559   0.934   1.592
 1289SOL    HW1 4766   6.651   0.957   1.562
 1289SOL    HW2 4767   6.542   0.837   1.573
 1290SOL     OW 4768   1.580   0.204   6.830
 1290SOL    HW1 4769   1.535   0.288   6.800
 1290SOL    HW2 4770   1.514   0.147   6.879
 1291SOL     OW 4771   6.511   4.671   3.293
 1291SOL    HW1 4772   6.581   4.601   3.286
 1291SOL    HW2 4773   6.458   4.675   3.208
 1292SOL     OW 4774   0.827   6.148   1.761
 1292SOL    HW1 4775   0.901   6.125   1.824
 1292SOL    HW2 4776   0.771   6.067   1.744
 1293SOL     OW 4777   2.509   1.652   6.904
 1293SOL    HW1 4778   2.552   1.699   6.827
 1293SOL    HW2 4779   2.546   1.687   6.990
 1294SOL     OW 4780   1.827   4.111   5.764
 1294SOL    HW1 4781   1.880   4.142   5.685
 1294SOL    HW2 4782   1.809   4.013   5.755
 1295SOL     OW 4783   6.990   3.391   1.399
 1295SOL    HW1 4784   6.975   3.295   1.423
 1295SOL    HW2 4785   7.018   3.441   1.481
 1296SOL     OW 4786   5.359   6.677   6.077
 1296SOL    HW1 4787   5.417   6.619   6.019
 1296SOL    HW2 4788   5.331   6.758   6.025
 1297SOL     OW 4789   0.411   0.776   2.507
 1297SOL    HW1 4790   0.329   0.776   2.449
 1297SOL    HW2 4791   0.455   0.866   2.501
 1298SOL     OW 4792   5.666   5.556   2.674
 1298SOL    HW1 4793   5.589   5.595   2.724
 1298SOL    HW2 4794   5.671   5.597   2.583
 1299SOL     OW 4795   1.999   3.430   4.228
 1299SOL    HW1 4796   2.067   3.357   4.221
 1299SOL    HW2 4797   1.972   3.441   4.324
 1300SOL     OW 4798   2.161   4.118   1.102
 1300SOL    HW1 4799   2.118   4.082   1.185
 1300SOL    HW2 4800   2.234   4.056   1.073
 1301SOL     OW 4801   1.081   0.804   1.893
 1301SOL    HW1 4802   1.040   0.777   1.980
 1301SOL    HW2 4803   1.012   0.804   1.821
 1302SOL     OW 4804   5.271   6.279   6.152
 1302SOL    HW1 4805   5.316   6.226   6.225
 1302SOL    HW2 4806   5.244   6.368   6.188
 1303SOL     OW 4807   4.623   6.785   1.627
 1303SOL    HW1 4808   4.523   6.780   1.637
 1303SOL    HW2 4809   4.666   6.709   1.675
 1304SOL     OW 4810   0.740   1.011   1.440
 1304SOL    HW1 4811   0.815   1.041   1.382
 1304SOL    HW2 4812   0.773   1.000   1.534
 1305SOL     OW 4813   5.511   4.615   6.929
 1305SOL    HW1 4814   5.571   4.690   6.957
 1305SOL    HW2 4815   5.503   4.613   6.830
 1306SOL     OW 4816   1.541   5.265   4.679
 1306SOL    HW1 4817   1.581   5.266   4.771
 1306SOL    HW2 4818   1.452   5.219   4.682
 1307SOL     OW 4819   1.743   2.809   3.704
 1307SOL    HW1 4820   1.740   2.731   3.641
 1307SOL    HW2 4821   1.777   2.890   3.656
 1308SOL     OW 4822   6.713   5.504   6.320
 1308SOL    HW1 4823   6.705   5.458   6.409
 1308SOL    HW2 4824   6.645   5.577   6.315
 1309SOL     OW 4825   5.319   4.416   6.105
 1309SOL    HW1 4826   5.406   4.465   6.100
 1309SOL    HW2 4827   5.271   4.441   6.189
 1310SOL     OW 4828   1.222   3.493   3.913
 1310SOL    HW1 4829   1.219   3.590   3.888
 1310SOL    HW2 4830   1.258   3.484   4.006
 1311SOL     OW 4831   6.833   5.734   0.546
 1311SOL    HW1 4832   6.889   5.815   0.528
 1311SOL    HW2 4833   6.873   5.655   0.500
 1312SOL     OW 4834   1.481   0.696   5.582
 1312SOL    HW1 4835   1.571   0.703   5.538
 1312SOL    HW2 4836   1.493   0.669   5.677
 1313SOL     OW 4837   6.749   5.028   3.074
 1313SOL    HW1 4838   6.844   5.059   3.070
 1313SOL    HW2 4839   6.727   5.002   3.168
 1314SOL     OW 4840   2.653   1.696   4.935
 1314SOL    HW1 4841   2.590   1.770   4.911
 1314SOL    HW2 4842   2.726   1.692   4.867
 1315SOL     OW 4843   6.160   0.128   3.975
 1315SOL    HW1 4844   6.159   0.044   3.920
 1315SOL    HW2 4845   6.086   0.124   4.042
 1316SOL     OW 4846   3.934   0.824   4.841
 1316SOL    HW1 4847   3.900   0.734   4.814
 1316SOL    HW2 4848   4.027   0.837   4.807
 1317SOL     OW 4849   2.820   3.418   5.763
 1317SOL    HW1 4850   2.911   3.455   5.780
 1317SOL    HW2 4851   2.783   3.456   5.679
 1318SOL     OW 4852   2.182   2.807   0.226
 1318SOL    HW1 4853   2.117   2.747   0.179
 1318SOL    HW2 4854   2.156   2.817   0.322
 1319SOL     OW 4855   6.921   6.305   0.127
 1319SOL    HW1 4856   6.969   6.217   0.133
 1319SOL    HW2 4857   6.882   6.315   0.036
 1320SOL     OW 4858   3.474   2.865   6.224
 1320SOL    HW1 4859   3.503   2.935   6.289
 1320SOL    HW2 4860   3.400   2.901   6.167
 1321SOL     OW 4861   5.954   2.169   6.543
 1321SOL    HW1 4862   5.992   2.079   6.520
 1321SOL    HW2 4863   5.856   2.160   6.561
 1322SOL     OW 4864   2.780   1.427   6.406
 1322SOL    HW1 4865   2.687   1.391   6.413
 1322SOL    HW2 4866   2.819   1.400   6.318
 1323SOL     OW 4867   3.415   0.252   0.585
 1323SOL    HW1 4868   3.479   0.316   0.627
 1323SOL    HW2 4869   3.410   0.270   0.487
 1324SOL     OW 4870   1.516   3.639   0.014
 1324SOL    HW1 4871   1.537   3.632   6.936
 1324SOL    HW2 4872   1.437   3.582   0.036
 1325SOL     OW 4873   2.218   5.994   6.001
 1325SOL    HW1 4874   2.189   6.036   5.915
 1325SOL    HW2 4875   2.306   5.949   5.988
 1326SOL     OW 4876   4.812   4.029   4.472
 1326SOL    HW1 4877   4.815   4.040   4.571
 1326SOL    HW2 4878   4.766   3.943   4.449
 1327SOL     OW 4879   0.321   6.314   0.690
 1327SOL    HW1 4880   0.224   6.292   0.676
 1327SOL    HW2 4881   0.328   6.396   0.748
 1328SOL     OW 4882   1.168   3.535   5.862
 1328SOL    HW1 4883   1.169   3.623   5.909
 1328SOL    HW2 4884   1.073   3.505   5.849
 1329SOL     OW 4885   0.151   2.609   3.380
 1329SOL    HW1 4886   0.147   2.520   3.333
 1329SOL    HW2 4887   0.060   2.632   3.415
 1330SOL     OW 4888   6.730   2.319   0.921
 1330SOL    HW1 4889   6.652   2.318   0.984
 1330SOL    HW2 4890   6.771   2.227   0.916
 1331SOL     OW 4891   4.134   2.225   2.465
 1331SOL    HW1 4892   4.150   2.324   2.472
 1331SOL    HW2 4893   4.222   2.177   2.470
 1332SOL     OW 4894   2.049   0.415   1.078
 1332SOL    HW1 4895   1.960   0.449   1.049
 1332SOL    HW2 4896   2.120   0.452   1.019
 1333SOL     OW 4897   3.903   3.935   2.973
 1333SOL    HW1 4898   3.843   3.987   3.033
 1333SOL    HW2 4899   3.884   3.838   2.982
 1334SOL     OW 4900   6.903   1.376   2.391
 1334SOL    HW1 4901   6.944   1.465   2.370
 1334SOL    HW2 4902   6.833   1.355   2.323
 1335SOL     OW 4903   1.991   4.012   1.681
 1335SOL    HW1 4904   2.023   3.953   1.607
 1335SOL    HW2 4905   1.945   4.092   1.642
 1336SOL     OW 4906   3.800   0.860   5.381
 1336SOL    HW1 4907   3.747   0.781   5.349
 1336SOL    HW2 4908   3.740   0.940   5.385
 1337SOL     OW 4909   6.007   1.710   3.733
 1337SOL    HW1 4910   6.034   1.807   3.732
 1337SOL    HW2 4911   6.065   1.660   3.798
 1338SOL     OW 4912   6.295   4.213   4.175
 1338SOL    HW1 4913   6.347   4.128   4.172
 1338SOL    HW2 4914   6.353   4.289   4.147
 1339SOL     OW 4915   0.094   0.303   6.961
 1339SOL    HW1 4916   0.166   0.272   6.900
 1339SOL    HW2 4917   0.040   0.224   6.992
 1340SOL     OW 4918   5.000   1.085   1.775
 1340SOL    HW1 4919   5.001   1.039   1.863
 1340SOL    HW2 4920   4.913   1.067   1.728
 1341SOL     OW 4921   4.451   6.777   6.903
 1341SOL    HW1 4922   4.389   6.823   6.966
 1341SOL    HW2 4923   4.535   6.830   6.894
 1342SOL     OW 4924   3.260   5.570   0.688
 1342SOL    HW1 4925   3.167   5.543   0.662
 1342SOL    HW2 4926   3.258   5.660   0.730
 1343SOL     OW 4927   4.921   5.194   3.038
 1343SOL    HW1 4928   5.016   5.174   3.062
 1343SOL    HW2 4929   4.908   5.181   2.940
 1344SOL     OW 4930   6.992   0.107   4.475
 1344SOL    HW1 4931   6.902   0.071   4.449
 1344SOL    HW2 4932   0.042   0.074   4.412
 1345SOL     OW 4933   0.511   5.628   1.712
 1345SOL    HW1 4934   0.443   5.557   1.728
 1345SOL    HW2 4935   0.504   5.697   1.785
 1346SOL     OW 4936   2.361   5.103   5.846
 1346SOL    HW1 4937   2.320   5.096   5.755
 1346SOL    HW2 4938   2.409   5.191   5.854
 1347SOL     OW 4939   1.784   0.446   6.831
 1347SOL    HW1 4940   1.730   0.370   6.793
 1347SOL    HW2 4941   1.876   0.413   6.851
 1348SOL     OW 4942   0.189   6.163   5.211
 1348SOL    HW1 4943   0.263   6.228   5.195
 1348SOL    HW2 4944   0.101   6.206   5.191
 1349SOL     OW 4945   5.427   3.740   3.944
 1349SOL    HW1 4946   5.504   3.680   3.965
 1349SOL    HW2 4947   5.364   3.743   4.021
 1350SOL     OW 4948   3.251   3.621   0.398
 1350SOL    HW1 4949   3.339   3.598   0.356
 1350SOL    HW2 4950   3.208   3.695   0.348
 1351SOL     OW 4951   6.489   2.319   4.345
 1351SOL    HW1 4952   6.531   2.279   4.263
 1351SOL    HW2 4953   6.532   2.408   4.364
 1352SOL     OW 4954   6.933   0.006   2.441
 1352SOL    HW1 4955   0.008   0.030   2.465
 1352SOL    HW2 4956   6.934   6.950   2.375
 1353SOL     OW 4957   0.645   1.692   1.279
 1353SOL    HW1 4958   0.682   1.726   1.365
 1353SOL    HW2 4959   0.692   1.737   1.203
 1354SOL     OW 4960   6.072   4.090   2.313
 1354SOL    HW1 4961   6.025   4.151   2.378
 1354SOL    HW2 4962   6.171   4.103   2.321
 1355SOL     OW 4963   5.840   3.536   4.109
 1355SOL    HW1 4964   5.836   3.616   4.169
 1355SOL    HW2 4965   5.747   3.514   4.078
 1356SOL     OW 4966   3.621   2.845   2.238
 1356SOL    HW1 4967   3.707   2.888   2.209
 1356SOL    HW2 4968   3.574   2.808   2.157
 1357SOL     OW 4969   6.812   3.366   5.556
 1357SOL    HW1 4970   6.884   3.332   5.496
 1357SOL    HW2 4971   6.759   3.289   5.592
 1358SOL     OW 4972   1.263   6.652   0.020
 1358SOL    HW1 4973   1.215   6.736   0.045
 1358SOL    HW2 4974   1.217   6.574   0.061
 1359SOL     OW 4975   6.583   4.094   1.490
 1359SOL    HW1 4976   6.640   4.171   1.516
 1359SOL    HW2 4977   6.537   4.057   1.571
 1360SOL     OW 4978   3.147   3.109   6.361
 1360SOL    HW1 4979   3.152   3.049   6.281
 1360SOL    HW2 4980   3.107   3.197   6.334
 1361SOL     OW 4981   0.133   3.882   4.781
 1361SOL    HW1 4982   0.216   3.842   4.741
 1361SOL    HW2 4983   0.155   3.925   4.868
 1362SOL     OW 4984   3.602   2.880   2.506
 1362SOL    HW1 4985   3.607   2.850   2.411
 1362SOL    HW2 4986   3.507   2.899   2.531
 1363SOL     OW 4987   6.881   5.646   5.416
 1363SOL    HW1 4988   6.839   5.671   5.329
 1363SOL    HW2 4989   6.963   5.591   5.399
 1364SOL     OW 4990   4.439   4.466   0.522
 1364SOL    HW1 4991   4.494   4.496   0.444
 1364SOL    HW2 4992   4.342   4.481   0.502
 1365SOL     OW 4993   0.834   3.549   6.143
 1365SOL    HW1 4994   0.737   3.552   6.169
 1365SOL    HW2 4995   0.891   3.551   6.225
 1366SOL     OW 4996   2.001   0.391   4.884
 1366SOL    HW1 4997   1.966   0.398   4.791
 1366SOL    HW2 4998   1.927   0.409   4.949
 1367SOL     OW 4999   2.167   1.032   2.254
 1367SOL    HW1 5000   2.153   1.066   2.160
 1367SOL    HW2 5001   2.141   1.103   2.319
 1368SOL     OW 5002   5.965   0.130   4.165
 1368SOL    HW1 5003   5.916   0.044   4.181
 1368SOL    HW2 5004   5.985   0.174   4.252
 1369SOL     OW 5005   0.423   0.826   3.262
 1369SOL    HW1 5006   0.452   0.906   3.209
 1369SOL    HW2 5007   0.326   0.834   3.284
 1370SOL     OW 5008   3.203   0.820   2.125
 1370SOL    HW1 5009   3.199   0.917   2.148
 1370SOL    HW2 5010   3.218   0.767   2.209
 1371SOL     OW 5011   3.445   0.249   5.962
 1371SOL    HW1 5012   3.398   0.210   6.041
 1371SOL    HW2 5013   3.532   0.201   5.949
 1372SOL     OW 5014   2.505   1.936   2.363
 1372SOL    HW1 5015   2.438   2.007   2.385
 1372SOL    HW2 5016   2.514   1.928   2.264
 1373SOL     OW 5017   0.688   5.548   1.520
 1373SOL    HW1 5018   0.624   5.584   1.589
 1373SOL    HW2 5019   0.641   5.540   1.432
 1374SOL     OW 5020   4.487   2.003   0.576
 1374SOL    HW1 5021   4.521   1.911   0.593
 1374SOL    HW2 5022   4.443   2.007   0.486
 1375SOL     OW 5023   0.193   4.015   6.226
 1375SOL    HW1 5024   0.105   4.062   6.240
 1375SOL    HW2 5025   0.207   3.998   6.129
 1376SOL     OW 5026   4.931   3.131   3.211
 1376SOL    HW1 5027   4.988   3.208   3.237
 1376SOL    HW2 5028   4.869   3.108   3.286
 1377SOL     OW 5029   6.748   5.333   5.187
 1377SOL    HW1 5030   6.685   5.390   5.134
 1377SOL    HW2 5031   6.730   5.346   5.285
 1378SOL     OW 5032   1.644   2.557   0.081
 1378SOL    HW1 5033   1.552   2.568   0.042
 1378SOL    HW2 5034   1.650   2.468   0.126
 1379SOL     OW 5035   3.812   6.664   2.766
 1379SOL    HW1 5036   3.856   6.752   2.748
 1379SOL    HW2 5037   3.839   6.631   2.857
 1380SOL     OW 5038   6.334   0.060   2.682
 1380SOL    HW1 5039   6.294   0.141   2.724
 1380SOL    HW2 5040   6.429   0.049   2.714
 1381SOL     OW 5041   6.599   1.821   0.710
 1381SOL    HW1 5042   6.597   1.874   0.625
 1381SOL    HW2 5043   6.565   1.728   0.693
 1382SOL     OW 5044   5.649   4.631   6.337
 1382SOL    HW1 5045   5.636   4.541   6.378
 1382SOL    HW2 5046   5.648   4.623   6.237
 1383SOL     OW 5047   2.470   0.234   0.546
 1383SOL    HW1 5048   2.373   0.229   0.521
 1383SOL    HW2 5049   2.524   0.176   0.485
 1384SOL     OW 5050   3.078   2.123   2.617
 1384SOL    HW1 5051   3.031   2.178   2.549
 1384SOL    HW2 5052   3.077   2.027   2.590
 1385SOL     OW 5053   6.870   2.966   3.179
 1385SOL    HW1 5054   6.909   2.939   3.092
 1385SOL    HW2 5055   6.773   2.942   3.181
 1386SOL     OW 5056   1.822   2.476   4.224
 1386SOL    HW1 5057   1.756   2.409   4.190
 1386SOL    HW2 5058   1.780   2.533   4.294
 1387SOL     OW 5059   2.542   0.165   5.042
 1387SOL    HW1 5060   2.546   0.233   4.969
 1387SOL    HW2 5061   2.571   0.207   5.128
 1388SOL     OW 5062   6.287   0.869   4.055
 1388SOL    HW1 5063   6.331   0.886   4.144
 1388SOL    HW2 5064   6.193   0.902   4.058
 1389SOL     OW 5065   5.731   0.132   4.479
 1389SOL    HW1 5066   5.749   0.080   4.563
 1389SOL    HW2 5067   5.682   0.074   4.414
 1390SOL     OW 5068   5.063   2.211   2.375
 1390SOL    HW1 5069   5.070   2.311   2.367
 1390SOL    HW2 5070   5.071   2.185   2.471
 1391SOL     OW 5071   4.806   0.606   4.492
 1391SOL    HW1 5072   4.897   0.567   4.507
 1391SOL    HW2 5073   4.786   0.673   4.563
 1392SOL     OW 5074   4.911   5.910   6.605
 1392SOL    HW1 5075   4.823   5.934   6.565
 1392SOL    HW2 5076   4.928   5.812   6.592
 1393SOL     OW 5077   6.480   0.908   6.340
 1393SOL    HW1 5078   6.422   0.896   6.420
 1393SOL    HW2 5079   6.576   0.910   6.368
 1394SOL     OW 5080   4.435   6.860   4.108
 1394SOL    HW1 5081   4.454   6.763   4.122
 1394SOL    HW2 5082   4.338   6.878   4.125
 1395SOL     OW 5083   1.505   4.855   2.186
 1395SOL    HW1 5084   1.504   4.797   2.105
 1395SOL    HW2 5085   1.411   4.872   2.216
 1396SOL     OW 5086   2.373   1.566   3.961
 1396SOL    HW1 5087   2.402   1.491   4.020
 1396SOL    HW2 5088   2.291   1.608   3.999
 1397SOL     OW 5089   0.343   5.285   3.961
 1397SOL    HW1 5090   0.273   5.271   3.890
 1397SOL    HW2 5091   0.412   5.213   3.953
 1398SOL     OW 5092   0.540   0.905   0.934
 1398SOL    HW1 5093   0.580   0.826   0.887
 1398SOL    HW2 5094   0.573   0.908   1.028
 1399SOL     OW 5095   4.251   0.134   0.225
 1399SOL    HW1 5096   4.160   0.124   0.185
 1399SOL    HW2 5097   4.319   0.147   0.152
 1400SOL     OW 5098   6.035   6.948   5.014
 1400SOL    HW1 5099   6.043   6.959   4.915
 1400SOL    HW2 5100   6.113   6.992   5.058
 1401SOL     OW 5101   5.283   0.408   3.446
 1401SOL    HW1 5102   5.339   0.433   3.367
 1401SOL    HW2 5103   5.200   0.464   3.447
 1402SOL     OW 5104   7.014   4.534   2.088
 1402SOL    HW1 5105   6.947   4.499   2.153
 1402SOL    HW2 5106   0.051   4.604   2.131
 1403SOL     OW 5107   2.955   2.965   6.687
 1403SOL    HW1 5108   2.928   3.047   6.637
 1403SOL    HW2 5109   2.974   2.891   6.622
 1404SOL     OW 5110   4.648   6.701   0.460
 1404SOL    HW1 5111   4.563   6.749   0.440
 1404SOL    HW2 5112   4.633   6.602   0.452
 1405SOL     OW 5113   1.477   3.321   0.986
 1405SOL    HW1 5114   1.512   3.291   0.897
 1405SOL    HW2 5115   1.394   3.270   1.007
 1406SOL     OW 5116   2.270   2.952   1.146
 1406SOL    HW1 5117   2.281   3.051   1.153
 1406SOL    HW2 5118   2.210   2.920   1.220
 1407SOL     OW 5119   0.404   2.910   0.763
 1407SOL    HW1 5120   0.486   2.914   0.821
 1407SOL    HW2 5121   0.326   2.947   0.813
 1408SOL     OW 5122   5.937   6.359   0.416
 1408SOL    HW1 5123   5.969   6.282   0.360
 1408SOL    HW2 5124   5.979   6.354   0.507
 1409SOL     OW 5125   6.605   1.625   5.727
 1409SOL    HW1 5126   6.566   1.554   5.785
 1409SOL    HW2 5127   6.569   1.714   5.754
 1410SOL     OW 5128   3.549   2.054   5.785
 1410SOL    HW1 5129   3.547   2.153   5.801
 1410SOL    HW2 5130   3.557   2.006   5.872
 1411SOL     OW 5131   3.895   5.022   0.238
 1411SOL    HW1 5132   3.843   5.105   0.260
 1411SOL    HW2 5133   3.832   4.949   0.212
 1412SOL     OW 5134   1.633   2.927   0.606
 1412SOL    HW1 5135   1.729   2.946   0.625
 1412SOL    HW2 5136   1.621   2.829   0.592
 1413SOL     OW 5137   1.886   1.653   5.368
 1413SOL    HW1 5138   1.937   1.601   5.437
 1413SOL    HW2 5139   1.841   1.731   5.413
 1414SOL     OW 5140   1.269   4.372   2.337
 1414SOL    HW1 5141   1.349   4.420   2.300
 1414SOL    HW2 5142   1.236   4.420   2.418
 1415SOL     OW 5143   1.958   1.800   4.578
 1415SOL    HW1 5144   1.866   1.834   4.599
 1415SOL    HW2 5145   2.020   1.878   4.566
 1416SOL     OW 5146   3.836   0.198   4.952
 1416SOL    HW1 5147   3.833   0.195   5.052
 1416SOL    HW2 5148   3.813   0.108   4.916
 1417SOL     OW 5149   3.571   3.257   5.922
 1417SOL    HW1 5150   3.625   3.173   5.924
 1417SOL    HW2 5151   3.512   3.261   6.003
 1418SOL     OW 5152   3.509   4.396   6.607
 1418SOL    HW1 5153   3.560   4.480   6.592
 1418SOL    HW2 5154   3.504   4.343   6.522
 1419SOL     OW 5155   2.220   4.830   2.457
 1419SOL    HW1 5156   2.292   4.856   2.393
 1419SOL    HW2 5157   2.240   4.869   2.547
 1420SOL     OW 5158   2.946   6.453   3.226
 1420SOL    HW1 5159   2.882   6.510   3.174
 1420SOL    HW2 5160   3.003   6.401   3.162
 1421SOL     OW 5161   1.296   4.963   5.864
 1421SOL    HW1 5162   1.264   5.013   5.784
 1421SOL    HW2 5163   1.235   4.981   5.941
 1422SOL     OW 5164   2.178   4.192   6.194
 1422SOL    HW1 5165   2.178   4.229   6.287
 1422SOL    HW2 5166   2.115   4.115   6.188
 1423SOL     OW 5167   4.217   0.540   5.377
 1423SOL    HW1 5168   4.136   0.554   5.320
 1423SOL    HW2 5169   4.196   0.474   5.449
 1424SOL     OW 5170   6.196   3.351   6.635
 1424SOL    HW1 5171   6.183   3.278   6.702
 1424SOL    HW2 5172   6.122   3.418   6.644
 1425SOL     OW 5173   4.935   6.426   3.476
 1425SOL    HW1 5174   4.955   6.518   3.442
 1425SOL    HW2 5175   4.958   6.420   3.573
 1426SOL     OW 5176   3.483   2.228   0.212
 1426SOL    HW1 5177   3.407   2.236   0.146
 1426SOL    HW2 5178   3.450   2.185   0.296
 1427SOL     OW 5179   1.429   1.257   3.712
 1427SOL    HW1 5180   1.445   1.325   3.784
 1427SOL    HW2 5181   1.349   1.284   3.659
 1428SOL     OW 5182   0.563   3.764   4.302
 1428SOL    HW1 5183   0.510   3.790   4.382
 1428SOL    HW2 5184   0.537   3.672   4.273
 1429SOL     OW 5185   5.862   1.106   0.850
 1429SOL    HW1 5186   5.892   1.058   0.767
 1429SOL    HW2 5187   5.929   1.175   0.876
 1430SOL     OW 5188   2.144   3.824   3.747
 1430SOL    HW1 5189   2.168   3.863   3.658
 1430SOL    HW2 5190   2.073   3.879   3.790
 1431SOL     OW 5191   2.480   0.770   6.263
 1431SOL    HW1 5192   2.577   0.793   6.249
 1431SOL    HW2 5193   2.432   0.775   6.176
 1432SOL     OW 5194   2.711   1.078   2.290
 1432SOL    HW1 5195   2.752   1.167   2.274
 1432SOL    HW2 5196   2.616   1.090   2.320
 1433SOL     OW 5197   2.675   6.787   3.795
 1433SOL    HW1 5198   2.589   6.830   3.823
 1433SOL    HW2 5199   2.725   6.850   3.736
 1434SOL     OW 5200   0.321   3.273   0.762
 1434SOL    HW1 5201   0.246   3.238   0.706
 1434SOL    HW2 5202   0.408   3.253   0.718
 1435SOL     OW 5203   1.067   6.736   3.940
 1435SOL    HW1 5204   1.057   6.639   3.919
 1435SOL    HW2 5205   1.144   6.773   3.890
 1436SOL     OW 5206   5.361   2.070   6.885
 1436SOL    HW1 5207   5.290   2.132   6.916
 1436SOL    HW2 5208   5.374   2.081   6.786
 1437SOL     OW 5209   3.755   0.385   5.994
 1437SOL    HW1 5210   3.778   0.328   5.915
 1437SOL    HW2 5211   3.659   0.413   5.988
 1438SOL     OW 5212   2.665   0.350   2.321
 1438SOL    HW1 5213   2.761   0.324   2.324
 1438SOL    HW2 5214   2.625   0.340   2.412
 1439SOL     OW 5215   0.596   4.890   6.754
 1439SOL    HW1 5216   0.608   4.853   6.846
 1439SOL    HW2 5217   0.563   4.818   6.694
 1440SOL     OW 5218   3.499   3.170   3.288
 1440SOL    HW1 5219   3.520   3.205   3.196
 1440SOL    HW2 5220   3.532   3.076   3.296
 1441SOL     OW 5221   6.129   2.810   3.747
 1441SOL    HW1 5222   6.202   2.867   3.785
 1441SOL    HW2 5223   6.043   2.833   3.793
 1442SOL     OW 5224   5.347   4.936   0.215
 1442SOL    HW1 5225   5.365   4.953   0.312
 1442SOL    HW2 5226   5.280   4.863   0.206
 1443SOL     OW 5227   0.486   2.724   2.689
 1443SOL    HW1 5228   0.483   2.630   2.656
 1443SOL    HW2 5229   0.487   2.724   2.789
 1444SOL     OW 5230   4.655   1.052   3.638
 1444SOL    HW1 5231   4.686   0.957   3.631
 1444SOL    HW2 5232   4.608   1.078   3.554
 1445SOL     OW 5233   6.304   1.921   0.900
 1445SOL    HW1 5234   6.324   1.872   0.985
 1445SOL    HW2 5235   6.390   1.946   0.856
 1446SOL     OW 5236   4.593   0.981   1.400
 1446SOL    HW1 5237   4.534   0.954   1.324
 1446SOL    HW2 5238   4.553   0.951   1.486
 1447SOL     OW 5239   6.436   0.771   5.552
 1447SOL    HW1 5240   6.441   0.804   5.646
 1447SOL    HW2 5241   6.529   0.749   5.520
 1448SOL     OW 5242   5.514   0.459   6.899
 1448SOL    HW1 5243   5.507   0.366   6.864
 1448SOL    HW2 5244   5.437   0.478   6.961
 1449SOL     OW 5245   4.616   5.994   1.352
 1449SOL    HW1 5246   4.686   5.982   1.423
 1449SOL    HW2 5247   4.653   5.966   1.263
 1450SOL     OW 5248   5.396   3.118   3.546
 1450SOL    HW1 5249   5.458   3.126   3.468
 1450SOL    HW2 5250   5.333   3.042   3.531
 1451SOL     OW 5251   1.377   6.393   3.003
 1451SOL    HW1 5252   1.318   6.425   3.077
 1451SOL    HW2 5253   1.322   6.377   2.921
 1452SOL     OW 5254   4.377   1.192   5.401
 1452SOL    HW1 5255   4.365   1.192   5.302
 1452SOL    HW2 5256   4.295   1.153   5.445
 1453SOL     OW 5257   5.532   4.898   5.240
 1453SOL    HW1 5258   5.539   4.992   5.274
 1453SOL    HW2 5259   5.615   4.875   5.189
 1454SOL     OW 5260   4.164   4.020   0.990
 1454SOL    HW1 5261   4.192   4.002   0.896
 1454SOL    HW2 5262   4.170   3.936   1.044
 1455SOL     OW 5263   2.113   2.664   1.281
 1455SOL    HW1 5264   2.208   2.667   1.310
 1455SOL    HW2 5265   2.064   2.594   1.332
 1456SOL     OW 5266   6.238   6.177   3.503
 1456SOL    HW1 5267   6.311   6.200   3.438
 1456SOL    HW2 5268   6.266   6.100   3.559
 1457SOL     OW 5269   1.417   0.716   3.228
 1457SOL    HW1 5270   1.355   0.641   3.250
 1457SOL    HW2 5271   1.505   0.679   3.199
 1458SOL     OW 5272   5.889   5.509   6.797
 1458SOL    HW1 5273   5.979   5.467   6.812
 1458SOL    HW2 5274   5.844   5.524   6.885
 1459SOL     OW 5275   2.040   0.183   0.048
 1459SOL    HW1 5276   1.957   0.171   0.103
 1459SOL    HW2 5277   2.073   0.093   0.017
 1460SOL     OW 5278   1.429   0.022   6.981
 1460SOL    HW1 5279   1.406   6.949   6.949
 1460SOL    HW2 5280   1.352   0.059   0.015
 1461SOL     OW 5281   5.743   4.901   1.593
 1461SOL    HW1 5282   5.664   4.948   1.631
 1461SOL    HW2 5283   5.727   4.803   1.592
 1462SOL     OW 5284   5.780   0.643   6.396
 1462SOL    HW1 5285   5.808   0.736   6.376
 1462SOL    HW2 5286   5.680   0.638   6.397
 1463SOL     OW 5287   0.658   1.439   4.694
 1463SOL    HW1 5288   0.699   1.349   4.681
 1463SOL    HW2 5289   0.653   1.459   4.792
 1464SOL     OW 5290   0.545   6.179   0.957
 1464SOL    HW1 5291   0.595   6.099   0.992
 1464SOL    HW2 5292   0.609   6.253   0.939
 1465SOL     OW 5293   0.130   6.678   4.777
 1465SOL    HW1 5294   0.202   6.609   4.782
 1465SOL    HW2 5295   0.065   6.653   4.705
 1466SOL     OW 5296   5.513   5.255   3.984
 1466SOL    HW1 5297   5.447   5.329   3.977
 1466SOL    HW2 5298   5.499   5.191   3.908
 1467SOL     OW 5299   0.301   2.763   3.185
 1467SOL    HW1 5300   0.381   2.807   3.227
 1467SOL    HW2 5301   0.234   2.743   3.255
 1468SOL     OW 5302   5.589   5.614   3.544
 1468SOL    HW1 5303   5.592   5.683   3.616
 1468SOL    HW2 5304   5.514   5.635   3.481
 1469SOL     OW 5305   0.587   1.515   2.985
 1469SOL    HW1 5306   0.552   1.422   2.992
 1469SOL    HW2 5307   0.624   1.531   2.894
 1470SOL     OW 5308   0.173   1.457   3.174
 1470SOL    HW1 5309   0.269   1.479   3.195
 1470SOL    HW2 5310   0.145   1.376   3.226
 1471SOL     OW 5311   0.053   0.021   6.936
 1471SOL    HW1 5312   0.029   6.958   6.989
 1471SOL    HW2 5313   0.042   0.002   6.839
 1472SOL     OW 5314   3.926   0.659   5.787
 1472SOL    HW1 5315   3.918   0.600   5.706
 1472SOL    HW2 5316   3.963   0.748   5.759
 1473SOL     OW 5317   6.154   4.303   3.751
 1473SOL    HW1 5318   6.115   4.315   3.660
 1473SOL    HW2 5319   6.149   4.207   3.777
 1474SOL     OW 5320   4.660   5.972   3.720
 1474SOL    HW1 5321   4.566   5.939   3.728
 1474SOL    HW2 5322   4.711   5.911   3.658
 1475SOL     OW 5323   0.505   1.038   2.534
 1475SOL    HW1 5324   0.578   1.103   2.555
 1475SOL    HW2 5325   0.440   1.036   2.610
 1476SOL     OW 5326   6.493   1.898   2.213
 1476SOL    HW1 5327   6.431   1.830   2.253
 1476SOL    HW2 5328   6.497   1.978   2.273
 1477SOL     OW 5329   2.427   5.956   3.817
 1477SOL    HW1 5330   2.439   5.974   3.914
 1477SOL    HW2 5331   2.363   6.022   3.778
 1478SOL     OW 5332   6.519   4.232   1.278
 1478SOL    HW1 5333   6.543   4.192   1.366
 1478SOL    HW2 5334   6.533   4.164   1.206
 1479SOL     OW 5335   1.617   5.208   0.621
 1479SOL    HW1 5336   1.677   5.178   0.547
 1479SOL    HW2 5337   1.621   5.308   0.627
 1480SOL     OW 5338   2.606   1.232   0.108
 1480SOL    HW1 5339   2.696   1.189   0.101
 1480SOL    HW2 5340   2.612   1.309   0.171
 1481SOL     OW 5341   6.050   2.579   6.286
 1481SOL    HW1 5342   5.987   2.641   6.332
 1481SOL    HW2 5343   6.143   2.615   6.293
 1482SOL     OW 5344   6.105   0.571   6.415
 1482SOL    HW1 5345   6.139   0.634   6.485
 1482SOL    HW2 5346   6.007   0.586   6.401
 1483SOL     OW 5347   6.316   1.871   6.897
 1483SOL    HW1 5348   6.398   1.910   6.854
 1483SOL    HW2 5349   6.250   1.944   6.914
 1484SOL     OW 5350   6.197   5.507   2.548
 1484SOL    HW1 5351   6.234   5.519   2.456
 1484SOL    HW2 5352   6.150   5.591   2.576
 1485SOL     OW 5353   5.083   2.983   4.008
 1485SOL    HW1 5354   5.016   3.039   3.959
 1485SOL    HW2 5355   5.045   2.892   4.025
 1486SOL     OW 5356   4.794   1.901   2.122
 1486SOL    HW1 5357   4.858   1.860   2.057
 1486SOL    HW2 5358   4.711   1.845   2.127
 1487SOL     OW 5359   6.180   1.302   5.492
 1487SOL    HW1 5360   6.265   1.338   5.454
 1487SOL    HW2 5361   6.200   1.246   5.573
 1488SOL     OW 5362   4.414   1.828   3.214
 1488SOL    HW1 5363   4.411   1.918   3.173
 1488SOL    HW2 5364   4.332   1.776   3.187
 1489SOL     OW 5365   4.118   5.877   5.010
 1489SOL    HW1 5366   4.032   5.826   5.018
 1489SOL    HW2 5367   4.137   5.896   4.914
 1490SOL     OW 5368   1.915   2.717   0.360
 1490SOL    HW1 5369   1.966   2.750   0.439
 1490SOL    HW2 5370   1.881   2.625   0.378
 1491SOL     OW 5371   0.220   3.053   4.895
 1491SOL    HW1 5372   0.195   2.957   4.909
 1491SOL    HW2 5373   0.279   3.083   4.969
 1492SOL     OW 5374   5.059   2.049   1.985
 1492SOL    HW1 5375   5.095   2.105   1.911
 1492SOL    HW2 5376   5.109   2.070   2.070
 1493SOL     OW 5377   4.745   1.100   5.205
 1493SOL    HW1 5378   4.698   1.164   5.266
 1493SOL    HW2 5379   4.803   1.039   5.259
 1494SOL     OW 5380   4.687   2.732   6.077
 1494SOL    HW1 5381   4.742   2.797   6.130
 1494SOL    HW2 5382   4.748   2.667   6.031
 1495SOL     OW 5383   1.851   3.107   2.320
 1495SOL    HW1 5384   1.840   3.184   2.383
 1495SOL    HW2 5385   1.927   3.125   2.258
 1496SOL     OW 5386   0.716   0.455   2.397
 1496SOL    HW1 5387   0.799   0.423   2.351
 1496SOL    HW2 5388   0.645   0.472   2.328
 1497SOL     OW 5389   6.037   5.512   5.050
 1497SOL    HW1 5390   5.967   5.484   4.985
 1497SOL    HW2 5391   6.092   5.433   5.076
 1498SOL     OW 5392   2.690   6.205   0.469
 1498SOL    HW1 5393   2.677   6.163   0.379
 1498SOL    HW2 5394   2.656   6.299   0.467
 1499SOL     OW 5395   0.495   4.078   5.717
 1499SOL    HW1 5396   0.422   4.144   5.731
 1499SOL    HW2 5397   0.468   3.990   5.756
 1500SOL     OW 5398   4.710   0.337   6.239
 1500SOL    HW1 5399   4.727   0.265   6.306
 1500SOL    HW2 5400   4.710   0.426   6.284
 1501SOL     OW 5401   3.904   0.144   6.199
 1501SOL    HW1 5402   3.984   0.120   6.144
 1501SOL    HW2 5403   3.823   0.101   6.159
 1502SOL     OW 5404   6.521   6.309   0.111
 1502SOL    HW1 5405   6.565   6.391   0.148
 1502SOL    HW2 5406   6.522   6.313   0.011
 1503SOL     OW 5407   3.310   3.340   5.806
 1503SOL    HW1 5408   3.340   3.353   5.712
 1503SOL    HW2 5409   3.388   3.351   5.868
 1504SOL     OW 5410   2.978   5.934   4.942
 1504SOL    HW1 5411   3.073   5.956   4.963
 1504SOL    HW2 5412   2.968   5.834   4.940
 1505SOL     OW 5413   4.994   5.402   0.337
 1505SOL    HW1 5414   4.994   5.364   0.429
 1505SOL    HW2 5415   5.089   5.413   0.306
 1506SOL     OW 5416   0.581   6.012   4.355
 1506SOL    HW1 5417   0.524   6.059   4.288
 1506SOL    HW2 5418   0.543   5.922   4.374
 1507SOL     OW 5419   1.766   1.840   6.488
 1507SOL    HW1 5420   1.813   1.857   6.401
 1507SOL    HW2 5421   1.819   1.881   6.562
 1508SOL     OW 5422   5.400   7.001   0.381
 1508SOL    HW1 5423   5.417   6.982   0.477
 1508SOL    HW2 5424   5.305   0.012   0.370
 1509SOL     OW 5425   4.822   2.180   0.536
 1509SOL    HW1 5426   4.806   2.088   0.499
 1509SOL    HW2 5427   4.893   2.176   0.607
 1510SOL     OW 5428   6.638   1.399   3.733
 1510SOL    HW1 5429   6.695   1.379   3.812
 1510SOL    HW2 5430   6.566   1.464   3.759
 1511SOL     OW 5431   1.768   2.492   0.519
 1511SOL    HW1 5432   1.808   2.532   0.602
 1511SOL    HW2 5433   1.685   2.541   0.494
 1512SOL     OW 5434   6.696   0.706   1.978
 1512SOL    HW1 5435   6.692   0.610   1.950
 1512SOL    HW2 5436   6.780   0.722   2.030
 1513SOL     OW 5437   3.388   0.904   2.441
 1513SOL    HW1 5438   3.391   0.888   2.342
 1513SOL    HW2 5439   3.430   0.993   2.461
 1514SOL     OW 5440   5.066   1.704   5.102
 1514SOL    HW1 5441   5.096   1.610   5.119
 1514SOL    HW2 5442   5.078   1.725   5.005
 1515SOL     OW 5443   0.142   4.550   4.227
 1515SOL    HW1 5444   0.045   4.532   4.213
 1515SOL    HW2 5445   0.174   4.616   4.159
 1516SOL     OW 5446   0.908   1.489   0.832
 1516SOL    HW1 5447   0.930   1.504   0.736
 1516SOL    HW2 5448   0.809   1.488   0.845
 1517SOL     OW 5449   4.195   6.030   3.243
 1517SOL    HW1 5450   4.291   6.044   3.218
 1517SOL    HW2 5451   4.141   6.109   3.211
 1518SOL     OW 5452   0.834   4.460   1.092
 1518SOL    HW1 5453   0.889   4.517   1.152
 1518SOL    HW2 5454   0.864   4.365   1.099
 1519SOL     OW 5455   6.468   4.556   0.705
 1519SOL    HW1 5456   6.463   4.466   0.661
 1519SOL    HW2 5457   6.459   4.544   0.804
 1520SOL     OW 5458   1.338   3.381   2.809
 1520SOL    HW1 5459   1.325   3.285   2.785
 1520SOL    HW2 5460   1.290   3.401   2.895
 1521SOL     OW 5461   2.731   3.756   6.893
 1521SOL    HW1 5462   2.811   3.761   6.833
 1521SOL    HW2 5463   2.654   3.805   6.851
 1522SOL     OW 5464   6.242   2.474   6.878
 1522SOL    HW1 5465   6.234   2.478   6.778
 1522SOL    HW2 5466   6.339   2.464   6.902
 1523SOL     OW 5467   0.462   1.822   0.731
 1523SOL    HW1 5468   0.500   1.876   0.807
 1523SOL    HW2 5469   0.365   1.806   0.747
 1524SOL     OW 5470   6.967   0.646   2.419
 1524SOL    HW1 5471   6.975   0.733   2.468
 1524SOL    HW2 5472   6.957   0.571   2.485
 1525SOL     OW 5473   4.369   2.152   6.137
 1525SOL    HW1 5474   4.345   2.055   6.149
 1525SOL    HW2 5475   4.329   2.206   6.211
 1526SOL     OW 5476   6.783   2.360   1.731
 1526SOL    HW1 5477   6.720   2.325   1.800
 1526SOL    HW2 5478   6.800   2.289   1.662
 1527SOL     OW 5479   3.253   1.525   5.763
 1527SOL    HW1 5480   3.342   1.562   5.791
 1527SOL    HW2 5481   3.181   1.570   5.815
 1528SOL     OW 5482   5.169   6.179   3.659
 1528SOL    HW1 5483   5.122   6.201   3.744
 1528SOL    HW2 5484   5.239   6.248   3.641
 1529SOL     OW 5485   3.055   0.527   5.742
 1529SOL    HW1 5486   3.005   0.580   5.810
 1529SOL    HW2 5487   3.153   0.536   5.759
 1530SOL     OW 5488   4.004   6.283   1.806
 1530SOL    HW1 5489   3.930   6.234   1.853
 1530SOL    HW2 5490   3.965   6.359   1.754
 1531SOL     OW 5491   6.779   6.855   4.706
 1531SOL    HW1 5492   6.800   6.766   4.746
 1531SOL    HW2 5493   6.705   6.846   4.640
 1532SOL     OW 5494   2.942   1.751   5.427
 1532SOL    HW1 5495   3.036   1.783   5.421
 1532SOL    HW2 5496   2.879   1.825   5.405
 1533SOL     OW 5497   5.968   2.607   6.861
 1533SOL    HW1 5498   6.064   2.581   6.874
 1533SOL    HW2 5499   5.955   2.638   6.767
 1534SOL     OW 5500   0.011   6.288   1.311
 1534SOL    HW1 5501   6.977   6.218   1.263
 1534SOL    HW2 5502   6.969   6.360   1.343
 1535SOL     OW 5503   4.640   5.474   4.142
 1535SOL    HW1 5504   4.565   5.415   4.172
 1535SOL    HW2 5505   4.616   5.516   4.054
 1536SOL     OW 5506   2.850   6.377   4.904
 1536SOL    HW1 5507   2.950   6.375   4.905
 1536SOL    HW2 5508   2.814   6.285   4.916
 1537SOL     OW 5509   1.685   5.498   4.240
 1537SOL    HW1 5510   1.662   5.423   4.178
 1537SOL    HW2 5511   1.621   5.498   4.317
 1538SOL     OW 5512   2.180   5.585   6.439
 1538SOL    HW1 5513   2.160   5.676   6.473
 1538SOL    HW2 5514   2.105   5.523   6.462
 1539SOL     OW 5515   3.223   4.829   1.514
 1539SOL    HW1 5516   3.202   4.907   1.573
 1539SOL    HW2 5517   3.282   4.765   1.564
 1540SOL     OW 5518   0.547   6.504   4.558
 1540SOL    HW1 5519   0.564   6.458   4.470
 1540SOL    HW2 5520   0.632   6.504   4.612
 1541SOL     OW 5521   4.951   2.494   1.157
 1541SOL    HW1 5522   4.886   2.428   1.119
 1541SOL    HW2 5523   5.014   2.524   1.085
 1542SOL     OW 5524   1.156   6.375   0.718
 1542SOL    HW1 5525   1.091   6.425   0.661
 1542SOL    HW2 5526   1.107   6.330   0.792
 1543SOL     OW 5527   3.203   4.071   3.992
 1543SOL    HW1 5528   3.158   4.028   4.070
 1543SOL    HW2 5529   3.250   4.154   4.023
 1544SOL     OW 5530   3.672   4.123   2.526
 1544SOL    HW1 5531   3.694   4.115   2.429
 1544SOL    HW2 5532   3.756   4.111   2.579
 1545SOL     OW 5533   5.531   0.278   4.609
 1545SOL    HW1 5534   5.521   0.244   4.702
 1545SOL    HW2 5535   5.606   0.230   4.563
 1546SOL     OW 5536   0.749   6.621   5.920
 1546SOL    HW1 5537   0.795   6.544   5.964
 1546SOL    HW2 5538   0.651   6.603   5.916
 1547SOL     OW 5539   3.344   6.168   0.714
 1547SOL    HW1 5540   3.400   6.245   0.743
 1547SOL    HW2 5541   3.249   6.181   0.744
 1548SOL     OW 5542   5.440   4.146   4.687
 1548SOL    HW1 5543   5.503   4.203   4.634
 1548SOL    HW2 5544   5.469   4.050   4.680
 1549SOL     OW 5545   6.872   1.584   1.019
 1549SOL    HW1 5546   6.819   1.581   1.104
 1549SOL    HW2 5547   6.966   1.556   1.038
 1550SOL     OW 5548   2.405   5.963   4.654
 1550SOL    HW1 5549   2.316   5.995   4.622
 1550SOL    HW2 5550   2.408   5.863   4.652
 1551SOL     OW 5551   1.715   2.233   0.453
 1551SOL    HW1 5552   1.740   2.326   0.480
 1551SOL    HW2 5553   1.680   2.233   0.359
 1552SOL     OW 5554   0.922   0.777   0.495
 1552SOL    HW1 5555   0.890   0.770   0.401
 1552SOL    HW2 5556   1.021   0.790   0.497
 1553SOL     OW 5557   6.023   1.190   6.449
 1553SOL    HW1 5558   5.970   1.105   6.453
 1553SOL    HW2 5559   6.028   1.231   6.540
 1554SOL     OW 5560   3.309   1.797   1.725
 1554SOL    HW1 5561   3.339   1.887   1.691
 1554SOL    HW2 5562   3.387   1.750   1.767
 1555SOL     OW 5563   4.088   1.357   5.912
 1555SOL    HW1 5564   4.096   1.366   5.812
 1555SOL    HW2 5565   3.992   1.364   5.938
 1556SOL     OW 5566   3.531   1.642   0.938
 1556SOL    HW1 5567   3.603   1.711   0.929
 1556SOL    HW2 5568   3.546   1.589   1.021
 1557SOL     OW 5569   1.873   2.186   0.658
 1557SOL    HW1 5570   1.867   2.092   0.693
 1557SOL    HW2 5571   1.804   2.200   0.587
 1558SOL     OW 5572   6.159   3.271   6.171
 1558SOL    HW1 5573   6.135   3.333   6.097
 1558SOL    HW2 5574   6.257   3.278   6.190
 1559SOL     OW 5575   1.982   4.324   3.312
 1559SOL    HW1 5576   1.923   4.330   3.393
 1559SOL    HW2 5577   1.957   4.396   3.247
 1560SOL     OW 5578   4.087   1.541   1.248
 1560SOL    HW1 5579   4.054   1.447   1.254
 1560SOL    HW2 5580   4.017   1.603   1.284
 1561SOL     OW 5581   6.336   5.902   1.043
 1561SOL    HW1 5582   6.279   5.821   1.057
 1561SOL    HW2 5583   6.428   5.874   1.016
 1562SOL     OW 5584   3.690   6.391   2.098
 1562SOL    HW1 5585   3.688   6.353   2.191
 1562SOL    HW2 5586   3.746   6.474   2.097
 1563SOL     OW 5587   4.082   2.121   4.005
 1563SOL    HW1 5588   4.089   2.192   4.075
 1563SOL    HW2 5589   4.104   2.160   3.916
 1564SOL     OW 5590   1.656   2.352   2.913
 1564SOL    HW1 5591   1.556   2.359   2.907
 1564SOL    HW2 5592   1.689   2.285   2.847
 1565SOL     OW 5593   3.812   1.155   4.547
 1565SOL    HW1 5594   3.801   1.163   4.646
 1565SOL    HW2 5595   3.897   1.107   4.526
 1566SOL     OW 5596   4.478   4.787   2.953
 1566SOL    HW1 5597   4.436   4.696   2.955
 1566SOL    HW2 5598   4.408   4.855   2.931
 1567SOL     OW 5599   5.329   6.877   4.946
 1567SOL    HW1 5600   5.301   6.890   4.851
 1567SOL    HW2 5601   5.259   6.826   4.995
 1568SOL     OW 5602   2.501   5.542   2.250
 1568SOL    HW1 5603   2.472   5.523   2.344
 1568SOL    HW2 5604   2.557   5.625   2.248
 1569SOL     OW 5605   2.806   0.256   3.180
 1569SOL    HW1 5606   2.802   0.331   3.246
 1569SOL    HW2 5607   2.900   0.245   3.148
 1570SOL     OW 5608   3.396   6.822   6.916
 1570SOL    HW1 5609   3.344   6.839   7.000
 1570SOL    HW2 5610   3.439   6.732   6.921
 1571SOL     OW 5611   0.639   2.021   4.886
 1571SOL    HW1 5612   0.702   1.984   4.818
 1571SOL    HW2 5613   0.595   2.104   4.850
 1572SOL     OW 5614   1.713   5.378   1.956
 1572SOL    HW1 5615   1.776   5.303   1.976
 1572SOL    HW2 5616   1.662   5.402   2.039
 1573SOL     OW 5617   5.388   5.025   0.480
 1573SOL    HW1 5618   5.486   5.030   0.499
 1573SOL    HW2 5619   5.339   4.996   0.562
 1574SOL     OW 5620   6.878   3.298   3.174
 1574SOL    HW1 5621   6.937   3.221   3.198
 1574SOL    HW2 5622   6.911   3.340   3.090
 1575SOL     OW 5623   0.206   1.073   0.436
 1575SOL    HW1 5624   0.140   1.141   0.467
 1575SOL    HW2 5625   0.272   1.117   0.375
 1576SOL     OW 5626   0.232   0.345   2.460
 1576SOL    HW1 5627   0.271   0.418   2.404
 1576SOL    HW2 5628   0.132   0.350   2.455
 1577SOL     OW 5629   4.729   6.026   5.335
 1577SOL    HW1 5630   4.642   5.983   5.360
 1577SOL    HW2 5631   4.711   6.102   5.272
 1578SOL     OW 5632   4.974   0.856   0.535
 1578SOL    HW1 5633   4.932   0.804   0.610
 1578SOL    HW2 5634   4.908   0.867   0.461
 1579SOL     OW 5635   1.713   2.443   1.121
 1579SOL    HW1 5636   1.723   2.469   1.025
 1579SOL    HW2 5637   1.673   2.518   1.172
 1580SOL     OW 5638   3.271   3.682   2.615
 1580SOL    HW1 5639   3.180   3.714   2.591
 1580SOL    HW2 5640   3.332   3.691   2.537
 1581SOL     OW 5641   6.584   4.212   5.971
 1581SOL    HW1 5642   6.538   4.240   6.055
 1581SOL    HW2 5643   6.555   4.119   5.947
 1582SOL     OW 5644   4.535   6.433   5.289
 1582SOL    HW1 5645   4.485   6.504   5.239
 1582SOL    HW2 5646   4.534   6.348   5.236
 1583SOL     OW 5647   1.148   6.031   5.109
 1583SOL    HW1 5648   1.189   6.065   5.194
 1583SOL    HW2 5649   1.197   5.949   5.078
 1584SOL     OW 5650   0.099   4.990   6.916
 1584SOL    HW1 5651   0.171   5.054   6.942
 1584SOL    HW2 5652   0.138   4.917   6.860
 1585SOL     OW 5653   3.644   6.783   3.049
 1585SOL    HW1 5654   3.721   6.826   3.002
 1585SOL    HW2 5655   3.645   6.684   3.033
 1586SOL     OW 5656   2.606   4.588   3.833
 1586SOL    HW1 5657   2.547   4.665   3.813
 1586SOL    HW2 5658   2.674   4.614   3.901
 1587SOL     OW 5659   2.196   5.957   5.727
 1587SOL    HW1 5660   2.280   5.961   5.673
 1587SOL    HW2 5661   2.136   5.886   5.690
 1588SOL     OW 5662   5.760   0.805   2.745
 1588SOL    HW1 5663   5.801   0.801   2.836
 1588SOL    HW2 5664   5.731   0.899   2.726
 1589SOL     OW 5665   6.277   4.707   4.429
 1589SOL    HW1 5666   6.192   4.756   4.408
 1589SOL    HW2 5667   6.264   4.609   4.410
 1590SOL     OW 5668   6.444   2.413   3.811
 1590SOL    HW1 5669   6.383   2.490   3.792
 1590SOL    HW2 5670   6.539   2.442   3.801
 1591SOL     OW 5671   0.616   6.577   2.058
 1591SOL    HW1 5672   0.618   6.517   2.137
 1591SOL    HW2 5673   0.668   6.536   1.983
 1592SOL     OW 5674   0.114   3.868   6.837
 1592SOL    HW1 5675   0.170   3.809   6.778
 1592SOL    HW2 5676   0.095   3.819   6.923
 1593SOL     OW 5677   2.467   0.649   0.087
 1593SOL    HW1 5678   2.435   0.600   0.168
 1593SOL    HW2 5679   2.438   0.745   0.093
 1594SOL     OW 5680   6.138   0.527   2.157
 1594SOL    HW1 5681   6.074   0.451   2.170
 1594SOL    HW2 5682   6.098   0.610   2.196
 1595SOL     OW 5683   0.923   4.045   6.504
 1595SOL    HW1 5684   0.839   4.037   6.557
 1595SOL    HW2 5685   0.997   4.078   6.563
 1596SOL     OW 5686   4.959   4.805   2.524
 1596SOL    HW1 5687   4.984   4.727   2.581
 1596SOL    HW2 5688   4.864   4.794   2.493
 1597SOL     OW 5689   3.937   6.583   6.663
 1597SOL    HW1 5690   4.025   6.619   6.630
 1597SOL    HW2 5691   3.945   6.563   6.760
 1598SOL     OW 5692   1.938   5.364   0.198
 1598SOL    HW1 5693   1.842   5.341   0.182
 1598SOL    HW2 5694   1.967   5.327   0.286
 1599SOL     OW 5695   4.859   5.326   3.987
 1599SOL    HW1 5696   4.814   5.322   3.898
 1599SOL    HW2 5697   4.790   5.329   4.059
 1600SOL     OW 5698   4.110   0.777   2.290
 1600SOL    HW1 5699   4.100   0.772   2.191
 1600SOL    HW2 5700   4.204   0.804   2.312
 1601SOL     OW 5701   6.318   6.598   4.388
 1601SOL    HW1 5702   6.312   6.553   4.478
 1601SOL    HW2 5703   6.407   6.578   4.347
 1602SOL     OW 5704   3.718   5.241   3.732
 1602SOL    HW1 5705   3.735   5.198   3.643
 1602SOL    HW2 5706   3.801   5.284   3.765
 1603SOL     OW 5707   3.102   5.769   2.964
 1603SOL    HW1 5708   3.031   5.786   3.033
 1603SOL    HW2 5709   3.192   5.787   3.004
 1604SOL     OW 5710   3.889   5.168   2.094
 1604SOL    HW1 5711   3.842   5.088   2.056
 1604SOL    HW2 5712   3.938   5.141   2.177
 1605SOL     OW 5713   4.844   5.516   1.192
 1605SOL    HW1 5714   4.853   5.579   1.269
 1605SOL    HW2 5715   4.895   5.432   1.212
 1606SOL     OW 5716   3.965   6.519   5.015
 1606SOL    HW1 5717   3.893   6.584   5.037
 1606SOL    HW2 5718   3.992   6.530   4.920
 1607SOL     OW 5719   4.214   5.539   2.767
 1607SOL    HW1 5720   4.207   5.484   2.684
 1607SOL    HW2 5721   4.256   5.627   2.746
 1608SOL     OW 5722   6.384   0.902   3.176
 1608SOL    HW1 5723   6.346   0.815   3.206
 1608SOL    HW2 5724   6.462   0.886   3.115
 1609SOL     OW 5725   3.643   6.411   0.352
 1609SOL    HW1 5726   3.570   6.475   0.329
 1609SOL    HW2 5727   3.679   6.432   0.443
 1610SOL     OW 5728   5.150   0.201   0.634
 1610SOL    HW1 5729   5.110   0.238   0.550
 1610SOL    HW2 5730   5.104   0.115   0.658
 1611SOL     OW 5731   1.185   4.102   1.252
 1611SOL    HW1 5732   1.206   4.052   1.168
 1611SOL    HW2 5733   1.241   4.184   1.256
 1612SOL     OW 5734   3.804   6.801   2.114
 1612SOL    HW1 5735   3.724   6.808   2.173
 1612SOL    HW2 5736   3.840   6.892   2.094
 1613SOL     OW 5737   0.035   5.589   2.188
 1613SOL    HW1 5738   6.995   5.644   2.128
 1613SOL    HW2 5739   0.049   5.499   2.148
 1614SOL     OW 5740   6.664   2.368   6.095
 1614SOL    HW1 5741   6.711   2.299   6.150
 1614SOL    HW2 5742   6.595   2.414   6.151
 1615SOL     OW 5743   1.513   5.358   6.163
 1615SOL    HW1 5744   1.420   5.377   6.134
 1615SOL    HW2 5745   1.572   5.435   6.139
 1616SOL     OW 5746   1.904   1.533   4.724
 1616SOL    HW1 5747   1.917   1.582   4.638
 1616SOL    HW2 5748   1.833   1.578   4.777
 1617SOL     OW 5749   5.662   5.889   3.342
 1617SOL    HW1 5750   5.631   5.981   3.317
 1617SOL    HW2 5751   5.583   5.833   3.366
 1618SOL     OW 5752   3.181   5.265   2.901
 1618SOL    HW1 5753   3.235   5.206   2.960
 1618SOL    HW2 5754   3.144   5.342   2.954
 1619SOL     OW 5755   1.248   5.530   6.900
 1619SOL    HW1 5756   1.314   5.463   6.934
 1619SOL    HW2 5757   1.156   5.504   6.929
 1620SOL     OW 5758   4.147   5.386   6.271
 1620SOL    HW1 5759   4.113   5.297   6.240
 1620SOL    HW2 5760   4.180   5.378   6.365
 1621SOL     OW 5761   4.999   6.249   0.589
 1621SOL    HW1 5762   4.951   6.334   0.567
 1621SOL    HW2 5763   5.071   6.267   0.656
 1622SOL     OW 5764   0.187   4.266   4.544
 1622SOL    HW1 5765   0.170   4.173   4.509
 1622SOL    HW2 5766   0.233   4.320   4.473
 1623SOL     OW 5767   0.757   1.809   4.052
 1623SOL    HW1 5768   0.833   1.844   3.997
 1623SOL    HW2 5769   0.765   1.843   4.145
 1624SOL     OW 5770   4.204   1.090   0.851
 1624SOL    HW1 5771   4.215   1.120   0.946
 1624SOL    HW2 5772   4.294   1.088   0.807
 1625SOL     OW 5773   1.336   5.482   0.800
 1625SOL    HW1 5774   1.348   5.540   0.881
 1625SOL    HW2 5775   1.418   5.427   0.786
 1626SOL     OW 5776   3.405   1.836   1.299
 1626SOL    HW1 5777   3.495   1.867   1.331
 1626SOL    HW2 5778   3.401   1.844   1.200
 1627SOL     OW 5779   4.550   1.460   4.458
 1627SOL    HW1 5780   4.602   1.538   4.492
 1627SOL    HW2 5781   4.457   1.463   4.494
 1628SOL     OW 5782   5.384   6.819   0.149
 1628SOL    HW1 5783   5.373   6.843   0.053
 1628SOL    HW2 5784   5.429   6.895   0.197
 1629SOL     OW 5785   2.090   0.963   3.401
 1629SOL    HW1 5786   2.136   0.874   3.409
 1629SOL    HW2 5787   2.099   0.996   3.307
 1630SOL     OW 5788   0.385   3.640   0.119
 1630SOL    HW1 5789   0.314   3.667   0.184
 1630SOL    HW2 5790   0.468   3.692   0.138
 1631SOL     OW 5791   0.143   3.037   0.892
 1631SOL    HW1 5792   0.140   3.121   0.947
 1631SOL    HW2 5793   0.149   2.958   0.952
 1632SOL     OW 5794   6.690   4.633   2.805
 1632SOL    HW1 5795   6.672   4.731   2.795
 1632SOL    HW2 5796   6.621   4.581   2.756
 1633SOL     OW 5797   5.322   3.109   3.982
 1633SOL    HW1 5798   5.392   3.116   4.054
 1633SOL    HW2 5799   5.262   3.032   4.002
 1634SOL     OW 5800   5.065   0.533   4.500
 1634SOL    HW1 5801   5.143   0.506   4.558
 1634SOL    HW2 5802   5.094   0.539   4.405
 1635SOL     OW 5803   3.539   5.855   4.272
 1635SOL    HW1 5804   3.634   5.848   4.303
 1635SOL    HW2 5805   3.535   5.913   4.191
 1636SOL     OW 5806   5.789   6.609   1.558
 1636SOL    HW1 5807   5.759   6.703   1.546
 1636SOL    HW2 5808   5.843   6.580   1.479
 1637SOL     OW 5809   0.058   0.003   2.091
 1637SOL    HW1 5810   0.060   0.102   2.098
 1637SOL    HW2 5811   0.128   6.982   2.150
 1638SOL     OW 5812   0.088   2.630   2.061
 1638SOL    HW1 5813   0.154   2.610   2.133
 1638SOL    HW2 5814   0.085   2.728   2.044
 1639SOL     OW 5815   4.849   2.782   2.764
 1639SOL    HW1 5816   4.877   2.856   2.826
 1639SOL    HW2 5817   4.766   2.739   2.798
 1640SOL     OW 5818   6.177   0.258   0.235
 1640SOL    HW1 5819   6.097   0.304   0.274
 1640SOL    HW2 5820   6.168   0.252   0.136
 1641SOL     OW 5821   6.249   2.397   3.101
 1641SOL    HW1 5822   6.335   2.353   3.127
 1641SOL    HW2 5823   6.179   2.328   3.084
 1642SOL     OW 5824   5.588   2.151   5.539
 1642SOL    HW1 5825   5.538   2.155   5.452
 1642SOL    HW2 5826   5.675   2.200   5.530
 1643SOL     OW 5827   2.728   5.720   4.256
 1643SOL    HW1 5828   2.797   5.667   4.207
 1643SOL    HW2 5829   2.639   5.674   4.250
 1644SOL     OW 5830   5.930   3.030   0.693
 1644SOL    HW1 5831   5.927   2.986   0.603
 1644SOL    HW2 5832   5.984   2.974   0.756
 1645SOL     OW 5833   2.021   0.637   5.750
 1645SOL    HW1 5834   1.949   0.576   5.783
 1645SOL    HW2 5835   2.064   0.598   5.669
 1646SOL     OW 5836   0.920   5.275   0.938
 1646SOL    HW1 5837   1.014   5.242   0.949
 1646SOL    HW2 5838   0.921   5.368   0.901
 1647SOL     OW 5839   6.658   2.813   4.543
 1647SOL    HW1 5840   6.706   2.896   4.513
 1647SOL    HW2 5841   6.582   2.839   4.602
 1648SOL     OW 5842   5.541   6.258   1.248
 1648SOL    HW1 5843   5.638   6.264   1.224
 1648SOL    HW2 5844   5.489   6.322   1.191
 1649SOL     OW 5845   3.022   0.157   3.449
 1649SOL    HW1 5846   2.989   0.251   3.458
 1649SOL    HW2 5847   3.025   0.114   3.540
 1650SOL     OW 5848   3.142   5.030   6.391
 1650SOL    HW1 5849   3.169   5.120   6.356
 1650SOL    HW2 5850   3.132   4.967   6.314
 1651SOL     OW 5851   0.719   3.226   3.945
 1651SOL    HW1 5852   0.754   3.138   3.915
 1651SOL    HW2 5853   0.647   3.256   3.882
 1652SOL     OW 5854   0.412   2.466   1.082
 1652SOL    HW1 5855   0.444   2.429   0.995
 1652SOL    HW2 5856   0.429   2.564   1.085
 1653SOL     OW 5857   6.932   4.650   3.463
 1653SOL    HW1 5858   6.978   4.607   3.385
 1653SOL    HW2 5859   6.844   4.686   3.433
 1654SOL     OW 5860   0.906   3.149   1.956
 1654SOL    HW1 5861   0.965   3.116   2.030
 1654SOL    HW2 5862   0.810   3.137   1.982
 1655SOL     OW 5863   6.993   6.640   4.578
 1655SOL    HW1 5864   6.926   6.579   4.536
 1655SOL    HW2 5865   0.031   6.681   4.507
 1656SOL     OW 5866   2.038   4.982   4.145
 1656SOL    HW1 5867   2.004   4.987   4.239
 1656SOL    HW2 5868   2.081   5.070   4.121
 1657SOL     OW 5869   1.207   0.308   5.221
 1657SOL    HW1 5870   1.139   0.236   5.207
 1657SOL    HW2 5871   1.183   0.388   5.166
 1658SOL     OW 5872   6.472   0.160   6.631
 1658SOL    HW1 5873   6.412   0.171   6.552
 1658SOL    HW2 5874   6.538   0.088   6.613
 1659SOL     OW 5875   4.795   0.015   6.298
 1659SOL    HW1 5876   4.746   0.046   6.216
 1659SOL    HW2 5877   4.781   6.936   6.310
 1660SOL     OW 5878   1.816   0.202   2.191
 1660SOL    HW1 5879   1.853   0.117   2.152
 1660SOL    HW2 5880   1.889   0.269   2.198
 1661SOL     OW 5881   3.795   4.825   2.902
 1661SOL    HW1 5882   3.748   4.852   2.817
 1661SOL    HW2 5883   3.869   4.763   2.880
 1662SOL     OW 5884   0.489   0.851   4.992
 1662SOL    HW1 5885   0.571   0.796   5.006
 1662SOL    HW2 5886   0.486   0.925   5.059
 1663SOL     OW 5887   4.859   4.939   0.912
 1663SOL    HW1 5888   4.945   4.990   0.909
 1663SOL    HW2 5889   4.809   4.953   0.827
 1664SOL     OW 5890   1.151   0.426   5.661
 1664SOL    HW1 5891   1.113   0.488   5.593
 1664SOL    HW2 5892   1.219   0.366   5.619
 1665SOL     OW 5893   2.279   3.922   0.521
 1665SOL    HW1 5894   2.338   3.847   0.493
 1665SOL    HW2 5895   2.266   3.985   0.444
 1666SOL     OW 5896   5.289   6.789   6.467
 1666SOL    HW1 5897   5.386   6.775   6.449
 1666SOL    HW2 5898   5.248   6.703   6.498
 1667SOL     OW 5899   0.751   6.450   1.260
 1667SOL    HW1 5900   0.847   6.477   1.252
 1667SOL    HW2 5901   0.744   6.351   1.269
 1668SOL     OW 5902   5.331   4.432   3.764
 1668SOL    HW1 5903   5.421   4.413   3.726
 1668SOL    HW2 5904   5.271   4.354   3.749
 1669SOL     OW 5905   6.421   3.570   5.172
 1669SOL    HW1 5906   6.363   3.522   5.106
 1669SOL    HW2 5907   6.372   3.650   5.207
 1670SOL     OW 5908   1.709   4.654   5.727
 1670SOL    HW1 5909   1.638   4.584   5.719
 1670SOL    HW2 5910   1.780   4.623   5.790
 1671SOL     OW 5911   6.109   1.896   1.080
 1671SOL    HW1 5912   6.173   1.911   1.004
 1671SOL    HW2 5913   6.147   1.936   1.163
 1672SOL     OW 5914   1.114   3.337   6.575
 1672SOL    HW1 5915   1.128   3.252   6.626
 1672SOL    HW2 5916   1.096   3.411   6.640
 1673SOL     OW 5917   2.482   1.444   4.457
 1673SOL    HW1 5918   2.399   1.485   4.417
 1673SOL    HW2 5919   2.504   1.359   4.409
 1674SOL     OW 5920   4.810   2.186   2.984
 1674SOL    HW1 5921   4.780   2.242   3.061
 1674SOL    HW2 5922   4.755   2.207   2.903
 1675SOL     OW 5923   4.992   0.954   0.818
 1675SOL    HW1 5924   4.980   0.928   0.914
 1675SOL    HW2 5925   5.068   0.903   0.779
 1676SOL     OW 5926   1.579   1.429   2.951
 1676SOL    HW1 5927   1.641   1.424   3.030
 1676SOL    HW2 5928   1.630   1.407   2.868
 1677SOL     OW 5929   4.008   3.933   3.537
 1677SOL    HW1 5930   4.021   4.031   3.553
 1677SOL    HW2 5931   3.951   3.895   3.610
 1678SOL     OW 5932   0.607   6.542   0.736
 1678SOL    HW1 5933   0.642   6.491   0.814
 1678SOL    HW2 5934   0.578   6.478   0.665
 1679SOL     OW 5935   1.651   1.709   5.764
 1679SOL    HW1 5936   1.690   1.778   5.826
 1679SOL    HW2 5937   1.726   1.655   5.724
 1680SOL     OW 5938   5.053   2.437   3.762
 1680SOL    HW1 5939   5.028   2.446   3.859
 1680SOL    HW2 5940   5.151   2.423   3.754
 1681SOL     OW 5941   1.840   6.317   3.855
 1681SOL    HW1 5942   1.834   6.413   3.828
 1681SOL    HW2 5943   1.760   6.268   3.820
 1682SOL     OW 5944   2.570   6.978   5.549
 1682SOL    HW1 5945   2.576   6.909   5.477
 1682SOL    HW2 5946   2.525   0.041   5.512
 1683SOL     OW 5947   5.837   5.005   2.359
 1683SOL    HW1 5948   5.882   5.017   2.448
 1683SOL    HW2 5949   5.810   4.909   2.348
 1684SOL     OW 5950   2.622   4.425   1.754
 1684SOL    HW1 5951   2.663   4.336   1.731
 1684SOL    HW2 5952   2.683   4.474   1.815
 1685SOL     OW 5953   0.440   0.911   5.631
 1685SOL    HW1 5954   0.506   0.837   5.650
 1685SOL    HW2 5955   0.397   0.939   5.717
 1686SOL     OW 5956   4.398   6.310   3.071
 1686SOL    HW1 5957   4.371   6.350   3.159
 1686SOL    HW2 5958   4.351   6.358   2.997
 1687SOL     OW 5959   6.268   4.151   2.522
 1687SOL    HW1 5960   6.342   4.090   2.494
 1687SOL    HW2 5961   6.302   4.245   2.524
 1688SOL     OW 5962   2.297   1.854   3.484
 1688SOL    HW1 5963   2.339   1.944   3.491
 1688SOL    HW2 5964   2.359   1.785   3.522
 1689SOL     OW 5965   5.413   0.693   1.659
 1689SOL    HW1 5966   5.364   0.606   1.660
 1689SOL    HW2 5967   5.360   0.761   1.709
 1690SOL     OW 5968   0.408   3.851   4.479
 1690SOL    HW1 5969   0.451   3.897   4.557
 1690SOL    HW2 5970   0.308   3.861   4.486
 1691SOL     OW 5971   4.929   2.546   5.348
 1691SOL    HW1 5972   4.884   2.587   5.428
 1691SOL    HW2 5973   4.984   2.616   5.302
 1692SOL     OW 5974   6.063   5.395   1.116
 1692SOL    HW1 5975   5.983   5.440   1.076
 1692SOL    HW2 5976   6.036   5.344   1.198
 1693SOL     OW 5977   5.638   0.162   5.247
 1693SOL    HW1 5978   5.561   0.188   5.188
 1693SOL    HW2 5979   5.605   0.146   5.340
 1694SOL     OW 5980   4.836   0.723   5.603
 1694SOL    HW1 5981   4.745   0.761   5.621
 1694SOL    HW2 5982   4.895   0.738   5.683
 1695SOL     OW 5983   3.421   0.727   6.030
 1695SOL    HW1 5984   3.442   0.733   5.933
 1695SOL    HW2 5985   3.477   0.656   6.072
 1696SOL     OW 5986   4.297   6.149   0.130
 1696SOL    HW1 5987   4.276   6.151   0.228
 1696SOL    HW2 5988   4.313   6.242   0.098
 1697SOL     OW 5989   5.981   2.243   1.229
 1697SOL    HW1 5990   5.987   2.334   1.189
 1697SOL    HW2 5991   5.943   2.180   1.161
 1698SOL     OW 5992   3.711   0.618   1.618
 1698SOL    HW1 5993   3.661   0.633   1.533
 1698SOL    HW2 5994   3.670   0.672   1.692
 1699SOL     OW 5995   2.462   0.099   0.139
 1699SOL    HW1 5996   2.560   0.113   0.125
 1699SOL    HW2 5997   2.428   0.166   0.204
 1700SOL     OW 5998   6.338   3.558   3.316
 1700SOL    HW1 5999   6.379   3.534   3.228
 1700SOL    HW2 6000   6.385   3.508   3.389
 1701SOL     OW 6001   0.184   5.385   4.597
 1701SOL    HW1 6002   0.161   5.369   4.693
 1701SOL    HW2 6003   0.113   5.443   4.556
 1702SOL     OW 6004   1.951   2.624   5.618
 1702SOL    HW1 6005   1.955   2.722   5.637
 1702SOL    HW2 6006   1.924   2.610   5.522
 1703SOL     OW 6007   3.421   1.941   0.335
 1703SOL    HW1 6008   3.428   1.842   0.345
 1703SOL    HW2 6009   3.332   1.965   0.295
 1704SOL     OW 6010   2.470   1.828   0.954
 1704SOL    HW1 6011   2.520   1.855   1.036
 1704SOL    HW2 6012   2.502   1.739   0.923
 1705SOL     OW 6013   4.216   1.487   0.473
 1705SOL    HW1 6014   4.177   1.400   0.504
 1705SOL    HW2 6015   4.208   1.492   0.373
 1706SOL     OW 6016   4.243   2.577   0.415
 1706SOL    HW1 6017   4.220   2.673   0.403
 1706SOL    HW2 6018   4.304   2.567   0.493
 1707SOL     OW 6019   4.485   1.973   2.310
 1707SOL    HW1 6020   4.385   1.970   2.309
 1707SOL    HW2 6021   4.521   1.895   2.258
 1708SOL     OW 6022   3.223   5.281   1.566
 1708SOL    HW1 6023   3.163   5.355   1.594
 1708SOL    HW2 6024   3.213   5.204   1.630
 1709SOL     OW 6025   4.409   5.888   0.522
 1709SOL    HW1 6026   4.394   5.902   0.620
 1709SOL    HW2 6027   4.497   5.927   0.496
 1710SOL     OW 6028   3.831   5.205   2.996
 1710SOL    HW1 6029   3.825   5.159   3.084
 1710SOL    HW2 6030   3.747   5.257   2.980
 1711SOL     OW 6031   3.624   5.071   6.330
 1711SOL    HW1 6032   3.555   5.025   6.274
 1711SOL    HW2 6033   3.579   5.142   6.386
 1712SOL     OW 6034   6.758   2.090   3.783
 1712SOL    HW1 6035   6.795   1.997   3.779
 1712SOL    HW2 6036   6.670   2.092   3.735
 1713SOL     OW 6037   3.836   1.014   2.539
 1713SOL    HW1 6038   3.853   1.053   2.448
 1713SOL    HW2 6039   3.911   1.039   2.600
 1714SOL     OW 6040   3.546   3.028   0.079
 1714SOL    HW1 6041   3.627   2.987   0.123
 1714SOL    HW2 6042   3.468   2.967   0.090
 1715SOL     OW 6043   1.471   6.679   2.921
 1715SOL    HW1 6044   1.518   6.591   2.914
 1715SOL    HW2 6045   1.429   6.701   2.833
 1716SOL     OW 6046   4.409   0.403   3.466
 1716SOL    HW1 6047   4.310   0.399   3.481
 1716SOL    HW2 6048   4.437   0.498   3.452
 1717SOL     OW 6049   3.830   5.872   5.393
 1717SOL    HW1 6050   3.813   5.920   5.479
 1717SOL    HW2 6051   3.919   5.899   5.357
 1718SOL     OW 6052   1.270   2.623   1.191
 1718SOL    HW1 6053   1.181   2.576   1.188
 1718SOL    HW2 6054   1.338   2.562   1.232
 1719SOL     OW 6055   0.995   5.344   1.679
 1719SOL    HW1 6056   1.040   5.430   1.701
 1719SOL    HW2 6057   1.008   5.279   1.755
 1720SOL     OW 6058   6.646   2.550   5.209
 1720SOL    HW1 6059   6.666   2.487   5.134
 1720SOL    HW2 6060   6.684   2.514   5.294
 1721SOL     OW 6061   1.871   1.841   1.464
 1721SOL    HW1 6062   1.954   1.850   1.518
 1721SOL    HW2 6063   1.839   1.931   1.437
 1722SOL     OW 6064   2.888   2.211   2.832
 1722SOL    HW1 6065   2.940   2.230   2.915
 1722SOL    HW2 6066   2.951   2.183   2.760
 1723SOL     OW 6067   5.268   2.834   0.071
 1723SOL    HW1 6068   5.171   2.853   0.061
 1723SOL    HW2 6069   5.321   2.899   0.017
 1724SOL     OW 6070   6.866   2.154   1.189
 1724SOL    HW1 6071   6.787   2.140   1.249
 1724SOL    HW2 6072   6.834   2.168   1.095
 1725SOL     OW 6073   2.045   5.906   6.863
 1725SOL    HW1 6074   2.005   5.990   6.900
 1725SOL    HW2 6075   2.106   5.866   6.931
 1726SOL     OW 6076   5.600   4.167   3.690
 1726SOL    HW1 6077   5.647   4.115   3.762
 1726SOL    HW2 6078   5.566   4.104   3.620
 1727SOL     OW 6079   3.197   3.369   3.106
 1727SOL    HW1 6080   3.217   3.339   3.012
 1727SOL    HW2 6081   3.267   3.433   3.136
 1728SOL     OW 6082   4.726   2.258   4.161
 1728SOL    HW1 6083   4.633   2.248   4.124
 1728SOL    HW2 6084   4.727   2.229   4.257
 1729SOL     OW 6085   2.034   3.943   2.368
 1729SOL    HW1 6086   2.094   3.909   2.296
 1729SOL    HW2 6087   1.947   3.894   2.365
 1730SOL     OW 6088   2.977   4.846   5.694
 1730SOL    HW1 6089   3.005   4.939   5.719
 1730SOL    HW2 6090   2.976   4.789   5.776
 1731SOL     OW 6091   5.889   4.400   4.363
 1731SOL    HW1 6092   5.902   4.472   4.432
 1731SOL    HW2 6093   5.797   4.408   4.323
 1732SOL     OW 6094   2.087   4.510   6.258
 1732SOL    HW1 6095   2.072   4.413   6.278
 1732SOL    HW2 6096   2.056   4.566   6.334
 1733SOL     OW 6097   2.847   4.395   0.257
 1733SOL    HW1 6098   2.846   4.315   0.197
 1733SOL    HW2 6099   2.937   4.438   0.255
 1734SOL     OW 6100   6.955   2.906   1.189
 1734SOL    HW1 6101   6.897   2.829   1.162
 1734SOL    HW2 6102   0.013   2.913   1.126
 1735SOL     OW 6103   3.748   5.263   6.175
 1735SOL    HW1 6104   3.727   5.177   6.221
 1735SOL    HW2 6105   3.741   5.250   6.076
 1736SOL     OW 6106   4.482   3.283   0.942
 1736SOL    HW1 6107   4.522   3.193   0.960
 1736SOL    HW2 6108   4.414   3.275   0.870
 1737SOL     OW 6109   4.694   1.524   5.322
 1737SOL    HW1 6110   4.714   1.600   5.261
 1737SOL    HW2 6111   4.608   1.541   5.370
 1738SOL     OW 6112   1.116   3.110   4.761
 1738SOL    HW1 6113   1.192   3.051   4.790
 1738SOL    HW2 6114   1.030   3.061   4.771
 1739SOL     OW 6115   5.450   0.331   4.069
 1739SOL    HW1 6116   5.507   0.335   4.151
 1739SOL    HW2 6117   5.458   0.240   4.028
 1740SOL     OW 6118   6.314   2.964   4.394
 1740SOL    HW1 6119   6.392   3.010   4.351
 1740SOL    HW2 6120   6.233   2.975   4.337
 1741SOL     OW 6121   1.005   2.164   4.483
 1741SOL    HW1 6122   1.042   2.245   4.438
 1741SOL    HW2 6123   1.032   2.163   4.579
 1742SOL     OW 6124   5.951   6.384   6.721
 1742SOL    HW1 6125   6.033   6.392   6.664
 1742SOL    HW2 6126   5.957   6.449   6.797
 1743SOL     OW 6127   1.312   0.787   2.975
 1743SOL    HW1 6128   1.317   0.787   3.075
 1743SOL    HW2 6129   1.274   0.700   2.944
 1744SOL     OW 6130   3.629   1.756   4.067
 1744SOL    HW1 6131   3.669   1.758   4.158
 1744SOL    HW2 6132   3.686   1.810   4.005
 1745SOL     OW 6133   6.848   6.423   1.498
 1745SOL    HW1 6134   6.808   6.416   1.589
 1745SOL    HW2 6135   6.774   6.425   1.430
 1746SOL     OW 6136   1.730   4.510   3.807
 1746SOL    HW1 6137   1.681   4.425   3.787
 1746SOL    HW2 6138   1.787   4.497   3.888
 1747SOL     OW 6139   3.747   0.281   2.466
 1747SOL    HW1 6140   3.767   0.184   2.478
 1747SOL    HW2 6141   3.775   0.310   2.375
 1748SOL     OW 6142   6.775   1.967   4.311
 1748SOL    HW1 6143   6.761   1.967   4.212
 1748SOL    HW2 6144   6.735   2.049   4.351
 1749SOL     OW 6145   1.664   4.903   1.059
 1749SOL    HW1 6146   1.730   4.910   1.134
 1749SOL    HW2 6147   1.702   4.943   0.976
 1750SOL     OW 6148   4.454   6.876   5.265
 1750SOL    HW1 6149   4.473   6.783   5.297
 1750SOL    HW2 6150   4.417   6.872   5.172
 1751SOL     OW 6151   5.367   2.778   4.989
 1751SOL    HW1 6152   5.285   2.723   4.980
 1751SOL    HW2 6153   5.412   2.758   5.076
 1752SOL     OW 6154   6.496   0.879   1.224
 1752SOL    HW1 6155   6.524   0.868   1.319
 1752SOL    HW2 6156   6.397   0.891   1.219
 1753SOL     OW 6157   6.591   1.798   1.780
 1753SOL    HW1 6158   6.685   1.784   1.812
 1753SOL    HW2 6159   6.592   1.836   1.688
 1754SOL     OW 6160   3.492   5.470   5.143
 1754SOL    HW1 6161   3.518   5.376   5.168
 1754SOL    HW2 6162   3.518   5.532   5.217
 1755SOL     OW 6163   6.314   6.792   5.411
 1755SOL    HW1 6164   6.373   6.864   5.376
 1755SOL    HW2 6165   6.355   6.753   5.494
 1756SOL     OW 6166   4.954   0.161   5.870
 1756SOL    HW1 6167   5.037   0.130   5.916
 1756SOL    HW2 6168   4.946   0.260   5.879
 1757SOL     OW 6169   2.364   4.754   5.208
 1757SOL    HW1 6170   2.430   4.709   5.147
 1757SOL    HW2 6171   2.325   4.686   5.270
 1758SOL     OW 6172   1.896   6.575   4.819
 1758SOL    HW1 6173   1.861   6.531   4.736
 1758SOL    HW2 6174   1.972   6.521   4.855
 1759SOL     OW 6175   1.620   6.600   0.151
 1759SOL    HW1 6176   1.582   6.620   0.060
 1759SOL    HW2 6177   1.615   6.683   0.207
 1760SOL     OW 6178   6.143   1.313   5.176
 1760SOL    HW1 6179   6.199   1.335   5.256
 1760SOL    HW2 6180   6.049   1.342   5.193
 1761SOL     OW 6181   6.031   1.945   2.143
 1761SOL    HW1 6182   6.033   1.870   2.210
 1761SOL    HW2 6183   6.087   1.920   2.064
 1762SOL     OW 6184   0.114   1.549   5.802
 1762SOL    HW1 6185   0.078   1.594   5.883
 1762SOL    HW2 6186   0.085   1.453   5.801
 1763SOL     OW 6187   0.973   3.928   4.208
 1763SOL    HW1 6188   1.072   3.937   4.197
 1763SOL    HW2 6189   0.928   3.936   4.119
 1764SOL     OW 6190   0.737   5.324   2.879
 1764SOL    HW1 6191   0.675   5.279   2.943
 1764SOL    HW2 6192   0.686   5.390   2.825
 1765SOL     OW 6193   5.162   2.996   2.710
 1765SOL    HW1 6194   5.215   2.914   2.687
 1765SOL    HW2 6195   5.183   3.069   2.646
 1766SOL     OW 6196   4.801   4.893   4.317
 1766SOL    HW1 6197   4.739   4.967   4.292
 1766SOL    HW2 6198   4.893   4.914   4.284
 1767SOL     OW 6199   0.881   4.798   2.011
 1767SOL    HW1 6200   0.835   4.812   2.098
 1767SOL    HW2 6201   0.968   4.751   2.026
 1768SOL     OW 6202   5.224   6.486   2.280
 1768SOL    HW1 6203   5.154   6.557   2.292
 1768SOL    HW2 6204   5.188   6.398   2.310
 1769SOL     OW 6205   5.019   0.621   6.685
 1769SOL    HW1 6206   5.053   0.530   6.710
 1769SOL    HW2 6207   4.971   0.616   6.597
 1770SOL     OW 6208   2.407   5.377   6.402
 1770SOL    HW1 6209   2.368   5.290   6.433
 1770SOL    HW2 6210   2.506   5.374   6.412
 1771SOL     OW 6211   1.178   3.734   6.148
 1771SOL    HW1 6212   1.122   3.779   6.217
 1771SOL    HW2 6213   1.162   3.776   6.058
 1772SOL     OW 6214   2.420   4.416   3.738
 1772SOL    HW1 6215   2.361   4.386   3.813
 1772SOL    HW2 6216   2.481   4.488   3.771
 1773SOL     OW 6217   0.967   6.702   5.242
 1773SOL    HW1 6218   0.889   6.764   5.250
 1773SOL    HW2 6219   1.050   6.749   5.271
 1774SOL     OW 6220   5.254   5.224   0.780
 1774SOL    HW1 6221   5.241   5.322   0.763
 1774SOL    HW2 6222   5.312   5.212   0.860
 1775SOL     OW 6223   2.665   5.660   6.192
 1775SOL    HW1 6224   2.647   5.744   6.142
 1775SOL    HW2 6225   2.594   5.592   6.170
 1776SOL     OW 6226   4.877   1.354   6.078
 1776SOL    HW1 6227   4.912   1.408   6.155
 1776SOL    HW2 6228   4.932   1.373   5.997
 1777SOL     OW 6229   5.046   6.686   6.852
 1777SOL    HW1 6230   5.027   6.617   6.782
 1777SOL    HW2 6231   5.108   6.755   6.814
 1778SOL     OW 6232   5.925   6.985   3.844
 1778SOL    HW1 6233   5.991   6.935   3.900
 1778SOL    HW2 6234   5.869   6.921   3.792
 1779SOL     OW 6235   5.770   5.958   3.930
 1779SOL    HW1 6236   5.819   5.889   3.877
 1779SOL    HW2 6237   5.833   6.002   3.994
 1780SOL     OW 6238   1.974   5.824   4.700
 1780SOL    HW1 6239   2.049   5.767   4.734
 1780SOL    HW2 6240   1.888   5.775   4.708
 1781SOL     OW 6241   3.883   0.835   4.463
 1781SOL    HW1 6242   3.960   0.895   4.438
 1781SOL    HW2 6243   3.820   0.885   4.522
 1782SOL     OW 6244   1.283   1.643   2.665
 1782SOL    HW1 6245   1.203   1.585   2.679
 1782SOL    HW2 6246   1.362   1.585   2.644
 1783SOL     OW 6247   2.231   4.256   6.687
 1783SOL    HW1 6248   2.273   4.178   6.732
 1783SOL    HW2 6249   2.189   4.316   6.756
 1784SOL     OW 6250   2.918   6.881   1.396
 1784SOL    HW1 6251   2.878   6.793   1.421
 1784SOL    HW2 6252   3.010   6.889   1.435
 1785SOL     OW 6253   0.983   6.593   4.285
 1785SOL    HW1 6254   1.008   6.536   4.363
 1785SOL    HW2 6255   1.057   6.658   4.266
 1786SOL     OW 6256   1.251   6.113   0.575
 1786SOL    HW1 6257   1.276   6.193   0.629
 1786SOL    HW2 6258   1.237   6.035   0.636
 1787SOL     OW 6259   2.853   3.876   6.382
 1787SOL    HW1 6260   2.904   3.902   6.300
 1787SOL    HW2 6261   2.903   3.804   6.430
 1788SOL     OW 6262   4.681   3.842   0.633
 1788SOL    HW1 6263   4.664   3.744   0.645
 1788SOL    HW2 6264   4.632   3.894   0.703
 1789SOL     OW 6265   6.537   4.240   2.340
 1789SOL    HW1 6266   6.591   4.259   2.421
 1789SOL    HW2 6267   6.528   4.140   2.329
 1790SOL     OW 6268   2.333   2.529   4.626
 1790SOL    HW1 6269   2.424   2.534   4.667
 1790SOL    HW2 6270   2.332   2.459   4.554
 1791SOL     OW 6271   5.170   6.678   3.214
 1791SOL    HW1 6272   5.265   6.678   3.245
 1791SOL    HW2 6273   5.132   6.770   3.221
 1792SOL     OW 6274   0.395   1.364   5.594
 1792SOL    HW1 6275   0.468   1.306   5.561
 1792SOL    HW2 6276   0.434   1.439   5.648
 1793SOL     OW 6277   0.005   1.313   6.077
 1793SOL    HW1 6278   7.001   1.221   6.110
 1793SOL    HW2 6279   6.971   1.334   5.995
 1794SOL     OW 6280   1.251   0.176   6.358
 1794SOL    HW1 6281   1.193   0.103   6.394
 1794SOL    HW2 6282   1.221   0.201   6.266
 1795SOL     OW 6283   6.179   4.071   1.066
 1795SOL    HW1 6284   6.236   3.989   1.075
 1795SOL    HW2 6285   6.124   4.082   1.149
 1796SOL     OW 6286   1.261   0.358   6.574
 1796SOL    HW1 6287   1.222   0.440   6.532
 1796SOL    HW2 6288   1.248   0.280   6.512
 1797SOL     OW 6289   2.495   4.919   5.384
 1797SOL    HW1 6290   2.458   4.862   5.311
 1797SOL    HW2 6291   2.530   5.004   5.346
 1798SOL     OW 6292   3.109   3.506   4.282
 1798SOL    HW1 6293   3.199   3.494   4.324
 1798SOL    HW2 6294   3.108   3.463   4.192
 1799SOL     OW 6295   3.271   1.303   0.515
 1799SOL    HW1 6296   3.227   1.226   0.562
 1799SOL    HW2 6297   3.340   1.344   0.574
 1800SOL     OW 6298   5.524   3.908   4.650
 1800SOL    HW1 6299   5.531   3.869   4.558
 1800SOL    HW2 6300   5.611   3.894   4.698
 1801SOL     OW 6301   1.305   1.526   1.912
 1801SOL    HW1 6302   1.284   1.428   1.922
 1801SOL    HW2 6303   1.362   1.539   1.832
 1802SOL     OW 6304   6.730   4.987   3.780
 1802SOL    HW1 6305   6.770   4.900   3.807
 1802SOL    HW2 6306   6.673   4.974   3.699
 1803SOL     OW 6307   0.852   6.748   3.231
 1803SOL    HW1 6308   0.909   6.818   3.273
 1803SOL    HW2 6309   0.908   6.669   3.207
 1804SOL     OW 6310   2.146   3.208   5.760
 1804SOL    HW1 6311   2.073   3.177   5.821
 1804SOL    HW2 6312   2.124   3.299   5.725
 1805SOL     OW 6313   7.006   5.660   6.592
 1805SOL    HW1 6314   0.002   5.585   6.657
 1805SOL    HW2 6315   6.951   5.731   6.636
 1806SOL     OW 6316   6.941   1.841   2.373
 1806SOL    HW1 6317   6.972   1.925   2.329
 1806SOL    HW2 6318   6.956   1.764   2.312
 1807SOL     OW 6319   0.152   3.033   2.523
 1807SOL    HW1 6320   0.131   2.953   2.467
 1807SOL    HW2 6321   0.166   3.004   2.618
 1808SOL     OW 6322   4.797   2.100   5.893
 1808SOL    HW1 6323   4.881   2.139   5.857
 1808SOL    HW2 6324   4.753   2.167   5.953
 1809SOL     OW 6325   4.118   0.469   5.844
 1809SOL    HW1 6326   4.044   0.533   5.823
 1809SOL    HW2 6327   4.206   0.516   5.836
 1810SOL     OW 6328   0.201   0.002   4.348
 1810SOL    HW1 6329   0.209   0.097   4.320
 1810SOL    HW2 6330   0.269   6.966   4.299
 1811SOL     OW 6331   4.282   5.677   1.705
 1811SOL    HW1 6332   4.270   5.583   1.672
 1811SOL    HW2 6333   4.216   5.737   1.660
 1812SOL     OW 6334   4.742   6.470   5.720
 1812SOL    HW1 6335   4.734   6.459   5.819
 1812SOL    HW2 6336   4.818   6.530   5.699
 1813SOL     OW 6337   4.272   4.724   2.680
 1813SOL    HW1 6338   4.269   4.666   2.598
 1813SOL    HW2 6339   4.182   4.763   2.696
 1814SOL     OW 6340   7.007   5.547   0.433
 1814SOL    HW1 6341   0.065   5.593   0.476
 1814SOL    HW2 6342   7.010   5.562   0.334
 1815SOL     OW 6343   5.703   6.265   1.490
 1815SOL    HW1 6344   5.632   6.320   1.446
 1815SOL    HW2 6345   5.707   6.175   1.449
 1816SOL     OW 6346   4.188   5.156   5.692
 1816SOL    HW1 6347   4.107   5.215   5.684
 1816SOL    HW2 6348   4.221   5.132   5.600
 1817SOL     OW 6349   0.995   1.732   3.740
 1817SOL    HW1 6350   0.974   1.673   3.818
 1817SOL    HW2 6351   0.963   1.825   3.760
 1818SOL     OW 6352   1.966   0.142   0.869
 1818SOL    HW1 6353   2.061   0.116   0.855
 1818SOL    HW2 6354   1.960   0.205   0.947
 1819SOL     OW 6355   2.085   4.563   3.629
 1819SOL    HW1 6356   2.002   4.511   3.609
 1819SOL    HW2 6357   2.116   4.610   3.547
 1820SOL     OW 6358   3.772   6.699   5.108
 1820SOL    HW1 6359   3.697   6.764   5.117
 1820SOL    HW2 6360   3.826   6.698   5.192
 1821SOL     OW 6361   3.253   2.152   2.810
 1821SOL    HW1 6362   3.198   2.114   2.736
 1821SOL    HW2 6363   3.219   2.242   2.834
 1822SOL     OW 6364   6.582   3.092   2.476
 1822SOL    HW1 6365   6.597   3.081   2.574
 1822SOL    HW2 6366   6.572   3.001   2.434
 1823SOL     OW 6367   3.556   6.055   2.293
 1823SOL    HW1 6368   3.649   6.077   2.264
 1823SOL    HW2 6369   3.492   6.122   2.255
 1824SOL     OW 6370   4.248   2.979   1.637
 1824SOL    HW1 6371   4.186   2.936   1.702
 1824SOL    HW2 6372   4.272   2.913   1.565
 1825SOL     OW 6373   2.066   1.385   5.248
 1825SOL    HW1 6374   2.028   1.294   5.258
 1825SOL    HW2 6375   2.048   1.419   5.155
 1826SOL     OW 6376   3.647   2.150   1.662
 1826SOL    HW1 6377   3.661   2.207   1.743
 1826SOL    HW2 6378   3.701   2.186   1.586
 1827SOL     OW 6379   5.862   4.399   1.157
 1827SOL    HW1 6380   5.910   4.405   1.069
 1827SOL    HW2 6381   5.855   4.303   1.184
 1828SOL     OW 6382   1.590   3.066   5.090
 1828SOL    HW1 6383   1.666   3.046   5.152
 1828SOL    HW2 6384   1.619   3.135   5.023
 1829SOL     OW 6385   3.747   0.441   3.182
 1829SOL    HW1 6386   3.739   0.346   3.211
 1829SOL    HW2 6387   3.693   0.455   3.099
 1830SOL     OW 6388   4.705   6.963   4.500
 1830SOL    HW1 6389   4.784   0.001   4.481
 1830SOL    HW2 6390   4.711   6.926   4.593
 1831SOL     OW 6391   4.211   5.285   1.081
 1831SOL    HW1 6392   4.274   5.256   1.153
 1831SOL    HW2 6393   4.133   5.223   1.077
 1832SOL     OW 6394   2.357   3.147   0.333
 1832SOL    HW1 6395   2.443   3.099   0.317
 1832SOL    HW2 6396   2.292   3.126   0.260
 1833SOL     OW 6397   5.176   0.680   0.662
 1833SOL    HW1 6398   5.083   0.654   0.636
 1833SOL    HW2 6399   5.216   0.610   0.721
 1834SOL     OW 6400   1.516   2.429   5.733
 1834SOL    HW1 6401   1.608   2.435   5.770
 1834SOL    HW2 6402   1.464   2.511   5.758
 1835SOL     OW 6403   6.864   6.115   1.180
 1835SOL    HW1 6404   6.777   6.165   1.175
 1835SOL    HW2 6405   6.906   6.114   1.089
 1836SOL     OW 6406   4.817   2.559   1.815
 1836SOL    HW1 6407   4.847   2.586   1.724
 1836SOL    HW2 6408   4.758   2.631   1.854
 1837SOL     OW 6409   3.229   2.948   6.103
 1837SOL    HW1 6410   3.202   2.851   6.099
 1837SOL    HW2 6411   3.219   2.989   6.012
 1838SOL     OW 6412   6.392   0.803   0.849
 1838SOL    HW1 6413   6.300   0.844   0.850
 1838SOL    HW2 6414   6.385   0.706   0.873
 1839SOL     OW 6415   7.004   1.164   6.740
 1839SOL    HW1 6416   0.014   1.251   6.700
 1839SOL    HW2 6417   7.010   1.092   6.672
 1840SOL     OW 6418   4.585   6.635   3.374
 1840SOL    HW1 6419   4.618   6.685   3.454
 1840SOL    HW2 6420   4.655   6.635   3.303
 1841SOL     OW 6421   2.241   0.820   2.451
 1841SOL    HW1 6422   2.291   0.736   2.428
 1841SOL    HW2 6423   2.202   0.859   2.367
 1842SOL     OW 6424   1.449   5.656   0.095
 1842SOL    HW1 6425   1.364   5.672   0.145
 1842SOL    HW2 6426   1.489   5.569   0.123
 1843SOL     OW 6427   2.540   1.438   4.892
 1843SOL    HW1 6428   2.584   1.527   4.907
 1843SOL    HW2 6429   2.588   1.369   4.946
 1844SOL     OW 6430   5.698   2.447   6.316
 1844SOL    HW1 6431   5.717   2.461   6.413
 1844SOL    HW2 6432   5.768   2.387   6.276
 1845SOL     OW 6433   1.339   1.449   3.068
 1845SOL    HW1 6434   1.426   1.487   3.037
 1845SOL    HW2 6435   1.265   1.510   3.042
 1846SOL     OW 6436   4.289   1.820   1.984
 1846SOL    HW1 6437   4.253   1.746   1.927
 1846SOL    HW2 6438   4.239   1.905   1.965
 1847SOL     OW 6439   2.009   5.953   5.201
 1847SOL    HW1 6440   2.026   5.922   5.294
 1847SOL    HW2 6441   2.091   5.941   5.145
 1848SOL     OW 6442   2.843   5.769   3.416
 1848SOL    HW1 6443   2.835   5.836   3.490
 1848SOL    HW2 6444   2.762   5.710   3.416
 1849SOL     OW 6445   4.674   2.713   1.986
 1849SOL    HW1 6446   4.742   2.667   2.043
 1849SOL    HW2 6447   4.652   2.802   2.025
 1850SOL     OW 6448   5.120   1.310   1.318
 1850SOL    HW1 6449   5.086   1.402   1.340
 1850SOL    HW2 6450   5.201   1.292   1.373
 1851SOL     OW 6451   0.310   4.073   5.358
 1851SOL    HW1 6452   0.306   3.993   5.298
 1851SOL    HW2 6453   0.405   4.101   5.369
 1852SOL     OW 6454   0.697   6.852   2.688
 1852SOL    HW1 6455   0.721   6.762   2.654
 1852SOL    HW2 6456   0.705   6.919   2.614
 1853SOL     OW 6457   0.134   2.613   4.646
 1853SOL    HW1 6458   0.135   2.574   4.554
 1853SOL    HW2 6459   0.042   2.642   4.669
 1854SOL     OW 6460   0.306   6.984   3.435
 1854SOL    HW1 6461   0.241   0.007   3.372
 1854SOL    HW2 6462   0.320   6.888   3.411
 1855SOL     OW 6463   4.586   2.469   4.405
 1855SOL    HW1 6464   4.683   2.446   4.397
 1855SOL    HW2 6465   4.575   2.568   4.402
 1856SOL     OW 6466   3.598   2.916   0.545
 1856SOL    HW1 6467   3.651   2.834   0.523
 1856SOL    HW2 6468   3.501   2.892   0.555
 1857SOL     OW 6469   4.017   1.732   1.038
 1857SOL    HW1 6470   4.044   1.828   1.032
 1857SOL    HW2 6471   4.099   1.675   1.026
 1858SOL     OW 6472   4.533   2.608   3.990
 1858SOL    HW1 6473   4.528   2.639   3.895
 1858SOL    HW2 6474   4.578   2.679   4.045
 1859SOL     OW 6475   6.206   2.023   4.164
 1859SOL    HW1 6476   6.126   1.984   4.119
 1859SOL    HW2 6477   6.279   2.036   4.097
 1860SOL     OW 6478   1.388   1.704   4.737
 1860SOL    HW1 6479   1.463   1.685   4.673
 1860SOL    HW2 6480   1.342   1.789   4.711
 1861SOL     OW 6481   6.443   6.984   3.700
 1861SOL    HW1 6482   6.449   0.033   3.773
 1861SOL    HW2 6483   6.524   6.993   3.641
 1862SOL     OW 6484   3.268   5.565   6.271
 1862SOL    HW1 6485   3.245   5.467   6.270
 1862SOL    HW2 6486   3.203   5.615   6.214
 1863SOL     OW 6487   0.427   3.012   0.477
 1863SOL    HW1 6488   0.495   3.084   0.492
 1863SOL    HW2 6489   0.397   2.975   0.565
 1864SOL     OW 6490   3.879   5.191   2.602
 1864SOL    HW1 6491   3.903   5.161   2.510
 1864SOL    HW2 6492   3.945   5.154   2.668
 1865SOL     OW 6493   5.574   1.440   5.516
 1865SOL    HW1 6494   5.658   1.414   5.564
 1865SOL    HW2 6495   5.516   1.496   5.576
 1866SOL     OW 6496   1.358   5.050   3.574
 1866SOL    HW1 6497   1.440   5.039   3.629
 1866SOL    HW2 6498   1.293   5.108   3.623
 1867SOL     OW 6499   1.352   2.515   1.479
 1867SOL    HW1 6500   1.448   2.513   1.508
 1867SOL    HW2 6501   1.316   2.422   1.481
 1868SOL     OW 6502   5.892   3.822   5.974
 1868SOL    HW1 6503   5.958   3.889   5.939
 1868SOL    HW2 6504   5.826   3.799   5.902
 1869SOL     OW 6505   4.070   1.194   3.922
 1869SOL    HW1 6506   3.988   1.251   3.929
 1869SOL    HW2 6507   4.125   1.205   4.005
 1870SOL     OW 6508   7.015   5.584   4.494
 1870SOL    HW1 6509   0.001   5.544   4.402
 1870SOL    HW2 6510   0.003   5.683   4.488
 1871SOL     OW 6511   0.322   6.539   0.261
 1871SOL    HW1 6512   0.394   6.526   0.193
 1871SOL    HW2 6513   0.341   6.622   0.314
 1872SOL     OW 6514   2.892   2.512   1.422
 1872SOL    HW1 6515   2.951   2.471   1.492
 1872SOL    HW2 6516   2.819   2.564   1.466
 1873SOL     OW 6517   0.297   1.516   0.433
 1873SOL    HW1 6518   0.395   1.520   0.456
 1873SOL    HW2 6519   0.245   1.566   0.502
 1874SOL     OW 6520   0.403   6.150   0.195
 1874SOL    HW1 6521   0.406   6.214   0.118
 1874SOL    HW2 6522   0.343   6.186   0.266
 1875SOL     OW 6523   6.446   4.938   0.091
 1875SOL    HW1 6524   6.510   4.926   0.014
 1875SOL    HW2 6525   6.487   4.898   0.173
 1876SOL     OW 6526   0.052   6.051   0.025
 1876SOL    HW1 6527   0.125   6.025   6.981
 1876SOL    HW2 6528   0.026   5.973   0.081
 1877SOL     OW 6529   1.070   1.516   2.731
 1877SOL    HW1 6530   1.077   1.501   2.829
 1877SOL    HW2 6531   1.058   1.429   2.684
 1878SOL     OW 6532   6.529   3.695   3.709
 1878SOL    HW1 6533   6.527   3.700   3.809
 1878SOL    HW2 6534   6.615   3.734   3.676
 1879SOL     OW 6535   4.810   6.125   4.791
 1879SOL    HW1 6536   4.744   6.188   4.830
 1879SOL    HW2 6537   4.858   6.076   4.864
 1880SOL     OW 6538   0.211   1.574   4.055
 1880SOL    HW1 6539   0.223   1.656   3.999
 1880SOL    HW2 6540   0.290   1.564   4.116
 1881SOL     OW 6541   1.483   1.856   4.350
 1881SOL    HW1 6542   1.486   1.947   4.392
 1881SOL    HW2 6543   1.513   1.788   4.416
 1882SOL     OW 6544   1.836   5.607   6.645
 1882SOL    HW1 6545   1.934   5.615   6.661
 1882SOL    HW2 6546   1.808   5.670   6.573
 1883SOL     OW 6547   1.666   2.942   2.197
 1883SOL    HW1 6548   1.733   3.000   2.244
 1883SOL    HW2 6549   1.574   2.970   2.222
 1884SOL     OW 6550   2.854   1.143   0.079
 1884SOL    HW1 6551   2.932   1.082   0.086
 1884SOL    HW2 6552   2.881   1.235   0.107
 1885SOL     OW 6553   0.520   2.166   1.135
 1885SOL    HW1 6554   0.597   2.152   1.196
 1885SOL    HW2 6555   0.483   2.258   1.148
 1886SOL     OW 6556   2.823   2.574   5.960
 1886SOL    HW1 6557   2.860   2.652   5.911
 1886SOL    HW2 6558   2.897   2.528   6.010
 1887SOL     OW 6559   0.093   6.896   5.499
 1887SOL    HW1 6560   0.155   6.867   5.573
 1887SOL    HW2 6561   0.136   6.970   5.448
 1888SOL     OW 6562   2.236   1.786   5.521
 1888SOL    HW1 6563   2.241   1.744   5.431
 1888SOL    HW2 6564   2.328   1.799   5.557
 1889SOL     OW 6565   3.305   3.008   0.345
 1889SOL    HW1 6566   3.277   2.956   0.265
 1889SOL    HW2 6567   3.311   2.947   0.424
 1890SOL     OW 6568   6.501   5.801   6.300
 1890SOL    HW1 6569   6.599   5.812   6.315
 1890SOL    HW2 6570   6.470   5.867   6.232
 1891SOL     OW 6571   5.874   4.243   5.390
 1891SOL    HW1 6572   5.914   4.152   5.390
 1891SOL    HW2 6573   5.775   4.236   5.403
 1892SOL     OW 6574   3.973   6.303   1.351
 1892SOL    HW1 6575   3.985   6.204   1.361
 1892SOL    HW2 6576   3.883   6.322   1.312
 1893SOL     OW 6577   3.677   1.687   4.841
 1893SOL    HW1 6578   3.610   1.716   4.909
 1893SOL    HW2 6579   3.766   1.727   4.862
 1894SOL     OW 6580   3.888   3.972   0.729
 1894SOL    HW1 6581   3.890   3.980   0.828
 1894SOL    HW2 6582   3.948   3.897   0.700
 1895SOL     OW 6583   5.301   0.347   3.035
 1895SOL    HW1 6584   5.379   0.363   2.974
 1895SOL    HW2 6585   5.316   0.262   3.086
 1896SOL     OW 6586   6.608   1.252   5.650
 1896SOL    HW1 6587   6.657   1.337   5.631
 1896SOL    HW2 6588   6.645   1.210   5.732
 1897SOL     OW 6589   5.537   5.129   3.586
 1897SOL    HW1 6590   5.635   5.147   3.581
 1897SOL    HW2 6591   5.487   5.215   3.583
 1898SOL     OW 6592   5.868   5.373   0.067
 1898SOL    HW1 6593   5.944   5.321   0.105
 1898SOL    HW2 6594   5.827   5.323   7.009
 1899SOL     OW 6595   1.281   3.080   3.446
 1899SOL    HW1 6596   1.355   3.079   3.514
 1899SOL    HW2 6597   1.311   3.129   3.365
 1900SOL     OW 6598   2.735   5.912   0.481
 1900SOL    HW1 6599   2.717   5.867   0.394
 1900SOL    HW2 6600   2.712   6.009   0.474
 1901SOL     OW 6601   1.381   1.584   6.849
 1901SOL    HW1 6602   1.376   1.510   6.781
 1901SOL    HW2 6603   1.396   1.544   6.939
 1902SOL     OW 6604   1.211   2.818   5.045
 1902SOL    HW1 6605   1.226   2.889   4.976
 1902SOL    HW2 6606   1.204   2.859   5.135
 1903SOL     OW 6607   6.264   3.481   4.040
 1903SOL    HW1 6608   6.187   3.467   4.101
 1903SOL    HW2 6609   6.236   3.541   3.964
 1904SOL     OW 6610   6.846   6.941   3.895
 1904SOL    HW1 6611   6.942   6.932   3.921
 1904SOL    HW2 6612   6.840   6.950   3.795
 1905SOL     OW 6613   6.566   2.851   3.822
 1905SOL    HW1 6614   6.484   2.839   3.879
 1905SOL    HW2 6615   6.548   2.816   3.730
 1906SOL     OW 6616   2.693   6.715   0.617
 1906SOL    HW1 6617   2.670   6.673   0.704
 1906SOL    HW2 6618   2.619   6.776   0.588
 1907SOL     OW 6619   3.053   6.019   3.410
 1907SOL    HW1 6620   3.019   5.979   3.496
 1907SOL    HW2 6621   3.022   6.114   3.403
 1908SOL     OW 6622   5.066   1.221   6.764
 1908SOL    HW1 6623   5.066   1.125   6.736
 1908SOL    HW2 6624   4.987   1.268   6.725
 1909SOL     OW 6625   3.542   4.981   4.370
 1909SOL    HW1 6626   3.504   5.068   4.401
 1909SOL    HW2 6627   3.642   4.987   4.371
 1910SOL     OW 6628   4.817   1.784   5.536
 1910SOL    HW1 6629   4.816   1.863   5.596
 1910SOL    HW2 6630   4.893   1.792   5.471
 1911SOL     OW 6631   6.580   3.890   5.883
 1911SOL    HW1 6632   6.623   3.811   5.928
 1911SOL    HW2 6633   6.485   3.897   5.913
 1912SOL     OW 6634   3.652   6.852   3.557
 1912SOL    HW1 6635   3.647   6.788   3.633
 1912SOL    HW2 6636   3.622   6.808   3.473
 1913SOL     OW 6637   1.110   4.119   5.424
 1913SOL    HW1 6638   1.121   4.098   5.521
 1913SOL    HW2 6639   1.115   4.218   5.410
 1914SOL     OW 6640   4.029   1.662   5.625
 1914SOL    HW1 6641   4.031   1.692   5.721
 1914SOL    HW2 6642   3.950   1.703   5.580
 1915SOL     OW 6643   3.154   6.985   5.375
 1915SOL    HW1 6644   3.138   6.893   5.339
 1915SOL    HW2 6645   3.114   6.993   5.466
 1916SOL     OW 6646   3.799   6.556   1.372
 1916SOL    HW1 6647   3.863   6.632   1.357
 1916SOL    HW2 6648   3.793   6.502   1.288
 1917SOL     OW 6649   3.153   3.021   3.873
 1917SOL    HW1 6650   3.122   3.046   3.964
 1917SOL    HW2 6651   3.234   2.962   3.881
 1918SOL     OW 6652   5.814   6.926   4.228
 1918SOL    HW1 6653   5.844   6.841   4.271
 1918SOL    HW2 6654   5.716   6.938   4.241
 1919SOL     OW 6655   6.410   6.743   1.618
 1919SOL    HW1 6656   6.438   6.751   1.522
 1919SOL    HW2 6657   6.329   6.686   1.625
 1920SOL     OW 6658   6.706   5.847   4.264
 1920SOL    HW1 6659   6.730   5.904   4.185
 1920SOL    HW2 6660   6.739   5.890   4.348
 1921SOL     OW 6661   1.056   0.010   6.931
 1921SOL    HW1 6662   1.057   0.102   6.970
 1921SOL    HW2 6663   1.085   6.962   7.000
 1922SOL     OW 6664   3.275   4.402   0.342
 1922SOL    HW1 6665   3.284   4.398   0.442
 1922SOL    HW2 6666   3.298   4.494   0.310
 1923SOL     OW 6667   1.649   1.827   0.644
 1923SOL    HW1 6668   1.745   1.845   0.668
 1923SOL    HW2 6669   1.590   1.887   0.698
 1924SOL     OW 6670   0.417   4.918   1.515
 1924SOL    HW1 6671   0.473   4.952   1.439
 1924SOL    HW2 6672   0.474   4.906   1.596
 1925SOL     OW 6673   2.895   4.385   0.865
 1925SOL    HW1 6674   2.952   4.454   0.821
 1925SOL    HW2 6675   2.803   4.423   0.879
 1926SOL     OW 6676   0.990   0.150   3.647
 1926SOL    HW1 6677   0.978   0.248   3.661
 1926SOL    HW2 6678   0.903   0.103   3.661
 1927SOL     OW 6679   4.069   3.367   6.847
 1927SOL    HW1 6680   4.131   3.390   6.922
 1927SOL    HW2 6681   4.046   3.450   6.796
 1928SOL     OW 6682   6.063   4.860   5.510
 1928SOL    HW1 6683   6.030   4.900   5.596
 1928SOL    HW2 6684   6.131   4.790   5.530
 1929SOL     OW 6685   1.307   6.768   2.485
 1929SOL    HW1 6686   1.275   6.748   2.577
 1929SOL    HW2 6687   1.267   6.703   2.421
 1930SOL     OW 6688   5.773   3.666   6.475
 1930SOL    HW1 6689   5.816   3.692   6.562
 1930SOL    HW2 6690   5.843   3.653   6.405
 1931SOL     OW 6691   0.610   2.535   4.771
 1931SOL    HW1 6692   0.710   2.533   4.758
 1931SOL    HW2 6693   0.588   2.508   4.864
 1932SOL     OW 6694   5.711   3.671   1.526
 1932SOL    HW1 6695   5.758   3.603   1.583
 1932SOL    HW2 6696   5.678   3.745   1.584
 1933SOL     OW 6697   2.915   4.032   1.424
 1933SOL    HW1 6698   2.947   4.003   1.334
 1933SOL    HW2 6699   2.968   4.112   1.454
 1934SOL     OW 6700   0.767   5.670   5.111
 1934SOL    HW1 6701   0.726   5.579   5.108
 1934SOL    HW2 6702   0.742   5.715   5.197
 1935SOL     OW 6703   2.115   1.163   3.775
 1935SOL    HW1 6704   2.102   1.250   3.823
 1935SOL    HW2 6705   2.080   1.171   3.682
 1936SOL     OW 6706   6.368   5.345   5.266
 1936SOL    HW1 6707   6.379   5.262   5.321
 1936SOL    HW2 6708   6.423   5.419   5.305
 1937SOL     OW 6709   3.845   6.604   1.826
 1937SOL    HW1 6710   3.915   6.589   1.896
 1937SOL    HW2 6711   3.841   6.525   1.765
 1938SOL     OW 6712   4.700   0.885   3.240
 1938SOL    HW1 6713   4.767   0.846   3.303
 1938SOL    HW2 6714   4.682   0.980   3.265
 1939SOL     OW 6715   1.948   0.653   3.504
 1939SOL    HW1 6716   1.912   0.663   3.597
 1939SOL    HW2 6717   2.045   0.675   3.503
 1940SOL     OW 6718   0.057   5.508   6.864
 1940SOL    HW1 6719   6.981   5.534   6.884
 1940SOL    HW2 6720   0.060   5.411   6.840
 1941SOL     OW 6721   5.073   4.126   2.839
 1941SOL    HW1 6722   5.162   4.085   2.820
 1941SOL    HW2 6723   5.038   4.090   2.926
 1942SOL     OW 6724   5.990   5.148   2.776
 1942SOL    HW1 6725   5.936   5.232   2.768
 1942SOL    HW2 6726   5.963   5.098   2.858
 1943SOL     OW 6727   2.610   4.984   2.394
 1943SOL    HW1 6728   2.591   5.063   2.336
 1943SOL    HW2 6729   2.603   5.012   2.490
 1944SOL     OW 6730   6.807   1.231   1.318
 1944SOL    HW1 6731   6.780   1.158   1.255
 1944SOL    HW2 6732   6.887   1.201   1.371
 1945SOL     OW 6733   3.302   4.939   4.228
 1945SOL    HW1 6734   3.311   4.975   4.136
 1945SOL    HW2 6735   3.391   4.942   4.274
 1946SOL     OW 6736   1.490   0.744   0.005
 1946SOL    HW1 6737   1.481   0.814   6.953
 1946SOL    HW2 6738   1.526   0.786   0.088
 1947SOL     OW 6739   5.641   5.555   3.973
 1947SOL    HW1 6740   5.699   5.473   3.977
 1947SOL    HW2 6741   5.608   5.577   4.065
 1948SOL     OW 6742   6.035   5.125   4.665
 1948SOL    HW1 6743   6.046   5.135   4.763
 1948SOL    HW2 6744   5.937   5.124   4.642
 1949SOL     OW 6745   4.692   4.010   6.567
 1949SOL    HW1 6746   4.722   4.100   6.599
 1949SOL    HW2 6747   4.592   4.007   6.567
 1950SOL     OW 6748   2.964   3.665   6.674
 1950SOL    HW1 6749   2.928   3.758   6.677
 1950SOL    HW2 6750   3.064   3.667   6.685
 1951SOL     OW 6751   6.150   2.105   6.880
 1951SOL    HW1 6752   6.084   2.114   6.805
 1951SOL    HW2 6753   6.240   2.137   6.849
 1952SOL     OW 6754   3.742   2.145   6.272
 1952SOL    HW1 6755   3.763   2.239   6.246
 1952SOL    HW2 6756   3.808   2.113   6.340
 1953SOL     OW 6757   0.235   2.925   6.310
 1953SOL    HW1 6758   0.250   2.979   6.394
 1953SOL    HW2 6759   0.148   2.876   6.318
 1954SOL     OW 6760   3.391   2.119   4.027
 1954SOL    HW1 6761   3.339   2.160   4.102
 1954SOL    HW2 6762   3.367   2.022   4.020
 1955SOL     OW 6763   6.974   6.734   3.148
 1955SOL    HW1 6764   0.000   6.676   3.215
 1955SOL    HW2 6765   7.000   6.829   3.162
 1956SOL     OW 6766   5.684   5.733   2.475
 1956SOL    HW1 6767   5.763   5.790   2.498
 1956SOL    HW2 6768   5.700   5.687   2.388
 1957SOL     OW 6769   0.306   6.665   5.438
 1957SOL    HW1 6770   0.323   6.604   5.516
 1957SOL    HW2 6771   0.222   6.638   5.391
 1958SOL     OW 6772   5.349   3.251   6.026
 1958SOL    HW1 6773   5.382   3.242   6.120
 1958SOL    HW2 6774   5.288   3.175   6.004
 1959SOL     OW 6775   1.572   2.018   6.434
 1959SOL    HW1 6776   1.635   1.946   6.466
 1959SOL    HW2 6777   1.583   2.030   6.335
 1960SOL     OW 6778   5.675   5.680   0.650
 1960SOL    HW1 6779   5.680   5.778   0.666
 1960SOL    HW2 6780   5.643   5.635   0.734
 1961SOL     OW 6781   5.511   4.292   3.978
 1961SOL    HW1 6782   5.472   4.384   3.978
 1961SOL    HW2 6783   5.461   4.235   3.912
 1962SOL     OW 6784   0.744   6.376   3.451
 1962SOL    HW1 6785   0.644   6.376   3.453
 1962SOL    HW2 6786   0.777   6.470   3.443
 1963SOL     OW 6787   0.943   0.642   3.357
 1963SOL    HW1 6788   0.853   0.686   3.360
 1963SOL    HW2 6789   1.012   0.706   3.390
 1964SOL     OW 6790   5.307   3.696   2.935
 1964SOL    HW1 6791   5.322   3.666   2.841
 1964SOL    HW2 6792   5.278   3.792   2.935
 1965SOL     OW 6793   1.323   3.943   3.211
 1965SOL    HW1 6794   1.291   3.853   3.182
 1965SOL    HW2 6795   1.417   3.936   3.245
 1966SOL     OW 6796   6.401   5.119   5.424
 1966SOL    HW1 6797   6.427   5.084   5.514
 1966SOL    HW2 6798   6.442   5.062   5.353
 1967SOL     OW 6799   4.742   2.902   5.300
 1967SOL    HW1 6800   4.751   2.850   5.215
 1967SOL    HW2 6801   4.646   2.928   5.312
 1968SOL     OW 6802   3.508   5.858   6.176
 1968SOL    HW1 6803   3.430   5.870   6.116
 1968SOL    HW2 6804   3.480   5.805   6.257
 1969SOL     OW 6805   0.184   2.580   0.974
 1969SOL    HW1 6806   0.238   2.517   1.030
 1969SOL    HW2 6807   0.098   2.536   0.950
 1970SOL     OW 6808   1.626   0.989   4.285
 1970SOL    HW1 6809   1.551   0.995   4.351
 1970SOL    HW2 6810   1.614   1.059   4.215
 1971SOL     OW 6811   0.290   6.702   6.728
 1971SOL    HW1 6812   0.216   6.708   6.795
 1971SOL    HW2 6813   0.374   6.736   6.770
 1972SOL     OW 6814   0.689   4.752   3.939
 1972SOL    HW1 6815   0.695   4.777   4.036
 1972SOL    HW2 6816   0.765   4.795   3.890
 1973SOL     OW 6817   3.274   3.216   1.551
 1973SOL    HW1 6818   3.200   3.198   1.615
 1973SOL    HW2 6819   3.281   3.314   1.534
 1974SOL     OW 6820   5.281   0.697   3.938
 1974SOL    HW1 6821   5.259   0.793   3.918
 1974SOL    HW2 6822   5.379   0.682   3.926
 1975SOL     OW 6823   3.290   0.288   3.968
 1975SOL    HW1 6824   3.306   0.376   4.013
 1975SOL    HW2 6825   3.193   0.278   3.948
 1976SOL     OW 6826   0.564   5.666   0.672
 1976SOL    HW1 6827   0.478   5.618   0.688
 1976SOL    HW2 6828   0.552   5.732   0.598
 1977SOL     OW 6829   0.813   2.684   5.135
 1977SOL    HW1 6830   0.828   2.660   5.231
 1977SOL    HW2 6831   0.721   2.720   5.123
 1978SOL     OW 6832   6.398   1.835   4.280
 1978SOL    HW1 6833   6.324   1.886   4.237
 1978SOL    HW2 6834   6.419   1.875   4.369
 1979SOL     OW 6835   5.961   4.678   4.100
 1979SOL    HW1 6836   5.875   4.676   4.149
 1979SOL    HW2 6837   5.980   4.771   4.067
 1980SOL     OW 6838   4.326   0.377   1.441
 1980SOL    HW1 6839   4.293   0.459   1.395
 1980SOL    HW2 6840   4.256   0.342   1.504
 1981SOL     OW 6841   4.968   2.873   1.989
 1981SOL    HW1 6842   4.958   2.791   1.934
 1981SOL    HW2 6843   4.878   2.912   2.009
 1982SOL     OW 6844   5.535   6.293   4.469
 1982SOL    HW1 6845   5.452   6.273   4.521
 1982SOL    HW2 6846   5.592   6.356   4.522
 1983SOL     OW 6847   1.277   3.329   3.672
 1983SOL    HW1 6848   1.245   3.352   3.580
 1983SOL    HW2 6849   1.288   3.413   3.725
 1984SOL     OW 6850   4.065   1.342   6.495
 1984SOL    HW1 6851   3.980   1.379   6.534
 1984SOL    HW2 6852   4.043   1.261   6.441
 1985SOL     OW 6853   1.091   0.556   1.645
 1985SOL    HW1 6854   1.181   0.525   1.612
 1985SOL    HW2 6855   1.069   0.644   1.603
 1986SOL     OW 6856   1.904   1.440   6.478
 1986SOL    HW1 6857   1.949   1.391   6.552
 1986SOL    HW2 6858   1.970   1.458   6.404
 1987SOL     OW 6859   2.506   3.171   0.800
 1987SOL    HW1 6860   2.461   3.121   0.726
 1987SOL    HW2 6861   2.605   3.173   0.784
 1988SOL     OW 6862   4.481   3.840   0.406
 1988SOL    HW1 6863   4.544   3.851   0.482
 1988SOL    HW2 6864   4.508   3.900   0.330
 1989SOL     OW 6865   2.303   0.113   4.009
 1989SOL    HW1 6866   2.278   0.161   4.093
 1989SOL    HW2 6867   2.223   0.102   3.951
 1990SOL     OW 6868   3.084   0.754   1.497
 1990SOL    HW1 6869   3.160   0.688   1.496
 1990SOL    HW2 6870   3.110   0.834   1.550
 1991SOL     OW 6871   2.904   5.605   4.097
 1991SOL    HW1 6872   2.884   5.631   4.003
 1991SOL    HW2 6873   2.965   5.525   4.098
 1992SOL     OW 6874   2.250   6.376   5.538
 1992SOL    HW1 6875   2.190   6.305   5.574
 1992SOL    HW2 6876   2.215   6.466   5.565
 1993SOL     OW 6877   3.912   3.594   5.664
 1993SOL    HW1 6878   3.966   3.591   5.749
 1993SOL    HW2 6879   3.852   3.515   5.661
 1994SOL     OW 6880   6.566   2.460   2.187
 1994SOL    HW1 6881   6.578   2.489   2.093
 1994SOL    HW2 6882   6.473   2.481   2.217
 1995SOL     OW 6883   5.769   2.098   1.658
 1995SOL    HW1 6884   5.669   2.098   1.652
 1995SOL    HW2 6885   5.798   2.035   1.730
 1996SOL     OW 6886   3.486   4.226   0.247
 1996SOL    HW1 6887   3.514   4.301   0.307
 1996SOL    HW2 6888   3.417   4.260   0.182
 1997SOL     OW 6889   5.117   0.657   3.516
 1997SOL    HW1 6890   5.105   0.738   3.574
 1997SOL    HW2 6891   5.180   0.678   3.442
 1998SOL     OW 6892   2.993   4.474   5.352
 1998SOL    HW1 6893   2.963   4.532   5.428
 1998SOL    HW2 6894   2.956   4.511   5.266
 1999SOL     OW 6895   2.277   0.211   2.501
 1999SOL    HW1 6896   2.252   0.210   2.404
 1999SOL    HW2 6897   2.375   0.197   2.511
 2000SOL     OW 6898   4.047   1.558   4.678
 2000SOL    HW1 6899   3.956   1.523   4.653
 2000SOL    HW2 6900   4.070   1.528   4.771
 2001SOL     OW 6901   3.197   1.320   0.831
 2001SOL    HW1 6902   3.232   1.249   0.893
 2001SOL    HW2 6903   3.115   1.287   0.785
 2002SOL     OW 6904   1.708   5.218   5.582
 2002SOL    HW1 6905   1.689   5.283   5.655
 2002SOL    HW2 6906   1.735   5.130   5.621
 2003SOL     OW 6907   5.969   6.073   3.586
 2003SOL    HW1 6908   6.057   6.107   3.554
 2003SOL    HW2 6909   5.983   6.007   3.660
 2004SOL     OW 6910   2.994   0.891   6.021
 2004SOL    HW1 6911   2.978   0.926   5.929
 2004SOL    HW2 6912   3.068   0.941   6.065
 2005SOL     OW 6913   2.265   5.690   5.586
 2005SOL    HW1 6914   2.263   5.610   5.525
 2005SOL    HW2 6915   2.172   5.708   5.620
 2006SOL     OW 6916   4.392   5.130   4.368
 2006SOL    HW1 6917   4.300   5.162   4.347
 2006SOL    HW2 6918   4.409   5.139   4.467
 2007SOL     OW 6919   5.103   5.612   0.578
 2007SOL    HW1 6920   5.195   5.583   0.605
 2007SOL    HW2 6921   5.082   5.575   0.487
 2008SOL     OW 6922   0.106   6.272   3.661
 2008SOL    HW1 6923   0.047   6.192   3.669
 2008SOL    HW2 6924   0.120   6.294   3.565
 2009SOL     OW 6925   6.849   0.119   1.787
 2009SOL    HW1 6926   6.774   0.123   1.721
 2009SOL    HW2 6927   6.817   0.074   1.870
 2010SOL     OW 6928   0.825   0.480   0.580
 2010SOL    HW1 6929   0.794   0.390   0.548
 2010SOL    HW2 6930   0.756   0.549   0.557
 2011SOL     OW 6931   0.037   1.516   4.352
 2011SOL    HW1 6932   0.113   1.574   4.322
 2011SOL    HW2 6933   6.975   1.539   4.299
 2012SOL     OW 6934   1.554   3.859   0.753
 2012SOL    HW1 6935   1.516   3.796   0.821
 2012SOL    HW2 6936   1.653   3.846   0.747
 2013SOL     OW 6937   5.706   1.682   2.237
 2013SOL    HW1 6938   5.766   1.690   2.157
 2013SOL    HW2 6939   5.733   1.604   2.292
 2014SOL     OW 6940   1.924   5.383   3.459
 2014SOL    HW1 6941   2.000   5.442   3.484
 2014SOL    HW2 6942   1.854   5.386   3.529
 2015SOL     OW 6943   2.975   0.415   0.224
 2015SOL    HW1 6944   2.906   0.471   0.179
 2015SOL    HW2 6945   2.965   0.422   0.323
 2016SOL     OW 6946   0.637   5.404   4.498
 2016SOL    HW1 6947   0.598   5.324   4.543
 2016SOL    HW2 6948   0.735   5.389   4.484
 2017SOL     OW 6949   2.735   5.847   2.969
 2017SOL    HW1 6950   2.711   5.926   2.911
 2017SOL    HW2 6951   2.799   5.876   3.040
 2018SOL     OW 6952   0.418   5.130   6.393
 2018SOL    HW1 6953   0.354   5.180   6.451
 2018SOL    HW2 6954   0.416   5.033   6.415
 2019SOL     OW 6955   6.008   2.219   2.057
 2019SOL    HW1 6956   6.098   2.244   2.092
 2019SOL    HW2 6957   5.977   2.135   2.102
 2020SOL     OW 6958   2.450   5.153   3.037
 2020SOL    HW1 6959   2.392   5.167   2.957
 2020SOL    HW2 6960   2.524   5.089   3.014
 2021SOL     OW 6961   1.663   0.562   2.351
 2021SOL    HW1 6962   1.634   0.479   2.303
 2021SOL    HW2 6963   1.588   0.628   2.352
 2022SOL     OW 6964   2.443   3.862   1.719
 2022SOL    HW1 6965   2.472   3.957   1.728
 2022SOL    HW2 6966   2.346   3.854   1.740
 2023SOL     OW 6967   6.653   1.090   5.860
 2023SOL    HW1 6968   6.585   1.094   5.933
 2023SOL    HW2 6969   6.710   1.009   5.872
 2024SOL     OW 6970   5.831   0.835   3.449
 2024SOL    HW1 6971   5.815   0.801   3.541
 2024SOL    HW2 6972   5.838   0.934   3.450
 2025SOL     OW 6973   0.239   1.576   1.786
 2025SOL    HW1 6974   0.266   1.673   1.788
 2025SOL    HW2 6975   0.146   1.568   1.751
 2026SOL     OW 6976   2.308   1.338   5.379
 2026SOL    HW1 6977   2.388   1.354   5.320
 2026SOL    HW2 6978   2.225   1.345   5.324
 2027SOL     OW 6979   1.026   1.490   2.344
 2027SOL    HW1 6980   1.095   1.556   2.373
 2027SOL    HW2 6981   0.936   1.532   2.347
 2028SOL     OW 6982   3.750   2.876   0.199
 2028SOL    HW1 6983   3.779   2.797   0.252
 2028SOL    HW2 6984   3.825   2.943   0.195
 2029SOL     OW 6985   0.795   1.326   6.773
 2029SOL    HW1 6986   0.739   1.260   6.823
 2029SOL    HW2 6987   0.875   1.349   6.828
 2030SOL     OW 6988   1.721   1.899   3.354
 2030SOL    HW1 6989   1.667   1.816   3.340
 2030SOL    HW2 6990   1.798   1.899   3.291
 2031SOL     OW 6991   5.736   6.788   1.906
 2031SOL    HW1 6992   5.748   6.689   1.913
 2031SOL    HW2 6993   5.723   6.827   1.997
 2032SOL     OW 6994   4.682   6.258   1.230
 2032SOL    HW1 6995   4.737   6.268   1.313
 2032SOL    HW2 6996   4.636   6.170   1.231
 2033SOL     OW 6997   5.422   4.614   6.666
 2033SOL    HW1 6998   5.370   4.691   6.629
 2033SOL    HW2 6999   5.384   4.528   6.632
 2034SOL     OW 7000   2.081   0.032   3.179
 2034SOL    HW1 7001   1.998   7.018   3.224
 2034SOL    HW2 7002   2.072   0.129   3.159
 2035SOL     OW 7003   0.437   2.170   2.736
 2035SOL    HW1 7004   0.363   2.151   2.800
 2035SOL    HW2 7005   0.494   2.244   2.772
 2036SOL     OW 7006   0.902   5.200   0.315
 2036SOL    HW1 7007   0.864   5.124   0.262
 2036SOL    HW2 7008   0.842   5.279   0.307
 2037SOL     OW 7009   6.977   1.720   5.609
 2037SOL    HW1 7010   0.019   1.680   5.678
 2037SOL    HW2 7011   6.941   1.647   5.551
 2038SOL     OW 7012   0.129   1.321   4.558
 2038SOL    HW1 7013   0.209   1.339   4.615
 2038SOL    HW2 7014   0.114   1.398   4.496
 2039SOL     OW 7015   0.111   6.022   3.008
 2039SOL    HW1 7016   0.018   5.996   2.984
 2039SOL    HW2 7017   0.176   5.973   2.950
 2040SOL     OW 7018   3.981   3.932   4.624
 2040SOL    HW1 7019   3.956   4.000   4.555
 2040SOL    HW2 7020   4.017   3.850   4.579
 2041SOL     OW 7021   5.871   4.622   5.305
 2041SOL    HW1 7022   5.933   4.700   5.307
 2041SOL    HW2 7023   5.924   4.537   5.302
 2042SOL     OW 7024   4.581   5.356   0.342
 2042SOL    HW1 7025   4.602   5.371   0.439
 2042SOL    HW2 7026   4.503   5.413   0.316
 2043SOL     OW 7027   5.669   4.476   2.302
 2043SOL    HW1 7028   5.667   4.450   2.205
 2043SOL    HW2 7029   5.699   4.571   2.311
 2044SOL     OW 7030   5.958   6.918   1.795
 2044SOL    HW1 7031   5.949   7.017   1.807
 2044SOL    HW2 7032   5.877   6.873   1.835
 2045SOL     OW 7033   2.298   4.673   5.677
 2045SOL    HW1 7034   2.200   4.657   5.667
 2045SOL    HW2 7035   2.343   4.588   5.705
 2046SOL     OW 7036   6.412   6.895   4.279
 2046SOL    HW1 7037   6.404   6.968   4.211
 2046SOL    HW2 7038   6.321   6.860   4.301
 2047SOL     OW 7039   4.961   2.467   0.586
 2047SOL    HW1 7040   4.970   2.489   0.489
 2047SOL    HW2 7041   4.948   2.368   0.596
 2048SOL     OW 7042   4.804   0.656   6.429
 2048SOL    HW1 7043   4.758   0.578   6.472
 2048SOL    HW2 7044   4.739   0.705   6.370
 2049SOL     OW 7045   4.224   1.128   0.308
 2049SOL    HW1 7046   4.286   1.181   0.364
 2049SOL    HW2 7047   4.268   1.042   0.281
 2050SOL     OW 7048   6.069   3.066   4.293
 2050SOL    HW1 7049   6.093   3.162   4.279
 2050SOL    HW2 7050   5.969   3.056   4.293
 2051SOL     OW 7051   1.456   6.023   0.431
 2051SOL    HW1 7052   1.458   6.068   0.341
 2051SOL    HW2 7053   1.366   6.037   0.472
 2052SOL     OW 7054   1.338   2.727   6.525
 2052SOL    HW1 7055   1.246   2.698   6.550
 2052SOL    HW2 7056   1.404   2.657   6.554
 2053SOL     OW 7057   6.319   0.531   0.038
 2053SOL    HW1 7058   6.237   0.580   0.067
 2053SOL    HW2 7059   6.295   0.438   0.010
 2054SOL     OW 7060   5.657   2.679   0.250
 2054SOL    HW1 7061   5.722   2.663   0.325
 2054SOL    HW2 7062   5.704   2.668   0.162
 2055SOL     OW 7063   5.237   2.718   3.651
 2055SOL    HW1 7064   5.286   2.756   3.730
 2055SOL    HW2 7065   5.229   2.788   3.580
 2056SOL     OW 7066   2.280   1.060   3.161
 2056SOL    HW1 7067   2.350   1.092   3.098
 2056SOL    HW2 7068   2.196   1.041   3.111
 2057SOL     OW 7069   6.682   2.929   4.242
 2057SOL    HW1 7070   6.599   2.982   4.223
 2057SOL    HW2 7071   6.672   2.837   4.206
 2058SOL     OW 7072   6.718   1.954   2.530
 2058SOL    HW1 7073   6.809   1.940   2.491
 2058SOL    HW2 7074   6.714   1.913   2.621
 2059SOL     OW 7075   2.118   1.090   0.136
 2059SOL    HW1 7076   2.086   1.010   0.084
 2059SOL    HW2 7077   2.208   1.070   0.175
 2060SOL     OW 7078   0.266   4.396   1.946
 2060SOL    HW1 7079   0.260   4.412   1.847
 2060SOL    HW2 7080   0.220   4.471   1.994
 2061SOL     OW 7081   6.974   1.601   2.232
 2061SOL    HW1 7082   6.888   1.560   2.202
 2061SOL    HW2 7083   0.029   1.573   2.170
 2062SOL     OW 7084   4.620   0.341   2.716
 2062SOL    HW1 7085   4.634   0.379   2.625
 2062SOL    HW2 7086   4.562   0.402   2.770
 2063SOL     OW 7087   1.796   3.058   6.397
 2063SOL    HW1 7088   1.803   3.156   6.414
 2063SOL    HW2 7089   1.730   3.041   6.324
 2064SOL     OW 7090   0.950   2.100   6.440
 2064SOL    HW1 7091   0.980   2.118   6.533
 2064SOL    HW2 7092   0.948   2.186   6.389
 2065SOL     OW 7093   6.229   3.758   2.237
 2065SOL    HW1 7094   6.293   3.834   2.227
 2065SOL    HW2 7095   6.262   3.679   2.185
 2066SOL     OW 7096   6.983   0.018   4.755
 2066SOL    HW1 7097   6.965   0.113   4.731
 2066SOL    HW2 7098   6.921   6.977   4.706
 2067SOL     OW 7099   6.448   6.617   0.886
 2067SOL    HW1 7100   6.492   6.529   0.904
 2067SOL    HW2 7101   6.391   6.642   0.964
 2068SOL     OW 7102   2.012   1.407   5.525
 2068SOL    HW1 7103   2.014   1.403   5.425
 2068SOL    HW2 7104   2.077   1.342   5.563
 2069SOL     OW 7105   1.097   2.532   2.166
 2069SOL    HW1 7106   1.015   2.478   2.181
 2069SOL    HW2 7107   1.168   2.505   2.232
 2070SOL     OW 7108   1.365   1.817   2.875
 2070SOL    HW1 7109   1.353   1.771   2.788
 2070SOL    HW2 7110   1.287   1.795   2.935
 2071SOL     OW 7111   0.659   0.208   4.194
 2071SOL    HW1 7112   0.668   0.120   4.147
 2071SOL    HW2 7113   0.743   0.261   4.182
 2072SOL     OW 7114   4.804   6.267   1.689
 2072SOL    HW1 7115   4.814   6.175   1.727
 2072SOL    HW2 7116   4.708   6.286   1.672
 2073SOL     OW 7117   3.253   6.753   5.761
 2073SOL    HW1 7118   3.321   6.826   5.769
 2073SOL    HW2 7119   3.165   6.791   5.734
 2074SOL     OW 7120   6.754   1.495   1.233
 2074SOL    HW1 7121   6.811   1.425   1.276
 2074SOL    HW2 7122   6.662   1.494   1.273
 2075SOL     OW 7123   4.268   3.114   0.073
 2075SOL    HW1 7124   4.326   3.143   7.016
 2075SOL    HW2 7125   4.288   3.170   0.153
 2076SOL     OW 7126   4.883   6.022   0.728
 2076SOL    HW1 7127   4.943   6.062   0.658
 2076SOL    HW2 7128   4.852   6.094   0.789
 2077SOL     OW 7129   5.987   1.653   2.529
 2077SOL    HW1 7130   5.941   1.699   2.604
 2077SOL    HW2 7131   5.973   1.554   2.537
 2078SOL     OW 7132   3.134   4.984   6.738
 2078SOL    HW1 7133   3.091   4.997   6.649
 2078SOL    HW2 7134   3.147   4.887   6.755
 2079SOL     OW 7135   5.861   1.103   3.477
 2079SOL    HW1 7136   5.954   1.138   3.475
 2079SOL    HW2 7137   5.814   1.135   3.559
 2080SOL     OW 7138   2.717   2.296   4.974
 2080SOL    HW1 7139   2.623   2.329   4.983
 2080SOL    HW2 7140   2.744   2.299   4.878
 2081SOL     OW 7141   1.029   6.370   4.925
 2081SOL    HW1 7142   1.086   6.426   4.985
 2081SOL    HW2 7143   0.985   6.298   4.978
 2082SOL     OW 7144   5.605   0.890   0.540
 2082SOL    HW1 7145   5.684   0.910   0.597
 2082SOL    HW2 7146   5.625   0.914   0.445
 2083SOL     OW 7147   3.640   4.869   6.577
 2083SOL    HW1 7148   3.573   4.919   6.521
 2083SOL    HW2 7149   3.732   4.886   6.541
 2084SOL     OW 7150   6.853   2.368   3.240
 2084SOL    HW1 7151   6.839   2.359   3.141
 2084SOL    HW2 7152   6.951   2.363   3.260
 2085SOL     OW 7153   4.679   0.453   5.957
 2085SOL    HW1 7154   4.657   0.475   5.862
 2085SOL    HW2 7155   4.616   0.383   5.991
 2086SOL     OW 7156   3.019   4.685   0.313
 2086SOL    HW1 7157   2.925   4.719   0.305
 2086SOL    HW2 7158   3.062   4.726   0.393
 2087SOL     OW 7159   5.667   6.970   2.745
 2087SOL    HW1 7160   5.730   0.027   2.729
 2087SOL    HW2 7161   5.609   6.992   2.824
 2088SOL     OW 7162   3.633   6.272   0.863
 2088SOL    HW1 7163   3.710   6.321   0.902
 2088SOL    HW2 7164   3.597   6.322   0.785
 2089SOL     OW 7165   5.302   1.580   0.124
 2089SOL    HW1 7166   5.279   1.592   0.220
 2089SOL    HW2 7167   5.340   1.664   0.087
 2090SOL     OW 7168   3.732   3.566   4.825
 2090SOL    HW1 7169   3.724   3.517   4.738
 2090SOL    HW2 7170   3.774   3.507   4.894
 2091SOL     OW 7171   0.841   5.529   0.865
 2091SOL    HW1 7172   0.799   5.514   0.775
 2091SOL    HW2 7173   0.770   5.553   0.931
 2092SOL     OW 7174   6.591   6.146   1.140
 2092SOL    HW1 7175   6.552   6.139   1.232
 2092SOL    HW2 7176   6.517   6.153   1.073
 2093SOL     OW 7177   1.202   3.004   1.621
 2093SOL    HW1 7178   1.118   3.055   1.641
 2093SOL    HW2 7179   1.256   3.054   1.554
 2094SOL     OW 7180   5.885   6.723   2.367
 2094SOL    HW1 7181   5.959   6.789   2.350
 2094SOL    HW2 7182   5.881   6.703   2.465
 2095SOL     OW 7183   5.860   6.118   4.394
 2095SOL    HW1 7184   5.804   6.098   4.475
 2095SOL    HW2 7185   5.945   6.163   4.423
 2096SOL     OW 7186   4.862   3.991   2.591
 2096SOL    HW1 7187   4.840   4.027   2.682
 2096SOL    HW2 7188   4.786   4.011   2.529
 2097SOL     OW 7189   0.071   2.611   6.954
 2097SOL    HW1 7190   0.054   2.671   6.876
 2097SOL    HW2 7191   7.003   2.584   6.995
 2098SOL     OW 7192   4.205   6.906   3.809
 2098SOL    HW1 7193   4.286   6.875   3.759
 2098SOL    HW2 7194   4.182   6.999   3.780
 2099SOL     OW 7195   2.461   1.100   4.684
 2099SOL    HW1 7196   2.399   1.145   4.749
 2099SOL    HW2 7197   2.552   1.140   4.691
 2100SOL     OW 7198   4.173   4.298   6.738
 2100SOL    HW1 7199   4.156   4.278   6.642
 2100SOL    HW2 7200   4.164   4.396   6.754
 2101SOL     OW 7201   0.422   0.410   3.116
 2101SOL    HW1 7202   0.515   0.378   3.130
 2101SOL    HW2 7203   0.424   0.502   3.077
 2102SOL     OW 7204   0.034   5.540   2.830
 2102SOL    HW1 7205   0.094   5.533   2.750
 2102SOL    HW2 7206   0.079   5.499   2.909
 2103SOL     OW 7207   3.370   3.369   6.928
 2103SOL    HW1 7208   3.397   3.365   0.005
 2103SOL    HW2 7209   3.302   3.298   6.910
 2104SOL     OW 7210   1.572   3.523   5.714
 2104SOL    HW1 7211   1.662   3.478   5.715
 2104SOL    HW2 7212   1.500   3.453   5.710
 2105SOL     OW 7213   5.393   5.124   2.990
 2105SOL    HW1 7214   5.482   5.164   2.971
 2105SOL    HW2 7215   5.321   5.182   2.952
 2106SOL     OW 7216   4.669   5.658   6.422
 2106SOL    HW1 7217   4.664   5.699   6.331
 2106SOL    HW2 7218   4.600   5.586   6.430
 2107SOL     OW 7219   3.785   4.228   5.457
 2107SOL    HW1 7220   3.698   4.180   5.446
 2107SOL    HW2 7221   3.850   4.194   5.388
 2108SOL     OW 7222   5.924   5.365   5.912
 2108SOL    HW1 7223   5.945   5.333   5.820
 2108SOL    HW2 7224   5.893   5.460   5.908
 2109SOL     OW 7225   5.637   5.807   3.023
 2109SOL    HW1 7226   5.657   5.795   3.121
 2109SOL    HW2 7227   5.647   5.904   2.999
 2110SOL     OW 7228   2.677   4.411   6.435
 2110SOL    HW1 7229   2.727   4.451   6.358
 2110SOL    HW2 7230   2.708   4.317   6.449
 2111SOL     OW 7231   1.284   2.732   6.060
 2111SOL    HW1 7232   1.346   2.678   6.003
 2111SOL    HW2 7233   1.284   2.827   6.028
 2112SOL     OW 7234   4.422   2.322   1.310
 2112SOL    HW1 7235   4.340   2.268   1.294
 2112SOL    HW2 7236   4.444   2.323   1.407
 2113SOL     OW 7237   1.320   0.875   2.607
 2113SOL    HW1 7238   1.224   0.853   2.622
 2113SOL    HW2 7239   1.376   0.793   2.620
 2114SOL     OW 7240   1.410   4.374   0.289
 2114SOL    HW1 7241   1.324   4.329   0.310
 2114SOL    HW2 7242   1.485   4.308   0.296
 2115SOL     OW 7243   2.146   5.075   2.244
 2115SOL    HW1 7244   2.151   5.153   2.181
 2115SOL    HW2 7245   2.144   4.990   2.191
 2116SOL     OW 7246   0.265   3.505   2.843
 2116SOL    HW1 7247   0.236   3.541   2.931
 2116SOL    HW2 7248   0.327   3.428   2.858
 2117SOL     OW 7249   0.429   4.618   1.480
 2117SOL    HW1 7250   0.526   4.593   1.482
 2117SOL    HW2 7251   0.420   4.716   1.499
 2118SOL     OW 7252   0.158   3.575   2.492
 2118SOL    HW1 7253   0.076   3.631   2.507
 2118SOL    HW2 7254   0.156   3.495   2.552
 2119SOL     OW 7255   2.346   5.920   1.114
 2119SOL    HW1 7256   2.351   6.000   1.054
 2119SOL    HW2 7257   2.266   5.928   1.174
 2120SOL     OW 7258   6.593   4.524   1.584
 2120SOL    HW1 7259   6.493   4.524   1.576
 2120SOL    HW2 7260   6.633   4.571   1.506
 2121SOL     OW 7261   0.295   5.247   5.128
 2121SOL    HW1 7262   0.393   5.231   5.117
 2121SOL    HW2 7263   0.281   5.336   5.171
 2122SOL     OW 7264   5.148   4.803   4.677
 2122SOL    HW1 7265   5.166   4.713   4.639
 2122SOL    HW2 7266   5.109   4.793   4.769
 2123SOL     OW 7267   6.810   4.832   2.524
 2123SOL    HW1 7268   6.799   4.813   2.622
 2123SOL    HW2 7269   6.906   4.851   2.504
 2124SOL     OW 7270   2.300   1.848   1.520
 2124SOL    HW1 7271   2.263   1.886   1.435
 2124SOL    HW2 7272   2.390   1.807   1.502
 2125SOL     OW 7273   2.709   0.622   0.291
 2125SOL    HW1 7274   2.766   0.690   0.338
 2125SOL    HW2 7275   2.630   0.599   0.348
 2126SOL     OW 7276   2.742   0.913   6.677
 2126SOL    HW1 7277   2.777   0.824   6.705
 2126SOL    HW2 7278   2.783   0.984   6.734
 2127SOL     OW 7279   5.885   2.846   4.508
 2127SOL    HW1 7280   5.891   2.827   4.606
 2127SOL    HW2 7281   5.976   2.844   4.467
 2128SOL     OW 7282   0.700   4.463   5.037
 2128SOL    HW1 7283   0.753   4.544   5.013
 2128SOL    HW2 7284   0.742   4.382   4.996
 2129SOL     OW 7285   4.769   3.167   5.238
 2129SOL    HW1 7286   4.727   3.084   5.274
 2129SOL    HW2 7287   4.727   3.247   5.280
 2130SOL     OW 7288   4.851   6.956   2.704
 2130SOL    HW1 7289   4.934   7.010   2.694
 2130SOL    HW2 7290   4.786   6.980   2.632
 2131SOL     OW 7291   0.260   0.639   0.651
 2131SOL    HW1 7292   0.188   0.658   0.718
 2131SOL    HW2 7293   0.302   0.724   0.622
 2132SOL     OW 7294   2.946   2.975   0.841
 2132SOL    HW1 7295   2.979   2.882   0.857
 2132SOL    HW2 7296   3.019   3.040   0.864
 2133SOL     OW 7297   3.227   2.463   6.269
 2133SOL    HW1 7298   3.293   2.467   6.344
 2133SOL    HW2 7299   3.276   2.447   6.183
 2134SOL     OW 7300   0.118   1.571   1.102
 2134SOL    HW1 7301   0.180   1.500   1.068
 2134SOL    HW2 7302   0.146   1.659   1.066
 2135SOL     OW 7303   1.022   3.907   4.558
 2135SOL    HW1 7304   0.959   3.839   4.595
 2135SOL    HW2 7305   1.047   3.972   4.630
 2136SOL     OW 7306   2.060   5.444   1.726
 2136SOL    HW1 7307   2.140   5.461   1.668
 2136SOL    HW2 7308   2.087   5.453   1.822
 2137SOL     OW 7309   3.442   5.522   4.859
 2137SOL    HW1 7310   3.464   5.499   4.954
 2137SOL    HW2 7311   3.348   5.493   4.840
 2138SOL     OW 7312   5.975   1.286   2.763
 2138SOL    HW1 7313   6.066   1.290   2.722
 2138SOL    HW2 7314   5.919   1.360   2.726
 2139SOL     OW 7315   3.505   0.748   5.417
 2139SOL    HW1 7316   3.482   0.844   5.435
 2139SOL    HW2 7317   3.510   0.733   5.318
 2140SOL     OW 7318   2.728   1.131   4.733
 2140SOL    HW1 7319   2.753   1.202   4.668
 2140SOL    HW2 7320   2.798   1.059   4.734
 2141SOL     OW 7321   6.074   4.669   2.223
 2141SOL    HW1 7322   6.083   4.721   2.138
 2141SOL    HW2 7323   6.091   4.730   2.301
 2142SOL     OW 7324   1.983   2.458   3.456
 2142SOL    HW1 7325   2.071   2.499   3.480
 2142SOL    HW2 7326   1.972   2.457   3.357
 2143SOL     OW 7327   2.546   4.793   0.949
 2143SOL    HW1 7328   2.457   4.831   0.924
 2143SOL    HW2 7329   2.581   4.839   1.029
 2144SOL     OW 7330   6.638   5.754   3.861
 2144SOL    HW1 7331   6.561   5.797   3.909
 2144SOL    HW2 7332   6.706   5.723   3.927
 2145SOL     OW 7333   4.160   6.730   4.389
 2145SOL    HW1 7334   4.214   6.747   4.307
 2145SOL    HW2 7335   4.126   6.816   4.426
 2146SOL     OW 7336   2.474   2.807   1.036
 2146SOL    HW1 7337   2.412   2.876   1.071
 2146SOL    HW2 7338   2.566   2.846   1.029
 2147SOL     OW 7339   6.742   1.053   5.521
 2147SOL    HW1 7340   6.687   1.123   5.566
 2147SOL    HW2 7341   6.776   1.087   5.434
 2148SOL     OW 7342   0.176   3.331   6.778
 2148SOL    HW1 7343   0.199   3.235   6.767
 2148SOL    HW2 7344   0.206   3.382   6.697
 2149SOL     OW 7345   0.979   0.204   6.713
 2149SOL    HW1 7346   1.058   0.266   6.714
 2149SOL    HW2 7347   0.987   0.138   6.787
 2150SOL     OW 7348   2.539   2.811   1.731
 2150SOL    HW1 7349   2.467   2.881   1.726
 2150SOL    HW2 7350   2.510   2.738   1.793
 2151SOL     OW 7351   1.036   6.360   6.896
 2151SOL    HW1 7352   1.117   6.338   6.952
 2151SOL    HW2 7353   1.065   6.404   6.811
 2152SOL     OW 7354   4.144   6.354   2.489
 2152SOL    HW1 7355   4.215   6.317   2.429
 2152SOL    HW2 7356   4.074   6.285   2.504
 2153SOL     OW 7357   4.814   1.426   2.752
 2153SOL    HW1 7358   4.782   1.511   2.710
 2153SOL    HW2 7359   4.764   1.349   2.714
 2154SOL     OW 7360   3.244   6.262   3.556
 2154SOL    HW1 7361   3.172   6.261   3.486
 2154SOL    HW2 7362   3.234   6.182   3.615
 2155SOL     OW 7363   4.356   6.562   0.463
 2155SOL    HW1 7364   4.385   6.515   0.380
 2155SOL    HW2 7365   4.296   6.638   0.438
 2156SOL     OW 7366   5.305   1.497   4.325
 2156SOL    HW1 7367   5.228   1.462   4.271
 2156SOL    HW2 7368   5.285   1.591   4.354
 2157SOL     OW 7369   4.017   5.060   3.855
 2157SOL    HW1 7370   3.997   5.140   3.798
 2157SOL    HW2 7371   4.114   5.036   3.848
 2158SOL     OW 7372   3.145   0.383   0.671
 2158SOL    HW1 7373   3.231   0.340   0.642
 2158SOL    HW2 7374   3.119   0.349   0.761
 2159SOL     OW 7375   1.201   0.209   6.103
 2159SOL    HW1 7376   1.234   0.123   6.063
 2159SOL    HW2 7377   1.185   0.275   6.029
 2160SOL     OW 7378   5.019   6.081   0.363
 2160SOL    HW1 7379   5.015   6.126   0.453
 2160SOL    HW2 7380   5.092   6.123   0.309
 2161SOL     OW 7381   1.408   3.949   2.510
 2161SOL    HW1 7382   1.447   3.932   2.600
 2161SOL    HW2 7383   1.474   4.000   2.454
 2162SOL     OW 7384   1.676   6.818   3.051
 2162SOL    HW1 7385   1.586   6.784   3.023
 2162SOL    HW2 7386   1.719   6.752   3.113
 2163SOL     OW 7387   1.216   3.009   1.242
 2163SOL    HW1 7388   1.232   3.038   1.147
 2163SOL    HW2 7389   1.210   3.090   1.300
 2164SOL     OW 7390   2.182   2.968   1.446
 2164SOL    HW1 7391   2.233   3.053   1.436
 2164SOL    HW2 7392   2.245   2.890   1.443
 2165SOL     OW 7393   0.101   2.029   3.783
 2165SOL    HW1 7394   0.060   2.107   3.832
 2165SOL    HW2 7395   0.104   2.049   3.685
 2166SOL     OW 7396   0.625   4.583   3.468
 2166SOL    HW1 7397   0.601   4.614   3.560
 2166SOL    HW2 7398   0.639   4.484   3.469
 2167SOL     OW 7399   1.921   2.522   3.929
 2167SOL    HW1 7400   1.864   2.534   4.011
 2167SOL    HW2 7401   1.887   2.444   3.876
 2168SOL     OW 7402   1.561   2.029   3.110
 2168SOL    HW1 7403   1.531   2.058   3.201
 2168SOL    HW2 7404   1.659   2.043   3.101
 2169SOL     OW 7405   0.352   0.748   1.322
 2169SOL    HW1 7406   0.306   0.673   1.371
 2169SOL    HW2 7407   0.431   0.779   1.375
 2170SOL     OW 7408   0.828   3.777   5.814
 2170SOL    HW1 7409   0.753   3.792   5.878
 2170SOL    HW2 7410   0.795   3.787   5.720
 2171SOL     OW 7411   0.214   5.172   1.360
 2171SOL    HW1 7412   0.266   5.150   1.442
 2171SOL    HW2 7413   0.152   5.248   1.380
 2172SOL     OW 7414   6.977   1.903   4.563
 2172SOL    HW1 7415   6.886   1.945   4.565
 2172SOL    HW2 7416   6.969   1.804   4.578
 2173SOL     OW 7417   5.714   0.309   4.890
 2173SOL    HW1 7418   5.700   0.223   4.940
 2173SOL    HW2 7419   5.808   0.341   4.903
 2174SOL     OW 7420   0.088   6.015   4.883
 2174SOL    HW1 7421   0.163   5.986   4.942
 2174SOL    HW2 7422   0.001   5.983   4.922
 2175SOL     OW 7423   3.184   3.109   5.846
 2175SOL    HW1 7424   3.220   3.201   5.832
 2175SOL    HW2 7425   3.242   3.043   5.798
 2176SOL     OW 7426   5.471   2.659   1.019
 2176SOL    HW1 7427   5.372   2.670   1.032
 2176SOL    HW2 7428   5.518   2.674   1.106
 2177SOL     OW 7429   6.982   0.892   3.410
 2177SOL    HW1 7430   0.013   0.829   3.469
 2177SOL    HW2 7431   6.884   0.888   3.432
 2178SOL     OW 7432   0.821   1.627   2.220
 2178SOL    HW1 7433   0.854   1.701   2.278
 2178SOL    HW2 7434   0.878   1.622   2.137
 2179SOL     OW 7435   1.995   4.540   6.756
 2179SOL    HW1 7436   1.961   4.466   6.814
 2179SOL    HW2 7437   2.092   4.554   6.775
 2180SOL     OW 7438   1.152   4.681   2.049
 2180SOL    HW1 7439   1.215   4.713   1.979
 2180SOL    HW2 7440   1.133   4.583   2.035
 2181SOL     OW 7441   4.633   4.813   4.074
 2181SOL    HW1 7442   4.664   4.816   3.979
 2181SOL    HW2 7443   4.553   4.872   4.084
 2182SOL     OW 7444   0.848   5.283   3.246
 2182SOL    HW1 7445   0.906   5.271   3.326
 2182SOL    HW2 7446   0.832   5.380   3.229
 2183SOL     OW 7447   3.428   3.239   0.468
 2183SOL    HW1 7448   3.521   3.204   0.476
 2183SOL    HW2 7449   3.375   3.178   0.408
 2184SOL     OW 7450   6.535   0.076   0.304
 2184SOL    HW1 7451   6.588   7.016   0.334
 2184SOL    HW2 7452   6.530   0.144   0.377
 2185SOL     OW 7453   0.452   1.603   6.837
 2185SOL    HW1 7454   0.552   1.599   6.827
 2185SOL    HW2 7455   0.421   1.697   6.822
 2186SOL     OW 7456   6.777   5.613   4.637
 2186SOL    HW1 7457   6.711   5.617   4.562
 2186SOL    HW2 7458   6.869   5.626   4.601
 2187SOL     OW 7459   0.581   5.540   2.808
 2187SOL    HW1 7460   0.496   5.510   2.853
 2187SOL    HW2 7461   0.580   5.640   2.798
 2188SOL     OW 7462   1.911   6.809   0.192
 2188SOL    HW1 7463   1.930   6.872   0.117
 2188SOL    HW2 7464   1.937   6.716   0.165
 2189SOL     OW 7465   2.151   1.541   2.070
 2189SOL    HW1 7466   2.069   1.587   2.036
 2189SOL    HW2 7467   2.155   1.549   2.169
 2190SOL     OW 7468   6.770   4.290   2.517
 2190SOL    HW1 7469   6.754   4.388   2.504
 2190SOL    HW2 7470   6.789   4.247   2.429
 2191SOL     OW 7471   2.047   0.849   5.921
 2191SOL    HW1 7472   2.053   0.775   5.854
 2191SOL    HW2 7473   2.002   0.815   6.004
 2192SOL     OW 7474   4.985   0.943   1.996
 2192SOL    HW1 7475   5.066   0.895   2.030
 2192SOL    HW2 7476   4.929   0.971   2.074
 2193SOL     OW 7477   6.917   6.750   6.231
 2193SOL    HW1 7478   6.985   6.789   6.293
 2193SOL    HW2 7479   6.887   6.820   6.167
 2194SOL     OW 7480   0.746   4.499   5.646
 2194SOL    HW1 7481   0.686   4.520   5.568
 2194SOL    HW2 7482   0.835   4.470   5.613
 2195SOL     OW 7483   0.732   4.369   6.655
 2195SOL    HW1 7484   0.828   4.362   6.682
 2195SOL    HW2 7485   0.726   4.378   6.556
 2196SOL     OW 7486   2.596   6.133   5.658
 2196SOL    HW1 7487   2.528   6.062   5.642
 2196SOL    HW2 7488   2.688   6.092   5.655
 2197SOL     OW 7489   3.029   3.778   5.510
 2197SOL    HW1 7490   3.079   3.858   5.544
 2197SOL    HW2 7491   3.082   3.731   5.441
 2198SOL     OW 7492   0.403   6.865   6.516
 2198SOL    HW1 7493   0.380   6.798   6.587
 2198SOL    HW2 7494   0.502   6.878   6.513
 2199SOL     OW 7495   4.910   6.839   4.254
 2199SOL    HW1 7496   4.835   6.842   4.320
 2199SOL    HW2 7497   4.917   6.928   4.207
 2200SOL     OW 7498   2.848   0.842   4.414
 2200SOL    HW1 7499   2.786   0.881   4.346
 2200SOL    HW2 7500   2.802   0.834   4.502
 2201SOL     OW 7501   6.564   2.618   3.456
 2201SOL    HW1 7502   6.515   2.700   3.485
 2201SOL    HW2 7503   6.635   2.643   3.391
 2202SOL     OW 7504   3.552   4.962   2.381
 2202SOL    HW1 7505   3.502   4.929   2.301
 2202SOL    HW2 7506   3.488   4.972   2.458
 2203SOL     OW 7507   2.176   3.792   0.960
 2203SOL    HW1 7508   2.216   3.803   1.051
 2203SOL    HW2 7509   2.157   3.696   0.942
 2204SOL     OW 7510   4.639   3.075   1.036
 2204SOL    HW1 7511   4.731   3.034   1.041
 2204SOL    HW2 7512   4.573   3.013   1.078
 2205SOL     OW 7513   1.410   6.383   0.563
 2205SOL    HW1 7514   1.314   6.373   0.537
 2205SOL    HW2 7515   1.437   6.479   0.555
 2206SOL     OW 7516   2.277   3.243   6.273
 2206SOL    HW1 7517   2.244   3.281   6.360
 2206SOL    HW2 7518   2.284   3.143   6.281
 2207SOL     OW 7519   4.427   5.867   0.793
 2207SOL    HW1 7520   4.343   5.826   0.829
 2207SOL    HW2 7521   4.505   5.807   0.813
 2208SOL     OW 7522   0.862   5.655   3.962
 2208SOL    HW1 7523   0.951   5.633   3.922
 2208SOL    HW2 7524   0.812   5.716   3.901
 2209SOL     OW 7525   3.006   5.266   5.348
 2209SOL    HW1 7526   2.911   5.259   5.378
 2209SOL    HW2 7527   3.051   5.177   5.358
 2210SOL     OW 7528   5.888   5.931   1.330
 2210SOL    HW1 7529   5.988   5.935   1.340
 2210SOL    HW2 7530   5.845   5.977   1.407
 2211SOL     OW 7531   5.924   0.536   0.984
 2211SOL    HW1 7532   5.969   0.466   0.927
 2211SOL    HW2 7533   5.826   0.519   0.986
 2212SOL     OW 7534   2.493   6.098   6.604
 2212SOL    HW1 7535   2.455   6.156   6.677
 2212SOL    HW2 7536   2.465   6.003   6.620
 2213SOL     OW 7537   4.378   2.474   4.183
 2213SOL    HW1 7538   4.442   2.490   4.258
 2213SOL    HW2 7539   4.417   2.511   4.098
 2214SOL     OW 7540   4.216   2.873   5.863
 2214SOL    HW1 7541   4.176   2.893   5.773
 2214SOL    HW2 7542   4.302   2.924   5.873
 2215SOL     OW 7543   5.363   1.156   6.531
 2215SOL    HW1 7544   5.431   1.101   6.579
 2215SOL    HW2 7545   5.364   1.249   6.567
 2216SOL     OW 7546   0.831   5.577   6.611
 2216SOL    HW1 7547   0.786   5.546   6.527
 2216SOL    HW2 7548   0.928   5.592   6.593
 2217SOL     OW 7549   4.295   1.003   2.867
 2217SOL    HW1 7550   4.385   1.022   2.908
 2217SOL    HW2 7551   4.237   1.084   2.877
 2218SOL     OW 7552   0.655   5.157   6.663
 2218SOL    HW1 7553   0.649   5.068   6.708
 2218SOL    HW2 7554   0.722   5.153   6.589
 2219SOL     OW 7555   5.769   1.316   0.593
 2219SOL    HW1 7556   5.822   1.375   0.654
 2219SOL    HW2 7557   5.730   1.240   0.646
 2220SOL     OW 7558   1.631   6.167   5.462
 2220SOL    HW1 7559   1.544   6.170   5.511
 2220SOL    HW2 7560   1.704   6.201   5.522
 2221SOL     OW 7561   6.499   1.364   4.613
 2221SOL    HW1 7562   6.438   1.442   4.624
 2221SOL    HW2 7563   6.470   1.310   4.534
 2222SOL     OW 7564   5.907   6.815   0.507
 2222SOL    HW1 7565   5.902   6.914   0.524
 2222SOL    HW2 7566   5.992   6.779   0.546
 2223SOL     OW 7567   6.707   0.659   5.590
 2223SOL    HW1 7568   6.641   0.625   5.656
 2223SOL    HW2 7569   6.757   0.737   5.629
 2224SOL     OW 7570   5.818   4.183   1.927
 2224SOL    HW1 7571   5.861   4.273   1.934
 2224SOL    HW2 7572   5.786   4.169   1.833
 2225SOL     OW 7573   0.486   6.549   3.916
 2225SOL    HW1 7574   0.532   6.495   3.846
 2225SOL    HW2 7575   0.473   6.642   3.883
 2226SOL     OW 7576   3.375   5.100   0.769
 2226SOL    HW1 7577   3.350   5.172   0.833
 2226SOL    HW2 7578   3.408   5.141   0.684
 2227SOL     OW 7579   4.180   2.531   1.482
 2227SOL    HW1 7580   4.171   2.433   1.501
 2227SOL    HW2 7581   4.236   2.544   1.400
 2228SOL     OW 7582   4.339   5.501   0.242
 2228SOL    HW1 7583   4.324   5.463   0.151
 2228SOL    HW2 7584   4.252   5.501   0.292
 2229SOL     OW 7585   3.192   3.586   4.596
 2229SOL    HW1 7586   3.179   3.507   4.656
 2229SOL    HW2 7587   3.249   3.560   4.518
 2230SOL     OW 7588   5.194   6.151   1.254
 2230SOL    HW1 7589   5.254   6.128   1.177
 2230SOL    HW2 7590   5.133   6.227   1.227
 2231SOL     OW 7591   0.354   1.179   6.625
 2231SOL    HW1 7592   0.399   1.173   6.714
 2231SOL    HW2 7593   0.324   1.272   6.609
 2232SOL     OW 7594   1.092   0.670   5.473
 2232SOL    HW1 7595   1.117   0.666   5.376
 2232SOL    HW2 7596   1.066   0.764   5.497
 2233SOL     OW 7597   3.198   3.716   0.901
 2233SOL    HW1 7598   3.295   3.714   0.877
 2233SOL    HW2 7599   3.149   3.647   0.849
 2234SOL     OW 7600   3.783   1.790   0.900
 2234SOL    HW1 7601   3.778   1.734   0.817
 2234SOL    HW2 7602   3.870   1.775   0.946
 2235SOL     OW 7603   2.599   0.492   2.691
 2235SOL    HW1 7604   2.558   0.581   2.710
 2235SOL    HW2 7605   2.547   0.421   2.738
 2236SOL     OW 7606   1.974   4.001   6.170
 2236SOL    HW1 7607   2.041   3.956   6.111
 2236SOL    HW2 7608   1.909   3.934   6.205
 2237SOL     OW 7609   6.217   5.295   5.053
 2237SOL    HW1 7610   6.272   5.323   4.974
 2237SOL    HW2 7611   6.273   5.302   5.136
 2238SOL     OW 7612   4.515   4.835   2.678
 2238SOL    HW1 7613   4.416   4.828   2.683
 2238SOL    HW2 7614   4.556   4.801   2.762
 2239SOL     OW 7615   3.517   6.021   4.041
 2239SOL    HW1 7616   3.477   6.106   4.008
 2239SOL    HW2 7617   3.494   5.947   3.977
 2240SOL     OW 7618   3.850   5.465   2.570
 2240SOL    HW1 7619   3.761   5.504   2.546
 2240SOL    HW2 7620   3.844   5.365   2.569
 2241SOL     OW 7621   6.751   6.625   1.885
 2241SOL    HW1 7622   6.727   6.545   1.829
 2241SOL    HW2 7623   6.727   6.708   1.836
 2242SOL     OW 7624   5.455   3.299   2.852
 2242SOL    HW1 7625   5.376   3.275   2.909
 2242SOL    HW2 7626   5.467   3.229   2.781
 2243SOL     OW 7627   2.530   6.247   0.053
 2243SOL    HW1 7628   2.448   6.206   0.093
 2243SOL    HW2 7629   2.536   6.223   6.975
 2244SOL     OW 7630   2.894   0.453   1.314
 2244SOL    HW1 7631   2.986   0.415   1.315
 2244SOL    HW2 7632   2.871   0.480   1.220
 2245SOL     OW 7633   0.657   1.441   0.794
 2245SOL    HW1 7634   0.673   1.464   0.698
 2245SOL    HW2 7635   0.594   1.508   0.834
 2246SOL     OW 7636   2.102   0.528   4.255
 2246SOL    HW1 7637   2.135   0.582   4.333
 2246SOL    HW2 7638   2.088   0.589   4.177
 2247SOL     OW 7639   3.312   3.946   2.513
 2247SOL    HW1 7640   3.314   3.985   2.421
 2247SOL    HW2 7641   3.222   3.962   2.554
 2248SOL     OW 7642   6.144   4.454   4.280
 2248SOL    HW1 7643   6.050   4.442   4.314
 2248SOL    HW2 7644   6.164   4.381   4.214
 2249SOL     OW 7645   3.087   6.577   3.650
 2249SOL    HW1 7646   3.115   6.671   3.669
 2249SOL    HW2 7647   3.144   6.514   3.704
 2250SOL     OW 7648   3.643   3.985   5.710
 2250SOL    HW1 7649   3.634   3.982   5.610
 2250SOL    HW2 7650   3.719   4.046   5.734
 2251SOL     OW 7651   5.268   6.521   6.290
 2251SOL    HW1 7652   5.292   6.582   6.215
 2251SOL    HW2 7653   5.177   6.545   6.325
 2252SOL     OW 7654   5.617   1.622   2.954
 2252SOL    HW1 7655   5.701   1.672   2.974
 2252SOL    HW2 7656   5.612   1.602   2.856
 2253SOL     OW 7657   0.756   3.201   0.279
 2253SOL    HW1 7658   0.775   3.278   0.340
 2253SOL    HW2 7659   0.829   3.133   0.287
 2254SOL     OW 7660   3.433   4.075   2.722
 2254SOL    HW1 7661   3.385   4.028   2.648
 2254SOL    HW2 7662   3.524   4.102   2.690
 2255SOL     OW 7663   2.931   4.041   5.439
 2255SOL    HW1 7664   2.961   4.027   5.345
 2255SOL    HW2 7665   2.880   3.961   5.470
 2256SOL     OW 7666   4.409   6.485   2.355
 2256SOL    HW1 7667   4.489   6.517   2.305
 2256SOL    HW2 7668   4.385   6.551   2.426
 2257SOL     OW 7669   0.642   1.779   4.594
 2257SOL    HW1 7670   0.650   1.725   4.510
 2257SOL    HW2 7671   0.603   1.868   4.573
 2258SOL     OW 7672   2.236   6.350   4.540
 2258SOL    HW1 7673   2.333   6.339   4.562
 2258SOL    HW2 7674   2.226   6.421   4.470
 2259SOL     OW 7675   5.960   2.574   4.860
 2259SOL    HW1 7676   6.013   2.548   4.941
 2259SOL    HW2 7677   6.011   2.548   4.778
 2260SOL     OW 7678   0.952   3.351   1.377
 2260SOL    HW1 7679   0.989   3.390   1.292
 2260SOL    HW2 7680   0.945   3.422   1.446
 2261SOL     OW 7681   6.620   4.010   0.750
 2261SOL    HW1 7682   6.521   4.020   0.760
 2261SOL    HW2 7683   6.643   4.000   0.653
 2262SOL     OW 7684   6.468   0.587   3.729
 2262SOL    HW1 7685   6.399   0.633   3.673
 2262SOL    HW2 7686   6.447   0.600   3.826
 2263SOL     OW 7687   1.210   5.579   0.587
 2263SOL    HW1 7688   1.279   5.533   0.532
 2263SOL    HW2 7689   1.222   5.553   0.683
 2264SOL     OW 7690   2.932   6.851   6.901
 2264SOL    HW1 7691   2.962   6.757   6.887
 2264SOL    HW2 7692   2.912   6.893   6.812
 2265SOL     OW 7693   1.521   0.589   4.077
 2265SOL    HW1 7694   1.586   0.543   4.137
 2265SOL    HW2 7695   1.543   0.568   3.982
 2266SOL     OW 7696   5.513   1.293   6.171
 2266SOL    HW1 7697   5.438   1.338   6.220
 2266SOL    HW2 7698   5.476   1.246   6.090
 2267SOL     OW 7699   4.549   2.582   4.790
 2267SOL    HW1 7700   4.586   2.601   4.699
 2267SOL    HW2 7701   4.533   2.669   4.838
 2268SOL     OW 7702   5.911   3.957   6.802
 2268SOL    HW1 7703   5.930   3.963   6.900
 2268SOL    HW2 7704   5.983   4.006   6.752
 2269SOL     OW 7705   0.387   3.193   5.579
 2269SOL    HW1 7706   0.383   3.135   5.660
 2269SOL    HW2 7707   0.481   3.220   5.562
 2270SOL     OW 7708   4.416   3.164   6.094
 2270SOL    HW1 7709   4.422   3.263   6.083
 2270SOL    HW2 7710   4.350   3.142   6.166
 2271SOL     OW 7711   5.589   4.413   0.130
 2271SOL    HW1 7712   5.553   4.432   0.221
 2271SOL    HW2 7713   5.569   4.490   0.070
 2272SOL     OW 7714   6.627   1.306   6.539
 2272SOL    HW1 7715   6.648   1.248   6.618
 2272SOL    HW2 7716   6.664   1.263   6.456
 2273SOL     OW 7717   2.079   2.339   1.904
 2273SOL    HW1 7718   2.168   2.308   1.937
 2273SOL    HW2 7719   2.015   2.262   1.904
 2274SOL     OW 7720   0.405   1.865   6.792
 2274SOL    HW1 7721   0.309   1.865   6.821
 2274SOL    HW2 7722   0.427   1.953   6.750
 2275SOL     OW 7723   5.858   5.407   2.113
 2275SOL    HW1 7724   5.824   5.409   2.019
 2275SOL    HW2 7725   5.947   5.451   2.118
 2276SOL     OW 7726   1.624   6.758   1.345
 2276SOL    HW1 7727   1.573   6.793   1.423
 2276SOL    HW2 7728   1.620   6.824   1.270
 2277SOL     OW 7729   3.536   3.661   4.176
 2277SOL    HW1 7730   3.576   3.633   4.088
 2277SOL    HW2 7731   3.474   3.738   4.161
 2278SOL     OW 7732   6.901   2.980   4.086
 2278SOL    HW1 7733   6.903   3.048   4.013
 2278SOL    HW2 7734   6.811   2.978   4.128
 2279SOL     OW 7735   6.445   5.819   5.518
 2279SOL    HW1 7736   6.415   5.893   5.458
 2279SOL    HW2 7737   6.544   5.823   5.531
 2280SOL     OW 7738   6.332   0.549   5.373
 2280SOL    HW1 7739   6.377   0.557   5.284
 2280SOL    HW2 7740   6.354   0.630   5.428
 2281SOL     OW 7741   4.107   0.376   2.500
 2281SOL    HW1 7742   4.032   0.390   2.565
 2281SOL    HW2 7743   4.120   0.279   2.485
 2282SOL     OW 7744   4.820   5.830   5.176
 2282SOL    HW1 7745   4.796   5.890   5.252
 2282SOL    HW2 7746   4.870   5.751   5.211
 2283SOL     OW 7747   1.516   0.603   2.618
 2283SOL    HW1 7748   1.572   0.549   2.555
 2283SOL    HW2 7749   1.569   0.628   2.698
 2284SOL     OW 7750   0.628   3.299   5.540
 2284SOL    HW1 7751   0.686   3.327   5.616
 2284SOL    HW2 7752   0.682   3.295   5.456
 2285SOL     OW 7753   1.446   3.686   6.589
 2285SOL    HW1 7754   1.350   3.676   6.617
 2285SOL    HW2 7755   1.450   3.711   6.492
 2286SOL     OW 7756   5.293   6.850   2.653
 2286SOL    HW1 7757   5.320   6.757   2.626
 2286SOL    HW2 7758   5.357   6.916   2.613
 2287SOL     OW 7759   2.884   1.387   3.612
 2287SOL    HW1 7760   2.863   1.447   3.534
 2287SOL    HW2 7761   2.820   1.310   3.612
 2288SOL     OW 7762   0.584   5.055   4.333
 2288SOL    HW1 7763   0.493   5.014   4.327
 2288SOL    HW2 7764   0.620   5.043   4.426
 2289SOL     OW 7765   0.019   4.622   1.319
 2289SOL    HW1 7766   0.098   4.565   1.297
 2289SOL    HW2 7767   6.995   4.588   1.403
 2290SOL     OW 7768   1.053   3.855   0.805
 2290SOL    HW1 7769   1.080   3.894   0.717
 2290SOL    HW2 7770   0.964   3.892   0.832
 2291SOL     OW 7771   3.016   2.006   6.013
 2291SOL    HW1 7772   3.010   2.036   6.108
 2291SOL    HW2 7773   2.955   2.062   5.956
 2292SOL     OW 7774   1.283   1.345   4.921
 2292SOL    HW1 7775   1.206   1.404   4.898
 2292SOL    HW2 7776   1.368   1.399   4.916
 2293SOL     OW 7777   5.429   5.839   1.367
 2293SOL    HW1 7778   5.456   5.744   1.379
 2293SOL    HW2 7779   5.389   5.852   1.276
 2294SOL     OW 7780   3.669   6.969   0.685
 2294SOL    HW1 7781   3.697   6.995   0.593
 2294SOL    HW2 7782   3.697   6.874   0.702
 2295SOL     OW 7783   0.217   1.925   2.457
 2295SOL    HW1 7784   0.246   1.856   2.391
 2295SOL    HW2 7785   0.279   1.923   2.536
 2296SOL     OW 7786   3.084   0.261   0.908
 2296SOL    HW1 7787   3.121   0.168   0.897
 2296SOL    HW2 7788   3.011   0.259   0.976
 2297SOL     OW 7789   4.129   4.068   5.575
 2297SOL    HW1 7790   4.146   4.126   5.496
 2297SOL    HW2 7791   4.215   4.047   5.621
 2298SOL     OW 7792   4.050   2.257   0.824
 2298SOL    HW1 7793   3.955   2.261   0.857
 2298SOL    HW2 7794   4.111   2.288   0.897
 2299SOL     OW 7795   5.172   6.921   6.808
 2299SOL    HW1 7796   5.256   6.875   6.838
 2299SOL    HW2 7797   5.187   6.962   6.718
 2300SOL     OW 7798   1.412   5.222   1.293
 2300SOL    HW1 7799   1.427   5.123   1.290
 2300SOL    HW2 7800   1.497   5.268   1.321
 2301SOL     OW 7801   2.982   3.209   3.064
 2301SOL    HW1 7802   3.064   3.234   3.115
 2301SOL    HW2 7803   2.911   3.278   3.079
 2302SOL     OW 7804   4.124   6.332   2.891
 2302SOL    HW1 7805   4.050   6.278   2.851
 2302SOL    HW2 7806   4.175   6.379   2.818
 2303SOL     OW 7807   1.337   3.326   5.411
 2303SOL    HW1 7808   1.276   3.259   5.368
 2303SOL    HW2 7809   1.432   3.296   5.400
 2304SOL     OW 7810   2.600   0.136   3.755
 2304SOL    HW1 7811   2.618   0.228   3.717
 2304SOL    HW2 7812   2.641   0.068   3.695
 2305SOL     OW 7813   4.008   5.422   2.956
 2305SOL    HW1 7814   3.942   5.346   2.952
 2305SOL    HW2 7815   4.086   5.402   2.897
 2306SOL     OW 7816   2.000   5.058   1.615
 2306SOL    HW1 7817   1.946   5.142   1.604
 2306SOL    HW2 7818   2.068   5.052   1.542
 2307SOL     OW 7819   2.285   4.156   2.847
 2307SOL    HW1 7820   2.352   4.229   2.832
 2307SOL    HW2 7821   2.283   4.096   2.768
 2308SOL     OW 7822   0.624   0.569   6.581
 2308SOL    HW1 7823   0.572   0.577   6.496
 2308SOL    HW2 7824   0.619   0.655   6.632
 2309SOL     OW 7825   2.875   5.869   6.577
 2309SOL    HW1 7826   2.929   5.934   6.630
 2309SOL    HW2 7827   2.823   5.917   6.507
 2310SOL     OW 7828   6.626   6.500   1.319
 2310SOL    HW1 7829   6.530   6.484   1.294
 2310SOL    HW2 7830   6.638   6.596   1.345
 2311SOL     OW 7831   2.569   6.912   2.821
 2311SOL    HW1 7832   2.512   6.874   2.749
 2311SOL    HW2 7833   2.609   6.839   2.875
 2312SOL     OW 7834   2.922   6.761   3.169
 2312SOL    HW1 7835   2.847   6.813   3.129
 2312SOL    HW2 7836   3.004   6.817   3.172
 2313SOL     OW 7837   4.624   5.132   1.927
 2313SOL    HW1 7838   4.669   5.065   1.985
 2313SOL    HW2 7839   4.652   5.119   1.832
 2314SOL     OW 7840   6.265   0.609   3.189
 2314SOL    HW1 7841   6.194   0.579   3.253
 2314SOL    HW2 7842   6.354   0.601   3.233
 2315SOL     OW 7843   5.033   3.373   5.612
 2315SOL    HW1 7844   5.014   3.432   5.691
 2315SOL    HW2 7845   5.036   3.429   5.529
 2316SOL     OW 7846   2.378   1.184   5.812
 2316SOL    HW1 7847   2.370   1.087   5.789
 2316SOL    HW2 7848   2.444   1.196   5.886
 2317SOL     OW 7849   6.680   6.713   3.987
 2317SOL    HW1 7850   6.728   6.722   3.900
 2317SOL    HW2 7851   6.707   6.788   4.048
 2318SOL     OW 7852   2.039   3.644   4.485
 2318SOL    HW1 7853   2.052   3.682   4.393
 2318SOL    HW2 7854   2.101   3.690   4.549
 2319SOL     OW 7855   3.546   5.115   4.717
 2319SOL    HW1 7856   3.456   5.125   4.673
 2319SOL    HW2 7857   3.613   5.088   4.649
 2320SOL     OW 7858   1.047   2.510   5.644
 2320SOL    HW1 7859   1.112   2.451   5.596
 2320SOL    HW2 7860   1.090   2.598   5.664
 2321SOL     OW 7861   2.817   5.373   6.127
 2321SOL    HW1 7862   2.902   5.424   6.139
 2321SOL    HW2 7863   2.820   5.324   6.040
 2322SOL     OW 7864   1.745   4.443   1.955
 2322SOL    HW1 7865   1.812   4.464   2.027
 2322SOL    HW2 7866   1.762   4.350   1.921
 2323SOL     OW 7867   3.410   4.887   2.139
 2323SOL    HW1 7868   3.484   4.860   2.077
 2323SOL    HW2 7869   3.323   4.856   2.101
 2324SOL     OW 7870   6.975   5.841   1.201
 2324SOL    HW1 7871   6.911   5.769   1.175
 2324SOL    HW2 7872   6.931   5.930   1.189
 2325SOL     OW 7873   6.986   4.820   1.709
 2325SOL    HW1 7874   6.952   4.787   1.797
 2325SOL    HW2 7875   6.909   4.835   1.647
 2326SOL     OW 7876   1.696   6.013   6.363
 2326SOL    HW1 7877   1.606   6.043   6.393
 2326SOL    HW2 7878   1.764   6.082   6.388
 2327SOL     OW 7879   0.289   1.109   3.154
 2327SOL    HW1 7880   0.215   1.046   3.179
 2327SOL    HW2 7881   0.347   1.065   3.085
 2328SOL     OW 7882   1.439   2.202   2.791
 2328SOL    HW1 7883   1.397   2.260   2.720
 2328SOL    HW2 7884   1.367   2.157   2.843
 2329SOL     OW 7885   1.114   4.185   4.411
 2329SOL    HW1 7886   1.061   4.130   4.476
 2329SOL    HW2 7887   1.150   4.126   4.339
 2330SOL     OW 7888   0.346   2.781   0.271
 2330SOL    HW1 7889   0.366   2.737   0.183
 2330SOL    HW2 7890   0.325   2.711   0.339
 2331SOL     OW 7891   3.035   5.247   6.880
 2331SOL    HW1 7892   3.112   5.288   6.930
 2331SOL    HW2 7893   3.070   5.178   6.817
 2332SOL     OW 7894   6.532   6.929   5.998
 2332SOL    HW1 7895   6.612   6.977   5.961
 2332SOL    HW2 7896   6.478   6.893   5.922
 2333SOL     OW 7897   7.015   5.078   3.124
 2333SOL    HW1 7898   0.030   5.145   3.190
 2333SOL    HW2 7899   0.011   4.986   3.160
 2334SOL     OW 7900   1.330   1.934   6.532
 2334SOL    HW1 7901   1.413   1.985   6.509
 2334SOL    HW2 7902   1.332   1.908   6.628
 2335SOL     OW 7903   5.925   0.709   3.925
 2335SOL    HW1 7904   5.877   0.621   3.931
 2335SOL    HW2 7905   6.024   0.692   3.923
 2336SOL     OW 7906   3.196   1.584   3.826
 2336SOL    HW1 7907   3.255   1.530   3.766
 2336SOL    HW2 7908   3.222   1.571   3.921
 2337SOL     OW 7909   4.478   1.181   1.972
 2337SOL    HW1 7910   4.450   1.232   2.053
 2337SOL    HW2 7911   4.447   1.086   1.981
 2338SOL     OW 7912   0.732   2.850   4.219
 2338SOL    HW1 7913   0.732   2.873   4.316
 2338SOL    HW2 7914   0.826   2.849   4.184
 2339SOL     OW 7915   2.932   3.377   3.405
 2339SOL    HW1 7916   2.907   3.425   3.321
 2339SOL    HW2 7917   2.996   3.303   3.383
 2340SOL     OW 7918   0.287   4.648   6.998
 2340SOL    HW1 7919   0.240   4.616   0.062
 2340SOL    HW2 7920   0.382   4.615   7.000
 2341SOL     OW 7921   2.922   4.784   1.897
 2341SOL    HW1 7922   2.870   4.700   1.914
 2341SOL    HW2 7923   2.902   4.818   1.805
 2342SOL     OW 7924   1.825   6.973   4.862
 2342SOL    HW1 7925   1.831   0.041   4.813
 2342SOL    HW2 7926   1.898   6.912   4.830
 2343SOL     OW 7927   2.139   5.468   2.975
 2343SOL    HW1 7928   2.188   5.436   2.894
 2343SOL    HW2 7929   2.069   5.401   3.001
 2344SOL     OW 7930   0.129   6.040   6.650
 2344SOL    HW1 7931   0.164   6.015   6.741
 2344SOL    HW2 7932   0.066   6.117   6.660
 2345SOL     OW 7933   2.632   5.245   4.773
 2345SOL    HW1 7934   2.572   5.166   4.787
 2345SOL    HW2 7935   2.662   5.281   4.861
 2346SOL     OW 7936   4.013   3.155   5.985
 2346SOL    HW1 7937   4.092   3.123   5.933
 2346SOL    HW2 7938   4.030   3.249   6.016
 2347SOL     OW 7939   2.560   1.746   1.403
 2347SOL    HW1 7940   2.561   1.827   1.344
 2347SOL    HW2 7941   2.489   1.683   1.373
 2348SOL     OW 7942   1.794   6.145   4.100
 2348SOL    HW1 7943   1.882   6.109   4.131
 2348SOL    HW2 7944   1.809   6.211   4.026
 2349SOL     OW 7945   0.760   4.577   6.381
 2349SOL    HW1 7946   0.752   4.671   6.346
 2349SOL    HW2 7947   0.673   4.529   6.368
 2350SOL     OW 7948   5.899   5.215   6.123
 2350SOL    HW1 7949   5.893   5.122   6.086
 2350SOL    HW2 7950   5.913   5.280   6.048
 2351SOL     OW 7951   3.537   5.278   4.023
 2351SOL    HW1 7952   3.633   5.278   4.052
 2351SOL    HW2 7953   3.527   5.219   3.943
 2352SOL     OW 7954   0.326   2.946   2.719
 2352SOL    HW1 7955   0.282   2.909   2.801
 2352SOL    HW2 7956   0.385   2.876   2.679
 2353SOL     OW 7957   3.822   4.999   4.545
 2353SOL    HW1 7958   3.817   4.986   4.644
 2353SOL    HW2 7959   3.873   4.924   4.504
 2354SOL     OW 7960   2.107   2.228   4.472
 2354SOL    HW1 7961   2.045   2.238   4.394
 2354SOL    HW2 7962   2.134   2.132   4.482
 2355SOL     OW 7963   2.319   6.798   5.971
 2355SOL    HW1 7964   2.289   6.830   5.881
 2355SOL    HW2 7965   2.419   6.792   5.973
 2356SOL     OW 7966   1.587   3.047   6.213
 2356SOL    HW1 7967   1.557   2.959   6.250
 2356SOL    HW2 7968   1.520   3.117   6.236
 2357SOL     OW 7969   4.568   1.173   2.288
 2357SOL    HW1 7970   4.539   1.255   2.237
 2357SOL    HW2 7971   4.494   1.143   2.347
 2358SOL     OW 7972   3.047   5.425   5.600
 2358SOL    HW1 7973   2.958   5.424   5.644
 2358SOL    HW2 7974   3.049   5.359   5.525
 2359SOL     OW 7975   0.237   0.582   5.923
 2359SOL    HW1 7976   0.138   0.574   5.920
 2359SOL    HW2 7977   0.262   0.667   5.970
 2360SOL     OW 7978   6.147   3.532   0.308
 2360SOL    HW1 7979   6.129   3.622   0.268
 2360SOL    HW2 7980   6.064   3.497   0.350
 2361SOL     OW 7981   2.620   0.765   6.900
 2361SOL    HW1 7982   2.559   0.725   6.968
 2361SOL    HW2 7983   2.626   0.864   6.915
 2362SOL     OW 7984   2.806   5.629   4.501
 2362SOL    HW1 7985   2.848   5.676   4.578
 2362SOL    HW2 7986   2.805   5.691   4.422
 2363SOL     OW 7987   3.590   2.109   4.553
 2363SOL    HW1 7988   3.674   2.105   4.500
 2363SOL    HW2 7989   3.610   2.088   4.649
 2364SOL     OW 7990   1.381   2.766   2.433
 2364SOL    HW1 7991   1.371   2.787   2.336
 2364SOL    HW2 7992   1.316   2.821   2.486
 2365SOL     OW 7993   6.659   2.340   6.539
 2365SOL    HW1 7994   6.573   2.340   6.487
 2365SOL    HW2 7995   6.644   2.383   6.628
 2366SOL     OW 7996   2.143   5.818   6.610
 2366SOL    HW1 7997   2.239   5.844   6.614
 2366SOL    HW2 7998   2.103   5.824   6.701
 2367SOL     OW 7999   2.229   3.501   1.089
 2367SOL    HW1 8000   2.222   3.434   1.163
 2367SOL    HW2 8001   2.139   3.514   1.047
 2368SOL     OW 8002   5.468   6.553   4.820
 2368SOL    HW1 8003   5.374   6.539   4.849
 2368SOL    HW2 8004   5.530   6.517   4.890
 2369SOL     OW 8005   1.508   0.381   4.487
 2369SOL    HW1 8006   1.546   0.447   4.552
 2369SOL    HW2 8007   1.440   0.427   4.430
 2370SOL     OW 8008   5.672   3.224   0.293
 2370SOL    HW1 8009   5.633   3.280   0.220
 2370SOL    HW2 8010   5.616   3.141   0.304
 2371SOL     OW 8011   1.843   0.032   1.476
 2371SOL    HW1 8012   1.844   0.051   1.378
 2371SOL    HW2 8013   1.886   6.963   1.493
 2372SOL     OW 8014   6.620   2.835   2.339
 2372SOL    HW1 8015   6.664   2.751   2.310
 2372SOL    HW2 8016   6.564   2.871   2.263
 2373SOL     OW 8017   0.498   3.219   6.038
 2373SOL    HW1 8018   0.537   3.136   5.999
 2373SOL    HW2 8019   0.398   3.209   6.045
 2374SOL     OW 8020   5.868   1.751   4.390
 2374SOL    HW1 8021   5.853   1.758   4.291
 2374SOL    HW2 8022   5.946   1.809   4.416
 2375SOL     OW 8023   3.494   6.066   5.428
 2375SOL    HW1 8024   3.411   6.121   5.428
 2375SOL    HW2 8025   3.509   6.028   5.519
 2376SOL     OW 8026   6.496   3.155   4.297
 2376SOL    HW1 8027   6.490   3.238   4.241
 2376SOL    HW2 8028   6.575   3.161   4.357
 2377SOL     OW 8029   3.515   4.060   3.614
 2377SOL    HW1 8030   3.522   4.115   3.530
 2377SOL    HW2 8031   3.495   3.965   3.589
 2378SOL     OW 8032   4.955   2.101   0.042
 2378SOL    HW1 8033   4.919   2.144   0.125
 2378SOL    HW2 8034   5.021   2.163   7.018
 2379SOL     OW 8035   7.016   0.734   0.774
 2379SOL    HW1 8036   6.999   0.825   0.811
 2379SOL    HW2 8037   6.983   0.730   0.680
 2380SOL     OW 8038   0.393   2.195   6.617
 2380SOL    HW1 8039   0.414   2.228   6.709
 2380SOL    HW2 8040   0.309   2.239   6.585
 2381SOL     OW 8041   2.371   5.556   4.130
 2381SOL    HW1 8042   2.318   5.641   4.136
 2381SOL    HW2 8043   2.346   5.507   4.047
 2382SOL     OW 8044   1.750   3.613   4.460
 2382SOL    HW1 8045   1.676   3.616   4.526
 2382SOL    HW2 8046   1.837   3.627   4.506
 2383SOL     OW 8047   5.560   6.779   0.925
 2383SOL    HW1 8048   5.486   6.713   0.933
 2383SOL    HW2 8049   5.600   6.773   0.833
 2384SOL     OW 8050   5.746   1.099   2.813
 2384SOL    HW1 8051   5.820   1.164   2.831
 2384SOL    HW2 8052   5.700   1.075   2.899
 2385SOL     OW 8053   0.559   0.694   0.515
 2385SOL    HW1 8054   0.502   0.777   0.515
 2385SOL    HW2 8055   0.543   0.642   0.432
 2386SOL     OW 8056   5.434   6.188   4.713
 2386SOL    HW1 8057   5.377   6.140   4.779
 2386SOL    HW2 8058   5.505   6.240   4.761
 2387SOL     OW 8059   1.667   1.573   4.207
 2387SOL    HW1 8060   1.579   1.526   4.212
 2387SOL    HW2 8061   1.713   1.569   4.296
 2388SOL     OW 8062   6.848   1.977   4.023
 2388SOL    HW1 8063   6.878   2.057   3.972
 2388SOL    HW2 8064   6.894   1.896   3.987
 2389SOL     OW 8065   4.615   4.374   3.294
 2389SOL    HW1 8066   4.699   4.355   3.345
 2389SOL    HW2 8067   4.596   4.298   3.232
 2390SOL     OW 8068   3.738   3.354   3.791
 2390SOL    HW1 8069   3.687   3.282   3.838
 2390SOL    HW2 8070   3.808   3.312   3.733
 2391SOL     OW 8071   5.402   3.980   5.809
 2391SOL    HW1 8072   5.371   3.920   5.735
 2391SOL    HW2 8073   5.416   3.926   5.892
 2392SOL     OW 8074   3.515   6.409   5.777
 2392SOL    HW1 8075   3.422   6.431   5.805
 2392SOL    HW2 8076   3.548   6.329   5.828
 2393SOL     OW 8077   5.176   3.894   6.024
 2393SOL    HW1 8078   5.195   3.965   6.092
 2393SOL    HW2 8079   5.107   3.927   5.960
 2394SOL     OW 8080   0.939   4.009   4.929
 2394SOL    HW1 8081   1.002   3.973   4.998
 2394SOL    HW2 8082   0.895   3.933   4.882
 2395SOL     OW 8083   4.986   0.433   5.862
 2395SOL    HW1 8084   5.064   0.430   5.800
 2395SOL    HW2 8085   4.956   0.528   5.873
 2396SOL     OW 8086   3.730   4.922   1.064
 2396SOL    HW1 8087   3.724   4.910   1.163
 2396SOL    HW2 8088   3.646   4.964   1.030
 2397SOL     OW 8089   7.018   3.726   5.557
 2397SOL    HW1 8090   0.086   3.775   5.556
 2397SOL    HW2 8091   6.944   3.791   5.575
 2398SOL     OW 8092   4.463   4.339   6.517
 2398SOL    HW1 8093   4.464   4.378   6.424
 2398SOL    HW2 8094   4.370   4.345   6.554
 2399SOL     OW 8095   4.487   0.915   1.133
 2399SOL    HW1 8096   4.393   0.917   1.098
 2399SOL    HW2 8097   4.545   0.973   1.076
 2400SOL     OW 8098   2.735   4.320   1.398
 2400SOL    HW1 8099   2.656   4.284   1.348
 2400SOL    HW2 8100   2.803   4.354   1.333
 2401SOL     OW 8101   5.163   6.184   0.148
 2401SOL    HW1 8102   5.213   6.270   0.158
 2401SOL    HW2 8103   5.077   6.201   0.099
 2402SOL     OW 8104   0.255   0.197   3.708
 2402SOL    HW1 8105   0.340   0.221   3.661
 2402SOL    HW2 8106   0.254   0.099   3.728
 2403SOL     OW 8107   1.762   2.167   6.184
 2403SOL    HW1 8108   1.697   2.128   6.118
 2403SOL    HW2 8109   1.796   2.254   6.149
 2404SOL     OW 8110   2.683   0.446   1.037
 2404SOL    HW1 8111   2.636   0.532   1.054
 2404SOL    HW2 8112   2.648   0.405   0.952
 2405SOL     OW 8113   3.249   3.637   2.199
 2405SOL    HW1 8114   3.299   3.666   2.117
 2405SOL    HW2 8115   3.309   3.648   2.279
 2406SOL     OW 8116   3.361   0.054   1.613
 2406SOL    HW1 8117   3.447   0.011   1.588
 2406SOL    HW2 8118   3.284   0.001   1.576
 2407SOL     OW 8119   5.863   1.730   3.022
 2407SOL    HW1 8120   5.822   1.710   3.110
 2407SOL    HW2 8121   5.963   1.718   3.028
 2408SOL     OW 8122   4.428   4.471   3.065
 2408SOL    HW1 8123   4.512   4.435   3.024
 2408SOL    HW2 8124   4.411   4.425   3.152
 2409SOL     OW 8125   2.284   4.529   1.982
 2409SOL    HW1 8126   2.368   4.563   1.940
 2409SOL    HW2 8127   2.300   4.438   2.021
 2410SOL     OW 8128   4.111   3.090   5.272
 2410SOL    HW1 8129   4.082   3.039   5.354
 2410SOL    HW2 8130   4.203   3.127   5.286
 2411SOL     OW 8131   4.930   6.250   4.427
 2411SOL    HW1 8132   4.972   6.220   4.341
 2411SOL    HW2 8133   4.853   6.311   4.407
 2412SOL     OW 8134   6.039   4.289   1.536
 2412SOL    HW1 8135   6.076   4.222   1.600
 2412SOL    HW2 8136   5.982   4.243   1.468
 2413SOL     OW 8137   6.629   0.683   1.078
 2413SOL    HW1 8138   6.575   0.767   1.088
 2413SOL    HW2 8139   6.726   0.704   1.087
 2414SOL     OW 8140   4.776   4.105   3.358
 2414SOL    HW1 8141   4.830   4.026   3.388
 2414SOL    HW2 8142   4.821   4.189   3.389
 2415SOL     OW 8143   6.358   1.646   3.180
 2415SOL    HW1 8144   6.279   1.593   3.150
 2415SOL    HW2 8145   6.420   1.588   3.232
 2416SOL     OW 8146   4.667   2.339   4.942
 2416SOL    HW1 8147   4.603   2.265   4.966
 2416SOL    HW2 8148   4.615   2.420   4.915
 2417SOL     OW 8149   3.704   3.818   4.743
 2417SOL    HW1 8150   3.712   3.719   4.748
 2417SOL    HW2 8151   3.687   3.846   4.649
 2418SOL     OW 8152   4.063   3.200   4.701
 2418SOL    HW1 8153   4.000   3.122   4.697
 2418SOL    HW2 8154   4.147   3.172   4.748
 2419SOL     OW 8155   0.081   6.901   3.975
 2419SOL    HW1 8156   0.174   6.866   3.959
 2419SOL    HW2 8157   0.052   6.875   4.068
 2420SOL     OW 8158   3.301   0.641   3.256
 2420SOL    HW1 8159   3.273   0.568   3.195
 2420SOL    HW2 8160   3.384   0.684   3.221
 2421SOL     OW 8161   2.231   2.650   4.863
 2421SOL    HW1 8162   2.228   2.554   4.832
 2421SOL    HW2 8163   2.147   2.671   4.913
 2422SOL     OW 8164   5.029   1.798   0.575
 2422SOL    HW1 8165   4.944   1.839   0.540
 2422SOL    HW2 8166   5.098   1.797   0.503
 2423SOL     OW 8167   1.894   6.003   2.226
 2423SOL    HW1 8168   1.873   6.100   2.215
 2423SOL    HW2 8169   1.879   5.956   2.139
 2424SOL     OW 8170   6.495   6.616   0.074
 2424SOL    HW1 8171   6.575   6.626   0.132
 2424SOL    HW2 8172   6.414   6.602   0.131
 2425SOL     OW 8173   5.780   0.481   3.880
 2425SOL    HW1 8174   5.791   0.381   3.876
 2425SOL    HW2 8175   5.683   0.504   3.876
 2426SOL     OW 8176   1.693   5.422   5.282
 2426SOL    HW1 8177   1.622   5.357   5.255
 2426SOL    HW2 8178   1.771   5.372   5.320
 2427SOL     OW 8179   5.706   5.802   5.755
 2427SOL    HW1 8180   5.788   5.746   5.766
 2427SOL    HW2 8181   5.733   5.899   5.753
 2428SOL     OW 8182   0.130   0.563   1.995
 2428SOL    HW1 8183   0.228   0.577   1.978
 2428SOL    HW2 8184   0.112   0.466   2.010
 2429SOL     OW 8185   5.674   5.696   1.710
 2429SOL    HW1 8186   5.739   5.771   1.721
 2429SOL    HW2 8187   5.639   5.695   1.617
 2430SOL     OW 8188   6.308   1.475   1.940
 2430SOL    HW1 8189   6.251   1.460   1.859
 2430SOL    HW2 8190   6.258   1.446   2.022
 2431SOL     OW 8191   4.401   1.132   2.481
 2431SOL    HW1 8192   4.342   1.058   2.513
 2431SOL    HW2 8193   4.385   1.214   2.536
 2432SOL     OW 8194   4.409   6.780   2.236
 2432SOL    HW1 8195   4.384   6.763   2.331
 2432SOL    HW2 8196   4.337   6.833   2.191
 2433SOL     OW 8197   4.469   1.556   0.553
 2433SOL    HW1 8198   4.371   1.549   0.539
 2433SOL    HW2 8199   4.517   1.525   0.471
 2434SOL     OW 8200   4.032   1.199   6.197
 2434SOL    HW1 8201   3.989   1.272   6.145
 2434SOL    HW2 8202   3.965   1.125   6.211
 2435SOL     OW 8203   4.961   5.597   5.249
 2435SOL    HW1 8204   4.954   5.570   5.153
 2435SOL    HW2 8205   5.047   5.562   5.287
 2436SOL     OW 8206   1.881   6.021   6.114
 2436SOL    HW1 8207   1.879   6.022   6.214
 2436SOL    HW2 8208   1.901   6.113   6.080
 2437SOL     OW 8209   5.560   6.682   6.420
 2437SOL    HW1 8210   5.605   6.687   6.510
 2437SOL    HW2 8211   5.533   6.588   6.402
 2438SOL     OW 8212   3.175   2.250   0.762
 2438SOL    HW1 8213   3.221   2.321   0.815
 2438SOL    HW2 8214   3.243   2.197   0.712
 2439SOL     OW 8215   0.507   4.150   6.449
 2439SOL    HW1 8216   0.549   4.147   6.539
 2439SOL    HW2 8217   0.410   4.128   6.456
 2440SOL     OW 8218   4.909   5.560   5.846
 2440SOL    HW1 8219   4.909   5.461   5.830
 2440SOL    HW2 8220   4.844   5.604   5.784
 2441SOL     OW 8221   6.987   2.481   0.868
 2441SOL    HW1 8222   6.912   2.452   0.927
 2441SOL    HW2 8223   6.987   2.426   0.784
 2442SOL     OW 8224   1.092   3.748   5.497
 2442SOL    HW1 8225   1.050   3.804   5.425
 2442SOL    HW2 8226   1.023   3.726   5.566
 2443SOL     OW 8227   2.696   4.078   6.501
 2443SOL    HW1 8228   2.600   4.085   6.476
 2443SOL    HW2 8229   2.735   3.995   6.460
 2444SOL     OW 8230   2.400   4.438   5.747
 2444SOL    HW1 8231   2.415   4.373   5.673
 2444SOL    HW2 8232   2.358   4.391   5.825
 2445SOL     OW 8233   0.293   0.945   0.827
 2445SOL    HW1 8234   0.386   0.943   0.866
 2445SOL    HW2 8235   0.262   1.039   0.819
 2446SOL     OW 8236   5.882   4.161   4.553
 2446SOL    HW1 8237   5.923   4.242   4.511
 2446SOL    HW2 8238   5.900   4.161   4.651
 2447SOL     OW 8239   1.942   1.923   0.155
 2447SOL    HW1 8240   1.883   1.992   0.113
 2447SOL    HW2 8241   1.923   1.834   0.113
 2448SOL     OW 8242   0.274   0.186   4.585
 2448SOL    HW1 8243   0.191   0.165   4.532
 2448SOL    HW2 8244   0.353   0.190   4.524
 2449SOL     OW 8245   0.050   3.712   0.067
 2449SOL    HW1 8246   0.057   3.803   0.108
 2449SOL    HW2 8247   0.057   3.643   0.139
 2450SOL     OW 8248   2.677   4.731   2.686
 2450SOL    HW1 8249   2.616   4.693   2.616
 2450SOL    HW2 8250   2.627   4.738   2.773
 2451SOL     OW 8251   1.747   6.621   3.836
 2451SOL    HW1 8252   1.758   6.569   3.751
 2451SOL    HW2 8253   1.725   6.716   3.814
 2452SOL     OW 8254   0.891   3.263   2.727
 2452SOL    HW1 8255   0.821   3.221   2.786
 2452SOL    HW2 8256   0.911   3.355   2.761
 2453SOL     OW 8257   6.645   4.638   1.891
 2453SOL    HW1 8258   6.645   4.562   1.956
 2453SOL    HW2 8259   6.656   4.603   1.798
 2454SOL     OW 8260   3.374   0.433   1.876
 2454SOL    HW1 8261   3.321   0.443   1.961
 2454SOL    HW2 8262   3.386   0.336   1.856
 2455SOL     OW 8263   5.290   5.488   0.768
 2455SOL    HW1 8264   5.239   5.467   0.851
 2455SOL    HW2 8265   5.305   5.587   0.762
 2456SOL     OW 8266   4.904   6.237   2.018
 2456SOL    HW1 8267   4.887   6.140   2.039
 2456SOL    HW2 8268   4.925   6.246   1.920
 2457SOL     OW 8269   5.145   0.045   1.517
 2457SOL    HW1 8270   5.226   0.083   1.474
 2457SOL    HW2 8271   5.086   0.005   1.447
 2458SOL     OW 8272   1.975   5.492   2.679
 2458SOL    HW1 8273   1.929   5.433   2.613
 2458SOL    HW2 8274   1.954   5.461   2.772
 2459SOL     OW 8275   2.314   0.379   0.966
 2459SOL    HW1 8276   2.407   0.345   0.949
 2459SOL    HW2 8277   2.291   0.446   0.896
 2460SOL     OW 8278   3.203   5.895   1.930
 2460SOL    HW1 8279   3.282   5.892   1.991
 2460SOL    HW2 8280   3.231   5.866   1.838
 2461SOL     OW 8281   5.858   0.559   1.958
 2461SOL    HW1 8282   5.775   0.605   1.925
 2461SOL    HW2 8283   5.932   0.575   1.892
 2462SOL     OW 8284   2.627   5.390   6.639
 2462SOL    HW1 8285   2.670   5.358   6.555
 2462SOL    HW2 8286   2.697   5.412   6.706
 2463SOL     OW 8287   6.506   1.789   3.410
 2463SOL    HW1 8288   6.443   1.761   3.338
 2463SOL    HW2 8289   6.588   1.732   3.407
 2464SOL     OW 8290   1.064   3.467   1.132
 2464SOL    HW1 8291   1.149   3.414   1.132
 2464SOL    HW2 8292   1.018   3.458   1.044
 2465SOL     OW 8293   6.968   6.073   2.521
 2465SOL    HW1 8294   0.015   6.101   2.451
 2465SOL    HW2 8295   6.897   6.143   2.530
 2466SOL     OW 8296   3.752   1.747   2.351
 2466SOL    HW1 8297   3.719   1.798   2.272
 2466SOL    HW2 8298   3.818   1.804   2.401
 2467SOL     OW 8299   6.767   0.834   5.995
 2467SOL    HW1 8300   6.799   0.805   5.905
 2467SOL    HW2 8301   6.683   0.786   6.018
 2468SOL     OW 8302   6.809   5.624   1.156
 2468SOL    HW1 8303   6.856   5.574   1.083
 2468SOL    HW2 8304   6.781   5.561   1.228
 2469SOL     OW 8305   2.367   3.136   5.635
 2469SOL    HW1 8306   2.290   3.171   5.690
 2469SOL    HW2 8307   2.373   3.188   5.550
 2470SOL     OW 8308   4.754   3.196   6.878
 2470SOL    HW1 8309   4.734   3.172   6.973
 2470SOL    HW2 8310   4.819   3.129   6.841
 2471SOL     OW 8311   0.577   6.640   2.911
 2471SOL    HW1 8312   0.626   6.725   2.927
 2471SOL    HW2 8313   0.507   6.655   2.841
 2472SOL     OW 8314   5.453   2.278   4.435
 2472SOL    HW1 8315   5.474   2.255   4.531
 2472SOL    HW2 8316   5.523   2.238   4.376
 2473SOL     OW 8317   0.913   6.154   5.033
 2473SOL    HW1 8318   0.889   6.106   4.948
 2473SOL    HW2 8319   0.991   6.109   5.076
 2474SOL     OW 8320   6.713   4.354   5.452
 2474SOL    HW1 8321   6.766   4.425   5.405
 2474SOL    HW2 8322   6.774   4.299   5.509
 2475SOL     OW 8323   4.455   2.416   6.889
 2475SOL    HW1 8324   4.407   2.395   6.974
 2475SOL    HW2 8325   4.510   2.499   6.902
 2476SOL     OW 8326   0.920   1.955   3.845
 2476SOL    HW1 8327   0.966   2.034   3.805
 2476SOL    HW2 8328   0.824   1.978   3.861
 2477SOL     OW 8329   5.168   4.947   1.034
 2477SOL    HW1 8330   5.117   5.027   1.000
 2477SOL    HW2 8331   5.121   4.910   1.114
 2478SOL     OW 8332   6.155   0.019   2.920
 2478SOL    HW1 8333   6.109   6.958   2.961
 2478SOL    HW2 8334   6.253   0.000   2.913
 2479SOL     OW 8335   0.676   2.833   0.477
 2479SOL    HW1 8336   0.650   2.781   0.559
 2479SOL    HW2 8337   0.600   2.894   0.452
 2480SOL     OW 8338   0.680   3.541   1.202
 2480SOL    HW1 8339   0.749   3.551   1.130
 2480SOL    HW2 8340   0.676   3.625   1.256
 2481SOL     OW 8341   4.360   5.063   1.937
 2481SOL    HW1 8342   4.454   5.087   1.913
 2481SOL    HW2 8343   4.305   5.060   1.854
 2482SOL     OW 8344   4.755   2.763   5.073
 2482SOL    HW1 8345   4.676   2.706   5.098
 2482SOL    HW2 8346   4.745   2.793   4.978
 2483SOL     OW 8347   1.070   2.082   6.726
 2483SOL    HW1 8348   1.140   2.011   6.729
 2483SOL    HW2 8349   1.013   2.076   6.808
 2484SOL     OW 8350   3.148   1.735   6.928
 2484SOL    HW1 8351   3.057   1.749   6.887
 2484SOL    HW2 8352   3.201   1.820   6.922
 2485SOL     OW 8353   0.313   5.525   2.328
 2485SOL    HW1 8354   0.366   5.512   2.412
 2485SOL    HW2 8355   0.260   5.442   2.309
 2486SOL     OW 8356   1.468   5.336   3.021
 2486SOL    HW1 8357   1.376   5.356   3.054
 2486SOL    HW2 8358   1.531   5.329   3.098
 2487SOL     OW 8359   3.489   0.505   1.215
 2487SOL    HW1 8360   3.419   0.493   1.145
 2487SOL    HW2 8361   3.471   0.590   1.265
 2488SOL     OW 8362   3.233   5.801   1.318
 2488SOL    HW1 8363   3.305   5.776   1.384
 2488SOL    HW2 8364   3.248   5.750   1.233
 2489SOL     OW 8365   0.870   5.420   4.347
 2489SOL    HW1 8366   0.884   5.518   4.332
 2489SOL    HW2 8367   0.838   5.377   4.263
 2490SOL     OW 8368   5.430   3.181   1.293
 2490SOL    HW1 8369   5.394   3.131   1.215
 2490SOL    HW2 8370   5.430   3.279   1.273
 2491SOL     OW 8371   2.570   5.020   2.060
 2491SOL    HW1 8372   2.553   5.072   2.143
 2491SOL    HW2 8373   2.668   5.013   2.044
 2492SOL     OW 8374   4.586   3.277   6.383
 2492SOL    HW1 8375   4.581   3.191   6.434
 2492SOL    HW2 8376   4.527   3.272   6.303
 2493SOL     OW 8377   6.266   1.670   3.548
 2493SOL    HW1 8378   6.339   1.664   3.480
 2493SOL    HW2 8379   6.197   1.735   3.516
 2494SOL     OW 8380   4.878   3.390   2.320
 2494SOL    HW1 8381   4.844   3.301   2.290
 2494SOL    HW2 8382   4.950   3.420   2.258
 2495SOL     OW 8383   5.583   0.976   4.920
 2495SOL    HW1 8384   5.588   1.050   4.987
 2495SOL    HW2 8385   5.587   1.013   4.827
 2496SOL     OW 8386   1.323   6.608   0.423
 2496SOL    HW1 8387   1.252   6.581   0.359
 2496SOL    HW2 8388   1.361   6.697   0.396
 2497SOL     OW 8389   6.126   1.920   6.450
 2497SOL    HW1 8390   6.039   1.881   6.420
 2497SOL    HW2 8391   6.183   1.848   6.490
 2498SOL     OW 8392   1.995   3.591   5.013
 2498SOL    HW1 8393   2.063   3.524   4.981
 2498SOL    HW2 8394   1.903   3.552   5.004
 2499SOL     OW 8395   6.052   0.452   5.104
 2499SOL    HW1 8396   6.132   0.406   5.066
 2499SOL    HW2 8397   5.980   0.385   5.123
 2500SOL     OW 8398   4.295   3.302   6.682
 2500SOL    HW1 8399   4.341   3.276   6.767
 2500SOL    HW2 8400   4.201   3.329   6.703
 2501SOL     OW 8401   0.095   3.971   0.168
 2501SOL    HW1 8402   0.072   4.032   0.093
 2501SOL    HW2 8403   0.141   4.023   0.240
 2502SOL     OW 8404   1.873   6.220   3.460
 2502SOL    HW1 8405   1.969   6.194   3.452
 2502SOL    HW2 8406   1.835   6.234   3.368
 2503SOL     OW 8407   4.499   4.931   5.048
 2503SOL    HW1 8408   4.560   4.910   5.125
 2503SOL    HW2 8409   4.553   4.935   4.964
 2504SOL     OW 8410   1.370   4.274   4.047
 2504SOL    HW1 8411   1.332   4.200   3.991
 2504SOL    HW2 8412   1.295   4.327   4.086
 2505SOL     OW 8413   4.514   5.748   4.227
 2505SOL    HW1 8414   4.598   5.795   4.202
 2505SOL    HW2 8415   4.531   5.649   4.234
 2506SOL     OW 8416   0.201   2.392   6.500
 2506SOL    HW1 8417   0.227   2.480   6.540
 2506SOL    HW2 8418   0.141   2.408   6.421
 2507SOL     OW 8419   6.681   6.046   0.135
 2507SOL    HW1 8420   6.707   5.969   0.077
 2507SOL    HW2 8421   6.667   6.127   0.078
 2508SOL     OW 8422   2.340   2.720   2.450
 2508SOL    HW1 8423   2.295   2.784   2.388
 2508SOL    HW2 8424   2.369   2.768   2.533
 2509SOL     OW 8425   4.987   2.756   3.757
 2509SOL    HW1 8426   5.080   2.735   3.725
 2509SOL    HW2 8427   4.951   2.677   3.808
 2510SOL     OW 8428   4.100   5.739   0.733
 2510SOL    HW1 8429   4.014   5.790   0.741
 2510SOL    HW2 8430   4.137   5.751   0.641
 2511SOL     OW 8431   1.774   0.208   4.761
 2511SOL    HW1 8432   1.690   0.212   4.707
 2511SOL    HW2 8433   1.852   0.192   4.700
 2512SOL     OW 8434   5.173   3.356   5.018
 2512SOL    HW1 8435   5.090   3.369   5.071
 2512SOL    HW2 8436   5.169   3.411   4.935
 2513SOL     OW 8437   0.790   3.438   0.482
 2513SOL    HW1 8438   0.726   3.514   0.494
 2513SOL    HW2 8439   0.875   3.471   0.442
 2514SOL     OW 8440   1.712   0.920   3.689
 2514SOL    HW1 8441   1.653   0.869   3.626
 2514SOL    HW2 8442   1.703   1.018   3.671
 2515SOL     OW 8443   0.573   5.643   0.165
 2515SOL    HW1 8444   0.574   5.742   0.178
 2515SOL    HW2 8445   0.479   5.609   0.169
 2516SOL     OW 8446   5.188   6.338   4.023
 2516SOL    HW1 8447   5.108   6.295   3.979
 2516SOL    HW2 8448   5.169   6.435   4.037
 2517SOL     OW 8449   2.261   4.754   0.119
 2517SOL    HW1 8450   2.246   4.765   0.020
 2517SOL    HW2 8451   2.253   4.657   0.142
 2518SOL     OW 8452   2.348   2.209   6.765
 2518SOL    HW1 8453   2.279   2.183   6.697
 2518SOL    HW2 8454   2.404   2.130   6.787
 2519SOL     OW 8455   4.777   3.998   4.749
 2519SOL    HW1 8456   4.736   4.076   4.795
 2519SOL    HW2 8457   4.824   3.941   4.817
 2520SOL     OW 8458   2.115   4.378   2.303
 2520SOL    HW1 8459   2.202   4.359   2.350
 2520SOL    HW2 8460   2.104   4.313   2.228
 2521SOL     OW 8461   5.503   6.550   5.368
 2521SOL    HW1 8462   5.471   6.612   5.439
 2521SOL    HW2 8463   5.433   6.543   5.297
 2522SOL     OW 8464   1.305   2.784   4.639
 2522SOL    HW1 8465   1.316   2.840   4.557
 2522SOL    HW2 8466   1.351   2.829   4.716
 2523SOL     OW 8467   0.530   3.027   6.779
 2523SOL    HW1 8468   0.493   3.092   6.846
 2523SOL    HW2 8469   0.542   3.073   6.691
 2524SOL     OW 8470   0.732   0.103   4.769
 2524SOL    HW1 8471   0.654   0.164   4.787
 2524SOL    HW2 8472   0.774   0.128   4.682
 2525SOL     OW 8473   1.212   3.446   3.436
 2525SOL    HW1 8474   1.231   3.544   3.448
 2525SOL    HW2 8475   1.117   3.435   3.405
 2526SOL     OW 8476   6.743   1.167   5.088
 2526SOL    HW1 8477   6.754   1.067   5.083
 2526SOL    HW2 8478   6.651   1.191   5.059
 2527SOL     OW 8479   5.608   6.676   3.931
 2527SOL    HW1 8480   5.591   6.601   3.995
 2527SOL    HW2 8481   5.558   6.757   3.961
 2528SOL     OW 8482   6.518   5.738   0.291
 2528SOL    HW1 8483   6.518   5.746   0.391
 2528SOL    HW2 8484   6.426   5.715   0.260
 2529SOL     OW 8485   4.986   3.704   4.626
 2529SOL    HW1 8486   5.008   3.794   4.664
 2529SOL    HW2 8487   4.931   3.653   4.693
 2530SOL     OW 8488   0.259   0.736   4.376
 2530SOL    HW1 8489   0.237   0.776   4.287
 2530SOL    HW2 8490   0.283   0.640   4.364
 2531SOL     OW 8491   4.009   1.925   6.321
 2531SOL    HW1 8492   3.922   1.885   6.290
 2531SOL    HW2 8493   4.028   1.896   6.415
 2532SOL     OW 8494   1.759   4.874   6.569
 2532SOL    HW1 8495   1.770   4.898   6.472
 2532SOL    HW2 8496   1.682   4.811   6.579
 2533SOL     OW 8497   6.121   6.611   5.864
 2533SOL    HW1 8498   6.137   6.576   5.772
 2533SOL    HW2 8499   6.178   6.693   5.877
 2534SOL     OW 8500   1.067   2.294   3.906
 2534SOL    HW1 8501   0.997   2.258   3.968
 2534SOL    HW2 8502   1.084   2.390   3.927
 2535SOL     OW 8503   1.925   1.175   2.869
 2535SOL    HW1 8504   1.959   1.250   2.925
 2535SOL    HW2 8505   1.827   1.165   2.883
 2536SOL     OW 8506   5.910   1.213   4.072
 2536SOL    HW1 8507   5.827   1.269   4.079
 2536SOL    HW2 8508   5.974   1.240   4.143
 2537SOL     OW 8509   4.528   5.498   1.086
 2537SOL    HW1 8510   4.590   5.481   1.163
 2537SOL    HW2 8511   4.438   5.522   1.120
 2538SOL     OW 8512   2.429   4.623   4.809
 2538SOL    HW1 8513   2.382   4.537   4.789
 2538SOL    HW2 8514   2.361   4.694   4.828
 2539SOL     OW 8515   2.887   0.180   5.232
 2539SOL    HW1 8516   2.868   0.085   5.256
 2539SOL    HW2 8517   2.978   0.187   5.192
 2540SOL     OW 8518   5.636   2.022   2.254
 2540SOL    HW1 8519   5.704   1.995   2.322
 2540SOL    HW2 8520   5.614   2.119   2.266
 2541SOL     OW 8521   0.636   6.327   5.790
 2541SOL    HW1 8522   0.607   6.308   5.697
 2541SOL    HW2 8523   0.598   6.414   5.820
 2542SOL     OW 8524   3.673   2.134   4.035
 2542SOL    HW1 8525   3.573   2.132   4.030
 2542SOL    HW2 8526   3.703   2.090   4.120
 2543SOL     OW 8527   0.282   1.778   3.895
 2543SOL    HW1 8528   0.367   1.793   3.946
 2543SOL    HW2 8529   0.221   1.856   3.909
 2544SOL     OW 8530   6.095   5.738   1.758
 2544SOL    HW1 8531   6.078   5.706   1.665
 2544SOL    HW2 8532   6.072   5.666   1.823
 2545SOL     OW 8533   0.311   1.797   1.513
 2545SOL    HW1 8534   0.259   1.738   1.452
 2545SOL    HW2 8535   0.379   1.848   1.460
 2546SOL     OW 8536   0.040   4.556   2.501
 2546SOL    HW1 8537   0.138   4.576   2.509
 2546SOL    HW2 8538   7.011   4.588   2.583
 2547SOL     OW 8539   5.762   3.571   1.050
 2547SOL    HW1 8540   5.725   3.479   1.062
 2547SOL    HW2 8541   5.817   3.596   1.130
 2548SOL     OW 8542   6.885   6.686   5.474
 2548SOL    HW1 8543   6.904   6.715   5.568
 2548SOL    HW2 8544   6.971   6.686   5.422
 2549SOL     OW 8545   2.597   2.461   0.886
 2549SOL    HW1 8546   2.500   2.481   0.899
 2549SOL    HW2 8547   2.607   2.382   0.825
 2550SOL     OW 8548   4.386   6.871   6.272
 2550SOL    HW1 8549   4.300   6.821   6.260
 2550SOL    HW2 8550   4.427   6.889   6.183
 2551SOL     OW 8551   3.551   5.081   0.383
 2551SOL    HW1 8552   3.629   5.122   0.337
 2551SOL    HW2 8553   3.503   5.150   0.436
 2552SOL     OW 8554   2.683   6.039   0.925
 2552SOL    HW1 8555   2.600   6.088   0.898
 2552SOL    HW2 8556   2.731   6.006   0.844
 2553SOL     OW 8557   4.759   1.003   6.604
 2553SOL    HW1 8558   4.758   1.051   6.517
 2553SOL    HW2 8559   4.699   0.922   6.598
 2554SOL     OW 8560   1.441   6.100   1.492
 2554SOL    HW1 8561   1.425   6.030   1.562
 2554SOL    HW2 8562   1.422   6.190   1.531
 2555SOL     OW 8563   5.474   6.206   5.223
 2555SOL    HW1 8564   5.416   6.287   5.228
 2555SOL    HW2 8565   5.418   6.126   5.204
 2556SOL     OW 8566   4.101   0.568   0.857
 2556SOL    HW1 8567   4.181   0.612   0.815
 2556SOL    HW2 8568   4.044   0.637   0.902
 2557SOL     OW 8569   3.206   0.287   0.121
 2557SOL    HW1 8570   3.123   0.327   0.159
 2557SOL    HW2 8571   3.182   0.209   0.063
 2558SOL     OW 8572   5.971   3.732   6.223
 2558SOL    HW1 8573   5.913   3.791   6.167
 2558SOL    HW2 8574   6.023   3.788   6.288
 2559SOL     OW 8575   0.860   4.399   4.769
 2559SOL    HW1 8576   0.916   4.330   4.723
 2559SOL    HW2 8577   0.919   4.464   4.816
 2560SOL     OW 8578   5.142   2.365   3.124
 2560SOL    HW1 8579   5.226   2.418   3.115
 2560SOL    HW2 8580   5.085   2.379   3.043
 2561SOL     OW 8581   3.313   0.638   4.544
 2561SOL    HW1 8582   3.293   0.735   4.528
 2561SOL    HW2 8583   3.385   0.608   4.481
 2562SOL     OW 8584   3.564   6.730   3.338
 2562SOL    HW1 8585   3.493   6.665   3.314
 2562SOL    HW2 8586   3.598   6.775   3.255
 2563SOL     OW 8587   3.703   1.214   0.026
 2563SOL    HW1 8588   3.756   1.286   0.071
 2563SOL    HW2 8589   3.759   1.132   0.016
 2564SOL     OW 8590   2.051   1.719   0.857
 2564SOL    HW1 8591   2.110   1.723   0.937
 2564SOL    HW2 8592   1.970   1.663   0.877
 2565SOL     OW 8593   1.396   2.102   6.915
 2565SOL    HW1 8594   1.395   2.192   6.873
 2565SOL    HW2 8595   1.417   2.111   7.013
 2566SOL     OW 8596   2.521   0.710   1.111
 2566SOL    HW1 8597   2.456   0.651   1.160
 2566SOL    HW2 8598   2.477   0.798   1.091
 2567SOL     OW 8599   1.734   0.536   0.279
 2567SOL    HW1 8600   1.806   0.508   0.214
 2567SOL    HW2 8601   1.700   0.456   0.328
 2568SOL     OW 8602   2.922   6.664   1.076
 2568SOL    HW1 8603   2.940   6.675   0.979
 2568SOL    HW2 8604   3.008   6.671   1.127
 2569SOL     OW 8605   0.782   0.253   1.395
 2569SOL    HW1 8606   0.871   0.208   1.382
 2569SOL    HW2 8607   0.797   0.344   1.432
 2570SOL     OW 8608   6.284   6.703   6.083
 2570SOL    HW1 8609   6.301   6.789   6.033
 2570SOL    HW2 8610   6.189   6.701   6.113
 2571SOL     OW 8611   3.498   3.229   4.358
 2571SOL    HW1 8612   3.443   3.213   4.276
 2571SOL    HW2 8613   3.592   3.251   4.332
 2572SOL     OW 8614   1.874   6.568   1.776
 2572SOL    HW1 8615   1.931   6.489   1.796
 2572SOL    HW2 8616   1.924   6.631   1.716
 2573SOL     OW 8617   0.078   2.195   4.478
 2573SOL    HW1 8618   0.130   2.110   4.470
 2573SOL    HW2 8619   0.024   2.209   4.395
 2574SOL     OW 8620   0.841   3.820   1.790
 2574SOL    HW1 8621   0.929   3.805   1.745
 2574SOL    HW2 8622   0.856   3.870   1.875
 2575SOL     OW 8623   6.488   3.806   0.285
 2575SOL    HW1 8624   6.547   3.870   0.237
 2575SOL    HW2 8625   6.482   3.720   0.234
 2576SOL     OW 8626   1.648   6.958   3.527
 2576SOL    HW1 8627   1.660   0.037   3.539
 2576SOL    HW2 8628   1.551   6.935   3.539
 2577SOL     OW 8629   2.193   6.176   2.573
 2577SOL    HW1 8630   2.255   6.200   2.647
 2577SOL    HW2 8631   2.242   6.181   2.485
 2578SOL     OW 8632   4.900   2.550   4.361
 2578SOL    HW1 8633   4.996   2.572   4.382
 2578SOL    HW2 8634   4.891   2.532   4.264
 2579SOL     OW 8635   6.794   2.515   6.390
 2579SOL    HW1 8636   6.881   2.469   6.372
 2579SOL    HW2 8637   6.725   2.448   6.418
 2580SOL     OW 8638   1.553   2.533   6.184
 2580SOL    HW1 8639   1.644   2.555   6.149
 2580SOL    HW2 8640   1.524   2.445   6.148
 2581SOL     OW 8641   6.311   6.753   3.781
 2581SOL    HW1 8642   6.316   6.694   3.701
 2581SOL    HW2 8643   6.311   6.849   3.753
 2582SOL     OW 8644   0.701   5.397   2.412
 2582SOL    HW1 8645   0.759   5.330   2.458
 2582SOL    HW2 8646   0.705   5.381   2.313
 2583SOL     OW 8647   1.732   0.270   0.437
 2583SOL    HW1 8648   1.726   0.352   0.493
 2583SOL    HW2 8649   1.743   0.190   0.496
 2584SOL     OW 8650   4.426   6.748   1.908
 2584SOL    HW1 8651   4.341   6.721   1.863
 2584SOL    HW2 8652   4.455   6.675   1.970
 2585SOL     OW 8653   3.978   0.465   1.325
 2585SOL    HW1 8654   3.983   0.481   1.424
 2585SOL    HW2 8655   4.068   0.482   1.284
 2586SOL     OW 8656   6.524   2.269   4.037
 2586SOL    HW1 8657   6.508   2.173   4.013
 2586SOL    HW2 8658   6.457   2.326   3.991
 2587SOL     OW 8659   5.747   6.206   3.271
 2587SOL    HW1 8660   5.723   6.208   3.368
 2587SOL    HW2 8661   5.826   6.265   3.255
 2588SOL     OW 8662   5.459   1.153   1.133
 2588SOL    HW1 8663   5.555   1.126   1.125
 2588SOL    HW2 8664   5.453   1.244   1.174
 2589SOL     OW 8665   6.723   6.605   6.711
 2589SOL    HW1 8666   6.809   6.652   6.732
 2589SOL    HW2 8667   6.729   6.566   6.618
 2590SOL     OW 8668   4.217   0.101   2.380
 2590SOL    HW1 8669   4.224   0.048   2.296
 2590SOL    HW2 8670   4.307   0.139   2.402
 2591SOL     OW 8671   5.434   6.723   1.407
 2591SOL    HW1 8672   5.390   6.636   1.432
 2591SOL    HW2 8673   5.432   6.785   1.485
 2592SOL     OW 8674   3.873   5.421   1.626
 2592SOL    HW1 8675   3.860   5.453   1.719
 2592SOL    HW2 8676   3.805   5.463   1.566
 2593SOL     OW 8677   3.001   6.312   2.287
 2593SOL    HW1 8678   2.983   6.411   2.287
 2593SOL    HW2 8679   3.043   6.286   2.374
 2594SOL     OW 8680   0.815   6.452   6.153
 2594SOL    HW1 8681   0.899   6.501   6.176
 2594SOL    HW2 8682   0.836   6.355   6.139
 2595SOL     OW 8683   6.087   3.699   3.923
 2595SOL    HW1 8684   6.124   3.754   3.849
 2595SOL    HW2 8685   6.004   3.743   3.958
 2596SOL     OW 8686   3.892   2.140   2.185
 2596SOL    HW1 8687   3.965   2.206   2.168
 2596SOL    HW2 8688   3.811   2.166   2.132
 2597SOL     OW 8689   2.130   2.952   7.010
 2597SOL    HW1 8690   2.154   2.904   0.075
 2597SOL    HW2 8691   2.036   2.984   7.015
 2598SOL     OW 8692   6.655   3.307   3.366
 2598SOL    HW1 8693   6.682   3.238   3.432
 2598SOL    HW2 8694   6.734   3.333   3.311
 2599SOL     OW 8695   3.587   5.651   0.086
 2599SOL    HW1 8696   3.640   5.633   0.004
 2599SOL    HW2 8697   3.509   5.710   0.064
 2600SOL     OW 8698   6.238   3.814   3.251
 2600SOL    HW1 8699   6.299   3.742   3.284
 2600SOL    HW2 8700   6.183   3.779   3.175
 2601SOL     OW 8701   4.271   3.226   6.373
 2601SOL    HW1 8702   4.291   3.305   6.432
 2601SOL    HW2 8703   4.241   3.149   6.430
 2602SOL     OW 8704   6.122   5.195   3.556
 2602SOL    HW1 8705   6.204   5.151   3.520
 2602SOL    HW2 8706   6.076   5.245   3.483
 2603SOL     OW 8707   3.376   2.158   1.018
 2603SOL    HW1 8708   3.329   2.083   0.972
 2603SOL    HW2 8709   3.311   2.211   1.072
 2604SOL     OW 8710   6.094   0.203   1.065
 2604SOL    HW1 8711   6.167   0.262   1.100
 2604SOL    HW2 8712   6.050   0.248   0.987
 2605SOL     OW 8713   4.653   5.100   4.225
 2605SOL    HW1 8714   4.579   5.115   4.291
 2605SOL    HW2 8715   4.619   5.115   4.132
 2606SOL     OW 8716   0.214   4.558   0.225
 2606SOL    HW1 8717   0.241   4.467   0.194
 2606SOL    HW2 8718   0.119   4.557   0.256
 2607SOL     OW 8719   0.477   0.859   3.928
 2607SOL    HW1 8720   0.530   0.925   3.981
 2607SOL    HW2 8721   0.462   0.895   3.835
 2608SOL     OW 8722   4.984   0.439   1.460
 2608SOL    HW1 8723   4.996   0.533   1.493
 2608SOL    HW2 8724   4.887   0.414   1.464
 2609SOL     OW 8725   0.930   2.191   2.599
 2609SOL    HW1 8726   1.008   2.196   2.537
 2609SOL    HW2 8727   0.881   2.105   2.584
 2610SOL     OW 8728   5.809   6.454   4.771
 2610SOL    HW1 8729   5.769   6.493   4.855
 2610SOL    HW2 8730   5.865   6.375   4.795
 2611SOL     OW 8731   4.614   6.564   1.323
 2611SOL    HW1 8732   4.567   6.507   1.389
 2611SOL    HW2 8733   4.570   6.654   1.318
 2612SOL     OW 8734   6.006   6.327   3.188
 2612SOL    HW1 8735   6.048   6.401   3.240
 2612SOL    HW2 8736   6.018   6.345   3.090
 2613SOL     OW 8737   4.008   0.539   1.598
 2613SOL    HW1 8738   3.922   0.570   1.639
 2613SOL    HW2 8739   4.081   0.605   1.619
 2614SOL     OW 8740   0.004   6.346   6.389
 2614SOL    HW1 8741   6.958   6.271   6.399
 2614SOL    HW2 8742   0.094   6.310   6.366
 2615SOL     OW 8743   5.319   5.627   2.517
 2615SOL    HW1 8744   5.346   5.594   2.608
 2615SOL    HW2 8745   5.366   5.573   2.447
 2616SOL     OW 8746   3.774   2.952   3.051
 2616SOL    HW1 8747   3.725   2.954   3.138
 2616SOL    HW2 8748   3.711   2.922   2.979
 2617SOL     OW 8749   4.045   6.714   1.642
 2617SOL    HW1 8750   3.983   6.762   1.705
 2617SOL    HW2 8751   4.014   6.728   1.548
 2618SOL     OW 8752   1.076   0.503   0.514
 2618SOL    HW1 8753   1.106   0.598   0.502
 2618SOL    HW2 8754   0.977   0.501   0.533
 2619SOL     OW 8755   4.474   2.277   1.579
 2619SOL    HW1 8756   4.436   2.321   1.660
 2619SOL    HW2 8757   4.574   2.275   1.586
 2620SOL     OW 8758   1.166   4.404   4.150
 2620SOL    HW1 8759   1.068   4.393   4.168
 2620SOL    HW2 8760   1.205   4.467   4.217
 2621SOL     OW 8761   0.971   5.263   3.487
 2621SOL    HW1 8762   0.914   5.332   3.531
 2621SOL    HW2 8763   1.000   5.195   3.555
 2622SOL     OW 8764   2.566   2.694   6.817
 2622SOL    HW1 8765   2.515   2.617   6.855
 2622SOL    HW2 8766   2.544   2.703   6.720
 2623SOL     OW 8767   2.931   0.980   5.779
 2623SOL    HW1 8768   2.997   1.053   5.761
 2623SOL    HW2 8769   2.851   0.993   5.721
 2624SOL     OW 8770   5.837   2.292   3.876
 2624SOL    HW1 8771   5.856   2.230   3.952
 2624SOL    HW2 8772   5.778   2.366   3.907
 2625SOL     OW 8773   2.929   2.294   5.787
 2625SOL    HW1 8774   3.005   2.323   5.729
 2625SOL    HW2 8775   2.946   2.324   5.881
 2626SOL     OW 8776   2.025   6.693   3.175
 2626SOL    HW1 8777   2.028   6.772   3.113
 2626SOL    HW2 8778   1.931   6.658   3.180
 2627SOL     OW 8779   6.609   0.603   4.412
 2627SOL    HW1 8780   6.591   0.524   4.354
 2627SOL    HW2 8781   6.628   0.573   4.506
 2628SOL     OW 8782   4.018   6.149   6.785
 2628SOL    HW1 8783   3.972   6.215   6.726
 2628SOL    HW2 8784   3.977   6.151   6.876
 2629SOL     OW 8785   3.375   4.131   1.276
 2629SOL    HW1 8786   3.352   4.035   1.289
 2629SOL    HW2 8787   3.305   4.189   1.318
 2630SOL     OW 8788   2.924   2.212   2.392
 2630SOL    HW1 8789   2.895   2.258   2.309
 2630SOL    HW2 8790   2.875   2.125   2.401
 2631SOL     OW 8791   4.212   6.458   4.000
 2631SOL    HW1 8792   4.138   6.452   4.067
 2631SOL    HW2 8793   4.184   6.516   3.924
 2632SOL     OW 8794   3.762   2.192   0.181
 2632SOL    HW1 8795   3.665   2.170   0.168
 2632SOL    HW2 8796   3.796   2.238   0.099
 2633SOL     OW 8797   5.738   2.425   6.625
 2633SOL    HW1 8798   5.711   2.333   6.596
 2633SOL    HW2 8799   5.664   2.467   6.677
 2634SOL     OW 8800   1.918   4.527   1.354
 2634SOL    HW1 8801   1.896   4.439   1.312
 2634SOL    HW2 8802   1.866   4.537   1.439
 2635SOL     OW 8803   5.762   4.846   5.123
 2635SOL    HW1 8804   5.853   4.807   5.139
 2635SOL    HW2 8805   5.767   4.912   5.048
 2636SOL     OW 8806   4.721   0.175   5.544
 2636SOL    HW1 8807   4.709   0.082   5.579
 2636SOL    HW2 8808   4.754   0.234   5.617
 2637SOL     OW 8809   5.580   6.522   2.873
 2637SOL    HW1 8810   5.506   6.577   2.834
 2637SOL    HW2 8811   5.551   6.426   2.877
 2638SOL     OW 8812   5.652   6.204   0.798
 2638SOL    HW1 8813   5.730   6.223   0.859
 2638SOL    HW2 8814   5.612   6.291   0.768
 2639SOL     OW 8815   6.228   6.046   0.858
 2639SOL    HW1 8816   6.256   5.995   0.940
 2639SOL    HW2 8817   6.135   6.020   0.833
 2640SOL     OW 8818   6.972   6.306   5.183
 2640SOL    HW1 8819   6.898   6.242   5.161
 2640SOL    HW2 8820   6.936   6.399   5.188
 2641SOL     OW 8821   5.128   4.310   0.075
 2641SOL    HW1 8822   5.164   4.401   0.055
 2641SOL    HW2 8823   5.203   4.247   0.092
 2642SOL     OW 8824   4.740   0.210   3.459
 2642SOL    HW1 8825   4.644   0.194   3.436
 2642SOL    HW2 8826   4.768   0.300   3.425
 2643SOL     OW 8827   0.109   0.309   2.741
 2643SOL    HW1 8828   0.173   0.233   2.727
 2643SOL    HW2 8829   0.078   0.309   2.836
 2644SOL     OW 8830   0.314   4.266   6.188
 2644SOL    HW1 8831   0.292   4.174   6.219
 2644SOL    HW2 8832   0.232   4.322   6.187
 2645SOL     OW 8833   5.442   5.845   6.642
 2645SOL    HW1 8834   5.519   5.781   6.653
 2645SOL    HW2 8835   5.478   5.938   6.629
 2646SOL     OW 8836   6.518   6.819   6.515
 2646SOL    HW1 8837   6.587   6.750   6.492
 2646SOL    HW2 8838   6.558   6.887   6.576
 2647SOL     OW 8839   4.183   2.164   1.253
 2647SOL    HW1 8840   4.236   2.082   1.277
 2647SOL    HW2 8841   4.148   2.206   1.337
 2648SOL     OW 8842   5.609   0.056   2.307
 2648SOL    HW1 8843   5.518   0.087   2.279
 2648SOL    HW2 8844   5.678   0.122   2.274
 2649SOL     OW 8845   3.205   1.675   6.497
 2649SOL    HW1 8846   3.174   1.621   6.575
 2649SOL    HW2 8847   3.290   1.722   6.520
 2650SOL     OW 8848   0.331   6.110   2.759
 2650SOL    HW1 8849   0.269   6.123   2.682
 2650SOL    HW2 8850   0.382   6.194   2.775
 2651SOL     OW 8851   6.696   1.234   2.226
 2651SOL    HW1 8852   6.665   1.253   2.133
 2651SOL    HW2 8853   6.725   1.138   2.232
 2652SOL     OW 8854   3.357   3.107   2.946
 2652SOL    HW1 8855   3.292   3.174   2.909
 2652SOL    HW2 8856   3.440   3.153   2.976
 2653SOL     OW 8857   6.748   6.671   5.944
 2653SOL    HW1 8858   6.831   6.665   5.999
 2653SOL    HW2 8859   6.668   6.678   6.003
 2654SOL     OW 8860   5.423   2.661   5.621
 2654SOL    HW1 8861   5.469   2.579   5.587
 2654SOL    HW2 8862   5.482   2.708   5.686
 2655SOL     OW 8863   4.615   6.069   4.370
 2655SOL    HW1 8864   4.667   6.087   4.454
 2655SOL    HW2 8865   4.553   6.145   4.353
 2656SOL     OW 8866   5.343   3.735   3.662
 2656SOL    HW1 8867   5.378   3.747   3.755
 2656SOL    HW2 8868   5.306   3.822   3.629
 2657SOL     OW 8869   1.903   3.700   6.883
 2657SOL    HW1 8870   1.813   3.660   6.867
 2657SOL    HW2 8871   1.895   3.776   6.948
 2658SOL     OW 8872   6.276   4.306   5.732
 2658SOL    HW1 8873   6.295   4.393   5.778
 2658SOL    HW2 8874   6.249   4.238   5.799
 2659SOL     OW 8875   6.895   2.374   4.330
 2659SOL    HW1 8876   6.886   2.474   4.340
 2659SOL    HW2 8877   6.847   2.345   4.247
 2660SOL     OW 8878   6.233   2.232   2.712
 2660SOL    HW1 8879   6.332   2.244   2.723
 2660SOL    HW2 8880   6.215   2.164   2.641
 2661SOL     OW 8881   3.823   6.043   1.265
 2661SOL    HW1 8882   3.833   5.946   1.243
 2661SOL    HW2 8883   3.751   6.054   1.334
 2662SOL     OW 8884   3.851   6.700   4.401
 2662SOL    HW1 8885   3.776   6.687   4.467
 2662SOL    HW2 8886   3.906   6.617   4.397
 2663SOL     OW 8887   1.828   4.331   2.294
 2663SOL    HW1 8888   1.916   4.372   2.316
 2663SOL    HW2 8889   1.757   4.372   2.350
 2664SOL     OW 8890   4.099   3.228   2.721
 2664SOL    HW1 8891   4.104   3.151   2.785
 2664SOL    HW2 8892   4.118   3.196   2.629
 2665SOL     OW 8893   3.462   1.289   4.566
 2665SOL    HW1 8894   3.520   1.357   4.611
 2665SOL    HW2 8895   3.394   1.336   4.509
 2666SOL     OW 8896   5.428   4.360   0.958
 2666SOL    HW1 8897   5.412   4.311   1.044
 2666SOL    HW2 8898   5.453   4.455   0.979
 2667SOL     OW 8899   2.582   5.480   4.566
 2667SOL    HW1 8900   2.644   5.546   4.524
 2667SOL    HW2 8901   2.633   5.398   4.592
 2668SOL     OW 8902   6.991   3.016   5.590
 2668SOL    HW1 8903   6.912   3.022   5.652
 2668SOL    HW2 8904   0.050   2.978   5.640
 2669SOL     OW 8905   4.313   4.815   5.509
 2669SOL    HW1 8906   4.291   4.735   5.453
 2669SOL    HW2 8907   4.336   4.785   5.602
 2670SOL     OW 8908   1.025   1.468   0.009
 2670SOL    HW1 8909   1.051   1.372   7.018
 2670SOL    HW2 8910   0.933   1.473   0.050
 2671SOL     OW 8911   2.222   3.409   6.063
 2671SOL    HW1 8912   2.273   3.371   5.986
 2671SOL    HW2 8913   2.234   3.351   6.143
 2672SOL     OW 8914   1.962   5.715   0.807
 2672SOL    HW1 8915   2.030   5.689   0.739
 2672SOL    HW2 8916   1.932   5.808   0.790
 2673SOL     OW 8917   4.000   2.199   3.159
 2673SOL    HW1 8918   4.066   2.125   3.169
 2673SOL    HW2 8919   3.925   2.185   3.224
 2674SOL     OW 8920   6.760   4.977   4.890
 2674SOL    HW1 8921   6.753   5.003   4.987
 2674SOL    HW2 8922   6.714   5.046   4.834
 2675SOL     OW 8923   0.391   4.634   5.839
 2675SOL    HW1 8924   0.298   4.635   5.874
 2675SOL    HW2 8925   0.393   4.674   5.747
 2676SOL     OW 8926   4.559   1.662   1.431
 2676SOL    HW1 8927   4.589   1.597   1.501
 2676SOL    HW2 8928   4.484   1.622   1.378
 2677SOL     OW 8929   2.219   4.752   1.690
 2677SOL    HW1 8930   2.265   4.797   1.767
 2677SOL    HW2 8931   2.238   4.654   1.692
 2678SOL     OW 8932   0.791   5.111   6.396
 2678SOL    HW1 8933   0.882   5.092   6.359
 2678SOL    HW2 8934   0.746   5.181   6.339
 2679SOL     OW 8935   3.076   5.282   0.884
 2679SOL    HW1 8936   3.077   5.301   0.786
 2679SOL    HW2 8937   3.152   5.330   0.928
 2680SOL     OW 8938   1.885   1.187   1.568
 2680SOL    HW1 8939   1.935   1.218   1.487
 2680SOL    HW2 8940   1.792   1.161   1.543
 2681SOL     OW 8941   1.578   2.678   3.093
 2681SOL    HW1 8942   1.501   2.632   3.049
 2681SOL    HW2 8943   1.624   2.614   3.155
 2682SOL     OW 8944   5.373   2.864   2.612
 2682SOL    HW1 8945   5.418   2.919   2.542
 2682SOL    HW2 8946   5.356   2.772   2.578
 2683SOL     OW 8947   1.037   5.702   0.941
 2683SOL    HW1 8948   0.963   5.638   0.920
 2683SOL    HW2 8949   1.098   5.661   1.009
 2684SOL     OW 8950   2.321   6.250   3.269
 2684SOL    HW1 8951   2.281   6.218   3.183
 2684SOL    HW2 8952   2.380   6.328   3.252
 2685SOL     OW 8953   4.889   6.257   5.186
 2685SOL    HW1 8954   4.927   6.350   5.179
 2685SOL    HW2 8955   4.962   6.194   5.214
 2686SOL     OW 8956   2.257   3.003   4.004
 2686SOL    HW1 8957   2.337   2.943   4.001
 2686SOL    HW2 8958   2.228   3.025   3.910
 2687SOL     OW 8959   3.748   5.374   2.047
 2687SOL    HW1 8960   3.649   5.365   2.058
 2687SOL    HW2 8961   3.792   5.285   2.060
 2688SOL     OW 8962   4.399   4.573   6.682
 2688SOL    HW1 8963   4.462   4.499   6.657
 2688SOL    HW2 8964   4.452   4.655   6.704
 2689SOL     OW 8965   0.290   3.099   3.726
 2689SOL    HW1 8966   0.240   3.059   3.802
 2689SOL    HW2 8967   0.378   3.053   3.715
 2690SOL     OW 8968   4.069   3.641   3.857
 2690SOL    HW1 8969   3.976   3.611   3.878
 2690SOL    HW2 8970   4.086   3.631   3.759
 2691SOL     OW 8971   1.660   5.785   2.268
 2691SOL    HW1 8972   1.647   5.798   2.170
 2691SOL    HW2 8973   1.672   5.688   2.288
 2692SOL     OW 8974   0.078   6.563   3.345
 2692SOL    HW1 8975   7.014   6.561   3.401
 2692SOL    HW2 8976   0.157   6.587   3.402
 2693SOL     OW 8977   1.794   3.619   3.513
 2693SOL    HW1 8978   1.874   3.658   3.467
 2693SOL    HW2 8979   1.795   3.646   3.609
 2694SOL     OW 8980   1.653   6.687   3.469
 2694SOL    HW1 8981   1.564   6.641   3.477
 2694SOL    HW2 8982   1.642   6.784   3.487
 2695SOL     OW 8983   4.507   2.448   2.737
 2695SOL    HW1 8984   4.513   2.432   2.638
 2695SOL    HW2 8985   4.422   2.409   2.771
 2696SOL     OW 8986   3.898   3.918   5.490
 2696SOL    HW1 8987   3.957   3.993   5.518
 2696SOL    HW2 8988   3.949   3.854   5.434
 2697SOL     OW 8989   2.980   1.930   4.369
 2697SOL    HW1 8990   2.941   1.939   4.278
 2697SOL    HW2 8991   2.907   1.930   4.437
 2698SOL     OW 8992   1.409   4.245   0.727
 2698SOL    HW1 8993   1.465   4.316   0.685
 2698SOL    HW2 8994   1.443   4.226   0.819
 2699SOL     OW 8995   3.378   6.385   1.470
 2699SOL    HW1 8996   3.302   6.400   1.534
 2699SOL    HW2 8997   3.424   6.473   1.453
 2700SOL     OW 8998   1.680   3.509   2.872
 2700SOL    HW1 8999   1.597   3.550   2.834
 2700SOL    HW2 9000   1.655   3.428   2.926
 2701SOL     OW 9001   3.512   0.067   6.772
 2701SOL    HW1 9002   3.572   0.138   6.810
 2701SOL    HW2 9003   3.479   0.008   6.845
 2702SOL     OW 9004   0.096   1.345   3.693
 2702SOL    HW1 9005   0.140   1.320   3.780
 2702SOL    HW2 9006   0.088   1.263   3.637
 2703SOL     OW 9007   1.724   2.028   2.483
 2703SOL    HW1 9008   1.648   1.964   2.470
 2703SOL    HW2 9009   1.765   2.048   2.394
 2704SOL     OW 9010   2.458   5.323   1.531
 2704SOL    HW1 9011   2.557   5.328   1.543
 2704SOL    HW2 9012   2.418   5.274   1.608
 2705SOL     OW 9013   6.442   5.515   3.274
 2705SOL    HW1 9014   6.492   5.542   3.356
 2705SOL    HW2 9015   6.487   5.554   3.194
 2706SOL     OW 9016   6.517   1.683   1.405
 2706SOL    HW1 9017   6.559   1.681   1.496
 2706SOL    HW2 9018   6.585   1.714   1.338
 2707SOL     OW 9019   2.031   1.695   6.375
 2707SOL    HW1 9020   2.127   1.709   6.350
 2707SOL    HW2 9021   1.972   1.737   6.306
 2708SOL     OW 9022   1.235   2.260   1.500
 2708SOL    HW1 9023   1.288   2.183   1.461
 2708SOL    HW2 9024   1.218   2.243   1.597
 2709SOL     OW 9025   4.880   5.589   0.740
 2709SOL    HW1 9026   4.906   5.646   0.818
 2709SOL    HW2 9027   4.956   5.586   0.674
 2710SOL     OW 9028   0.176   3.970   2.484
 2710SOL    HW1 9029   0.203   3.936   2.393
 2710SOL    HW2 9030   0.112   3.906   2.526
 2711SOL     OW 9031   0.931   0.213   2.156
 2711SOL    HW1 9032   0.999   0.199   2.085
 2711SOL    HW2 9033   0.946   0.149   2.231
 2712SOL     OW 9034   2.509   4.632   0.647
 2712SOL    HW1 9035   2.602   4.660   0.621
 2712SOL    HW2 9036   2.507   4.533   0.660
 2713SOL     OW 9037   2.423   3.239   5.375
 2713SOL    HW1 9038   2.460   3.169   5.314
 2713SOL    HW2 9039   2.375   3.308   5.320
 2714SOL     OW 9040   4.692   0.617   6.185
 2714SOL    HW1 9041   4.697   0.716   6.168
 2714SOL    HW2 9042   4.700   0.568   6.098
 2715SOL     OW 9043   6.024   1.135   6.937
 2715SOL    HW1 9044   5.931   1.154   6.967
 2715SOL    HW2 9045   6.064   1.063   6.994
 2716SOL     OW 9046   0.500   5.783   2.378
 2716SOL    HW1 9047   0.472   5.695   2.339
 2716SOL    HW2 9048   0.420   5.843   2.385
 2717SOL     OW 9049   0.905   0.446   2.951
 2717SOL    HW1 9050   0.827   0.500   2.918
 2717SOL    HW2 9051   0.888   0.350   2.932
 2718SOL     OW 9052   1.914   4.356   4.277
 2718SOL    HW1 9053   1.877   4.263   4.269
 2718SOL    HW2 9054   2.013   4.351   4.288
 2719SOL     OW 9055   4.194   5.408   1.687
 2719SOL    HW1 9056   4.134   5.370   1.758
 2719SOL    HW2 9057   4.288   5.377   1.702
 2720SOL     OW 9058   1.778   6.869   3.748
 2720SOL    HW1 9059   1.771   6.948   3.808
 2720SOL    HW2 9060   1.757   6.896   3.654
 2721SOL     OW 9061   3.572   6.910   4.137
 2721SOL    HW1 9062   3.643   6.935   4.202
 2721SOL    HW2 9063   3.484   6.902   4.184
 2722SOL     OW 9064   1.259   6.061   2.886
 2722SOL    HW1 9065   1.285   5.998   2.959
 2722SOL    HW2 9066   1.224   6.009   2.808
 2723SOL     OW 9067   1.887   0.984   5.757
 2723SOL    HW1 9068   1.925   0.925   5.828
 2723SOL    HW2 9069   1.870   1.075   5.794
 2724SOL     OW 9070   4.018   5.620   6.258
 2724SOL    HW1 9071   4.060   5.529   6.261
 2724SOL    HW2 9072   4.047   5.672   6.338
 2725SOL     OW 9073   4.147   4.733   4.062
 2725SOL    HW1 9074   4.147   4.689   4.152
 2725SOL    HW2 9075   4.054   4.734   4.026
 2726SOL     OW 9076   5.127   5.583   2.211
 2726SOL    HW1 9077   5.225   5.602   2.218
 2726SOL    HW2 9078   5.096   5.599   2.118
 2727SOL     OW 9079   0.959   5.539   2.523
 2727SOL    HW1 9080   0.902   5.586   2.591
 2727SOL    HW2 9081   1.038   5.500   2.569
 2728SOL     OW 9082   2.657   6.540   5.408
 2728SOL    HW1 9083   2.594   6.482   5.459
 2728SOL    HW2 9084   2.690   6.491   5.328
 2729SOL     OW 9085   5.686   5.167   2.933
 2729SOL    HW1 9086   5.722   5.201   3.020
 2729SOL    HW2 9087   5.708   5.232   2.860
 2730SOL     OW 9088   1.498   0.171   0.925
 2730SOL    HW1 9089   1.459   0.203   1.011
 2730SOL    HW2 9090   1.424   0.149   0.861
 2731SOL     OW 9091   2.953   3.788   1.871
 2731SOL    HW1 9092   3.004   3.867   1.904
 2731SOL    HW2 9093   3.012   3.707   1.875
 2732SOL     OW 9094   5.521   2.149   2.716
 2732SOL    HW1 9095   5.605   2.095   2.720
 2732SOL    HW2 9096   5.473   2.130   2.631
 2733SOL     OW 9097   0.999   6.900   5.697
 2733SOL    HW1 9098   0.916   6.845   5.699
 2733SOL    HW2 9099   1.076   6.845   5.732
 2734SOL     OW 9100   2.024   6.030   4.181
 2734SOL    HW1 9101   2.083   6.055   4.258
 2734SOL    HW2 9102   2.079   5.986   4.110
 2735SOL     OW 9103   1.585   5.080   2.627
 2735SOL    HW1 9104   1.537   5.023   2.561
 2735SOL    HW2 9105   1.624   5.023   2.699
 2736SOL     OW 9106   4.372   0.549   4.984
 2736SOL    HW1 9107   4.295   0.597   5.026
 2736SOL    HW2 9108   4.437   0.521   5.054
 2737SOL     OW 9109   4.563   3.881   6.144
 2737SOL    HW1 9110   4.513   3.963   6.171
 2737SOL    HW2 9111   4.615   3.847   6.223
 2738SOL     OW 9112   5.657   5.243   4.776
 2738SOL    HW1 9113   5.635   5.279   4.685
 2738SOL    HW2 9114   5.577   5.251   4.835
 2739SOL     OW 9115   5.398   3.449   1.220
 2739SOL    HW1 9116   5.314   3.456   1.274
 2739SOL    HW2 9117   5.443   3.538   1.217
 2740SOL     OW 9118   6.055   2.292   3.750
 2740SOL    HW1 9119   5.973   2.291   3.808
 2740SOL    HW2 9120   6.126   2.346   3.794
 2741SOL     OW 9121   0.837   2.449   5.805
 2741SOL    HW1 9122   0.889   2.403   5.876
 2741SOL    HW2 9123   0.900   2.487   5.737
 2742SOL     OW 9124   1.939   6.721   6.843
 2742SOL    HW1 9125   1.974   6.802   6.796
 2742SOL    HW2 9126   1.916   6.651   6.774
 2743SOL     OW 9127   5.335   4.968   1.345
 2743SOL    HW1 9128   5.316   5.048   1.290
 2743SOL    HW2 9129   5.304   4.984   1.439
 2744SOL     OW 9130   3.963   2.465   5.984
 2744SOL    HW1 9131   4.030   2.400   5.948
 2744SOL    HW2 9132   3.975   2.473   6.083
 2745SOL     OW 9133   2.516   6.368   1.122
 2745SOL    HW1 9134   2.528   6.273   1.150
 2745SOL    HW2 9135   2.606   6.410   1.109
 2746SOL     OW 9136   1.922   1.956   6.287
 2746SOL    HW1 9137   2.016   1.987   6.300
 2746SOL    HW2 9138   1.869   2.028   6.241
 2747SOL     OW 9139   5.071   6.596   4.040
 2747SOL    HW1 9140   5.031   6.640   3.960
 2747SOL    HW2 9141   5.115   6.665   4.098
 2748SOL     OW 9142   3.679   1.304   2.842
 2748SOL    HW1 9143   3.621   1.237   2.889
 2748SOL    HW2 9144   3.753   1.256   2.795
 2749SOL     OW 9145   4.581   5.048   3.844
 2749SOL    HW1 9146   4.487   5.013   3.835
 2749SOL    HW2 9147   4.588   5.136   3.797
 2750SOL     OW 9148   0.563   5.781   2.656
 2750SOL    HW1 9149   0.659   5.757   2.640
 2750SOL    HW2 9150   0.512   5.775   2.570
 2751SOL     OW 9151   1.825   0.068   6.770
 2751SOL    HW1 9152   1.752   0.131   6.797
 2751SOL    HW2 9153   1.814   7.000   6.819
 2752SOL     OW 9154   6.050   6.117   5.684
 2752SOL    HW1 9155   6.015   6.139   5.775
 2752SOL    HW2 9156   6.126   6.178   5.662
 2753SOL     OW 9157   3.464   5.529   6.043
 2753SOL    HW1 9158   3.455   5.429   6.047
 2753SOL    HW2 9159   3.473   5.566   6.135
 2754SOL     OW 9160   0.656   0.848   4.555
 2754SOL    HW1 9161   0.606   0.913   4.612
 2754SOL    HW2 9162   0.595   0.772   4.531
 2755SOL     OW 9163   2.898   6.471   1.868
 2755SOL    HW1 9164   2.871   6.438   1.958
 2755SOL    HW2 9165   2.819   6.469   1.806
 2756SOL     OW 9166   0.064   2.640   5.681
 2756SOL    HW1 9167   0.120   2.723   5.688
 2756SOL    HW2 9168   0.016   2.640   5.593
 2757SOL     OW 9169   4.495   2.983   6.659
 2757SOL    HW1 9170   4.499   2.968   6.758
 2757SOL    HW2 9171   4.400   2.995   6.630
 2758SOL     OW 9172   5.900   6.006   2.381
 2758SOL    HW1 9173   5.821   6.060   2.409
 2758SOL    HW2 9174   5.928   6.034   2.289
 2759SOL     OW 9175   3.490   4.291   6.345
 2759SOL    HW1 9176   3.514   4.384   6.319
 2759SOL    HW2 9177   3.508   4.229   6.269
 2760SOL     OW 9178   5.194   5.924   3.456
 2760SOL    HW1 9179   5.148   5.946   3.370
 2760SOL    HW2 9180   5.229   6.008   3.497
 2761SOL     OW 9181   1.867   3.260   2.720
 2761SOL    HW1 9182   1.775   3.241   2.686
 2761SOL    HW2 9183   1.901   3.179   2.768
 2762SOL     OW 9184   2.605   2.250   0.670
 2762SOL    HW1 9185   2.523   2.195   0.653
 2762SOL    HW2 9186   2.686   2.200   0.638
 2763SOL     OW 9187   4.711   2.049   5.251
 2763SOL    HW1 9188   4.769   1.984   5.202
 2763SOL    HW2 9189   4.758   2.136   5.260
 2764SOL     OW 9190   0.994   3.900   2.312
 2764SOL    HW1 9191   1.051   3.982   2.310
 2764SOL    HW2 9192   0.911   3.918   2.365
 2765SOL     OW 9193   0.103   6.969   6.693
 2765SOL    HW1 9194   0.184   6.963   6.752
 2765SOL    HW2 9195   0.128   7.015   6.608
 2766SOL     OW 9196   5.537   1.118   6.763
 2766SOL    HW1 9197   5.503   1.171   6.841
 2766SOL    HW2 9198   5.636   1.128   6.756
 2767SOL     OW 9199   6.772   4.821   6.255
 2767SOL    HW1 9200   6.726   4.909   6.252
 2767SOL    HW2 9201   6.839   4.816   6.181
 2768SOL     OW 9202   4.695   0.232   1.072
 2768SOL    HW1 9203   4.643   0.244   0.987
 2768SOL    HW2 9204   4.651   0.283   1.146
 2769SOL     OW 9205   1.537   4.204   5.570
 2769SOL    HW1 9206   1.506   4.290   5.528
 2769SOL    HW2 9207   1.599   4.225   5.646
 2770SOL     OW 9208   2.938   6.708   0.808
 2770SOL    HW1 9209   2.992   6.788   0.783
 2770SOL    HW2 9210   2.926   6.649   0.728
 2771SOL     OW 9211   4.722   0.362   4.435
 2771SOL    HW1 9212   4.671   0.349   4.350
 2771SOL    HW2 9213   4.744   0.459   4.446
 2772SOL     OW 9214   3.686   0.171   3.260
 2772SOL    HW1 9215   3.704   0.169   3.359
 2772SOL    HW2 9216   3.764   0.133   3.211
 2773SOL     OW 9217   6.027   2.764   4.281
 2773SOL    HW1 9218   6.006   2.678   4.235
 2773SOL    HW2 9219   6.013   2.840   4.218
 2774SOL     OW 9220   5.121   1.508   3.850
 2774SOL    HW1 9221   5.174   1.470   3.926
 2774SOL    HW2 9222   5.183   1.555   3.787
 2775SOL     OW 9223   0.507   4.285   4.333
 2775SOL    HW1 9224   0.602   4.261   4.358
 2775SOL    HW2 9225   0.503   4.381   4.308
 2776SOL     OW 9226   5.112   4.359   5.909
 2776SOL    HW1 9227   5.023   4.398   5.885
 2776SOL    HW2 9228   5.116   4.341   6.007
 2777SOL     OW 9229   3.092   2.097   6.282
 2777SOL    HW1 9230   3.048   2.031   6.343
 2777SOL    HW2 9231   3.185   2.067   6.261
 2778SOL     OW 9232   2.936   6.211   6.305
 2778SOL    HW1 9233   2.919   6.174   6.214
 2778SOL    HW2 9234   2.881   6.293   6.319
 2779SOL     OW 9235   5.910   0.106   1.263
 2779SOL    HW1 9236   5.976   0.133   1.193
 2779SOL    HW2 9237   5.827   0.161   1.255
 2780SOL     OW 9238   0.328   1.654   5.140
 2780SOL    HW1 9239   0.273   1.729   5.104
 2780SOL    HW2 9240   0.277   1.569   5.134
 2781SOL     OW 9241   6.387   0.468   2.978
 2781SOL    HW1 9242   6.323   0.396   3.000
 2781SOL    HW2 9243   6.344   0.557   2.993
 2782SOL     OW 9244   4.569   0.775   6.608
 2782SOL    HW1 9245   4.557   0.678   6.589
 2782SOL    HW2 9246   4.498   0.828   6.563
 2783SOL     OW 9247   5.680   4.220   1.686
 2783SOL    HW1 9248   5.591   4.206   1.729
 2783SOL    HW2 9249   5.698   4.318   1.677
 2784SOL     OW 9250   1.449   1.735   1.054
 2784SOL    HW1 9251   1.406   1.818   1.017
 2784SOL    HW2 9252   1.388   1.694   1.122
 2785SOL     OW 9253   5.519   2.760   1.465
 2785SOL    HW1 9254   5.430   2.805   1.469
 2785SOL    HW2 9255   5.512   2.675   1.414
 2786SOL     OW 9256   0.181   6.874   0.193
 2786SOL    HW1 9257   0.152   6.969   0.195
 2786SOL    HW2 9258   0.168   6.832   0.283
 2787SOL     OW 9259   6.468   4.892   6.161
 2787SOL    HW1 9260   6.374   4.927   6.157
 2787SOL    HW2 9261   6.505   4.907   6.252
 2788SOL     OW 9262   3.069   6.455   5.685
 2788SOL    HW1 9263   2.969   6.455   5.677
 2788SOL    HW2 9264   3.110   6.476   5.596
 2789SOL     OW 9265   0.894   2.368   5.340
 2789SOL    HW1 9266   0.913   2.288   5.396
 2789SOL    HW2 9267   0.879   2.447   5.399
 2790SOL     OW 9268   1.594   5.611   1.555
 2790SOL    HW1 9269   1.553   5.571   1.637
 2790SOL    HW2 9270   1.684   5.571   1.540
 2791SOL     OW 9271   0.512   3.597   3.155
 2791SOL    HW1 9272   0.457   3.680   3.167
 2791SOL    HW2 9273   0.578   3.611   3.081
 2792SOL     OW 9274   3.298   1.503   5.326
 2792SOL    HW1 9275   3.361   1.456   5.265
 2792SOL    HW2 9276   3.207   1.506   5.284
 2793SOL     OW 9277   3.244   4.434   0.995
 2793SOL    HW1 9278   3.182   4.474   1.062
 2793SOL    HW2 9279   3.214   4.341   0.973
 2794SOL     OW 9280   1.074   2.661   6.548
 2794SOL    HW1 9281   1.043   2.622   6.462
 2794SOL    HW2 9282   0.998   2.708   6.593
 2795SOL     OW 9283   1.035   4.911   1.193
 2795SOL    HW1 9284   1.073   4.860   1.116
 2795SOL    HW2 9285   1.048   5.009   1.179
 2796SOL     OW 9286   1.569   6.120   6.072
 2796SOL    HW1 9287   1.612   6.061   6.141
 2796SOL    HW2 9288   1.480   6.082   6.047
 2797SOL     OW 9289   5.779   6.992   3.454
 2797SOL    HW1 9290   5.702   6.938   3.419
 2797SOL    HW2 9291   5.840   7.014   3.378
 2798SOL     OW 9292   5.681   0.234   1.999
 2798SOL    HW1 9293   5.697   0.323   1.956
 2798SOL    HW2 9294   5.712   0.237   2.094
 2799SOL     OW 9295   3.387   5.762   5.575
 2799SOL    HW1 9296   3.435   5.717   5.500
 2799SOL    HW2 9297   3.288   5.752   5.562
 2800SOL     OW 9298   6.015   6.976   6.558
 2800SOL    HW1 9299   6.009   0.043   6.505
 2800SOL    HW2 9300   6.098   6.928   6.533
 2801SOL     OW 9301   0.597   5.039   5.296
 2801SOL    HW1 9302   0.597   5.002   5.389
 2801SOL    HW2 9303   0.619   4.967   5.231
 2802SOL     OW 9304   0.179   5.375   5.805
 2802SOL    HW1 9305   0.146   5.306   5.869
 2802SOL    HW2 9306   0.181   5.464   5.850
 2803SOL     OW 9307   4.136   2.493   6.822
 2803SOL    HW1 9308   4.200   2.499   6.746
 2803SOL    HW2 9309   4.111   2.398   6.837
 2804SOL     OW 9310   0.466   2.762   3.880
 2804SOL    HW1 9311   0.494   2.678   3.832
 2804SOL    HW2 9312   0.475   2.840   3.819
 2805SOL     OW 9313   4.863   3.495   1.498
 2805SOL    HW1 9314   4.940   3.517   1.559
 2805SOL    HW2 9315   4.781   3.477   1.553
 2806SOL     OW 9316   0.236   3.952   5.962
 2806SOL    HW1 9317   0.326   3.930   5.925
 2806SOL    HW2 9318   0.191   3.868   5.992
 2807SOL     OW 9319   3.334   0.412   3.694
 2807SOL    HW1 9320   3.319   0.387   3.790
 2807SOL    HW2 9321   3.329   0.330   3.637
 2808SOL     OW 9322   6.782   5.296   6.547
 2808SOL    HW1 9323   6.840   5.245   6.484
 2808SOL    HW2 9324   6.837   5.330   6.624
 2809SOL     OW 9325   6.619   4.886   2.054
 2809SOL    HW1 9326   6.581   4.810   2.001
 2809SOL    HW2 9327   6.651   4.852   2.142
 2810SOL     OW 9328   2.818   5.548   2.990
 2810SOL    HW1 9329   2.726   5.531   3.023
 2810SOL    HW2 9330   2.826   5.643   2.959
 2811SOL     OW 9331   0.502   0.378   1.871
 2811SOL    HW1 9332   0.577   0.349   1.931
 2811SOL    HW2 9333   0.473   0.301   1.814
 2812SOL     OW 9334   0.647   2.512   1.421
 2812SOL    HW1 9335   0.690   2.554   1.342
 2812SOL    HW2 9336   0.566   2.461   1.393
 2813SOL     OW 9337   0.647   2.285   1.799
 2813SOL    HW1 9338   0.740   2.270   1.765
 2813SOL    HW2 9339   0.627   2.218   1.871
 2814SOL     OW 9340   2.298   4.461   0.109
 2814SOL    HW1 9341   2.349   4.428   0.188
 2814SOL    HW2 9342   2.346   4.434   0.025
 2815SOL     OW 9343   0.342   5.234   5.415
 2815SOL    HW1 9344   0.328   5.190   5.326
 2815SOL    HW2 9345   0.294   5.182   5.486
 2816SOL     OW 9346   0.556   5.733   6.271
 2816SOL    HW1 9347   0.538   5.744   6.173
 2816SOL    HW2 9348   0.483   5.677   6.311
 2817SOL     OW 9349   4.375   0.936   1.939
 2817SOL    HW1 9350   4.288   0.960   1.895
 2817SOL    HW2 9351   4.369   0.843   1.975
 2818SOL     OW 9352   1.396   0.432   0.656
 2818SOL    HW1 9353   1.389   0.468   0.564
 2818SOL    HW2 9354   1.317   0.375   0.676
 2819SOL     OW 9355   0.531   1.204   0.510
 2819SOL    HW1 9356   0.531   1.105   0.501
 2819SOL    HW2 9357   0.561   1.229   0.602
 2820SOL     OW 9358   1.014   2.478   1.148
 2820SOL    HW1 9359   1.021   2.433   1.238
 2820SOL    HW2 9360   0.997   2.409   1.078
 2821SOL     OW 9361   3.065   3.266   6.096
 2821SOL    HW1 9362   3.100   3.205   6.024
 2821SOL    HW2 9363   2.992   3.323   6.058
 2822SOL     OW 9364   4.528   2.527   0.941
 2822SOL    HW1 9365   4.473   2.448   0.915
 2822SOL    HW2 9366   4.597   2.544   0.871
 2823SOL     OW 9367   5.841   1.971   1.333
 2823SOL    HW1 9368   5.867   1.995   1.240
 2823SOL    HW2 9369   5.916   1.996   1.396
 2824SOL     OW 9370   1.255   3.726   4.875
 2824SOL    HW1 9371   1.173   3.678   4.847
 2824SOL    HW2 9372   1.324   3.719   4.803
 2825SOL     OW 9373   5.342   1.504   6.220
 2825SOL    HW1 9374   5.260   1.554   6.190
 2825SOL    HW2 9375   5.378   1.547   6.303
 2826SOL     OW 9376   2.266   2.901   6.764
 2826SOL    HW1 9377   2.211   2.914   6.847
 2826SOL    HW2 9378   2.361   2.923   6.783
 2827SOL     OW 9379   6.577   0.538   6.246
 2827SOL    HW1 9380   6.499   0.497   6.294
 2827SOL    HW2 9381   6.543   0.603   6.178
 2828SOL     OW 9382   1.835   3.678   0.442
 2828SOL    HW1 9383   1.769   3.723   0.381
 2828SOL    HW2 9384   1.906   3.744   0.467
 2829SOL     OW 9385   3.241   4.134   2.915
 2829SOL    HW1 9386   3.196   4.221   2.896
 2829SOL    HW2 9387   3.313   4.118   2.847
 2830SOL     OW 9388   3.119   4.809   5.453
 2830SOL    HW1 9389   3.211   4.773   5.470
 2830SOL    HW2 9390   3.065   4.803   5.538
 2831SOL     OW 9391   5.729   1.584   1.438
 2831SOL    HW1 9392   5.740   1.651   1.511
 2831SOL    HW2 9393   5.724   1.631   1.350
 2832SOL     OW 9394   0.711   3.747   1.384
 2832SOL    HW1 9395   0.718   3.711   1.477
 2832SOL    HW2 9396   0.719   3.846   1.385
 2833SOL     OW 9397   1.859   2.194   2.033
 2833SOL    HW1 9398   1.844   2.293   2.039
 2833SOL    HW2 9399   1.795   2.156   1.966
 2834SOL     OW 9400   3.079   6.148   5.858
 2834SOL    HW1 9401   3.014   6.223   5.855
 2834SOL    HW2 9402   3.138   6.151   5.777
 2835SOL     OW 9403   0.382   0.001   0.517
 2835SOL    HW1 9404   0.348   6.927   0.533
 2835SOL    HW2 9405   0.456   7.016   0.450
 2836SOL     OW 9406   3.430   6.104   2.855
 2836SOL    HW1 9407   3.369   6.074   2.781
 2836SOL    HW2 9408   3.483   6.183   2.823
 2837SOL     OW 9409   4.971   4.315   2.221
 2837SOL    HW1 9410   4.934   4.296   2.312
 2837SOL    HW2 9411   4.912   4.273   2.152
 2838SOL     OW 9412   5.299   4.619   5.866
 2838SOL    HW1 9413   5.318   4.530   5.907
 2838SOL    HW2 9414   5.385   4.659   5.833
 2839SOL     OW 9415   5.848   3.014   4.937
 2839SOL    HW1 9416   5.798   3.085   4.987
 2839SOL    HW2 9417   5.944   3.016   4.963
 2840SOL     OW 9418   0.042   6.334   4.028
 2840SOL    HW1 9419   0.044   6.235   4.039
 2840SOL    HW2 9420   0.133   6.366   4.002
 2841SOL     OW 9421   6.368   3.240   2.265
 2841SOL    HW1 9422   6.354   3.314   2.200
 2841SOL    HW2 9423   6.452   3.258   2.317
 2842SOL     OW 9424   1.250   0.066   2.947
 2842SOL    HW1 9425   1.338   0.107   2.966
 2842SOL    HW2 9426   1.186   0.087   3.022
 2843SOL     OW 9427   2.152   2.756   3.223
 2843SOL    HW1 9428   2.080   2.693   3.195
 2843SOL    HW2 9429   2.236   2.705   3.240
 2844SOL     OW 9430   4.947   4.729   0.516
 2844SOL    HW1 9431   4.964   4.825   0.537
 2844SOL    HW2 9432   4.871   4.721   0.451
 2845SOL     OW 9433   3.554   2.142   3.478
 2845SOL    HW1 9434   3.616   2.220   3.467
 2845SOL    HW2 9435   3.509   2.148   3.567
 2846SOL     OW 9436   5.691   0.076   0.324
 2846SOL    HW1 9437   5.597   0.044   0.315
 2846SOL    HW2 9438   5.753   0.012   0.277
 2847SOL     OW 9439   4.452   5.293   2.153
 2847SOL    HW1 9440   4.477   5.368   2.091
 2847SOL    HW2 9441   4.467   5.206   2.106
 2848SOL     OW 9442   0.558   3.853   5.399
 2848SOL    HW1 9443   0.481   3.907   5.432
 2848SOL    HW2 9444   0.591   3.794   5.473
 2849SOL     OW 9445   4.870   0.409   2.349
 2849SOL    HW1 9446   4.829   0.431   2.261
 2849SOL    HW2 9447   4.814   0.447   2.422
 2850SOL     OW 9448   1.750   6.813   2.788
 2850SOL    HW1 9449   1.737   6.821   2.886
 2850SOL    HW2 9450   1.707   6.891   2.742
 2851SOL     OW 9451   4.174   3.321   0.513
 2851SOL    HW1 9452   4.135   3.234   0.484
 2851SOL    HW2 9453   4.104   3.375   0.559
 2852SOL     OW 9454   6.250   4.249   6.433
 2852SOL    HW1 9455   6.196   4.333   6.431
 2852SOL    HW2 9456   6.189   4.170   6.433
 2853SOL     OW 9457   0.419   3.686   6.674
 2853SOL    HW1 9458   0.423   3.595   6.634
 2853SOL    HW2 9459   0.507   3.732   6.662
 2854SOL     OW 9460   3.667   1.402   5.684
 2854SOL    HW1 9461   3.613   1.333   5.732
 2854SOL    HW2 9462   3.729   1.447   5.749
 2855SOL     OW 9463   2.097   0.996   5.563
 2855SOL    HW1 9464   2.122   1.089   5.589
 2855SOL    HW2 9465   2.016   0.968   5.613
 2856SOL     OW 9466   1.318   5.313   3.376
 2856SOL    HW1 9467   1.304   5.285   3.471
 2856SOL    HW2 9468   1.292   5.238   3.315
 2857SOL     OW 9469   0.180   3.655   0.315
 2857SOL    HW1 9470   0.155   3.569   0.361
 2857SOL    HW2 9471   0.172   3.730   0.380
 2858SOL     OW 9472   4.618   5.063   2.926
 2858SOL    HW1 9473   4.612   5.149   2.977
 2858SOL    HW2 9474   4.558   4.995   2.968
 2859SOL     OW 9475   4.909   4.389   0.874
 2859SOL    HW1 9476   4.976   4.438   0.928
 2859SOL    HW2 9477   4.890   4.439   0.790
 2860SOL     OW 9478   0.253   6.902   2.237
 2860SOL    HW1 9479   0.211   6.812   2.248
 2860SOL    HW2 9480   0.320   6.898   2.163
 2861SOL     OW 9481   4.475   5.535   6.809
 2861SOL    HW1 9482   4.573   5.536   6.793
 2861SOL    HW2 9483   4.437   5.626   6.789
 2862SOL     OW 9484   4.359   2.857   0.385
 2862SOL    HW1 9485   4.395   2.814   0.467
 2862SOL    HW2 9486   4.387   2.954   0.383
 2863SOL     OW 9487   5.584   6.892   5.748
 2863SOL    HW1 9488   5.642   6.833   5.692
 2863SOL    HW2 9489   5.632   6.915   5.833
 2864SOL     OW 9490   3.438   3.982   0.128
 2864SOL    HW1 9491   3.505   3.934   0.071
 2864SOL    HW2 9492   3.482   4.061   0.171
 2865SOL     OW 9493   5.319   5.752   4.387
 2865SOL    HW1 9494   5.239   5.710   4.344
 2865SOL    HW2 9495   5.295   5.842   4.423
 2866SOL     OW 9496   4.783   4.653   0.271
 2866SOL    HW1 9497   4.696   4.687   0.307
 2866SOL    HW2 9498   4.784   4.553   0.273
 2867SOL     OW 9499   4.937   5.968   2.032
 2867SOL    HW1 9500   4.877   5.906   2.082
 2867SOL    HW2 9501   5.012   5.998   2.092
 2868SOL     OW 9502   0.999   1.763   5.755
 2868SOL    HW1 9503   1.045   1.840   5.712
 2868SOL    HW2 9504   1.040   1.744   5.844
 2869SOL     OW 9505   5.854   5.549   4.603
 2869SOL    HW1 9506   5.834   5.625   4.542
 2869SOL    HW2 9507   5.898   5.475   4.552
 2870SOL     OW 9508   6.677   1.814   1.226
 2870SOL    HW1 9509   6.767   1.837   1.264
 2870SOL    HW2 9510   6.675   1.838   1.129
 2871SOL     OW 9511   5.550   1.708   1.156
 2871SOL    HW1 9512   5.531   1.772   1.082
 2871SOL    HW2 9513   5.483   1.722   1.229
 2872SOL     OW 9514   2.679   2.390   2.235
 2872SOL    HW1 9515   2.664   2.481   2.196
 2872SOL    HW2 9516   2.764   2.352   2.200
 2873SOL     OW 9517   1.011   6.010   0.980
 2873SOL    HW1 9518   1.074   6.063   0.924
 2873SOL    HW2 9519   1.032   5.913   0.969
 2874SOL     OW 9520   2.513   0.744   2.685
 2874SOL    HW1 9521   2.602   0.757   2.727
 2874SOL    HW2 9522   2.517   0.769   2.588
 2875SOL     OW 9523   3.039   6.735   2.870
 2875SOL    HW1 9524   2.941   6.724   2.883
 2875SOL    HW2 9525   3.083   6.751   2.959
 2876SOL     OW 9526   1.466   6.395   1.806
 2876SOL    HW1 9527   1.505   6.338   1.878
 2876SOL    HW2 9528   1.406   6.339   1.749
 2877SOL     OW 9529   1.002   1.806   6.196
 2877SOL    HW1 9530   1.073   1.804   6.267
 2877SOL    HW2 9531   0.913   1.824   6.239
 2878SOL     OW 9532   3.885   3.497   4.235
 2878SOL    HW1 9533   3.900   3.571   4.301
 2878SOL    HW2 9534   3.844   3.534   4.152
 2879SOL     OW 9535   4.223   3.902   0.427
 2879SOL    HW1 9536   4.229   3.983   0.368
 2879SOL    HW2 9537   4.310   3.852   0.424
 2880SOL     OW 9538   1.772   1.551   4.449
 2880SOL    HW1 9539   1.796   1.457   4.426
 2880SOL    HW2 9540   1.853   1.610   4.438
 2881SOL     OW 9541   4.796   6.345   6.853
 2881SOL    HW1 9542   4.837   6.370   6.765
 2881SOL    HW2 9543   4.722   6.280   6.838
 2882SOL     OW 9544   4.642   6.427   0.424
 2882SOL    HW1 9545   4.598   6.401   0.510
 2882SOL    HW2 9546   4.644   6.348   0.362
 2883SOL     OW 9547   6.177   6.020   3.791
 2883SOL    HW1 9548   6.109   5.950   3.769
 2883SOL    HW2 9549   6.165   6.049   3.886
 2884SOL     OW 9550   6.479   4.962   3.247
 2884SOL    HW1 9551   6.501   4.996   3.156
 2884SOL    HW2 9552   6.506   4.866   3.254
 2885SOL     OW 9553   1.177   2.734   2.906
 2885SOL    HW1 9554   1.228   2.794   2.844
 2885SOL    HW2 9555   1.227   2.727   2.992
 2886SOL     OW 9556   2.035   4.886   6.331
 2886SOL    HW1 9557   2.075   4.962   6.279
 2886SOL    HW2 9558   1.937   4.882   6.315
 2887SOL     OW 9559   1.209   5.309   3.616
 2887SOL    HW1 9560   1.215   5.408   3.602
 2887SOL    HW2 9561   1.138   5.271   3.556
 2888SOL     OW 9562   6.696   6.624   0.276
 2888SOL    HW1 9563   6.686   6.709   0.328
 2888SOL    HW2 9564   6.720   6.550   0.339
 2889SOL     OW 9565   3.309   6.533   2.912
 2889SOL    HW1 9566   3.238   6.463   2.919
 2889SOL    HW2 9567   3.284   6.612   2.967
 2890SOL     OW 9568   2.692   0.533   1.502
 2890SOL    HW1 9569   2.746   0.473   1.443
 2890SOL    HW2 9570   2.603   0.551   1.460
 2891SOL     OW 9571   0.473   1.841   4.111
 2891SOL    HW1 9572   0.473   1.925   4.165
 2891SOL    HW2 9573   0.556   1.836   4.056
 2892SOL     OW 9574   0.061   4.204   2.802
 2892SOL    HW1 9575   0.009   4.159   2.728
 2892SOL    HW2 9576   0.029   4.170   2.890
 2893SOL     OW 9577   6.710   5.328   4.320
 2893SOL    HW1 9578   6.672   5.405   4.371
 2893SOL    HW2 9579   6.667   5.243   4.351
 2894SOL     OW 9580   1.588   5.528   2.584
 2894SOL    HW1 9581   1.552   5.621   2.598
 2894SOL    HW2 9582   1.550   5.467   2.653
 2895SOL     OW 9583   4.196   0.067   6.240
 2895SOL    HW1 9584   4.287   0.027   6.231
 2895SOL    HW2 9585   4.169   0.067   6.337
 2896SOL     OW 9586   5.153   6.294   4.946
 2896SOL    HW1 9587   5.163   6.215   5.007
 2896SOL    HW2 9588   5.101   6.267   4.865
 2897SOL     OW 9589   3.902   4.865   3.474
 2897SOL    HW1 9590   3.977   4.875   3.409
 2897SOL    HW2 9591   3.938   4.836   3.562
 2898SOL     OW 9592   5.423   3.562   2.690
 2898SOL    HW1 9593   5.507   3.598   2.648
 2898SOL    HW2 9594   5.448   3.493   2.759
 2899SOL     OW 9595   0.190   3.427   1.203
 2899SOL    HW1 9596   0.250   3.507   1.200
 2899SOL    HW2 9597   0.156   3.413   1.296
 2900SOL     OW 9598   2.544   3.368   6.273
 2900SOL    HW1 9599   2.532   3.452   6.325
 2900SOL    HW2 9600   2.455   3.335   6.242
 2901SOL     OW 9601   0.826   3.895   3.936
 2901SOL    HW1 9602   0.871   3.982   3.955
 2901SOL    HW2 9603   0.740   3.889   3.988
 2902SOL     OW 9604   0.447   6.109   3.564
 2902SOL    HW1 9605   0.361   6.100   3.513
 2902SOL    HW2 9606   0.426   6.123   3.660
 2903SOL     OW 9607   4.360   5.418   0.570
 2903SOL    HW1 9608   4.447   5.440   0.614
 2903SOL    HW2 9609   4.322   5.501   0.528
 2904SOL     OW 9610   2.528   4.198   5.330
 2904SOL    HW1 9611   2.624   4.216   5.352
 2904SOL    HW2 9612   2.522   4.130   5.257
 2905SOL     OW 9613   0.630   5.213   1.556
 2905SOL    HW1 9614   0.617   5.203   1.457
 2905SOL    HW2 9615   0.644   5.310   1.577
 2906SOL     OW 9616   6.149   6.075   2.498
 2906SOL    HW1 9617   6.071   6.017   2.476
 2906SOL    HW2 9618   6.230   6.040   2.452
 2907SOL     OW 9619   0.233   0.850   4.128
 2907SOL    HW1 9620   0.149   0.821   4.083
 2907SOL    HW2 9621   0.304   0.866   4.059
 2908SOL     OW 9622   4.332   6.729   2.489
 2908SOL    HW1 9623   4.257   6.783   2.527
 2908SOL    HW2 9624   4.389   6.694   2.564
 2909SOL     OW 9625   0.926   5.962   2.497
 2909SOL    HW1 9626   0.911   6.000   2.406
 2909SOL    HW2 9627   1.021   5.977   2.524
 2910SOL     OW 9628   6.900   0.670   4.339
 2910SOL    HW1 9629   6.802   0.648   4.340
 2910SOL    HW2 9630   6.929   0.689   4.433
 2911SOL     OW 9631   6.610   4.271   4.816
 2911SOL    HW1 9632   6.614   4.257   4.915
 2911SOL    HW2 9633   6.542   4.209   4.777
 2912SOL     OW 9634   0.574   0.007   1.485
 2912SOL    HW1 9635   0.618   0.079   1.538
 2912SOL    HW2 9636   0.643   6.969   1.441
 2913SOL     OW 9637   2.676   6.653   1.494
 2913SOL    HW1 9638   2.632   6.662   1.405
 2913SOL    HW2 9639   2.775   6.645   1.482
 2914SOL     OW 9640   4.669   5.414   0.589
 2914SOL    HW1 9641   4.645   5.326   0.631
 2914SOL    HW2 9642   4.717   5.470   0.656
 2915SOL     OW 9643   2.557   0.183   2.514
 2915SOL    HW1 9644   2.569   0.169   2.612
 2915SOL    HW2 9645   2.609   0.115   2.463
 2916SOL     OW 9646   1.500   5.748   0.394
 2916SOL    HW1 9647   1.477   5.844   0.411
 2916SOL    HW2 9648   1.417   5.699   0.368
 2917SOL     OW 9649   2.473   6.273   4.619
 2917SOL    HW1 9650   2.452   6.175   4.613
 2917SOL    HW2 9651   2.572   6.285   4.622
 2918SOL     OW 9652   5.627   2.857   1.881
 2918SOL    HW1 9653   5.589   2.947   1.862
 2918SOL    HW2 9654   5.559   2.802   1.930
 2919SOL     OW 9655   1.397   5.344   4.308
 2919SOL    HW1 9656   1.310   5.315   4.269
 2919SOL    HW2 9657   1.463   5.363   4.234
 2920SOL     OW 9658   1.284   2.423   2.622
 2920SOL    HW1 9659   1.211   2.438   2.688
 2920SOL    HW2 9660   1.366   2.474   2.650
 2921SOL     OW 9661   1.213   0.495   4.511
 2921SOL    HW1 9662   1.251   0.550   4.585
 2921SOL    HW2 9663   1.257   0.520   4.424
 2922SOL     OW 9664   3.566   0.148   3.548
 2922SOL    HW1 9665   3.466   0.157   3.553
 2922SOL    HW2 9666   3.590   0.054   3.524
 2923SOL     OW 9667   6.435   6.066   4.833
 2923SOL    HW1 9668   6.511   6.083   4.769
 2923SOL    HW2 9669   6.398   6.153   4.864
 2924SOL     OW 9670   5.870   2.608   5.312
 2924SOL    HW1 9671   5.771   2.599   5.323
 2924SOL    HW2 9672   5.911   2.517   5.306
 2925SOL     OW 9673   4.688   0.130   6.060
 2925SOL    HW1 9674   4.780   0.125   6.020
 2925SOL    HW2 9675   4.672   0.222   6.095
 2926SOL     OW 9676   0.038   1.921   4.240
 2926SOL    HW1 9677   0.087   1.915   4.327
 2926SOL    HW2 9678   6.962   1.945   4.257
 2927SOL     OW 9679   0.975   2.327   1.671
 2927SOL    HW1 9680   0.965   2.302   1.768
 2927SOL    HW2 9681   0.977   2.427   1.663
 2928SOL     OW 9682   6.906   3.149   0.340
 2928SOL    HW1 9683   6.967   3.083   0.295
 2928SOL    HW2 9684   6.913   3.137   0.440
 2929SOL     OW 9685   2.458   2.389   4.995
 2929SOL    HW1 9686   2.482   2.480   5.027
 2929SOL    HW2 9687   2.433   2.393   4.898
 2930SOL     OW 9688   6.639   4.572   5.090
 2930SOL    HW1 9689   6.723   4.598   5.043
 2930SOL    HW2 9690   6.564   4.567   5.023
 2931SOL     OW 9691   5.155   4.622   5.378
 2931SOL    HW1 9692   5.153   4.592   5.474
 2931SOL    HW2 9693   5.249   4.621   5.344
 2932SOL     OW 9694   6.519   5.398   0.884
 2932SOL    HW1 9695   6.504   5.496   0.899
 2932SOL    HW2 9696   6.471   5.346   0.954
 2933SOL     OW 9697   1.199   0.373   0.994
 2933SOL    HW1 9698   1.168   0.358   0.900
 2933SOL    HW2 9699   1.243   0.462   1.001
 2934SOL     OW 9700   4.222   4.816   0.380
 2934SOL    HW1 9701   4.130   4.843   0.408
 2934SOL    HW2 9702   4.248   4.865   0.297
 2935SOL     OW 9703   0.194   2.294   5.979
 2935SOL    HW1 9704   0.130   2.244   6.038
 2935SOL    HW2 9705   0.284   2.297   6.022
 2936SOL     OW 9706   4.049   6.286   0.721
 2936SOL    HW1 9707   4.127   6.276   0.659
 2936SOL    HW2 9708   4.018   6.196   0.751
 2937SOL     OW 9709   4.531   4.977   2.312
 2937SOL    HW1 9710   4.460   4.918   2.274
 2937SOL    HW2 9711   4.489   5.062   2.345
 2938SOL     OW 9712   6.181   6.092   6.937
 2938SOL    HW1 9713   6.239   6.103   7.018
 2938SOL    HW2 9714   6.238   6.083   6.856
 2939SOL     OW 9715   0.157   5.748   1.516
 2939SOL    HW1 9716   0.135   5.681   1.587
 2939SOL    HW2 9717   0.182   5.835   1.559
 2940SOL     OW 9718   4.675   6.816   3.623
 2940SOL    HW1 9719   4.736   6.873   3.679
 2940SOL    HW2 9720   4.594   6.791   3.676
 2941SOL     OW 9721   1.417   3.910   3.920
 2941SOL    HW1 9722   1.442   3.935   4.014
 2941SOL    HW2 9723   1.498   3.912   3.862
 2942SOL     OW 9724   3.656   1.657   1.501
 2942SOL    HW1 9725   3.618   1.625   1.588
 2942SOL    HW2 9726   3.641   1.755   1.492
 2943SOL     OW 9727   6.050   3.994   3.259
 2943SOL    HW1 9728   6.033   4.029   3.166
 2943SOL    HW2 9729   6.125   3.928   3.256
 2944SOL     OW 9730   1.755   5.608   3.015
 2944SOL    HW1 9731   1.772   5.539   3.085
 2944SOL    HW2 9732   1.842   5.641   2.979
 2945SOL     OW 9733   5.136   4.671   1.629
 2945SOL    HW1 9734   5.182   4.684   1.717
 2945SOL    HW2 9735   5.044   4.710   1.634
 2946SOL     OW 9736   3.152   3.818   5.869
 2946SOL    HW1 9737   3.189   3.886   5.806
 2946SOL    HW2 9738   3.053   3.812   5.857
 2947SOL     OW 9739   6.151   6.692   0.633
 2947SOL    HW1 9740   6.167   6.609   0.579
 2947SOL    HW2 9741   6.217   6.761   0.606
 2948SOL     OW 9742   6.070   4.066   1.993
 2948SOL    HW1 9743   6.093   4.017   2.077
 2948SOL    HW2 9744   5.977   4.100   1.999
 2949SOL     OW 9745   0.864   0.200   0.810
 2949SOL    HW1 9746   0.806   0.151   0.745
 2949SOL    HW2 9747   0.899   0.136   0.878
 2950SOL     OW 9748   5.500   4.493   3.104
 2950SOL    HW1 9749   5.406   4.492   3.071
 2950SOL    HW2 9750   5.536   4.586   3.102
 2951SOL     OW 9751   6.604   1.290   1.727
 2951SOL    HW1 9752   6.599   1.382   1.766
 2951SOL    HW2 9753   6.524   1.237   1.756
 2952SOL     OW 9754   5.738   1.545   3.890
 2952SOL    HW1 9755   5.653   1.494   3.902
 2952SOL    HW2 9756   5.770   1.577   3.979
 2953SOL     OW 9757   0.672   5.474   3.993
 2953SOL    HW1 9758   0.745   5.542   3.985
 2953SOL    HW2 9759   0.704   5.398   4.050
 2954SOL     OW 9760   6.824   4.537   6.175
 2954SOL    HW1 9761   6.840   4.480   6.094
 2954SOL    HW2 9762   6.881   4.619   6.169
 2955SOL     OW 9763   2.245   4.912   6.489
 2955SOL    HW1 9764   2.162   4.905   6.433
 2955SOL    HW2 9765   2.270   5.009   6.498
 2956SOL     OW 9766   6.020   4.608   3.338
 2956SOL    HW1 9767   6.057   4.563   3.257
 2956SOL    HW2 9768   6.083   4.680   3.368
 2957SOL     OW 9769   2.696   4.989   1.110
 2957SOL    HW1 9770   2.786   5.031   1.121
 2957SOL    HW2 9771   2.636   5.020   1.184
 2958SOL     OW 9772   2.317   5.404   2.115
 2958SOL    HW1 9773   2.222   5.433   2.127
 2958SOL    HW2 9774   2.377   5.467   2.164
 2959SOL     OW 9775   6.960   2.946   2.914
 2959SOL    HW1 9776   6.886   2.878   2.913
 2959SOL    HW2 9777   6.949   3.008   2.836
 2960SOL     OW 9778   4.800   0.847   0.313
 2960SOL    HW1 9779   4.832   0.918   0.250
 2960SOL    HW2 9780   4.756   0.774   0.262
 2961SOL     OW 9781   5.362   4.395   2.053
 2961SOL    HW1 9782   5.312   4.384   2.139
 2961SOL    HW2 9783   5.460   4.406   2.073
 2962SOL     OW 9784   0.212   0.055   2.822
 2962SOL    HW1 9785   0.302   0.033   2.787
 2962SOL    HW2 9786   0.148   7.001   2.800
 2963SOL     OW 9787   2.174   1.037   4.791
 2963SOL    HW1 9788   2.184   1.085   4.703
 2963SOL    HW2 9789   2.088   1.065   4.833
 2964SOL     OW 9790   1.002   1.920   6.976
 2964SOL    HW1 9791   1.002   1.998   0.020
 2964SOL    HW2 9792   1.085   1.867   6.990
 2965SOL     OW 9793   0.811   0.049   5.033
 2965SOL    HW1 9794   0.784   0.055   4.937
 2965SOL    HW2 9795   0.755   0.110   5.088
 2966SOL     OW 9796   3.377   5.853   3.056
 2966SOL    HW1 9797   3.394   5.920   2.983
 2966SOL    HW2 9798   3.368   5.900   3.143
 2967SOL     OW 9799   5.492   0.111   5.522
 2967SOL    HW1 9800   5.396   0.103   5.495
 2967SOL    HW2 9801   5.543   0.031   5.490
 2968SOL     OW 9802   1.882   2.824   1.285
 2968SOL    HW1 9803   1.965   2.771   1.271
 2968SOL    HW2 9804   1.886   2.871   1.373
 2969SOL     OW 9805   5.077   3.325   4.551
 2969SOL    HW1 9806   5.007   3.297   4.616
 2969SOL    HW2 9807   5.168   3.305   4.589
 2970SOL     OW 9808   2.347   2.332   4.421
 2970SOL    HW1 9809   2.317   2.415   4.375
 2970SOL    HW2 9810   2.268   2.279   4.451
 2971SOL     OW 9811   5.404   2.756   6.293
 2971SOL    HW1 9812   5.449   2.828   6.346
 2971SOL    HW2 9813   5.470   2.714   6.230
 2972SOL     OW 9814   5.628   5.047   0.206
 2972SOL    HW1 9815   5.620   5.005   0.116
 2972SOL    HW2 9816   5.546   5.101   0.226
 2973SOL     OW 9817   4.622   1.568   2.361
 2973SOL    HW1 9818   4.620   1.598   2.456
 2973SOL    HW2 9819   4.532   1.530   2.337
 2974SOL     OW 9820   4.812   6.286   3.209
 2974SOL    HW1 9821   4.791   6.303   3.113
 2974SOL    HW2 9822   4.760   6.208   3.242
 2975SOL     OW 9823   4.752   4.229   3.864
 2975SOL    HW1 9824   4.822   4.165   3.833
 2975SOL    HW2 9825   4.788   4.284   3.940
 2976SOL     OW 9826   4.250   2.278   2.061
 2976SOL    HW1 9827   4.210   2.367   2.080
 2976SOL    HW2 9828   4.315   2.286   1.985
 2977SOL     OW 9829   1.228   0.924   1.331
 2977SOL    HW1 9830   1.297   0.869   1.285
 2977SOL    HW2 9831   1.139   0.878   1.325
 2978SOL     OW 9832   4.413   5.109   6.315
 2978SOL    HW1 9833   4.503   5.066   6.321
 2978SOL    HW2 9834   4.362   5.092   6.400
 2979SOL     OW 9835   3.155   0.680   4.121
 2979SOL    HW1 9836   3.192   0.665   4.213
 2979SOL    HW2 9837   3.208   0.627   4.055
 2980SOL     OW 9838   3.757   3.342   5.729
 2980SOL    HW1 9839   3.687   3.298   5.672
 2980SOL    HW2 9840   3.731   3.333   5.825
 2981SOL     OW 9841   1.413   0.881   1.048
 2981SOL    HW1 9842   1.387   0.948   0.979
 2981SOL    HW2 9843   1.490   0.916   1.101
 2982SOL     OW 9844   0.060   0.187   1.403
 2982SOL    HW1 9845   0.146   0.148   1.371
 2982SOL    HW2 9846   0.032   0.141   1.487
 2983SOL     OW 9847   6.234   3.143   5.633
 2983SOL    HW1 9848   6.274   3.062   5.591
 2983SOL    HW2 9849   6.215   3.125   5.730
 2984SOL     OW 9850   0.653   4.837   0.878
 2984SOL    HW1 9851   0.579   4.778   0.911
 2984SOL    HW2 9852   0.639   4.855   0.780
 2985SOL     OW 9853   0.046   6.742   5.267
 2985SOL    HW1 9854   0.114   6.769   5.199
 2985SOL    HW2 9855   0.048   6.806   5.343
 2986SOL     OW 9856   4.029   3.749   2.367
 2986SOL    HW1 9857   4.077   3.763   2.454
 2986SOL    HW2 9858   3.935   3.720   2.386
 2987SOL     OW 9859   1.905   0.470   4.618
 2987SOL    HW1 9860   1.933   0.431   4.530
 2987SOL    HW2 9861   1.808   0.494   4.614
 2988SOL     OW 9862   0.039   1.405   6.629
 2988SOL    HW1 9863   0.135   1.425   6.647
 2988SOL    HW2 9864   0.006   1.461   6.553
 2989SOL     OW 9865   5.244   3.795   4.122
 2989SOL    HW1 9866   5.195   3.742   4.053
 2989SOL    HW2 9867   5.212   3.890   4.121
 2990SOL     OW 9868   5.376   1.224   4.382
 2990SOL    HW1 9869   5.312   1.294   4.350
 2990SOL    HW2 9870   5.449   1.212   4.315
 2991SOL     OW 9871   6.838   4.281   1.234
 2991SOL    HW1 9872   6.752   4.331   1.222
 2991SOL    HW2 9873   6.850   4.256   1.330
 2992SOL     OW 9874   0.382   3.504   5.305
 2992SOL    HW1 9875   0.343   3.483   5.395
 2992SOL    HW2 9876   0.471   3.548   5.317
 2993SOL     OW 9877   1.110   4.310   0.326
 2993SOL    HW1 9878   1.032   4.349   0.279
 2993SOL    HW2 9879   1.087   4.294   0.422
 2994SOL     OW 9880   4.498   6.456   6.342
 2994SOL    HW1 9881   4.448   6.490   6.421
 2994SOL    HW2 9882   4.474   6.360   6.326
 2995SOL     OW 9883   5.447   0.446   1.376
 2995SOL    HW1 9884   5.475   0.521   1.435
 2995SOL    HW2 9885   5.524   0.384   1.361
 2996SOL     OW 9886   0.023   1.081   4.688
 2996SOL    HW1 9887   6.950   1.092   4.726
 2996SOL    HW2 9888   0.050   1.165   4.642
 2997SOL     OW 9889   4.957   0.226   3.660
 2997SOL    HW1 9890   4.902   0.193   3.584
 2997SOL    HW2 9891   5.053   0.200   3.646
 2998SOL     OW 9892   2.517   1.612   2.806
 2998SOL    HW1 9893   2.449   1.664   2.858
 2998SOL    HW2 9894   2.539   1.661   2.722
 2999SOL     OW 9895   2.241   4.516   0.631
 2999SOL    HW1 9896   2.200   4.572   0.704
 2999SOL    HW2 9897   2.286   4.436   0.672
 3000SOL     OW 9898   2.956   3.738   4.629
 3000SOL    HW1 9899   2.931   3.645   4.656
 3000SOL    HW2 9900   3.055   3.743   4.618
 3001SOL     OW 9901   5.773   0.570   5.912
 3001SOL    HW1 9902   5.815   0.661   5.913
 3001SOL    HW2 9903   5.758   0.541   5.817
 3002SOL     OW 9904   2.058   1.859   1.647
 3002SOL    HW1 9905   2.078   1.863   1.745
 3002SOL    HW2 9906   2.144   1.854   1.596
 3003SOL     OW 9907   1.725   6.487   0.393
 3003SOL    HW1 9908   1.770   6.482   0.304
 3003SOL    HW2 9909   1.637   6.441   0.390
 3004SOL     OW 9910   2.160   6.585   3.843
 3004SOL    HW1 9911   2.118   6.642   3.773
 3004SOL    HW2 9912   2.241   6.631   3.880
 3005SOL     OW 9913   0.885   2.062   5.851
 3005SOL    HW1 9914   0.884   2.017   5.762
 3005SOL    HW2 9915   0.792   2.066   5.888
 3006SOL     OW 9916   4.958   1.538   5.643
 3006SOL    HW1 9917   4.952   1.442   5.614
 3006SOL    HW2 9918   4.956   1.597   5.563
 3007SOL     OW 9919   5.535   5.312   6.968
 3007SOL    HW1 9920   5.475   5.371   6.914
 3007SOL    HW2 9921   5.488   5.285   0.033
 3008SOL     OW 9922   5.184   2.820   5.860
 3008SOL    HW1 9923   5.236   2.735   5.872
 3008SOL    HW2 9924   5.094   2.800   5.824
 3009SOL     OW 9925   6.993   3.410   2.370
 3009SOL    HW1 9926   0.045   3.469   2.408
 3009SOL    HW2 9927   0.002   3.380   2.279
 3010SOL     OW 9928   3.716   6.024   6.923
 3010SOL    HW1 9929   3.663   5.953   6.876
 3010SOL    HW2 9930   3.755   6.087   6.856
 3011SOL     OW 9931   6.731   6.969   1.139
 3011SOL    HW1 9932   6.820   7.002   1.107
 3011SOL    HW2 9933   6.664   6.976   1.065
 3012SOL     OW 9934   2.272   2.443   5.564
 3012SOL    HW1 9935   2.257   2.494   5.649
 3012SOL    HW2 9936   2.369   2.418   5.557
 3013SOL     OW 9937   0.737   4.497   5.320
 3013SOL    HW1 9938   0.657   4.525   5.372
 3013SOL    HW2 9939   0.709   4.468   5.228
 3014SOL     OW 9940   4.885   6.914   5.821
 3014SOL    HW1 9941   4.800   6.932   5.771
 3014SOL    HW2 9942   4.922   7.000   5.856
 3015SOL     OW 9943   1.243   1.037   0.171
 3015SOL    HW1 9944   1.197   0.949   0.157
 3015SOL    HW2 9945   1.289   1.037   0.260
 3016SOL     OW 9946   1.630   6.548   4.262
 3016SOL    HW1 9947   1.729   6.538   4.268
 3016SOL    HW2 9948   1.586   6.480   4.321
 3017SOL     OW 9949   0.424   5.249   0.710
 3017SOL    HW1 9950   0.355   5.267   0.780
 3017SOL    HW2 9951   0.381   5.205   0.631
 3018SOL     OW 9952   3.369   6.890   0.606
 3018SOL    HW1 9953   3.371   6.812   0.544
 3018SOL    HW2 9954   3.462   6.912   0.636
 3019SOL     OW 9955   1.882   0.668   5.496
 3019SOL    HW1 9956   1.854   0.752   5.451
 3019SOL    HW2 9957   1.907   0.687   5.591
 3020SOL     OW 9958   6.168   3.797   0.107
 3020SOL    HW1 9959   6.232   3.753   0.044
 3020SOL    HW2 9960   6.209   3.879   0.145
 3021SOL     OW 9961   4.420   6.942   4.798
 3021SOL    HW1 9962   4.451   6.854   4.760
 3021SOL    HW2 9963   4.468   7.016   4.752
 3022SOL     OW 9964   3.779   5.824   3.796
 3022SOL    HW1 9965   3.725   5.758   3.745
 3022SOL    HW2 9966   3.801   5.787   3.887
 3023SOL     OW 9967   5.161   6.301   2.906
 3023SOL    HW1 9968   5.126   6.388   2.872
 3023SOL    HW2 9969   5.143   6.294   3.005
 3024SOL     OW 9970   7.002   6.744   6.739
 3024SOL    HW1 9971   7.005   6.737   6.839
 3024SOL    HW2 9972   0.028   6.828   6.710
 3025SOL     OW 9973   3.111   5.772   0.404
 3025SOL    HW1 9974   3.043   5.699   0.407
 3025SOL    HW2 9975   3.111   5.821   0.491
 3026SOL     OW 9976   6.728   0.990   1.137
 3026SOL    HW1 9977   6.821   0.955   1.128
 3026SOL    HW2 9978   6.665   0.912   1.150
 3027SOL     OW 9979   4.807   1.338   1.371
 3027SOL    HW1 9980   4.898   1.308   1.342
 3027SOL    HW2 9981   4.739   1.308   1.304
 3028SOL     OW 9982   3.246   3.935   5.640
 3028SOL    HW1 9983   3.321   3.883   5.599
 3028SOL    HW2 9984   3.237   4.023   5.593
 3029SOL     OW 9985   0.429   2.937   4.527
 3029SOL    HW1 9986   0.364   2.864   4.545
 3029SOL    HW2 9987   0.522   2.900   4.528
 3030SOL     OW 9988   2.726   2.947   1.018
 3030SOL    HW1 9989   2.810   2.931   0.966
 3030SOL    HW2 9990   2.732   3.036   1.063
 3031SOL     OW 9991   1.164   6.538   0.994
 3031SOL    HW1 9992   1.186   6.556   1.090
 3031SOL    HW2 9993   1.218   6.597   0.935
 3032SOL     OW 9994   1.906   0.513   2.931
 3032SOL    HW1 9995   1.874   0.418   2.923
 3032SOL    HW2 9996   1.873   0.566   2.853
 3033SOL     OW 9997   6.670   2.171   4.474
 3033SOL    HW1 9998   6.587   2.220   4.445
 3033SOL    HW2 9999   6.734   2.236   4.514
 3034SOL     OW10000   6.778   5.604   3.148
 3034SOL    HW110001   6.700   5.569   3.096
 3034SOL    HW210002   6.833   5.664   3.089
 3035SOL     OW10003   1.410   2.914   0.024
 3035SOL    HW110004   1.391   2.916   6.945
 3035SOL    HW210005   1.475   2.987   0.047
 3036SOL     OW10006   3.015   2.304   6.674
 3036SOL    HW110007   3.040   2.352   6.758
 3036SOL    HW210008   3.027   2.206   6.688
 3037SOL     OW10009   6.998   5.494   0.130
 3037SOL    HW110010   0.063   5.505   0.078
 3037SOL    HW210011   6.961   5.403   0.116
 3038SOL     OW10012   5.858   4.634   6.736
 3038SOL    HW110013   5.878   4.700   6.665
 3038SOL    HW210014   5.806   4.678   6.810
 3039SOL     OW10015   7.011   4.060   6.711
 3039SOL    HW110016   0.061   3.997   6.747
 3039SOL    HW210017   6.964   4.105   6.787
 3040SOL     OW10018   5.176   4.152   5.727
 3040SOL    HW110019   5.253   4.111   5.777
 3040SOL    HW210020   5.153   4.240   5.767
 3041SOL     OW10021   1.925   4.265   5.229
 3041SOL    HW110022   1.885   4.285   5.140
 3041SOL    HW210023   1.870   4.196   5.276
 3042SOL     OW10024   6.840   5.337   3.131
 3042SOL    HW110025   6.816   5.434   3.123
 3042SOL    HW210026   6.845   5.297   3.040
 3043SOL     OW10027   2.764   4.746   0.538
 3043SOL    HW110028   2.826   4.771   0.612
 3043SOL    HW210029   2.787   4.799   0.456
 3044SOL     OW10030   3.579   3.646   5.054
 3044SOL    HW110031   3.647   3.631   5.125
 3044SOL    HW210032   3.611   3.607   4.968
 3045SOL     OW10033   4.491   1.916   1.845
 3045SOL    HW110034   4.552   1.965   1.907
 3045SOL    HW210035   4.413   1.879   1.896
 3046SOL     OW10036   5.411   6.069   1.085
 3046SOL    HW110037   5.432   6.100   0.993
 3046SOL    HW210038   5.467   6.120   1.151
 3047SOL     OW10039   5.889   1.227   5.445
 3047SOL    HW110040   5.989   1.234   5.447
 3047SOL    HW210041   5.857   1.179   5.527
 3048SOL     OW10042   3.458   4.256   0.817
 3048SOL    HW110043   3.530   4.244   0.749
 3048SOL    HW210044   3.402   4.173   0.821
 3049SOL     OW10045   1.641   0.896   4.001
 3049SOL    HW110046   1.589   0.868   3.920
 3049SOL    HW210047   1.604   0.850   4.081
 3050SOL     OW10048   3.066   2.182   1.297
 3050SOL    HW110049   2.967   2.200   1.294
 3050SOL    HW210050   3.082   2.084   1.288
 3051SOL     OW10051   2.270   5.038   5.565
 3051SOL    HW110052   2.249   5.096   5.486
 3051SOL    HW210053   2.352   4.984   5.545
 3052SOL     OW10054   6.692   6.705   2.150
 3052SOL    HW110055   6.687   6.650   2.066
 3052SOL    HW210056   6.599   6.723   2.183
 3053SOL     OW10057   1.366   4.249   6.890
 3053SOL    HW110058   1.322   4.205   6.968
 3053SOL    HW210059   1.385   4.180   6.819
 3054SOL     OW10060   5.649   1.190   2.550
 3054SOL    HW110061   5.686   1.142   2.629
 3054SOL    HW210062   5.568   1.241   2.577
 3055SOL     OW10063   5.803   6.168   6.793
 3055SOL    HW110064   5.878   6.231   6.772
 3055SOL    HW210065   5.807   6.142   6.889
 3056SOL     OW10066   4.681   1.546   5.709
 3056SOL    HW110067   4.760   1.593   5.670
 3056SOL    HW210068   4.684   1.449   5.685
 3057SOL     OW10069   5.622   4.867   3.500
 3057SOL    HW110070   5.600   4.963   3.516
 3057SOL    HW210071   5.538   4.814   3.491
 3058SOL     OW10072   0.469   4.439   6.816
 3058SOL    HW110073   0.546   4.387   6.779
 3058SOL    HW210074   0.499   4.487   6.899
 3059SOL     OW10075   1.856   1.982   4.145
 3059SOL    HW110076   1.756   1.988   4.149
 3059SOL    HW210077   1.891   2.048   4.079
 3060SOL     OW10078   5.334   5.197   5.150
 3060SOL    HW110079   5.346   5.109   5.105
 3060SOL    HW210080   5.423   5.241   5.161
 3061SOL     OW10081   5.419   5.916   5.184
 3061SOL    HW110082   5.351   5.854   5.223
 3061SOL    HW210083   5.502   5.914   5.240
 3062SOL     OW10084   4.557   4.673   1.516
 3062SOL    HW110085   4.553   4.579   1.551
 3062SOL    HW210086   4.528   4.736   1.587
 3063SOL     OW10087   0.297   4.477   1.690
 3063SOL    HW110088   0.274   4.385   1.657
 3063SOL    HW210089   0.350   4.525   1.620
 3064SOL     OW10090   4.662   1.833   6.468
 3064SOL    HW110091   4.700   1.782   6.545
 3064SOL    HW210092   4.668   1.777   6.385
 3065SOL     OW10093   6.994   0.959   6.574
 3065SOL    HW110094   0.059   0.942   6.522
 3065SOL    HW210095   6.923   0.991   6.513
 3066SOL     OW10096   5.177   6.239   5.857
 3066SOL    HW110097   5.213   6.239   5.950
 3066SOL    HW210098   5.251   6.222   5.793
 3067SOL     OW10099   1.552   1.999   6.131
 3067SOL    HW110100   1.491   2.078   6.128
 3067SOL    HW210101   1.514   1.925   6.076
 3068SOL     OW10102   0.812   0.947   0.656
 3068SOL    HW110103   0.749   0.881   0.696
 3068SOL    HW210104   0.876   0.899   0.595
 3069SOL     OW10105   5.393   0.146   2.635
 3069SOL    HW110106   5.482   0.191   2.634
 3069SOL    HW210107   5.321   0.213   2.616
 3070SOL     OW10108   2.290   0.525   1.223
 3070SOL    HW110109   2.295   0.487   1.130
 3070SOL    HW210110   2.205   0.496   1.266
 3071SOL     OW10111   6.955   3.963   4.567
 3071SOL    HW110112   6.986   3.912   4.647
 3071SOL    HW210113   6.926   4.054   4.595
 3072SOL     OW10114   2.108   0.024   6.441
 3072SOL    HW110115   2.059   0.012   6.355
 3072SOL    HW210116   2.185   6.979   6.444
 3073SOL     OW10117   6.147   5.105   0.924
 3073SOL    HW110118   6.217   5.033   0.924
 3073SOL    HW210119   6.060   5.066   0.895
 3074SOL     OW10120   1.663   3.111   1.637
 3074SOL    HW110121   1.596   3.041   1.663
 3074SOL    HW210122   1.685   3.167   1.717
 3075SOL     OW10123   3.627   5.689   2.160
 3075SOL    HW110124   3.570   5.771   2.160
 3075SOL    HW210125   3.574   5.612   2.124
 3076SOL     OW10126   0.602   0.616   5.347
 3076SOL    HW110127   0.631   0.703   5.307
 3076SOL    HW210128   0.613   0.620   5.446
 3077SOL     OW10129   6.752   4.033   2.882
 3077SOL    HW110130   6.792   4.074   2.964
 3077SOL    HW210131   6.668   3.985   2.907
 3078SOL     OW10132   6.488   2.946   1.920
 3078SOL    HW110133   6.449   2.959   2.011
 3078SOL    HW210134   6.586   2.929   1.927
 3079SOL     OW10135   1.893   3.387   5.459
 3079SOL    HW110136   1.920   3.359   5.367
 3079SOL    HW210137   1.972   3.428   5.505
 3080SOL     OW10138   4.341   4.954   0.619
 3080SOL    HW110139   4.357   4.916   0.710
 3080SOL    HW210140   4.309   4.882   0.558
 3081SOL     OW10141   1.540   3.826   0.206
 3081SOL    HW110142   1.564   3.743   0.156
 3081SOL    HW210143   1.440   3.839   0.203
 3082SOL     OW10144   4.702   5.023   4.620
 3082SOL    HW110145   4.736   5.028   4.525
 3082SOL    HW210146   4.603   5.036   4.620
 3083SOL     OW10147   3.326   5.838   1.683
 3083SOL    HW110148   3.379   5.804   1.605
 3083SOL    HW210149   3.335   5.937   1.690
 3084SOL     OW10150   0.382   3.483   4.332
 3084SOL    HW110151   0.446   3.444   4.267
 3084SOL    HW210152   0.289   3.454   4.310
 3085SOL     OW10153   5.258   4.326   0.500
 3085SOL    HW110154   5.277   4.257   0.430
 3085SOL    HW210155   5.324   4.318   0.574
 3086SOL     OW10156   6.126   6.647   6.658
 3086SOL    HW110157   6.165   6.735   6.633
 3086SOL    HW210158   6.198   6.577   6.657
 3087SOL     OW10159   2.923   6.862   2.089
 3087SOL    HW110160   2.954   6.953   2.116
 3087SOL    HW210161   2.886   6.866   1.996
 3088SOL     OW10162   1.416   2.686   5.781
 3088SOL    HW110163   1.329   2.693   5.733
 3088SOL    HW210164   1.461   2.775   5.782
 3089SOL     OW10165   4.251   6.453   5.102
 3089SOL    HW110166   4.176   6.463   5.037
 3089SOL    HW210167   4.324   6.516   5.078
 3090SOL     OW10168   1.452   2.050   2.476
 3090SOL    HW110169   1.510   2.131   2.485
 3090SOL    HW210170   1.435   2.032   2.379
 3091SOL     OW10171   1.135   2.019   1.282
 3091SOL    HW110172   1.082   2.045   1.363
 3091SOL    HW210173   1.226   2.060   1.286
 3092SOL     OW10174   6.592   1.114   2.495
 3092SOL    HW110175   6.634   1.179   2.432
 3092SOL    HW210176   6.534   1.050   2.444
 3093SOL     OW10177   5.651   5.071   6.904
 3093SOL    HW110178   5.566   5.023   6.886
 3093SOL    HW210179   5.632   5.163   6.937
 3094SOL     OW10180   2.713   1.825   6.215
 3094SOL    HW110181   2.721   1.837   6.116
 3094SOL    HW210182   2.725   1.913   6.260
 3095SOL     OW10183   1.754   3.493   5.084
 3095SOL    HW110184   1.806   3.415   5.120
 3095SOL    HW210185   1.791   3.578   5.122
 3096SOL     OW10186   0.618   3.889   4.650
 3096SOL    HW110187   0.663   3.917   4.566
 3096SOL    HW210188   0.646   3.796   4.674
 3097SOL     OW10189   5.241   2.481   5.417
 3097SOL    HW110190   5.203   2.565   5.455
 3097SOL    HW210191   5.174   2.440   5.355
 3098SOL     OW10192   2.095   2.734   1.901
 3098SOL    HW110193   2.158   2.676   1.849
 3098SOL    HW210194   2.010   2.683   1.919
 3099SOL     OW10195   0.828   5.952   4.783
 3099SOL    HW110196   0.769   6.028   4.755
 3099SOL    HW210197   0.771   5.872   4.805
 3100SOL     OW10198   6.356   5.466   2.300
 3100SOL    HW110199   6.374   5.371   2.274
 3100SOL    HW210200   6.435   5.504   2.347
 3101SOL     OW10201   3.645   6.396   5.521
 3101SOL    HW110202   3.595   6.408   5.435
 3101SOL    HW210203   3.584   6.412   5.598
 3102SOL     OW10204   0.244   4.914   0.766
 3102SOL    HW110205   0.276   4.889   0.674
 3102SOL    HW210206   0.198   5.003   0.762
 3103SOL     OW10207   3.463   0.793   1.140
 3103SOL    HW110208   3.363   0.790   1.143
 3103SOL    HW210209   3.500   0.775   1.231
 3104SOL     OW10210   4.584   0.772   5.702
 3104SOL    HW110211   4.546   0.706   5.636
 3104SOL    HW210212   4.516   0.794   5.771
 3105SOL     OW10213   6.304   3.905   0.481
 3105SOL    HW110214   6.283   3.823   0.534
 3105SOL    HW210215   6.377   3.884   0.415
 3106SOL     OW10216   6.267   0.125   5.754
 3106SOL    HW110217   6.259   0.163   5.662
 3106SOL    HW210218   6.222   0.035   5.756
 3107SOL     OW10219   3.845   1.393   6.060
 3107SOL    HW110220   3.817   1.485   6.034
 3107SOL    HW210221   3.797   1.366   6.144
 3108SOL     OW10222   2.230   4.137   3.714
 3108SOL    HW110223   2.322   4.169   3.738
 3108SOL    HW210224   2.163   4.176   3.777
 3109SOL     OW10225   6.327   5.810   4.002
 3109SOL    HW110226   6.348   5.902   3.970
 3109SOL    HW210227   6.230   5.805   4.027
 3110SOL     OW10228   0.954   4.329   3.030
 3110SOL    HW110229   0.913   4.333   3.121
 3110SOL    HW210230   0.892   4.282   2.967
 3111SOL     OW10231   5.704   4.729   4.197
 3111SOL    HW110232   5.684   4.817   4.155
 3111SOL    HW210233   5.621   4.674   4.200
 3112SOL     OW10234   3.783   1.939   6.584
 3112SOL    HW110235   3.706   1.894   6.629
 3112SOL    HW210236   3.855   1.873   6.566
 3113SOL     OW10237   2.573   5.784   3.307
 3113SOL    HW110238   2.609   5.691   3.298
 3113SOL    HW210239   2.571   5.811   3.403
 3114SOL     OW10240   4.703   0.886   6.289
 3114SOL    HW110241   4.608   0.911   6.272
 3114SOL    HW210242   4.764   0.957   6.254
 3115SOL     OW10243   4.966   5.514   4.990
 3115SOL    HW110244   5.026   5.434   4.990
 3115SOL    HW210245   4.883   5.492   4.938
 3116SOL     OW10246   0.834   1.321   1.139
 3116SOL    HW110247   0.743   1.333   1.179
 3116SOL    HW210248   0.882   1.409   1.142
 3117SOL     OW10249   4.996   1.311   5.837
 3117SOL    HW110250   4.910   1.324   5.788
 3117SOL    HW210251   5.060   1.383   5.812
 3118SOL     OW10252   1.560   0.615   3.662
 3118SOL    HW110253   1.532   0.698   3.613
 3118SOL    HW210254   1.539   0.535   3.605
 3119SOL     OW10255   4.183   4.650   5.729
 3119SOL    HW110256   4.235   4.730   5.760
 3119SOL    HW210257   4.095   4.647   5.776
 3120SOL     OW10258   1.493   6.150   5.124
 3120SOL    HW110259   1.569   6.185   5.069
 3120SOL    HW210260   1.407   6.184   5.087
 3121SOL     OW10261   4.657   1.216   4.402
 3121SOL    HW110262   4.623   1.308   4.424
 3121SOL    HW210263   4.679   1.168   4.487
 3122SOL     OW10264   4.138   5.499   4.301
 3122SOL    HW110265   4.179   5.486   4.392
 3122SOL    HW210266   4.173   5.584   4.261
 3123SOL     OW10267   1.910   1.572   3.570
 3123SOL    HW110268   1.880   1.496   3.628
 3123SOL    HW210269   2.005   1.596   3.592
 3124SOL     OW10270   5.118   6.958   3.765
 3124SOL    HW110271   5.186   6.934   3.696
 3124SOL    HW210272   5.028   6.962   3.722
 3125SOL     OW10273   1.527   1.588   5.479
 3125SOL    HW110274   1.454   1.539   5.528
 3125SOL    HW210275   1.606   1.528   5.469
 3126SOL     OW10276   5.673   5.562   5.064
 3126SOL    HW110277   5.636   5.557   4.972
 3126SOL    HW210278   5.732   5.643   5.072
 3127SOL     OW10279   0.406   1.083   5.164
 3127SOL    HW110280   0.437   1.174   5.193
 3127SOL    HW210281   0.335   1.050   5.226
 3128SOL     OW10282   4.417   0.611   0.239
 3128SOL    HW110283   4.364   0.583   0.159
 3128SOL    HW210284   4.374   0.574   0.321
 3129SOL     OW10285   4.405   3.567   0.348
 3129SOL    HW110286   4.416   3.666   0.342
 3129SOL    HW210287   4.393   3.541   0.444
 3130SOL     OW10288   1.100   4.421   2.071
 3130SOL    HW110289   1.128   4.397   2.164
 3130SOL    HW210290   1.006   4.389   2.055
 3131SOL     OW10291   6.816   4.511   3.053
 3131SOL    HW110292   6.767   4.525   2.967
 3131SOL    HW210293   6.751   4.500   3.127
 3132SOL     OW10294   4.266   4.874   6.931
 3132SOL    HW110295   4.286   4.780   6.958
 3132SOL    HW210296   4.192   4.873   6.863
 3133SOL     OW10297   3.787   0.575   4.439
 3133SOL    HW110298   3.823   0.668   4.430
 3133SOL    HW210299   3.690   0.575   4.416
 3134SOL     OW10300   4.468   5.449   2.931
 3134SOL    HW110301   4.394   5.514   2.918
 3134SOL    HW210302   4.491   5.405   2.844
 3135SOL     OW10303   4.861   6.157   6.386
 3135SOL    HW110304   4.809   6.094   6.444
 3135SOL    HW210305   4.842   6.137   6.290
 3136SOL     OW10306   6.106   1.982   2.807
 3136SOL    HW110307   6.146   1.928   2.733
 3136SOL    HW210308   6.144   2.074   2.806
 3137SOL     OW10309   6.065   0.061   6.822
 3137SOL    HW110310   6.056   0.050   6.723
 3137SOL    HW210311   6.157   0.032   6.851
 3138SOL     OW10312   5.583   5.756   3.812
 3138SOL    HW110313   5.622   5.685   3.870
 3138SOL    HW210314   5.611   5.846   3.845
 3139SOL     OW10315   2.371   4.851   1.500
 3139SOL    HW110316   2.426   4.769   1.485
 3139SOL    HW210317   2.318   4.840   1.584
 3140SOL     OW10318   6.895   0.203   6.191
 3140SOL    HW110319   6.895   0.156   6.103
 3140SOL    HW210320   6.803   0.204   6.229
 3141SOL     OW10321   6.525   2.653   5.924
 3141SOL    HW110322   6.500   2.583   5.990
 3141SOL    HW210323   6.594   2.714   5.963
 3142SOL     OW10324   5.050   1.342   2.588
 3142SOL    HW110325   5.078   1.432   2.555
 3142SOL    HW210326   4.977   1.352   2.656
 3143SOL     OW10327   6.623   0.900   0.766
 3143SOL    HW110328   6.537   0.869   0.805
 3143SOL    HW210329   6.606   0.947   0.679
 3144SOL     OW10330   4.134   3.584   6.197
 3144SOL    HW110331   4.133   3.683   6.184
 3144SOL    HW210332   4.145   3.563   6.295
 3145SOL     OW10333   0.746   6.036   1.090
 3145SOL    HW110334   0.733   5.941   1.119
 3145SOL    HW210335   0.835   6.045   1.046
 3146SOL     OW10336   0.578   0.219   5.100
 3146SOL    HW110337   0.495   0.183   5.142
 3146SOL    HW210338   0.560   0.243   5.005
 3147SOL     OW10339   3.984   5.057   6.952
 3147SOL    HW110340   3.974   5.053   0.032
 3147SOL    HW210341   3.969   4.965   6.913
 3148SOL     OW10342   6.751   5.111   2.626
 3148SOL    HW110343   6.667   5.158   2.653
 3148SOL    HW210344   6.828   5.175   2.629
 3149SOL     OW10345   3.159   1.081   0.658
 3149SOL    HW110346   3.100   1.045   0.730
 3149SOL    HW210347   3.232   1.016   0.640
 3150SOL     OW10348   6.647   5.801   4.782
 3150SOL    HW110349   6.714   5.759   4.721
 3150SOL    HW210350   6.639   5.898   4.762
 3151SOL     OW10351   6.264   1.643   5.651
 3151SOL    HW110352   6.326   1.645   5.573
 3151SOL    HW210353   6.177   1.602   5.623
 3152SOL     OW10354   0.956   2.989   6.009
 3152SOL    HW110355   1.018   2.940   6.071
 3152SOL    HW210356   0.894   3.046   6.062
 3153SOL     OW10357   6.356   5.268   1.070
 3153SOL    HW110358   6.259   5.248   1.051
 3153SOL    HW210359   6.403   5.184   1.094
 3154SOL     OW10360   4.912   1.860   0.165
 3154SOL    HW110361   4.896   1.945   0.115
 3154SOL    HW210362   5.008   1.854   0.192
 3155SOL     OW10363   0.328   5.215   1.127
 3155SOL    HW110364   0.349   5.126   1.087
 3155SOL    HW210365   0.282   5.202   1.214
 3156SOL     OW10366   3.669   4.226   1.892
 3156SOL    HW110367   3.703   4.303   1.838
 3156SOL    HW210368   3.746   4.180   1.936
 3157SOL     OW10369   1.037   1.805   5.419
 3157SOL    HW110370   1.101   1.774   5.348
 3157SOL    HW210371   1.004   1.727   5.471
 3158SOL     OW10372   2.138   1.095   5.973
 3158SOL    HW110373   2.116   0.998   5.962
 3158SOL    HW210374   2.200   1.124   5.900
 3159SOL     OW10375   6.333   6.855   0.429
 3159SOL    HW110376   6.417   6.892   0.389
 3159SOL    HW210377   6.298   6.781   0.371
 3160SOL     OW10378   1.690   0.660   6.536
 3160SOL    HW110379   1.779   0.619   6.516
 3160SOL    HW210380   1.653   0.701   6.453
 3161SOL     OW10381   2.174   2.592   2.860
 3161SOL    HW110382   2.087   2.577   2.906
 3161SOL    HW210383   2.206   2.505   2.821
 3162SOL     OW10384   1.613   5.462   0.749
 3162SOL    HW110385   1.622   5.433   0.844
 3162SOL    HW210386   1.703   5.468   0.707
 3163SOL     OW10387   3.971   3.875   0.327
 3163SOL    HW110388   3.921   3.961   0.312
 3163SOL    HW210389   4.060   3.895   0.367
 3164SOL     OW10390   2.956   5.870   3.155
 3164SOL    HW110391   2.922   5.791   3.204
 3164SOL    HW210392   2.963   5.948   3.217
 3165SOL     OW10393   0.859   6.571   0.002
 3165SOL    HW110394   0.834   6.515   0.081
 3165SOL    HW210395   0.899   6.513   6.950
 3166SOL     OW10396   4.119   0.842   5.304
 3166SOL    HW110397   4.181   0.823   5.380
 3166SOL    HW210398   4.025   0.831   5.333
 3167SOL     OW10399   5.155   3.521   0.443
 3167SOL    HW110400   5.106   3.555   0.523
 3167SOL    HW210401   5.137   3.423   0.431
 3168SOL     OW10402   4.930   1.681   0.821
 3168SOL    HW110403   4.901   1.763   0.869
 3168SOL    HW210404   4.961   1.705   0.729
 3169SOL     OW10405   1.759   4.209   1.799
 3169SOL    HW110406   1.749   4.122   1.847
 3169SOL    HW210407   1.672   4.234   1.756
 3170SOL     OW10408   3.244   5.283   3.600
 3170SOL    HW110409   3.252   5.256   3.696
 3170SOL    HW210410   3.333   5.271   3.555
 3171SOL     OW10411   5.165   2.828   3.228
 3171SOL    HW110412   5.093   2.763   3.205
 3171SOL    HW210413   5.154   2.911   3.174
 3172SOL     OW10414   0.380   4.661   1.200
 3172SOL    HW110415   0.302   4.723   1.212
 3172SOL    HW210416   0.424   4.646   1.289
 3173SOL     OW10417   3.829   2.252   0.434
 3173SOL    HW110418   3.877   2.174   0.475
 3173SOL    HW210419   3.808   2.232   0.339
 3174SOL     OW10420   2.771   3.757   5.491
 3174SOL    HW110421   2.736   3.809   5.414
 3174SOL    HW210422   2.870   3.745   5.481
 3175SOL     OW10423   7.010   0.400   4.355
 3175SOL    HW110424   6.942   0.336   4.320
 3175SOL    HW210425   6.978   0.494   4.342
 3176SOL     OW10426   1.107   4.580   5.181
 3176SOL    HW110427   1.095   4.593   5.280
 3176SOL    HW210428   1.168   4.651   5.145
 3177SOL     OW10429   5.826   3.567   3.686
 3177SOL    HW110430   5.876   3.519   3.758
 3177SOL    HW210431   5.732   3.535   3.683
 3178SOL     OW10432   6.873   0.487   1.590
 3178SOL    HW110433   6.904   0.419   1.524
 3178SOL    HW210434   6.775   0.475   1.607
 3179SOL     OW10435   0.961   1.852   1.845
 3179SOL    HW110436   0.992   1.769   1.892
 3179SOL    HW210437   0.862   1.849   1.833
 3180SOL     OW10438   6.374   6.085   0.117
 3180SOL    HW110439   6.346   6.067   0.211
 3180SOL    HW210440   6.439   6.161   0.114
 3181SOL     OW10441   0.777   0.787   5.012
 3181SOL    HW110442   0.757   0.723   4.937
 3181SOL    HW210443   0.845   0.854   4.982
 3182SOL     OW10444   2.794   0.252   0.817
 3182SOL    HW110445   2.781   0.153   0.829
 3182SOL    HW210446   2.891   0.274   0.829
 3183SOL     OW10447   4.346   4.565   1.891
 3183SOL    HW110448   4.371   4.471   1.913
 3183SOL    HW210449   4.325   4.572   1.793
 3184SOL     OW10450   0.508   1.987   5.137
 3184SOL    HW110451   0.507   2.062   5.204
 3184SOL    HW210452   0.531   2.024   5.047
 3185SOL     OW10453   0.448   5.492   6.091
 3185SOL    HW110454   0.426   5.492   6.188
 3185SOL    HW210455   0.368   5.518   6.038
 3186SOL     OW10456   0.048   1.598   6.381
 3186SOL    HW110457   0.045   1.698   6.382
 3186SOL    HW210458   0.127   1.568   6.328
 3187SOL     OW10459   4.055   5.921   2.429
 3187SOL    HW110460   4.134   5.932   2.368
 3187SOL    HW210461   4.058   5.830   2.470
 3188SOL     OW10462   2.046   4.355   5.749
 3188SOL    HW110463   2.044   4.273   5.692
 3188SOL    HW210464   2.117   4.347   5.818
 3189SOL     OW10465   3.147   1.160   6.927
 3189SOL    HW110466   3.193   1.248   6.943
 3189SOL    HW210467   3.135   1.112   7.014
 3190SOL     OW10468   6.690   5.391   4.052
 3190SOL    HW110469   6.696   5.362   4.148
 3190SOL    HW210470   6.708   5.313   3.992
 3191SOL     OW10471   4.179   5.639   2.203
 3191SOL    HW110472   4.223   5.625   2.114
 3191SOL    HW210473   4.089   5.679   2.190
 3192SOL     OW10474   6.090   2.097   2.365
 3192SOL    HW110475   6.008   2.122   2.417
 3192SOL    HW210476   6.063   2.047   2.282
 3193SOL     OW10477   3.973   0.229   5.397
 3193SOL    HW110478   4.067   0.216   5.366
 3193SOL    HW210479   3.961   0.185   5.486
 3194SOL     OW10480   1.028   1.239   6.233
 3194SOL    HW110481   1.101   1.304   6.211
 3194SOL    HW210482   0.998   1.253   6.327
 3195SOL     OW10483   6.993   2.028   2.198
 3195SOL    HW110484   7.009   2.113   2.147
 3195SOL    HW210485   6.907   1.987   2.169
 3196SOL     OW10486   6.378   0.035   4.699
 3196SOL    HW110487   6.453   0.014   4.762
 3196SOL    HW210488   6.318   0.103   4.740
 3197SOL     OW10489   2.188   1.227   6.413
 3197SOL    HW110490   2.249   1.294   6.370
 3197SOL    HW210491   2.239   1.144   6.434
 3198SOL     OW10492   6.793   3.020   3.792
 3198SOL    HW110493   6.767   3.096   3.853
 3198SOL    HW210494   6.724   2.948   3.799
 3199SOL     OW10495   5.477   4.260   3.253
 3199SOL    HW110496   5.499   4.352   3.221
 3199SOL    HW210497   5.558   4.202   3.248
 3200SOL     OW10498   5.562   3.479   4.093
 3200SOL    HW110499   5.514   3.449   4.010
 3200SOL    HW210500   5.510   3.451   4.174
 3201SOL     OW10501   5.978   4.311   2.435
 3201SOL    HW110502   5.890   4.266   2.450
 3201SOL    HW210503   5.984   4.393   2.493
 3202SOL     OW10504   1.484   5.012   0.353
 3202SOL    HW110505   1.407   4.957   0.322
 3202SOL    HW210506   1.458   5.108   0.355
 3203SOL     OW10507   4.186   6.532   1.082
 3203SOL    HW110508   4.280   6.562   1.064
 3203SOL    HW210509   4.166   6.538   1.179
 3204SOL     OW10510   2.529   1.697   3.577
 3204SOL    HW110511   2.474   1.615   3.590
 3204SOL    HW210512   2.604   1.698   3.643
 3205SOL     OW10513   5.444   3.119   5.165
 3205SOL    HW110514   5.501   3.163   5.096
 3205SOL    HW210515   5.417   3.186   5.234
 3206SOL     OW10516   2.959   2.929   1.540
 3206SOL    HW110517   2.881   2.875   1.510
 3206SOL    HW210518   3.011   2.960   1.461
 3207SOL     OW10519   0.934   6.515   5.464
 3207SOL    HW110520   0.961   6.574   5.388
 3207SOL    HW210521   0.882   6.438   5.430
 3208SOL     OW10522   6.222   5.540   5.767
 3208SOL    HW110523   6.258   5.513   5.678
 3208SOL    HW210524   6.208   5.459   5.824
 3209SOL     OW10525   5.352   6.062   6.313
 3209SOL    HW110526   5.283   6.000   6.350
 3209SOL    HW210527   5.443   6.028   6.338
 3210SOL     OW10528   6.760   4.945   1.563
 3210SOL    HW110529   6.779   5.042   1.545
 3210SOL    HW210530   6.701   4.938   1.644
 3211SOL     OW10531   1.077   5.615   6.497
 3211SOL    HW110532   1.141   5.555   6.449
 3211SOL    HW210533   1.065   5.700   6.445
 3212SOL     OW10534   2.075   6.871   2.955
 3212SOL    HW110535   2.028   6.919   2.881
 3212SOL    HW210536   2.108   6.938   3.022
 3213SOL     OW10537   1.557   0.347   5.932
 3213SOL    HW110538   1.570   0.275   5.999
 3213SOL    HW210539   1.499   0.419   5.970
 3214SOL     OW10540   3.702   1.463   3.148
 3214SOL    HW110541   3.654   1.404   3.083
 3214SOL    HW210542   3.770   1.517   3.099
 3215SOL     OW10543   1.914   2.620   0.728
 3215SOL    HW110544   1.893   2.699   0.786
 3215SOL    HW210545   2.013   2.613   0.716
 3216SOL     OW10546   5.443   4.246   0.705
 3216SOL    HW110547   5.441   4.305   0.786
 3216SOL    HW210548   5.432   4.151   0.732
 3217SOL     OW10549   0.979   5.202   2.898
 3217SOL    HW110550   0.889   5.245   2.889
 3217SOL    HW210551   0.990   5.165   2.990
 3218SOL     OW10552   6.599   1.431   2.948
 3218SOL    HW110553   6.605   1.465   2.854
 3218SOL    HW210554   6.531   1.358   2.953
 3219SOL     OW10555   5.835   0.509   5.624
 3219SOL    HW110556   5.761   0.466   5.572
 3219SOL    HW210557   5.918   0.511   5.569
 3220SOL     OW10558   6.681   4.950   6.660
 3220SOL    HW110559   6.718   4.868   6.616
 3220SOL    HW210560   6.647   5.012   6.590
 3221SOL     OW10561   3.843   0.469   1.989
 3221SOL    HW110562   3.810   0.446   2.080
 3221SOL    HW210563   3.810   0.560   1.964
 3222SOL     OW10564   2.573   1.375   2.517
 3222SOL    HW110565   2.646   1.334   2.570
 3222SOL    HW210566   2.488   1.374   2.570
 3223SOL     OW10567   1.342   0.211   1.290
 3223SOL    HW110568   1.421   0.273   1.297
 3223SOL    HW210569   1.281   0.244   1.217
 3224SOL     OW10570   4.165   2.287   4.195
 3224SOL    HW110571   4.200   2.376   4.167
 3224SOL    HW210572   4.162   2.282   4.295
 3225SOL     OW10573   4.014   0.384   4.474
 3225SOL    HW110574   4.005   0.362   4.571
 3225SOL    HW210575   3.931   0.429   4.442
 3226SOL     OW10576   0.183   6.904   1.176
 3226SOL    HW110577   0.246   6.826   1.172
 3226SOL    HW210578   0.223   6.975   1.234
 3227SOL     OW10579   4.627   3.010   5.661
 3227SOL    HW110580   4.571   3.005   5.744
 3227SOL    HW210581   4.665   3.102   5.652
 3228SOL     OW10582   1.740   4.096   1.042
 3228SOL    HW110583   1.754   4.037   1.122
 3228SOL    HW210584   1.821   4.091   0.983
 3229SOL     OW10585   1.761   1.444   0.240
 3229SOL    HW110586   1.835   1.427   0.175
 3229SOL    HW210587   1.758   1.542   0.262
 3230SOL     OW10588   2.053   5.599   5.840
 3230SOL    HW110589   2.022   5.666   5.908
 3230SOL    HW210590   2.081   5.515   5.886
 3231SOL     OW10591   2.662   1.079   1.750
 3231SOL    HW110592   2.677   1.108   1.844
 3231SOL    HW210593   2.581   1.020   1.746
 3232SOL     OW10594   3.997   6.150   4.198
 3232SOL    HW110595   3.923   6.201   4.154
 3232SOL    HW210596   4.084   6.176   4.157
 3233SOL     OW10597   0.750   2.444   0.005
 3233SOL    HW110598   0.747   2.453   0.104
 3233SOL    HW210599   0.732   2.532   6.981
 3234SOL     OW10600   3.024   2.721   0.966
 3234SOL    HW110601   3.112   2.708   1.010
 3234SOL    HW210602   2.951   2.698   1.030
 3235SOL     OW10603   6.900   6.524   2.208
 3235SOL    HW110604   6.831   6.597   2.205
 3235SOL    HW210605   6.951   6.523   2.121
 3236SOL     OW10606   3.320   3.282   0.699
 3236SOL    HW110607   3.378   3.229   0.761
 3236SOL    HW210608   3.354   3.274   0.606
 3237SOL     OW10609   6.005   0.940   5.707
 3237SOL    HW110610   6.070   0.954   5.633
 3237SOL    HW210611   6.008   0.845   5.738
 3238SOL     OW10612   6.623   5.435   1.373
 3238SOL    HW110613   6.614   5.469   1.467
 3238SOL    HW210614   6.545   5.466   1.320
 3239SOL     OW10615   6.722   0.360   3.998
 3239SOL    HW110616   6.812   0.333   4.034
 3239SOL    HW210617   6.720   0.459   3.986
 3240SOL     OW10618   0.697   0.551   7.016
 3240SOL    HW110619   0.642   0.495   6.955
 3240SOL    HW210620   0.639   0.620   0.041
 3241SOL     OW10621   5.810   1.596   6.462
 3241SOL    HW110622   5.839   1.624   6.553
 3241SOL    HW210623   5.711   1.584   6.460
 3242SOL     OW10624   4.995   4.792   5.536
 3242SOL    HW110625   5.075   4.778   5.478
 3242SOL    HW210626   4.975   4.890   5.543
 3243SOL     OW10627   4.875   5.294   5.781
 3243SOL    HW110628   4.787   5.261   5.816
 3243SOL    HW210629   4.946   5.225   5.800
 3244SOL     OW10630   5.531   5.972   6.935
 3244SOL    HW110631   5.513   6.055   6.987
 3244SOL    HW210632   5.449   5.945   6.884
 3245SOL     OW10633   3.829   1.493   4.302
 3245SOL    HW110634   3.895   1.418   4.294
 3245SOL    HW210635   3.771   1.495   4.221
 3246SOL     OW10636   0.203   0.855   2.363
 3246SOL    HW110637   0.148   0.853   2.447
 3246SOL    HW210638   0.161   0.918   2.298
 3247SOL     OW10639   0.465   4.220   3.092
 3247SOL    HW110640   0.480   4.180   3.182
 3247SOL    HW210641   0.514   4.307   3.086
 3248SOL     OW10642   5.157   2.316   3.495
 3248SOL    HW110643   5.200   2.280   3.578
 3248SOL    HW210644   5.213   2.388   3.456
 3249SOL     OW10645   3.347   3.861   3.234
 3249SOL    HW110646   3.288   3.920   3.291
 3249SOL    HW210647   3.314   3.767   3.239
 3250SOL     OW10648   5.405   5.625   2.187
 3250SOL    HW110649   5.466   5.643   2.110
 3250SOL    HW210650   5.447   5.557   2.247
 3251SOL     OW10651   2.804   1.308   4.011
 3251SOL    HW110652   2.858   1.379   3.966
 3251SOL    HW210653   2.745   1.263   3.943
 3252SOL     OW10654   2.518   1.386   4.095
 3252SOL    HW110655   2.513   1.312   4.162
 3252SOL    HW210656   2.614   1.412   4.081
 3253SOL     OW10657   6.629   3.598   1.353
 3253SOL    HW110658   6.611   3.507   1.390
 3253SOL    HW210659   6.650   3.591   1.255
 3254SOL     OW10660   5.879   0.438   0.624
 3254SOL    HW110661   5.810   0.394   0.681
 3254SOL    HW210662   5.856   0.535   0.612
 3255SOL     OW10663   5.555   4.955   0.816
 3255SOL    HW110664   5.649   4.928   0.836
 3255SOL    HW210665   5.526   4.914   0.729
 3256SOL     OW10666   4.838   2.262   1.045
 3256SOL    HW110667   4.767   2.243   1.112
 3256SOL    HW210668   4.806   2.234   0.954
 3257SOL     OW10669   2.742   2.090   3.051
 3257SOL    HW110670   2.774   1.996   3.061
 3257SOL    HW210671   2.795   2.136   2.980
 3258SOL     OW10672   2.284   5.974   3.515
 3258SOL    HW110673   2.377   6.009   3.512
 3258SOL    HW210674   2.219   6.049   3.502
 3259SOL     OW10675   4.808   4.325   4.116
 3259SOL    HW110676   4.833   4.422   4.109
 3259SOL    HW210677   4.824   4.294   4.210
 3260SOL     OW10678   1.653   3.849   1.839
 3260SOL    HW110679   1.610   3.934   1.808
 3260SOL    HW210680   1.623   3.774   1.780
 3261SOL     OW10681   4.118   0.331   3.165
 3261SOL    HW110682   4.213   0.307   3.184
 3261SOL    HW210683   4.060   0.251   3.181
 3262SOL     OW10684   3.601   2.075   2.447
 3262SOL    HW110685   3.575   2.095   2.542
 3262SOL    HW210686   3.691   2.114   2.428
 3263SOL     OW10687   1.498   1.456   2.612
 3263SOL    HW110688   1.527   1.552   2.610
 3263SOL    HW210689   1.577   1.398   2.636
 3264SOL     OW10690   2.179   5.860   0.177
 3264SOL    HW110691   2.115   5.786   0.154
 3264SOL    HW210692   2.143   5.913   0.254
 3265SOL     OW10693   5.983   5.013   5.748
 3265SOL    HW110694   6.051   5.084   5.732
 3265SOL    HW210695   5.891   5.052   5.743
 3266SOL     OW10696   3.386   4.606   6.898
 3266SOL    HW110697   3.473   4.583   6.855
 3266SOL    HW210698   3.313   4.553   6.855
 3267SOL     OW10699   4.242   0.026   0.483
 3267SOL    HW110700   4.247   0.072   0.394
 3267SOL    HW210701   4.149   0.034   0.519
 3268SOL     OW10702   6.874   4.775   1.949
 3268SOL    HW110703   6.916   4.695   1.992
 3268SOL    HW210704   6.775   4.769   1.957
 3269SOL     OW10705   1.569   5.086   2.055
 3269SOL    HW110706   1.659   5.125   2.040
 3269SOL    HW210707   1.575   5.010   2.119
 3270SOL     OW10708   0.791   2.632   5.394
 3270SOL    HW110709   0.776   2.724   5.429
 3270SOL    HW210710   0.714   2.574   5.420
 3271SOL     OW10711   0.410   3.648   2.351
 3271SOL    HW110712   0.448   3.718   2.411
 3271SOL    HW210713   0.313   3.636   2.369
 3272SOL     OW10714   4.404   6.431   0.205
 3272SOL    HW110715   4.452   6.467   0.125
 3272SOL    HW210716   4.449   6.347   0.235
 3273SOL     OW10717   4.955   2.919   6.488
 3273SOL    HW110718   4.918   2.954   6.402
 3273SOL    HW210719   4.915   2.830   6.509
 3274SOL     OW10720   5.517   0.876   0.259
 3274SOL    HW110721   5.442   0.857   0.195
 3274SOL    HW210722   5.602   0.836   0.223
 3275SOL     OW10723   5.062   0.245   1.306
 3275SOL    HW110724   4.986   0.180   1.300
 3275SOL    HW210725   5.037   0.321   1.366
 3276SOL     OW10726   4.567   6.912   0.139
 3276SOL    HW110727   4.515   6.893   0.223
 3276SOL    HW210728   4.651   6.857   0.139
 3277SOL     OW10729   3.272   1.859   2.220
 3277SOL    HW110730   3.348   1.813   2.266
 3277SOL    HW210731   3.300   1.952   2.194
 3278SOL     OW10732   6.627   0.368   6.612
 3278SOL    HW110733   6.695   0.345   6.681
 3278SOL    HW210734   6.567   0.290   6.596
 3279SOL     OW10735   4.150   6.697   0.636
 3279SOL    HW110736   4.129   6.794   0.648
 3279SOL    HW210737   4.221   6.669   0.701
 3280SOL     OW10738   5.520   3.812   4.407
 3280SOL    HW110739   5.547   3.879   4.337
 3280SOL    HW210740   5.423   3.790   4.396
 3281SOL     OW10741   6.605   4.312   1.879
 3281SOL    HW110742   6.574   4.289   1.971
 3281SOL    HW210743   6.527   4.313   1.816
 3282SOL     OW10744   0.595   4.159   5.338
 3282SOL    HW110745   0.568   4.212   5.419
 3282SOL    HW210746   0.683   4.115   5.355
 3283SOL     OW10747   3.897   0.877   1.513
 3283SOL    HW110748   3.974   0.923   1.469
 3283SOL    HW210749   3.900   0.894   1.611
 3284SOL     OW10750   1.884   5.609   5.062
 3284SOL    HW110751   1.816   5.566   5.002
 3284SOL    HW210752   1.873   5.708   5.059
 3285SOL     OW10753   5.280   1.045   4.751
 3285SOL    HW110754   5.325   1.126   4.714
 3285SOL    HW210755   5.232   0.996   4.678
 3286SOL     OW10756   3.315   1.627   1.512
 3286SOL    HW110757   3.321   1.679   1.597
 3286SOL    HW210758   3.335   1.686   1.434
 3287SOL     OW10759   2.681   6.827   7.007
 3287SOL    HW110760   2.779   6.834   6.986
 3287SOL    HW210761   2.628   6.857   6.928
 3288SOL     OW10762   1.635   6.314   1.010
 3288SOL    HW110763   1.658   6.233   1.064
 3288SOL    HW210764   1.540   6.308   0.978
 3289SOL     OW10765   3.702   1.510   6.894
 3289SOL    HW110766   3.787   1.458   6.891
 3289SOL    HW210767   3.688   1.547   6.986
 3290SOL     OW10768   6.614   5.137   0.318
 3290SOL    HW110769   6.543   5.100   0.258
 3290SOL    HW210770   6.581   5.221   0.360
 3291SOL     OW10771   4.818   0.126   5.220
 3291SOL    HW110772   4.771   0.180   5.289
 3291SOL    HW210773   4.888   0.182   5.175
 3292SOL     OW10774   0.487   1.913   1.306
 3292SOL    HW110775   0.427   1.959   1.240
 3292SOL    HW210776   0.505   1.820   1.275
 3293SOL     OW10777   6.543   5.172   2.946
 3293SOL    HW110778   6.619   5.122   2.988
 3293SOL    HW210779   6.572   5.210   2.858
 3294SOL     OW10780   5.107   2.741   5.250
 3294SOL    HW110781   5.058   2.828   5.245
 3294SOL    HW210782   5.133   2.722   5.344
 3295SOL     OW10783   1.935   2.845   1.574
 3295SOL    HW110784   1.927   2.907   1.652
 3295SOL    HW210785   2.027   2.851   1.536
 3296SOL     OW10786   0.922   0.251   5.985
 3296SOL    HW110787   0.963   0.236   6.076
 3296SOL    HW210788   0.978   0.206   5.916
 3297SOL     OW10789   3.304   1.734   5.042
 3297SOL    HW110790   3.268   1.826   5.053
 3297SOL    HW210791   3.228   1.668   5.041
 3298SOL     OW10792   5.915   4.246   5.015
 3298SOL    HW110793   5.914   4.312   5.090
 3298SOL    HW210794   5.932   4.295   4.929
 3299SOL     OW10795   3.097   4.883   3.836
 3299SOL    HW110796   3.179   4.906   3.889
 3299SOL    HW210797   3.022   4.943   3.863
 3300SOL     OW10798   1.878   6.924   5.141
 3300SOL    HW110799   1.949   6.988   5.171
 3300SOL    HW210800   1.857   6.941   5.045
 3301SOL     OW10801   1.954   2.884   2.829
 3301SOL    HW110802   2.031   2.882   2.893
 3301SOL    HW210803   1.982   2.845   2.742
 3302SOL     OW10804   2.533   4.830   5.634
 3302SOL    HW110805   2.532   4.856   5.538
 3302SOL    HW210806   2.454   4.772   5.654
 3303SOL     OW10807   3.536   3.193   0.852
 3303SOL    HW110808   3.612   3.129   0.839
 3303SOL    HW210809   3.544   3.237   0.942
 3304SOL     OW10810   2.588   4.930   5.884
 3304SOL    HW110811   2.507   4.988   5.895
 3304SOL    HW210812   2.581   4.878   5.800
 3305SOL     OW10813   3.607   0.742   1.364
 3305SOL    HW110814   3.626   0.827   1.413
 3305SOL    HW210815   3.680   0.724   1.298
 3306SOL     OW10816   2.134   0.735   0.153
 3306SOL    HW110817   2.086   0.764   0.070
 3306SOL    HW210818   2.069   0.697   0.218
 3307SOL     OW10819   0.790   0.082   4.499
 3307SOL    HW110820   0.795   7.004   4.524
 3307SOL    HW210821   0.866   0.104   4.438
 3308SOL     OW10822   3.506   4.606   1.143
 3308SOL    HW110823   3.485   4.703   1.149
 3308SOL    HW210824   3.600   4.590   1.173
 3309SOL     OW10825   5.243   4.003   3.562
 3309SOL    HW110826   5.221   4.097   3.589
 3309SOL    HW210827   5.337   4.000   3.528
 3310SOL     OW10828   0.194   4.996   4.770
 3310SOL    HW110829   0.204   5.080   4.716
 3310SOL    HW210830   0.156   5.019   4.859
 3311SOL     OW10831   3.513   3.531   0.570
 3311SOL    HW110832   3.426   3.486   0.551
 3311SOL    HW210833   3.520   3.614   0.515
 3312SOL     OW10834   5.345   2.583   5.992
 3312SOL    HW110835   5.412   2.656   6.006
 3312SOL    HW210836   5.311   2.552   6.081
 3313SOL     OW10837   0.687   0.924   3.709
 3313SOL    HW110838   0.629   1.003   3.725
 3313SOL    HW210839   0.670   0.855   3.780
 3314SOL     OW10840   1.824   5.873   2.673
 3314SOL    HW110841   1.897   5.938   2.653
 3314SOL    HW210842   1.839   5.789   2.620
 3315SOL     OW10843   0.296   4.865   5.309
 3315SOL    HW110844   0.318   4.804   5.233
 3315SOL    HW210845   0.378   4.914   5.337
 3316SOL     OW10846   2.882   1.430   6.789
 3316SOL    HW110847   2.917   1.394   6.702
 3316SOL    HW210848   2.790   1.393   6.806
 3317SOL     OW10849   5.059   2.548   2.360
 3317SOL    HW110850   5.082   2.517   2.452
 3317SOL    HW210851   5.059   2.648   2.357
 3318SOL     OW10852   2.880   2.161   0.337
 3318SOL    HW110853   2.871   2.248   0.384
 3318SOL    HW210854   2.918   2.176   0.246
 3319SOL     OW10855   6.637   6.635   3.192
 3319SOL    HW110856   6.643   6.535   3.203
 3319SOL    HW210857   6.706   6.665   3.127
 3320SOL     OW10858   5.998   6.986   0.891
 3320SOL    HW110859   5.904   6.999   0.860
 3320SOL    HW210860   6.061   0.019   0.833
 3321SOL     OW10861   5.764   1.633   0.519
 3321SOL    HW110862   5.679   1.611   0.566
 3321SOL    HW210863   5.838   1.642   0.587
 3322SOL     OW10864   6.697   3.598   1.076
 3322SOL    HW110865   6.773   3.631   1.020
 3322SOL    HW210866   6.612   3.606   1.025
 3323SOL     OW10867   1.742   1.409   1.920
 3323SOL    HW110868   1.806   1.414   1.843
 3323SOL    HW210869   1.674   1.339   1.902
 3324SOL     OW10870   4.936   5.062   5.589
 3324SOL    HW110871   4.878   5.144   5.591
 3324SOL    HW210872   5.022   5.083   5.544
 3325SOL     OW10873   1.826   3.412   6.646
 3325SOL    HW110874   1.809   3.391   6.550
 3325SOL    HW210875   1.855   3.328   6.693
 3326SOL     OW10876   5.410   1.248   2.919
 3326SOL    HW110877   5.336   1.313   2.939
 3326SOL    HW210878   5.438   1.257   2.824
 3327SOL     OW10879   1.572   5.789   1.314
 3327SOL    HW110880   1.613   5.877   1.337
 3327SOL    HW210881   1.566   5.732   1.396
 3328SOL     OW10882   4.140   2.263   0.582
 3328SOL    HW110883   4.100   2.253   0.673
 3328SOL    HW210884   4.192   2.349   0.578
 3329SOL     OW10885   5.604   5.524   5.680
 3329SOL    HW110886   5.630   5.611   5.722
 3329SOL    HW210887   5.685   5.470   5.659
 3330SOL     OW10888   6.063   3.356   2.419
 3330SOL    HW110889   6.146   3.313   2.384
 3330SOL    HW210890   6.073   3.455   2.415
 3331SOL     OW10891   1.661   2.295   1.378
 3331SOL    HW110892   1.646   2.316   1.475
 3331SOL    HW210893   1.693   2.377   1.330
 3332SOL     OW10894   5.804   4.312   0.699
 3332SOL    HW110895   5.745   4.388   0.725
 3332SOL    HW210896   5.771   4.273   0.613
 3333SOL     OW10897   4.071   4.964   6.117
 3333SOL    HW110898   4.107   4.871   6.107
 3333SOL    HW210899   3.993   4.977   6.056
 3334SOL     OW10900   3.051   3.583   1.383
 3334SOL    HW110901   3.023   3.658   1.443
 3334SOL    HW210902   2.979   3.566   1.315
 3335SOL     OW10903   4.934   4.706   5.242
 3335SOL    HW110904   4.969   4.788   5.197
 3335SOL    HW210905   5.009   4.658   5.287
 3336SOL     OW10906   3.288   5.027   6.056
 3336SOL    HW110907   3.266   4.956   5.989
 3336SOL    HW210908   3.210   5.088   6.067
 3337SOL     OW10909   3.617   2.691   1.566
 3337SOL    HW110910   3.650   2.601   1.597
 3337SOL    HW210911   3.658   2.762   1.622
 3338SOL     OW10912   0.178   4.260   0.847
 3338SOL    HW110913   0.108   4.198   0.810
 3338SOL    HW210914   0.166   4.269   0.946
 3339SOL     OW10915   6.389   5.805   0.056
 3339SOL    HW110916   6.380   5.893   0.008
 3339SOL    HW210917   6.463   5.811   0.122
 3340SOL     OW10918   3.158   6.327   2.050
 3340SOL    HW110919   3.143   6.421   2.019
 3340SOL    HW210920   3.112   6.313   2.138
 3341SOL     OW10921   0.570   0.572   2.595
 3341SOL    HW110922   0.521   0.647   2.551
 3341SOL    HW210923   0.632   0.529   2.529
 3342SOL     OW10924   2.039   6.776   3.703
 3342SOL    HW110925   1.952   6.811   3.737
 3342SOL    HW210926   2.029   6.752   3.606
 3343SOL     OW10927   4.999   3.097   0.848
 3343SOL    HW110928   5.044   3.151   0.776
 3343SOL    HW210929   5.043   3.007   0.853
 3344SOL     OW10930   5.753   3.393   5.784
 3344SOL    HW110931   5.656   3.369   5.780
 3344SOL    HW210932   5.807   3.326   5.734
 3345SOL     OW10933   3.091   3.561   5.776
 3345SOL    HW110934   3.115   3.642   5.830
 3345SOL    HW210935   3.143   3.482   5.809
 3346SOL     OW10936   0.040   0.318   1.724
 3346SOL    HW110937   6.984   0.258   1.752
 3346SOL    HW210938   0.003   0.408   1.699
 3347SOL     OW10939   5.799   3.985   5.021
 3347SOL    HW110940   5.840   4.075   5.040
 3347SOL    HW210941   5.700   3.991   5.027
 3348SOL     OW10942   3.912   3.019   4.245
 3348SOL    HW110943   3.841   3.032   4.314
 3348SOL    HW210944   3.995   3.068   4.274
 3349SOL     OW10945   6.555   3.844   4.541
 3349SOL    HW110946   6.627   3.801   4.596
 3349SOL    HW210947   6.482   3.876   4.601
 3350SOL     OW10948   1.704   0.930   0.574
 3350SOL    HW110949   1.656   1.018   0.577
 3350SOL    HW210950   1.783   0.938   0.514
 3351SOL     OW10951   5.480   1.990   1.038
 3351SOL    HW110952   5.493   2.013   1.134
 3351SOL    HW210953   5.384   2.002   1.013
 3352SOL     OW10954   0.915   3.471   0.907
 3352SOL    HW110955   0.985   3.514   0.849
 3352SOL    HW210956   0.837   3.532   0.917
 3353SOL     OW10957   2.091   6.921   6.680
 3353SOL    HW110958   2.050   6.914   6.589
 3353SOL    HW210959   2.107   7.018   6.702
 3354SOL     OW10960   0.034   2.452   4.089
 3354SOL    HW110961   6.954   2.469   4.083
 3354SOL    HW210962   0.073   2.508   4.162
 3355SOL     OW10963   6.926   1.260   1.999
 3355SOL    HW110964   6.999   1.237   2.064
 3355SOL    HW210965   6.879   1.176   1.972
 3356SOL     OW10966   2.795   3.596   0.080
 3356SOL    HW110967   2.861   3.665   0.109
 3356SOL    HW210968   2.741   3.631   0.003
 3357SOL     OW10969   2.968   5.219   1.876
 3357SOL    HW110970   3.015   5.296   1.834
 3357SOL    HW210971   2.996   5.211   1.972
 3358SOL     OW10972   4.690   6.275   2.696
 3358SOL    HW110973   4.727   6.183   2.681
 3358SOL    HW210974   4.596   6.279   2.663
 3359SOL     OW10975   1.301   0.175   2.681
 3359SOL    HW110976   1.265   0.125   2.760
 3359SOL    HW210977   1.314   0.271   2.706
 3360SOL     OW10978   0.529   0.694   0.177
 3360SOL    HW110979   0.447   0.737   0.214
 3360SOL    HW210980   0.537   0.601   0.213
 3361SOL     OW10981   6.065   5.754   2.680
 3361SOL    HW110982   5.991   5.712   2.733
 3361SOL    HW210983   6.109   5.825   2.733
 3362SOL     OW10984   2.429   1.625   5.149
 3362SOL    HW110985   2.336   1.617   5.184
 3362SOL    HW210986   2.427   1.625   5.049
 3363SOL     OW10987   0.134   1.833   6.838
 3363SOL    HW110988   0.103   1.760   6.899
 3363SOL    HW210989   0.058   1.863   6.781
 3364SOL     OW10990   2.406   5.387   5.879
 3364SOL    HW110991   2.452   5.403   5.966
 3364SOL    HW210992   2.314   5.351   5.896
 3365SOL     OW10993   6.889   2.980   4.554
 3365SOL    HW110994   6.827   3.057   4.568
 3365SOL    HW210995   6.943   2.995   4.471
 3366SOL     OW10996   5.269   0.441   5.234
 3366SOL    HW110997   5.247   0.539   5.234
 3366SOL    HW210998   5.237   0.400   5.319
 3367SOL     OW10999   1.284   2.095   2.999
 3367SOL    HW111000   1.376   2.070   3.030
 3367SOL    HW211001   1.261   2.186   3.034
 3368SOL     OW11002   6.590   5.440   6.075
 3368SOL    HW111003   6.603   5.526   6.024
 3368SOL    HW211004   6.651   5.440   6.155
 3369SOL     OW11005   3.735   0.410   0.139
 3369SOL    HW111006   3.687   0.380   0.221
 3369SOL    HW211007   3.832   0.419   0.159
 3370SOL     OW11008   5.968   6.663   4.924
 3370SOL    HW111009   5.942   6.733   4.991
 3370SOL    HW211010   5.921   6.680   4.838
 3371SOL     OW11011   1.000   5.207   2.157
 3371SOL    HW111012   1.025   5.143   2.229
 3371SOL    HW211013   1.043   5.295   2.175
 3372SOL     OW11014   1.048   0.896   2.951
 3372SOL    HW111015   1.134   0.848   2.934
 3372SOL    HW211016   0.986   0.880   2.874
 3373SOL     OW11017   6.159   1.744   5.270
 3373SOL    HW111018   6.114   1.711   5.186
 3373SOL    HW211019   6.248   1.784   5.246
 3374SOL     OW11020   2.815   5.780   5.834
 3374SOL    HW111021   2.904   5.735   5.827
 3374SOL    HW211022   2.743   5.712   5.825
 3375SOL     OW11023   4.622   4.396   5.290
 3375SOL    HW111024   4.700   4.344   5.255
 3375SOL    HW211025   4.601   4.365   5.383
 3376SOL     OW11026   3.140   3.013   2.381
 3376SOL    HW111027   3.043   3.011   2.408
 3376SOL    HW211028   3.151   3.070   2.300
 3377SOL     OW11029   1.461   6.994   5.504
 3377SOL    HW111030   1.545   7.002   5.557
 3377SOL    HW211031   1.483   6.965   5.411
 3378SOL     OW11032   0.189   1.592   1.367
 3378SOL    HW111033   0.154   1.612   1.275
 3378SOL    HW211034   0.237   1.504   1.366
 3379SOL     OW11035   0.480   4.465   6.118
 3379SOL    HW111036   0.429   4.379   6.117
 3379SOL    HW211037   0.559   4.458   6.057
 3380SOL     OW11038   6.985   4.529   6.679
 3380SOL    HW111039   6.944   4.453   6.730
 3380SOL    HW211040   6.997   4.503   6.584
 3381SOL     OW11041   3.119   2.416   0.349
 3381SOL    HW111042   3.204   2.461   0.377
 3381SOL    HW211043   3.065   2.394   0.430
 3382SOL     OW11044   6.976   1.775   0.833
 3382SOL    HW111045   6.943   1.699   0.890
 3382SOL    HW211046   0.007   1.840   0.889
 3383SOL     OW11047   5.989   4.751   2.800
 3383SOL    HW111048   5.954   4.759   2.893
 3383SOL    HW211049   5.984   4.655   2.770
 3384SOL     OW11050   3.721   2.891   4.500
 3384SOL    HW111051   3.623   2.908   4.510
 3384SOL    HW211052   3.735   2.823   4.428
 3385SOL     OW11053   6.504   3.475   3.533
 3385SOL    HW111054   6.584   3.423   3.502
 3385SOL    HW211055   6.533   3.546   3.596
 3386SOL     OW11056   6.409   4.452   4.910
 3386SOL    HW111057   6.355   4.406   4.840
 3386SOL    HW211058   6.447   4.385   4.974
 3387SOL     OW11059   2.318   2.375   3.097
 3387SOL    HW111060   2.410   2.383   3.057
 3387SOL    HW211061   2.309   2.286   3.143
 3388SOL     OW11062   5.559   2.021   1.313
 3388SOL    HW111063   5.658   2.010   1.315
 3388SOL    HW211064   5.515   1.932   1.324
 3389SOL     OW11065   4.914   4.549   3.630
 3389SOL    HW111066   4.850   4.605   3.577
 3389SOL    HW211067   4.885   4.547   3.725
 3390SOL     OW11068   5.163   3.098   5.924
 3390SOL    HW111069   5.079   3.116   5.873
 3390SOL    HW211070   5.168   3.001   5.949
 3391SOL     OW11071   3.568   1.803   5.069
 3391SOL    HW111072   3.472   1.774   5.070
 3391SOL    HW211073   3.572   1.902   5.058
 3392SOL     OW11074   2.392   0.719   4.156
 3392SOL    HW111075   2.296   0.717   4.128
 3392SOL    HW211076   2.416   0.632   4.199
 3393SOL     OW11077   6.394   6.159   6.748
 3393SOL    HW111078   6.464   6.223   6.779
 3393SOL    HW211079   6.436   6.071   6.728
 3394SOL     OW11080   6.204   2.919   1.278
 3394SOL    HW111081   6.111   2.899   1.310
 3394SOL    HW211082   6.251   2.833   1.256
 3395SOL     OW11083   0.506   3.155   4.350
 3395SOL    HW111084   0.450   3.106   4.417
 3395SOL    HW211085   0.591   3.185   4.393
 3396SOL     OW11086   0.360   3.553   3.497
 3396SOL    HW111087   0.265   3.584   3.490
 3396SOL    HW211088   0.383   3.538   3.593
 3397SOL     OW11089   3.757   0.012   5.916
 3397SOL    HW111090   3.698   0.004   5.997
 3397SOL    HW211091   3.719   6.976   5.842
 3398SOL     OW11092   1.223   0.019   3.981
 3398SOL    HW111093   1.241   6.958   4.039
 3398SOL    HW211094   1.171   0.087   4.033
 3399SOL     OW11095   5.007   5.147   3.868
 3399SOL    HW111096   5.050   5.205   3.799
 3399SOL    HW211097   4.958   5.204   3.934
 3400SOL     OW11098   4.876   1.977   6.783
 3400SOL    HW111099   4.780   1.962   6.806
 3400SOL    HW211100   4.926   2.008   6.864
 3401SOL     OW11101   6.449   3.610   0.979
 3401SOL    HW111102   6.372   3.671   0.960
 3401SOL    HW211103   6.429   3.556   1.062
 3402SOL     OW11104   5.150   5.784   1.345
 3402SOL    HW111105   5.213   5.815   1.416
 3402SOL    HW211106   5.066   5.749   1.387
 3403SOL     OW11107   3.348   0.305   4.994
 3403SOL    HW111108   3.406   0.272   4.919
 3403SOL    HW211109   3.315   0.397   4.973
 3404SOL     OW11110   4.446   1.423   1.040
 3404SOL    HW111111   4.508   1.490   0.998
 3404SOL    HW211112   4.479   1.331   1.021
 3405SOL     OW11113   6.179   3.932   6.666
 3405SOL    HW111114   6.139   3.845   6.694
 3405SOL    HW211115   6.176   3.940   6.566
 3406SOL     OW11116   2.092   4.161   2.155
 3406SOL    HW111117   2.157   4.086   2.144
 3406SOL    HW211118   2.000   4.128   2.133
 3407SOL     OW11119   1.328   5.693   1.544
 3407SOL    HW111120   1.401   5.628   1.523
 3407SOL    HW211121   1.286   5.725   1.459
 3408SOL     OW11122   5.074   4.335   2.650
 3408SOL    HW111123   5.047   4.261   2.710
 3408SOL    HW211124   4.998   4.360   2.590
 3409SOL     OW11125   3.802   0.253   5.759
 3409SOL    HW111126   3.789   0.171   5.814
 3409SOL    HW211127   3.758   0.240   5.670
 3410SOL     OW11128   6.015   6.136   0.277
 3410SOL    HW111129   5.984   6.044   0.251
 3410SOL    HW211130   6.102   6.128   0.326
 3411SOL     OW11131   4.651   2.222   2.771
 3411SOL    HW111132   4.620   2.171   2.691
 3411SOL    HW211133   4.590   2.300   2.786
 3412SOL     OW11134   3.846   3.769   0.016
 3412SOL    HW111135   3.874   3.860   7.006
 3412SOL    HW211136   3.924   3.723   0.060
 3413SOL     OW11137   3.797   2.084   3.324
 3413SOL    HW111138   3.725   2.121   3.266
 3413SOL    HW211139   3.761   2.005   3.375
 3414SOL     OW11140   2.921   2.129   5.099
 3414SOL    HW111141   2.852   2.190   5.060
 3414SOL    HW211142   3.011   2.156   5.064
 3415SOL     OW11143   0.806   4.699   4.471
 3415SOL    HW111144   0.717   4.655   4.483
 3415SOL    HW211145   0.873   4.655   4.532
 3416SOL     OW11146   0.122   4.504   5.901
 3416SOL    HW111147   0.049   4.473   5.962
 3416SOL    HW211148   0.181   4.427   5.877
 3417SOL     OW11149   6.660   6.526   2.531
 3417SOL    HW111150   6.652   6.471   2.614
 3417SOL    HW211151   6.587   6.501   2.467
 3418SOL     OW11152   2.519   1.121   5.160
 3418SOL    HW111153   2.426   1.088   5.149
 3418SOL    HW211154   2.517   1.220   5.176
 3419SOL     OW11155   4.183   4.536   0.449
 3419SOL    HW111156   4.171   4.475   0.371
 3419SOL    HW211157   4.198   4.629   0.416
 3420SOL     OW11158   4.888   1.979   4.342
 3420SOL    HW111159   4.819   2.046   4.368
 3420SOL    HW211160   4.844   1.892   4.320
 3421SOL     OW11161   6.868   6.601   5.112
 3421SOL    HW111162   6.924   6.675   5.149
 3421SOL    HW211163   6.782   6.596   5.163
 3422SOL     OW11164   3.227   0.193   1.130
 3422SOL    HW111165   3.260   0.112   1.178
 3422SOL    HW211166   3.304   0.237   1.084
 3423SOL     OW11167   2.445   0.688   0.749
 3423SOL    HW111168   2.447   0.780   0.711
 3423SOL    HW211169   2.495   0.686   0.836
 3424SOL     OW11170   4.330   1.380   2.713
 3424SOL    HW111171   4.383   1.387   2.797
 3424SOL    HW211172   4.248   1.325   2.730
 3425SOL     OW11173   4.729   4.251   2.097
 3425SOL    HW111174   4.637   4.286   2.076
 3425SOL    HW211175   4.758   4.189   2.024
 3426SOL     OW11176   3.951   3.110   0.174
 3426SOL    HW111177   3.955   3.090   0.076
 3426SOL    HW211178   4.003   3.194   0.192
 3427SOL     OW11179   6.901   0.581   0.121
 3427SOL    HW111180   7.000   0.572   0.134
 3427SOL    HW211181   6.862   0.629   0.200
 3428SOL     OW11182   4.157   4.742   2.403
 3428SOL    HW111183   4.245   4.695   2.396
 3428SOL    HW211184   4.119   4.755   2.311
 3429SOL     OW11185   1.321   2.932   6.785
 3429SOL    HW111186   1.248   3.000   6.779
 3429SOL    HW211187   1.383   2.943   6.707
 3430SOL     OW11188   1.513   0.125   0.331
 3430SOL    HW111189   1.600   0.160   0.367
 3430SOL    HW211190   1.530   0.054   0.264
 3431SOL     OW11191   1.705   6.030   1.421
 3431SOL    HW111192   1.769   6.107   1.418
 3431SOL    HW211193   1.617   6.062   1.456
 3432SOL     OW11194   2.839   1.804   5.729
 3432SOL    HW111195   2.923   1.836   5.684
 3432SOL    HW211196   2.778   1.763   5.661
 3433SOL     OW11197   3.522   1.253   5.862
 3433SOL    HW111198   3.429   1.288   5.855
 3433SOL    HW211199   3.538   1.216   5.953
 3434SOL     OW11200   4.294   2.546   1.238
 3434SOL    HW111201   4.363   2.475   1.252
 3434SOL    HW211202   4.305   2.585   1.147
 3435SOL     OW11203   6.850   2.590   2.121
 3435SOL    HW111204   6.942   2.591   2.082
 3435SOL    HW211205   6.822   2.496   2.138
 3436SOL     OW11206   4.586   0.251   4.639
 3436SOL    HW111207   4.663   0.193   4.662
 3436SOL    HW211208   4.613   0.316   4.568
 3437SOL     OW11209   4.261   0.254   4.983
 3437SOL    HW111210   4.257   0.242   5.082
 3437SOL    HW211211   4.222   0.343   4.958
 3438SOL     OW11212   1.936   2.668   6.750
 3438SOL    HW111213   1.926   2.747   6.689
 3438SOL    HW211214   1.849   2.651   6.795
 3439SOL     OW11215   2.635   6.531   4.934
 3439SOL    HW111216   2.658   6.624   4.961
 3439SOL    HW211217   2.719   6.479   4.916
 3440SOL     OW11218   4.596   3.572   1.421
 3440SOL    HW111219   4.684   3.560   1.376
 3440SOL    HW211220   4.536   3.495   1.400
 3441SOL     OW11221   3.946   0.125   4.213
 3441SOL    HW111222   3.856   0.110   4.254
 3441SOL    HW211223   3.943   0.206   4.155
 3442SOL     OW11224   2.279   5.460   3.893
 3442SOL    HW111225   2.202   5.489   3.837
 3442SOL    HW211226   2.305   5.366   3.869
 3443SOL     OW11227   5.923   2.022   3.151
 3443SOL    HW111228   5.924   2.052   3.246
 3443SOL    HW211229   5.879   1.933   3.145
 3444SOL     OW11230   5.293   5.610   6.634
 3444SOL    HW111231   5.247   5.623   6.547
 3444SOL    HW211232   5.344   5.692   6.658
 3445SOL     OW11233   6.610   4.336   4.339
 3445SOL    HW111234   6.629   4.238   4.337
 3445SOL    HW211235   6.609   4.368   4.434
 3446SOL     OW11236   3.986   0.482   3.359
 3446SOL    HW111237   3.889   0.499   3.344
 3446SOL    HW211238   4.027   0.444   3.276
 3447SOL     OW11239   5.665   5.492   0.232
 3447SOL    HW111240   5.736   5.431   0.197
 3447SOL    HW211241   5.667   5.578   0.182
 3448SOL     OW11242   3.186   0.688   1.059
 3448SOL    HW111243   3.124   0.722   0.987
 3448SOL    HW211244   3.182   0.749   1.138
 3449SOL     OW11245   6.717   6.984   1.988
 3449SOL    HW111246   6.725   6.911   2.057
 3449SOL    HW211247   6.698   6.943   1.899
 3450SOL     OW11248   1.251   1.543   1.184
 3450SOL    HW111249   1.254   1.453   1.140
 3450SOL    HW211250   1.221   1.532   1.279
 3451SOL     OW11251   0.967   5.577   3.446
 3451SOL    HW111252   1.054   5.544   3.411
 3451SOL    HW211253   0.921   5.633   3.377
 3452SOL     OW11254   6.835   0.746   6.621
 3452SOL    HW111255   6.850   0.681   6.696
 3452SOL    HW211256   6.916   0.803   6.610
 3453SOL     OW11257   5.128   5.696   4.856
 3453SOL    HW111258   5.052   5.632   4.869
 3453SOL    HW211259   5.202   5.651   4.807
 3454SOL     OW11260   1.564   1.481   0.806
 3454SOL    HW111261   1.477   1.477   0.855
 3454SOL    HW211262   1.548   1.509   0.711
 3455SOL     OW11263   1.772   3.186   4.282
 3455SOL    HW111264   1.860   3.192   4.235
 3455SOL    HW211265   1.733   3.095   4.269
 3456SOL     OW11266   5.775   6.539   1.832
 3456SOL    HW111267   5.857   6.483   1.834
 3456SOL    HW211268   5.766   6.583   1.743
 3457SOL     OW11269   2.626   4.991   3.752
 3457SOL    HW111270   2.558   4.920   3.773
 3457SOL    HW211271   2.683   4.962   3.675
 3458SOL     OW11272   5.829   6.617   0.358
 3458SOL    HW111273   5.881   6.534   0.379
 3458SOL    HW211274   5.867   6.694   0.409
 3459SOL     OW11275   0.516   3.835   3.436
 3459SOL    HW111276   0.530   3.869   3.529
 3459SOL    HW211277   0.490   3.739   3.439
 3460SOL     OW11278   2.819   2.872   6.966
 3460SOL    HW111279   2.859   2.963   6.960
 3460SOL    HW211280   2.842   2.821   6.883
 3461SOL     OW11281   3.820   5.308   4.194
 3461SOL    HW111282   3.807   5.213   4.166
 3461SOL    HW211283   3.846   5.311   4.290
 3462SOL     OW11284   5.575   3.043   3.055
 3462SOL    HW111285   5.611   3.075   2.967
 3462SOL    HW211286   5.532   2.954   3.043
 3463SOL     OW11287   1.432   2.963   1.759
 3463SOL    HW111288   1.348   2.975   1.705
 3463SOL    HW211289   1.436   3.034   1.830
 3464SOL     OW11290   5.562   2.801   6.713
 3464SOL    HW111291   5.481   2.859   6.719
 3464SOL    HW211292   5.538   2.707   6.738
 3465SOL     OW11293   2.124   3.599   1.755
 3465SOL    HW111294   2.170   3.546   1.826
 3465SOL    HW211295   2.120   3.695   1.782
 3466SOL     OW11296   5.592   4.214   5.449
 3466SOL    HW111297   5.563   4.233   5.543
 3466SOL    HW211298   5.526   4.253   5.385
 3467SOL     OW11299   3.390   1.853   1.029
 3467SOL    HW111300   3.434   1.782   0.975
 3467SOL    HW211301   3.311   1.890   0.978
 3468SOL     OW11302   4.424   1.515   1.837
 3468SOL    HW111303   4.345   1.539   1.894
 3468SOL    HW211304   4.508   1.525   1.890
 3469SOL     OW11305   4.408   0.332   6.000
 3469SOL    HW111306   4.339   0.275   5.956
 3469SOL    HW211307   4.397   0.329   6.099
 3470SOL     OW11308   0.179   2.834   1.071
 3470SOL    HW111309   0.181   2.744   1.029
 3470SOL    HW211310   0.172   2.824   1.171
 3471SOL     OW11311   4.563   4.385   3.688
 3471SOL    HW111312   4.482   4.328   3.674
 3471SOL    HW211313   4.618   4.345   3.761
 3472SOL     OW11314   4.496   2.508   3.167
 3472SOL    HW111315   4.511   2.542   3.259
 3472SOL    HW211316   4.425   2.438   3.168
 3473SOL     OW11317   6.952   3.547   4.078
 3473SOL    HW111318   7.001   3.500   4.004
 3473SOL    HW211319   7.017   3.600   4.131
 3474SOL     OW11320   0.299   4.091   4.258
 3474SOL    HW111321   0.394   4.101   4.288
 3474SOL    HW211322   0.285   3.998   4.222
 3475SOL     OW11323   6.913   4.801   4.371
 3475SOL    HW111324   6.997   4.854   4.366
 3475SOL    HW211325   6.881   4.781   4.278
 3476SOL     OW11326   2.124   1.694   3.687
 3476SOL    HW111327   2.118   1.762   3.614
 3476SOL    HW211328   2.158   1.736   3.770
 3477SOL     OW11329   0.408   3.528   1.387
 3477SOL    HW111330   0.471   3.479   1.326
 3477SOL    HW211331   0.364   3.602   1.336
 3478SOL     OW11332   2.368   6.793   0.366
 3478SOL    HW111333   2.336   6.818   0.274
 3478SOL    HW211334   2.467   6.805   0.371
 3479SOL     OW11335   0.559   3.004   3.747
 3479SOL    HW111336   0.626   3.077   3.729
 3479SOL    HW211337   0.533   2.961   3.661
 3480SOL     OW11338   0.708   5.846   6.645
 3480SOL    HW111339   0.747   5.756   6.667
 3480SOL    HW211340   0.667   5.842   6.554
 3481SOL     OW11341   5.501   0.527   0.259
 3481SOL    HW111342   5.502   0.569   0.349
 3481SOL    HW211343   5.582   0.469   0.248
 3482SOL     OW11344   6.373   2.788   4.010
 3482SOL    HW111345   6.343   2.882   3.994
 3482SOL    HW211346   6.350   2.761   4.103
 3483SOL     OW11347   4.932   2.483   3.485
 3483SOL    HW111348   4.998   2.414   3.455
 3483SOL    HW211349   4.953   2.509   3.579
 3484SOL     OW11350   1.961   3.557   6.361
 3484SOL    HW111351   1.921   3.631   6.415
 3484SOL    HW211352   1.973   3.588   6.266
 3485SOL     OW11353   7.000   1.572   5.191
 3485SOL    HW111354   6.957   1.598   5.105
 3485SOL    HW211355   0.046   1.498   5.175
 3486SOL     OW11356   1.584   6.820   4.261
 3486SOL    HW111357   1.494   6.860   4.243
 3486SOL    HW211358   1.573   6.728   4.297
 3487SOL     OW11359   6.347   1.323   6.871
 3487SOL    HW111360   6.338   1.291   6.777
 3487SOL    HW211361   6.370   1.421   6.871
 3488SOL     OW11362   5.581   0.571   4.918
 3488SOL    HW111363   5.572   0.472   4.914
 3488SOL    HW211364   5.635   0.602   4.840
 3489SOL     OW11365   3.172   6.705   1.232
 3489SOL    HW111366   3.179   6.737   1.138
 3489SOL    HW211367   3.257   6.725   1.281
 3490SOL     OW11368   3.749   4.906   1.346
 3490SOL    HW111369   3.709   4.826   1.390
 3490SOL    HW211370   3.842   4.920   1.380
 3491SOL     OW11371   5.269   3.929   6.963
 3491SOL    HW111372   5.365   3.904   6.954
 3491SOL    HW211373   5.262   4.025   6.992
 3492SOL     OW11374   6.827   3.868   2.235
 3492SOL    HW111375   6.906   3.856   2.174
 3492SOL    HW211376   6.818   3.788   2.294
 3493SOL     OW11377   6.677   4.059   4.408
 3493SOL    HW111378   6.749   4.112   4.452
 3493SOL    HW211379   6.664   3.973   4.456
 3494SOL     OW11380   3.270   1.817   2.670
 3494SOL    HW111381   3.304   1.846   2.580
 3494SOL    HW211382   3.195   1.751   2.658
 3495SOL     OW11383   0.736   4.130   2.226
 3495SOL    HW111384   0.643   4.101   2.206
 3495SOL    HW211385   0.779   4.063   2.287
 3496SOL     OW11386   5.929   4.628   0.426
 3496SOL    HW111387   6.002   4.626   0.495
 3496SOL    HW211388   5.911   4.536   0.394
 3497SOL     OW11389   3.517   0.764   3.596
 3497SOL    HW111390   3.421   0.780   3.621
 3497SOL    HW211391   3.577   0.807   3.664
 3498SOL     OW11392   2.772   1.661   2.180
 3498SOL    HW111393   2.697   1.674   2.115
 3498SOL    HW211394   2.852   1.625   2.132
 3499SOL     OW11395   6.147   5.881   5.580
 3499SOL    HW111396   6.245   5.861   5.588
 3499SOL    HW211397   6.127   5.969   5.624
 3500SOL     OW11398   1.557   2.097   3.943
 3500SOL    HW111399   1.484   2.099   3.875
 3500SOL    HW211400   1.594   2.004   3.950
 3501SOL     OW11401   2.521   6.625   0.105
 3501SOL    HW111402   2.562   6.563   0.038
 3501SOL    HW211403   2.554   6.718   0.089
 3502SOL     OW11404   5.808   3.238   2.032
 3502SOL    HW111405   5.746   3.266   1.958
 3502SOL    HW211406   5.897   3.214   1.994
 3503SOL     OW11407   0.043   5.926   5.774
 3503SOL    HW111408   7.015   5.968   5.696
 3503SOL    HW211409   0.036   5.827   5.768
 3504SOL     OW11410   2.371   0.770   2.001
 3504SOL    HW111411   2.403   0.828   1.926
 3504SOL    HW211412   2.450   0.727   2.045
 3505SOL     OW11413   5.534   5.697   5.484
 3505SOL    HW111414   5.556   5.629   5.554
 3505SOL    HW211415   5.619   5.734   5.446
 3506SOL     OW11416   6.259   4.673   5.001
 3506SOL    HW111417   6.295   4.601   4.942
 3506SOL    HW211418   6.323   4.689   5.076
 3507SOL     OW11419   2.043   6.813   0.644
 3507SOL    HW111420   1.967   6.804   0.579
 3507SOL    HW211421   2.115   6.870   0.603
 3508SOL     OW11422   3.107   2.688   5.940
 3508SOL    HW111423   3.037   2.743   5.895
 3508SOL    HW211424   3.167   2.648   5.872
 3509SOL     OW11425   5.214   6.812   0.558
 3509SOL    HW111426   5.131   6.860   0.532
 3509SOL    HW211427   5.233   6.740   0.491
 3510SOL     OW11428   2.254   1.228   1.551
 3510SOL    HW111429   2.281   1.173   1.473
 3510SOL    HW211430   2.306   1.200   1.632
 3511SOL     OW11431   1.801   4.564   1.603
 3511SOL    HW111432   1.864   4.516   1.665
 3511SOL    HW211433   1.808   4.662   1.619
 3512SOL     OW11434   1.038   3.715   0.034
 3512SOL    HW111435   1.111   3.755   6.998
 3512SOL    HW211436   1.010   3.780   0.104
 3513SOL     OW11437   6.517   2.248   1.077
 3513SOL    HW111438   6.433   2.195   1.073
 3513SOL    HW211439   6.558   2.239   1.168
 3514SOL     OW11440   5.546   0.653   2.414
 3514SOL    HW111441   5.494   0.581   2.368
 3514SOL    HW211442   5.484   0.708   2.470
 3515SOL     OW11443   5.706   6.189   3.804
 3515SOL    HW111444   5.722   6.099   3.845
 3515SOL    HW211445   5.618   6.225   3.836
 3516SOL     OW11446   4.974   6.863   1.031
 3516SOL    HW111447   5.013   6.948   0.996
 3516SOL    HW211448   4.875   6.863   1.016
 3517SOL     OW11449   0.267   0.897   1.107
 3517SOL    HW111450   0.269   0.865   1.012
 3517SOL    HW211451   0.299   0.823   1.167
 3518SOL     OW11452   5.443   2.233   5.054
 3518SOL    HW111453   5.390   2.148   5.062
 3518SOL    HW211454   5.395   2.296   4.993
 3519SOL     OW11455   2.618   1.387   6.866
 3519SOL    HW111456   2.544   1.322   6.886
 3519SOL    HW211457   2.579   1.478   6.852
 3520SOL     OW11458   3.847   6.170   6.301
 3520SOL    HW111459   3.837   6.070   6.301
 3520SOL    HW211460   3.766   6.212   6.259
 3521SOL     OW11461   3.526   2.893   6.652
 3521SOL    HW111462   3.512   2.822   6.583
 3521SOL    HW211463   3.452   2.960   6.646
 3522SOL     OW11464   6.415   5.306   6.393
 3522SOL    HW111465   6.493   5.327   6.452
 3522SOL    HW211466   6.345   5.376   6.405
 3523SOL     OW11467   1.085   4.446   5.939
 3523SOL    HW111468   1.023   4.394   5.881
 3523SOL    HW211469   1.143   4.504   5.880
 3524SOL     OW11470   5.271   1.842   2.557
 3524SOL    HW111471   5.329   1.821   2.636
 3524SOL    HW211472   5.259   1.760   2.502
 3525SOL     OW11473   6.166   3.771   3.652
 3525SOL    HW111474   6.089   3.725   3.608
 3525SOL    HW211475   6.242   3.706   3.661
 3526SOL     OW11476   1.623   6.044   3.452
 3526SOL    HW111477   1.684   6.118   3.426
 3526SOL    HW211478   1.612   5.981   3.375
 3527SOL     OW11479   6.076   2.857   5.891
 3527SOL    HW111480   6.166   2.834   5.854
 3527SOL    HW211481   6.006   2.833   5.824
 3528SOL     OW11482   2.543   5.956   4.874
 3528SOL    HW111483   2.473   5.956   4.803
 3528SOL    HW211484   2.529   5.878   4.935
 3529SOL     OW11485   4.184   6.636   6.565
 3529SOL    HW111486   4.223   6.549   6.596
 3529SOL    HW211487   4.251   6.709   6.578
 3530SOL     OW11488   6.951   5.050   1.942
 3530SOL    HW111489   6.927   4.953   1.929
 3530SOL    HW211490   6.966   5.093   1.854
 3531SOL     OW11491   5.314   2.163   1.386
 3531SOL    HW111492   5.293   2.133   1.479
 3531SOL    HW211493   5.411   2.152   1.369
 3532SOL     OW11494   2.607   0.587   1.997
 3532SOL    HW111495   2.638   0.681   1.983
 3532SOL    HW211496   2.678   0.524   1.968
 3533SOL     OW11497   0.277   2.078   2.974
 3533SOL    HW111498   0.298   1.982   2.989
 3533SOL    HW211499   0.181   2.095   2.996
 3534SOL     OW11500   0.910   2.373   2.249
 3534SOL    HW111501   0.812   2.390   2.242
 3534SOL    HW211502   0.939   2.380   2.344
 3535SOL     OW11503   2.672   5.156   5.560
 3535SOL    HW111504   2.634   5.065   5.577
 3535SOL    HW211505   2.661   5.180   5.464
 3536SOL     OW11506   3.618   1.827   3.025
 3536SOL    HW111507   3.565   1.772   3.090
 3536SOL    HW211508   3.558   1.862   2.954
 3537SOL     OW11509   1.417   5.901   2.292
 3537SOL    HW111510   1.470   5.820   2.266
 3537SOL    HW211511   1.452   5.937   2.378
 3538SOL     OW11512   3.279   5.297   5.708
 3538SOL    HW111513   3.205   5.347   5.663
 3538SOL    HW211514   3.367   5.326   5.669
 3539SOL     OW11515   3.718   3.413   4.595
 3539SOL    HW111516   3.753   3.349   4.526
 3539SOL    HW211517   3.683   3.495   4.550
 3540SOL     OW11518   2.089   2.467   4.220
 3540SOL    HW111519   1.990   2.453   4.210
 3540SOL    HW211520   2.113   2.559   4.187
 3541SOL     OW11521   2.983   3.030   5.429
 3541SOL    HW111522   2.899   3.051   5.379
 3541SOL    HW211523   2.968   3.045   5.527
 3542SOL     OW11524   1.836   5.089   2.977
 3542SOL    HW111525   1.908   5.075   2.908
 3542SOL    HW211526   1.850   5.178   3.021
 3543SOL     OW11527   5.800   2.705   4.074
 3543SOL    HW111528   5.776   2.759   4.154
 3543SOL    HW211529   5.880   2.649   4.094
 3544SOL     OW11530   1.731   4.182   6.855
 3544SOL    HW111531   1.711   4.207   6.950
 3544SOL    HW211532   1.830   4.180   6.842
 3545SOL     OW11533   4.084   6.289   6.305
 3545SOL    HW111534   4.135   6.260   6.224
 3545SOL    HW211535   3.998   6.238   6.310
 3546SOL     OW11536   0.524   5.514   3.266
 3546SOL    HW111537   0.606   5.554   3.226
 3546SOL    HW211538   0.463   5.482   3.193
 3547SOL     OW11539   4.290   5.468   3.811
 3547SOL    HW111540   4.279   5.559   3.852
 3547SOL    HW211541   4.256   5.399   3.875
 3548SOL     OW11542   4.990   2.319   5.926
 3548SOL    HW111543   4.985   2.269   6.013
 3548SOL    HW211544   5.085   2.323   5.895
 3549SOL     OW11545   6.676   4.949   4.472
 3549SOL    HW111546   6.638   4.893   4.399
 3549SOL    HW211547   6.756   4.903   4.511
 3550SOL     OW11548   5.371   2.485   3.030
 3550SOL    HW111549   5.439   2.434   2.978
 3550SOL    HW211550   5.324   2.550   2.971
 3551SOL     OW11551   3.438   6.256   3.252
 3551SOL    HW111552   3.486   6.200   3.184
 3551SOL    HW211553   3.474   6.237   3.343
 3552SOL     OW11554   4.703   5.627   2.793
 3552SOL    HW111555   4.648   5.558   2.839
 3552SOL    HW211556   4.711   5.605   2.696
 3553SOL     OW11557   5.524   2.991   2.377
 3553SOL    HW111558   5.512   3.081   2.420
 3553SOL    HW211559   5.586   2.999   2.300
 3554SOL     OW11560   4.191   3.695   0.186
 3554SOL    HW111561   4.196   3.784   0.140
 3554SOL    HW211562   4.161   3.708   0.281
 3555SOL     OW11563   0.755   3.318   3.034
 3555SOL    HW111564   0.840   3.361   3.003
 3555SOL    HW211565   0.685   3.328   2.964
 3556SOL     OW11566   3.251   0.437   5.335
 3556SOL    HW111567   3.238   0.350   5.382
 3556SOL    HW211568   3.208   0.510   5.387
 3557SOL     OW11569   0.997   1.132   4.873
 3557SOL    HW111570   1.097   1.132   4.861
 3557SOL    HW211571   0.965   1.225   4.891
 3558SOL     OW11572   0.085   5.541   1.671
 3558SOL    HW111573   0.035   5.472   1.616
 3558SOL    HW211574   0.153   5.495   1.727
 3559SOL     OW11575   0.278   0.169   5.097
 3559SOL    HW111576   0.286   0.125   5.007
 3559SOL    HW211577   0.242   0.262   5.085
 3560SOL     OW11578   1.401   5.847   1.112
 3560SOL    HW111579   1.470   5.816   1.177
 3560SOL    HW211580   1.356   5.929   1.148
 3561SOL     OW11581   5.055   4.605   6.142
 3561SOL    HW111582   5.113   4.563   6.071
 3561SOL    HW211583   5.107   4.676   6.189
 3562SOL     OW11584   4.898   0.580   3.662
 3562SOL    HW111585   4.930   0.545   3.750
 3562SOL    HW211586   4.976   0.612   3.607
 3563SOL     OW11587   5.328   1.301   1.539
 3563SOL    HW111588   5.402   1.246   1.577
 3563SOL    HW211589   5.345   1.398   1.560
 3564SOL     OW11590   0.619   4.345   4.658
 3564SOL    HW111591   0.594   4.265   4.712
 3564SOL    HW211592   0.693   4.394   4.704
 3565SOL     OW11593   3.141   6.336   4.870
 3565SOL    HW111594   3.236   6.319   4.896
 3565SOL    HW211595   3.103   6.253   4.830
 3566SOL     OW11596   6.870   3.246   5.883
 3566SOL    HW111597   6.912   3.336   5.895
 3566SOL    HW211598   6.780   3.256   5.842
 3567SOL     OW11599   0.897   2.541   0.525
 3567SOL    HW111600   0.831   2.495   0.466
 3567SOL    HW211601   0.867   2.635   0.542
 3568SOL     OW11602   4.959   5.226   2.680
 3568SOL    HW111603   5.054   5.206   2.655
 3568SOL    HW211604   4.913   5.141   2.706
 3569SOL     OW11605   3.110   3.105   4.969
 3569SOL    HW111606   3.146   3.173   5.033
 3569SOL    HW211607   3.178   3.034   4.953
 3570SOL     OW11608   5.882   1.742   5.383
 3570SOL    HW111609   5.982   1.735   5.377
 3570SOL    HW211610   5.848   1.672   5.445
 3571SOL     OW11611   1.730   0.763   4.836
 3571SOL    HW111612   1.807   0.778   4.774
 3571SOL    HW211613   1.764   0.733   4.925
 3572SOL     OW11614   5.232   4.323   2.281
 3572SOL    HW111615   5.243   4.266   2.362
 3572SOL    HW211616   5.137   4.318   2.249
 3573SOL     OW11617   6.519   4.452   2.164
 3573SOL    HW111618   6.429   4.460   2.122
 3573SOL    HW211619   6.518   4.377   2.230
 3574SOL     OW11620   2.331   2.942   6.346
 3574SOL    HW111621   2.306   2.907   6.256
 3574SOL    HW211622   2.248   2.970   6.395
 3575SOL     OW11623   4.800   5.804   0.529
 3575SOL    HW111624   4.786   5.762   0.619
 3575SOL    HW211625   4.797   5.733   0.459
 3576SOL     OW11626   0.275   2.938   0.035
 3576SOL    HW111627   0.335   2.859   0.025
 3576SOL    HW211628   0.302   2.990   0.116
 3577SOL     OW11629   2.278   2.689   5.416
 3577SOL    HW111630   2.362   2.698   5.362
 3577SOL    HW211631   2.278   2.601   5.464
 3578SOL     OW11632   3.184   2.568   0.613
 3578SOL    HW111633   3.279   2.537   0.609
 3578SOL    HW211634   3.132   2.510   0.676
 3579SOL     OW11635   0.351   3.525   2.090
 3579SOL    HW111636   0.400   3.459   2.147
 3579SOL    HW211637   0.309   3.595   2.148
 3580SOL     OW11638   0.582   2.857   1.292
 3580SOL    HW111639   0.670   2.823   1.259
 3580SOL    HW211640   0.592   2.950   1.325
 3581SOL     OW11641   0.638   0.282   3.166
 3581SOL    HW111642   0.683   0.213   3.109
 3581SOL    HW211643   0.693   0.298   3.248
 3582SOL     OW11644   3.152   4.353   5.931
 3582SOL    HW111645   3.225   4.391   5.873
 3582SOL    HW211646   3.063   4.381   5.895
 3583SOL     OW11647   0.648   4.501   0.602
 3583SOL    HW111648   0.620   4.586   0.558
 3583SOL    HW211649   0.735   4.516   0.650
 3584SOL     OW11650   5.774   4.492   5.524
 3584SOL    HW111651   5.803   4.409   5.476
 3584SOL    HW211652   5.783   4.571   5.463
 3585SOL     OW11653   2.572   2.533   4.777
 3585SOL    HW111654   2.601   2.624   4.808
 3585SOL    HW211655   2.651   2.471   4.777
 3586SOL     OW11656   6.327   3.051   3.971
 3586SOL    HW111657   6.275   3.101   4.041
 3586SOL    HW211658   6.399   3.111   3.935
 3587SOL     OW11659   3.769   6.513   6.196
 3587SOL    HW111660   3.780   6.607   6.228
 3587SOL    HW211661   3.855   6.479   6.158
 3588SOL     OW11662   6.161   4.235   4.462
 3588SOL    HW111663   6.182   4.325   4.422
 3588SOL    HW211664   6.184   4.163   4.396
 3589SOL     OW11665   0.346   6.855   5.657
 3589SOL    HW111666   0.378   6.810   5.740
 3589SOL    HW211667   0.364   6.796   5.578
 3590SOL     OW11668   0.285   4.088   0.413
 3590SOL    HW111669   0.277   4.163   0.478
 3590SOL    HW211670   0.347   4.113   0.339
 3591SOL     OW11671   5.497   2.503   6.789
 3591SOL    HW111672   5.440   2.553   6.855
 3591SOL    HW211673   5.438   2.459   6.721
 3592SOL     OW11674   1.202   0.693   2.330
 3592SOL    HW111675   1.245   0.616   2.283
 3592SOL    HW211676   1.123   0.660   2.383
 3593SOL     OW11677   6.165   3.511   5.692
 3593SOL    HW111678   6.131   3.604   5.701
 3593SOL    HW211679   6.095   3.454   5.649
 3594SOL     OW11680   4.178   5.473   4.909
 3594SOL    HW111681   4.162   5.546   4.843
 3594SOL    HW211682   4.275   5.472   4.935
 3595SOL     OW11683   5.809   5.877   6.667
 3595SOL    HW111684   5.766   5.798   6.710
 3595SOL    HW211685   5.754   5.959   6.684
 3596SOL     OW11686   4.010   1.735   3.419
 3596SOL    HW111687   3.927   1.680   3.412
 3596SOL    HW211688   4.086   1.678   3.448
 3597SOL     OW11689   1.762   3.188   4.906
 3597SOL    HW111690   1.850   3.141   4.909
 3597SOL    HW211691   1.714   3.163   4.822
 3598SOL     OW11692   1.398   5.558   5.424
 3598SOL    HW111693   1.494   5.565   5.452
 3598SOL    HW211694   1.376   5.463   5.405
 3599SOL     OW11695   4.373   1.696   6.058
 3599SOL    HW111696   4.371   1.767   5.988
 3599SOL    HW211697   4.455   1.640   6.047
 3600SOL     OW11698   3.040   3.680   0.557
 3600SOL    HW111699   3.047   3.630   0.643
 3600SOL    HW211700   3.102   3.641   0.490
 3601SOL     OW11701   4.947   1.293   5.490
 3601SOL    HW111702   4.947   1.344   5.404
 3601SOL    HW211703   4.935   1.196   5.471
 3602SOL     OW11704   1.955   2.506   1.406
 3602SOL    HW111705   1.876   2.525   1.464
 3602SOL    HW211706   2.009   2.431   1.446
 3603SOL     OW11707   3.201   1.082   6.097
 3603SOL    HW111708   3.289   1.040   6.075
 3603SOL    HW211709   3.175   1.145   6.024
 3604SOL     OW11710   0.057   0.714   3.595
 3604SOL    HW111711   0.129   0.667   3.647
 3604SOL    HW211712   6.988   0.703   3.642
 3605SOL     OW11713   1.236   5.100   3.243
 3605SOL    HW111714   1.306   5.035   3.275
 3605SOL    HW211715   1.155   5.049   3.214
 3606SOL     OW11716   1.733   6.281   1.650
 3606SOL    HW111717   1.751   6.379   1.643
 3606SOL    HW211718   1.655   6.265   1.711
 3607SOL     OW11719   5.096   2.717   2.636
 3607SOL    HW111720   5.014   2.754   2.680
 3607SOL    HW211721   5.109   2.761   2.547
 3608SOL     OW11722   4.190   1.956   4.221
 3608SOL    HW111723   4.155   2.004   4.141
 3608SOL    HW211724   4.140   1.871   4.234
 3609SOL     OW11725   2.401   6.716   4.551
 3609SOL    HW111726   2.343   6.699   4.631
 3609SOL    HW211727   2.380   6.649   4.479
 3610SOL     OW11728   2.042   0.034   5.488
 3610SOL    HW111729   2.044   0.061   5.392
 3610SOL    HW211730   2.014   0.111   5.544
 3611SOL     OW11731   4.552   4.416   4.175
 3611SOL    HW111732   4.627   4.352   4.157
 3611SOL    HW211733   4.533   4.468   4.091
 3612SOL     OW11734   6.032   1.326   6.707
 3612SOL    HW111735   6.066   1.311   6.800
 3612SOL    HW211736   5.943   1.370   6.711
 3613SOL     OW11737   3.195   5.433   1.326
 3613SOL    HW111738   3.242   5.390   1.403
 3613SOL    HW211739   3.231   5.397   1.240
 3614SOL     OW11740   3.450   4.091   6.550
 3614SOL    HW111741   3.528   4.106   6.610
 3614SOL    HW211742   3.430   4.175   6.499
 3615SOL     OW11743   6.168   2.848   5.560
 3615SOL    HW111744   6.176   2.798   5.646
 3615SOL    HW211745   6.077   2.833   5.521
 3616SOL     OW11746   2.032   1.774   6.823
 3616SOL    HW111747   2.086   1.727   6.753
 3616SOL    HW211748   1.960   1.712   6.856
 3617SOL     OW11749   4.021   0.012   5.970
 3617SOL    HW111750   4.069   6.968   5.909
 3617SOL    HW211751   3.923   0.010   5.949
 3618SOL     OW11752   1.677   3.996   5.018
 3618SOL    HW111753   1.768   3.958   5.000
 3618SOL    HW211754   1.617   3.924   5.053
 3619SOL     OW11755   6.080   2.862   0.871
 3619SOL    HW111756   6.037   2.876   0.960
 3619SOL    HW211757   6.142   2.938   0.853
 3620SOL     OW11758   6.347   6.563   4.736
 3620SOL    HW111759   6.442   6.565   4.705
 3620SOL    HW211760   6.303   6.651   4.718
 3621SOL     OW11761   3.915   3.102   3.978
 3621SOL    HW111762   3.938   3.067   4.069
 3621SOL    HW211763   3.997   3.139   3.934
 3622SOL     OW11764   0.902   6.509   0.600
 3622SOL    HW111765   0.873   6.597   0.562
 3622SOL    HW211766   0.919   6.519   0.699
 3623SOL     OW11767   1.507   5.330   5.835
 3623SOL    HW111768   1.530   5.236   5.856
 3623SOL    HW211769   1.563   5.392   5.890
 3624SOL     OW11770   3.122   0.822   1.845
 3624SOL    HW111771   3.194   0.756   1.868
 3624SOL    HW211772   3.095   0.873   1.927
 3625SOL     OW11773   6.473   3.210   6.574
 3625SOL    HW111774   6.543   3.281   6.567
 3625SOL    HW211775   6.386   3.251   6.601
 3626SOL     OW11776   0.512   2.464   5.007
 3626SOL    HW111777   0.557   2.399   5.068
 3626SOL    HW211778   0.465   2.534   5.062
 3627SOL     OW11779   4.478   3.106   1.269
 3627SOL    HW111780   4.492   3.153   1.356
 3627SOL    HW211781   4.560   3.116   1.213
 3628SOL     OW11782   0.746   0.995   1.960
 3628SOL    HW111783   0.814   1.007   2.033
 3628SOL    HW211784   0.666   1.051   1.980
 3629SOL     OW11785   1.125   1.564   4.447
 3629SOL    HW111786   1.167   1.632   4.388
 3629SOL    HW211787   1.092   1.607   4.531
 3630SOL     OW11788   6.953   2.737   3.503
 3630SOL    HW111789   7.003   2.813   3.463
 3630SOL    HW211790   6.954   2.745   3.602
 3631SOL     OW11791   1.732   6.521   2.633
 3631SOL    HW111792   1.796   6.578   2.684
 3631SOL    HW211793   1.664   6.483   2.696
 3632SOL     OW11794   4.513   3.617   1.116
 3632SOL    HW111795   4.579   3.666   1.172
 3632SOL    HW211796   4.555   3.592   1.029
 3633SOL     OW11797   3.838   2.753   5.977
 3633SOL    HW111798   3.829   2.821   6.050
 3633SOL    HW211799   3.885   2.672   6.013
 3634SOL     OW11800   3.072   5.686   5.809
 3634SOL    HW111801   3.163   5.684   5.851
 3634SOL    HW211802   3.082   5.687   5.709
 3635SOL     OW11803   3.168   1.003   1.609
 3635SOL    HW111804   3.114   1.079   1.572
 3635SOL    HW211805   3.184   1.019   1.706
 3636SOL     OW11806   1.128   5.840   6.681
 3636SOL    HW111807   1.136   5.932   6.645
 3636SOL    HW211808   1.069   5.785   6.621
 3637SOL     OW11809   0.103   2.952   6.829
 3637SOL    HW111810   0.164   2.961   6.908
 3637SOL    HW211811   0.017   3.000   6.848
 3638SOL     OW11812   5.831   4.726   2.356
 3638SOL    HW111813   5.845   4.755   2.450
 3638SOL    HW211814   5.919   4.707   2.313
 3639SOL     OW11815   3.874   4.108   4.445
 3639SOL    HW111816   3.852   4.184   4.507
 3639SOL    HW211817   3.801   4.098   4.378
 3640SOL     OW11818   5.108   2.781   0.370
 3640SOL    HW111819   5.051   2.846   0.319
 3640SOL    HW211820   5.204   2.805   0.358
 3641SOL     OW11821   6.915   4.010   1.481
 3641SOL    HW111822   6.870   4.003   1.570
 3641SOL    HW211823   6.917   3.919   1.438
 3642SOL     OW11824   6.061   2.409   6.597
 3642SOL    HW111825   6.031   2.317   6.573
 3642SOL    HW211826   5.983   2.470   6.603
 3643SOL     OW11827   4.026   5.791   5.644
 3643SOL    HW111828   4.022   5.889   5.626
 3643SOL    HW211829   4.063   5.744   5.564
 3644SOL     OW11830   3.458   0.693   1.903
 3644SOL    HW111831   3.427   0.606   1.864
 3644SOL    HW211832   3.557   0.699   1.898
 3645SOL     OW11833   1.585   4.038   4.449
 3645SOL    HW111834   1.507   4.095   4.472
 3645SOL    HW211835   1.600   3.971   4.523
 3646SOL     OW11836   2.652   4.673   4.691
 3646SOL    HW111837   2.728   4.663   4.755
 3646SOL    HW211838   2.568   4.640   4.733
 3647SOL     OW11839   2.190   0.251   0.492
 3647SOL    HW111840   2.157   0.295   0.575
 3647SOL    HW211841   2.155   0.157   0.489
 3648SOL     OW11842   4.512   5.676   3.614
 3648SOL    HW111843   4.463   5.756   3.648
 3648SOL    HW211844   4.592   5.705   3.563
 3649SOL     OW11845   5.806   3.694   0.431
 3649SOL    HW111846   5.879   3.724   0.492
 3649SOL    HW211847   5.819   3.597   0.408
 3650SOL     OW11848   4.933   4.923   0.217
 3650SOL    HW111849   4.990   4.841   0.220
 3650SOL    HW211850   4.848   4.903   0.167
 3651SOL     OW11851   0.974   2.342   6.006
 3651SOL    HW111852   0.917   2.281   6.061
 3651SOL    HW211853   1.068   2.308   6.004
 3652SOL     OW11854   5.057   1.629   1.828
 3652SOL    HW111855   4.969   1.620   1.782
 3652SOL    HW211856   5.100   1.539   1.835
 3653SOL     OW11857   0.600   1.330   1.879
 3653SOL    HW111858   0.581   1.247   1.931
 3653SOL    HW211859   0.524   1.349   1.817
 3654SOL     OW11860   5.555   0.403   0.983
 3654SOL    HW111861   5.457   0.394   1.001
 3654SOL    HW211862   5.571   0.483   0.925
 3655SOL     OW11863   1.416   1.860   4.067
 3655SOL    HW111864   1.493   1.864   4.003
 3655SOL    HW211865   1.450   1.833   4.157
 3656SOL     OW11866   0.249   5.559   1.331
 3656SOL    HW111867   0.219   5.627   1.399
 3656SOL    HW211868   0.223   5.590   1.240
 3657SOL     OW11869   4.595   6.403   4.520
 3657SOL    HW111870   4.545   6.379   4.604
 3657SOL    HW211871   4.634   6.494   4.530
 3658SOL     OW11872   1.244   5.417   6.071
 3658SOL    HW111873   1.157   5.368   6.069
 3658SOL    HW211874   1.273   5.437   5.977
 3659SOL     OW11875   6.799   2.051   6.218
 3659SOL    HW111876   6.801   1.965   6.268
 3659SOL    HW211877   6.726   2.048   6.150
 3660SOL     OW11878   6.208   5.516   6.195
 3660SOL    HW111879   6.274   5.532   6.268
 3660SOL    HW211880   6.123   5.480   6.234
 3661SOL     OW11881   6.924   1.649   4.915
 3661SOL    HW111882   6.967   1.716   4.854
 3661SOL    HW211883   6.906   1.565   4.864
 3662SOL     OW11884   3.642   1.122   5.359
 3662SOL    HW111885   3.714   1.190   5.344
 3662SOL    HW211886   3.597   1.140   5.446
 3663SOL     OW11887   2.292   2.635   6.206
 3663SOL    HW111888   2.390   2.649   6.190
 3663SOL    HW211889   2.273   2.646   6.303
 3664SOL     OW11890   4.010   1.878   2.119
 3664SOL    HW111891   3.932   1.937   2.138
 3664SOL    HW211892   4.057   1.910   2.037
 3665SOL     OW11893   0.786   5.808   5.618
 3665SOL    HW111894   0.836   5.809   5.705
 3665SOL    HW211895   0.848   5.782   5.544
 3666SOL     OW11896   2.124   1.836   4.942
 3666SOL    HW111897   2.164   1.867   5.028
 3666SOL    HW211898   2.029   1.867   4.936
 3667SOL     OW11899   2.270   0.864   2.724
 3667SOL    HW111900   2.249   0.863   2.627
 3667SOL    HW211901   2.356   0.816   2.740
 3668SOL     OW11902   0.515   0.281   1.499
 3668SOL    HW111903   0.606   0.257   1.465
 3668SOL    HW211904   0.459   0.199   1.506
 3669SOL     OW11905   6.737   1.453   3.988
 3669SOL    HW111906   6.672   1.524   4.015
 3669SOL    HW211907   6.827   1.494   3.976
 3670SOL     OW11908   3.583   5.353   1.579
 3670SOL    HW111909   3.609   5.265   1.618
 3670SOL    HW211910   3.601   5.426   1.645
 3671SOL     OW11911   7.016   0.584   3.351
 3671SOL    HW111912   0.085   0.542   3.328
 3671SOL    HW211913   7.017   0.615   3.446
 3672SOL     OW11914   4.115   0.576   3.031
 3672SOL    HW111915   4.144   0.483   3.057
 3672SOL    HW211916   4.029   0.597   3.077
 3673SOL     OW11917   4.922   6.006   1.044
 3673SOL    HW111918   4.970   6.009   0.956
 3673SOL    HW211919   4.988   5.989   1.117
 3674SOL     OW11920   1.549   5.080   5.888
 3674SOL    HW111921   1.624   5.049   5.830
 3674SOL    HW211922   1.467   5.026   5.868
 3675SOL     OW11923   0.186   1.307   3.948
 3675SOL    HW111924   0.132   1.252   4.013
 3675SOL    HW211925   0.198   1.399   3.985
 3676SOL     OW11926   4.742   1.528   3.462
 3676SOL    HW111927   4.690   1.479   3.532
 3676SOL    HW211928   4.678   1.579   3.404
 3677SOL     OW11929   2.246   0.506   3.844
 3677SOL    HW111930   2.309   0.430   3.858
 3677SOL    HW211931   2.298   0.590   3.832
 3678SOL     OW11932   1.526   0.378   3.509
 3678SOL    HW111933   1.620   0.370   3.477
 3678SOL    HW211934   1.463   0.346   3.438
 3679SOL     OW11935   4.722   1.143   2.619
 3679SOL    HW111936   4.675   1.153   2.706
 3679SOL    HW211937   4.655   1.141   2.545
 3680SOL     OW11938   3.751   1.055   4.153
 3680SOL    HW111939   3.688   1.067   4.229
 3680SOL    HW211940   3.806   1.138   4.141
 3681SOL     OW11941   1.401   0.078   4.902
 3681SOL    HW111942   1.303   0.077   4.924
 3681SOL    HW211943   1.414   0.045   4.809
 3682SOL     OW11944   5.600   2.550   1.285
 3682SOL    HW111945   5.609   2.473   1.221
 3682SOL    HW211946   5.625   2.519   1.377
 3683SOL     OW11947   6.975   0.497   5.898
 3683SOL    HW111948   6.937   0.502   5.990
 3683SOL    HW211949   6.911   0.538   5.833
 3684SOL     OW11950   1.901   6.662   5.506
 3684SOL    HW111951   1.877   6.626   5.597
 3684SOL    HW211952   1.845   6.743   5.487
 3685SOL     OW11953   2.431   5.936   5.578
 3685SOL    HW111954   2.449   5.954   5.481
 3685SOL    HW211955   2.403   5.840   5.589
 3686SOL     OW11956   0.110   4.193   3.892
 3686SOL    HW111957   0.132   4.223   3.985
 3686SOL    HW211958   0.108   4.273   3.831
 3687SOL     OW11959   4.736   6.046   3.356
 3687SOL    HW111960   4.807   6.073   3.421
 3687SOL    HW211961   4.754   5.954   3.323
 3688SOL     OW11962   5.833   3.410   0.406
 3688SOL    HW111963   5.761   3.350   0.372
 3688SOL    HW211964   5.867   3.375   0.493
 3689SOL     OW11965   1.683   0.260   5.710
 3689SOL    HW111966   1.667   0.163   5.693
 3689SOL    HW211967   1.638   0.287   5.796
 3690SOL     OW11968   4.780   4.999   0.666
 3690SOL    HW111969   4.732   4.921   0.625
 3690SOL    HW211970   4.846   5.035   0.601
 3691SOL     OW11971   2.594   2.527   0.573
 3691SOL    HW111972   2.604   2.430   0.597
 3691SOL    HW211973   2.605   2.583   0.655
 3692SOL     OW11974   0.632   3.506   6.339
 3692SOL    HW111975   0.692   3.497   6.419
 3692SOL    HW211976   0.571   3.427   6.334
 3693SOL     OW11977   0.370   1.751   2.704
 3693SOL    HW111978   0.346   1.763   2.800
 3693SOL    HW211979   0.418   1.664   2.692
 3694SOL     OW11980   0.011   7.004   1.615
 3694SOL    HW111981   0.107   6.981   1.624
 3694SOL    HW211982   7.003   0.046   1.689
 3695SOL     OW11983   6.483   2.346   2.713
 3695SOL    HW111984   6.509   2.376   2.621
 3695SOL    HW211985   6.558   2.294   2.753
 3696SOL     OW11986   5.142   0.848   4.604
 3696SOL    HW111987   5.194   0.890   4.530
 3696SOL    HW211988   5.179   0.758   4.625
 3697SOL     OW11989   6.341   6.565   3.555
 3697SOL    HW111990   6.401   6.486   3.540
 3697SOL    HW211991   6.246   6.538   3.542
 3698SOL     OW11992   2.239   0.716   2.980
 3698SOL    HW111993   2.209   0.746   2.890
 3698SOL    HW211994   2.164   0.726   3.045
 3699SOL     OW11995   2.554   2.222   3.875
 3699SOL    HW111996   2.537   2.267   3.963
 3699SOL    HW211997   2.542   2.123   3.887
 3700SOL     OW11998   0.869   5.092   5.484
 3700SOL    HW111999   0.875   5.039   5.569
 3700SOL    HW212000   0.893   5.034   5.407
 3701SOL     OW12001   1.585   0.275   2.756
 3701SOL    HW112002   1.682   0.254   2.767
 3701SOL    HW212003   1.568   0.314   2.666
 3702SOL     OW12004   4.936   4.876   3.682
 3702SOL    HW112005   5.016   4.815   3.679
 3702SOL    HW212006   4.960   4.965   3.646
 3703SOL     OW12007   1.265   1.683   4.996
 3703SOL    HW112008   1.343   1.691   4.934
 3703SOL    HW212009   1.207   1.607   4.967
 3704SOL     OW12010   0.265   2.105   1.099
 3704SOL    HW112011   0.353   2.151   1.102
 3704SOL    HW212012   0.202   2.147   1.165
 3705SOL     OW12013   4.893   4.575   3.221
 3705SOL    HW112014   4.839   4.628   3.155
 3705SOL    HW212015   4.844   4.571   3.308
 3706SOL     OW12016   1.383   3.612   0.413
 3706SOL    HW112017   1.300   3.557   0.419
 3706SOL    HW212018   1.445   3.589   0.487
 3707SOL     OW12019   1.735   4.890   3.328
 3707SOL    HW112020   1.751   4.981   3.368
 3707SOL    HW212021   1.765   4.820   3.392
 3708SOL     OW12022   3.800   6.727   0.705
 3708SOL    HW112023   3.830   6.731   0.801
 3708SOL    HW212024   3.752   6.641   0.689
 3709SOL     OW12025   1.851   0.710   2.758
 3709SOL    HW112026   1.761   0.721   2.799
 3709SOL    HW212027   1.874   0.791   2.705
 3710SOL     OW12028   6.943   5.218   5.587
 3710SOL    HW112029   6.951   5.317   5.586
 3710SOL    HW212030   7.003   5.179   5.656
 3711SOL     OW12031   1.489   5.891   4.776
 3711SOL    HW112032   1.564   5.924   4.835
 3711SOL    HW212033   1.401   5.914   4.818
 3712SOL     OW12034   1.956   5.205   4.886
 3712SOL    HW112035   1.997   5.266   4.819
 3712SOL    HW212036   1.940   5.255   4.971
 3713SOL     OW12037   6.224   6.578   4.968
 3713SOL    HW112038   6.271   6.574   4.880
 3713SOL    HW212039   6.131   6.612   4.954
 3714SOL     OW12040   0.956   4.790   0.191
 3714SOL    HW112041   0.995   4.731   0.121
 3714SOL    HW212042   0.880   4.843   0.152
 3715SOL     OW12043   6.555   5.891   3.641
 3715SOL    HW112044   6.519   5.828   3.572
 3715SOL    HW212045   6.582   5.840   3.722
 3716SOL     OW12046   4.973   5.826   3.611
 3716SOL    HW112047   5.023   5.819   3.697
 3716SOL    HW212048   5.035   5.854   3.538
 3717SOL     OW12049   4.363   1.202   1.375
 3717SOL    HW112050   4.372   1.250   1.462
 3717SOL    HW212051   4.451   1.202   1.327
 3718SOL     OW12052   6.936   6.485   6.181
 3718SOL    HW112053   6.947   6.582   6.200
 3718SOL    HW212054   6.977   6.431   6.255
 3719SOL     OW12055   4.573   4.007   5.877
 3719SOL    HW112056   4.590   3.958   5.963
 3719SOL    HW212057   4.637   3.975   5.807
 3720SOL     OW12058   0.047   3.001   1.657
 3720SOL    HW112059   0.055   3.067   1.731
 3720SOL    HW212060   0.121   2.934   1.663
 3721SOL     OW12061   6.419   4.718   6.789
 3721SOL    HW112062   6.389   4.723   6.693
 3721SOL    HW212063   6.482   4.794   6.808
 3722SOL     OW12064   3.935   0.124   2.720
 3722SOL    HW112065   4.020   0.089   2.756
 3722SOL    HW212066   3.862   0.112   2.788
 3723SOL     OW12067   4.808   4.713   6.728
 3723SOL    HW112068   4.866   4.767   6.789
 3723SOL    HW212069   4.825   4.616   6.744
 3724SOL     OW12070   1.444   4.686   5.436
 3724SOL    HW112071   1.514   4.734   5.384
 3724SOL    HW212072   1.436   4.726   5.527
 3725SOL     OW12073   0.668   6.566   6.772
 3725SOL    HW112074   0.766   6.582   6.764
 3725SOL    HW212075   0.645   6.478   6.731
 3726SOL     OW12076   5.587   3.451   3.708
 3726SOL    HW112077   5.611   3.387   3.634
 3726SOL    HW212078   5.523   3.406   3.770
 3727SOL     OW12079   0.188   3.238   4.301
 3727SOL    HW112080   0.166   3.229   4.204
 3727SOL    HW212081   0.275   3.192   4.320
 3728SOL     OW12082   3.118   3.471   0.016
 3728SOL    HW112083   3.127   3.454   6.937
 3728SOL    HW212084   3.183   3.412   0.065
 3729SOL     OW12085   0.802   7.009   5.531
 3729SOL    HW112086   0.876   0.057   5.539
 3729SOL    HW212087   0.834   6.920   5.564
 3730SOL     OW12088   3.734   5.601   5.581
 3730SOL    HW112089   3.830   5.618   5.561
 3730SOL    HW212090   3.719   5.606   5.680
 3731SOL     OW12091   0.694   2.292   6.465
 3731SOL    HW112092   0.667   2.197   6.474
 3731SOL    HW212093   0.616   2.351   6.488
 3732SOL     OW12094   2.852   2.172   0.054
 3732SOL    HW112095   2.769   2.133   0.092
 3732SOL    HW212096   2.863   2.266   0.087
 3733SOL     OW12097   1.756   1.814   3.651
 3733SOL    HW112098   1.723   1.826   3.558
 3733SOL    HW212099   1.835   1.752   3.652
 3734SOL     OW12100   4.154   0.026   1.343
 3734SOL    HW112101   4.191   0.088   1.275
 3734SOL    HW212102   4.213   0.025   1.423
 3735SOL     OW12103   4.147   6.914   2.561
 3735SOL    HW112104   4.180   6.991   2.505
 3735SOL    HW212105   4.053   6.894   2.536
 3736SOL     OW12106   0.009   0.973   1.194
 3736SOL    HW112107   0.005   1.044   1.264
 3736SOL    HW212108   0.104   0.954   1.171
 3737SOL     OW12109   0.556   2.360   3.362
 3737SOL    HW112110   0.583   2.363   3.266
 3737SOL    HW212111   0.471   2.309   3.371
 3738SOL     OW12112   6.849   6.461   0.808
 3738SOL    HW112113   6.937   6.423   0.836
 3738SOL    HW212114   6.778   6.432   0.872
 3739SOL     OW12115   2.747   5.196   0.878
 3739SOL    HW112116   2.840   5.231   0.871
 3739SOL    HW212117   2.748   5.103   0.916
 3740SOL     OW12118   5.665   5.339   6.640
 3740SOL    HW112119   5.712   5.253   6.625
 3740SOL    HW212120   5.732   5.412   6.654
 3741SOL     OW12121   5.095   3.242   0.381
 3741SOL    HW112122   5.179   3.257   0.330
 3741SOL    HW212123   5.040   3.173   0.334
 3742SOL     OW12124   3.275   5.943   6.927
 3742SOL    HW112125   3.267   5.843   6.927
 3742SOL    HW212126   3.230   5.980   7.008
 3743SOL     OW12127   4.217   3.650   1.315
 3743SOL    HW112128   4.163   3.661   1.399
 3743SOL    HW212129   4.309   3.620   1.339
 3744SOL     OW12130   0.127   6.689   2.319
 3744SOL    HW112131   0.030   6.686   2.299
 3744SOL    HW212132   0.166   6.597   2.312
 3745SOL     OW12133   4.806   4.089   2.329
 3745SOL    HW112134   4.764   4.153   2.265
 3745SOL    HW212135   4.835   4.007   2.280
 3746SOL     OW12136   6.420   0.847   4.337
 3746SOL    HW112137   6.503   0.896   4.311
 3746SOL    HW212138   6.444   0.754   4.367
 3747SOL     OW12139   4.125   6.601   5.969
 3747SOL    HW112140   4.052   6.535   5.985
 3747SOL    HW212141   4.210   6.569   6.012
 3748SOL     OW12142   5.337   1.528   2.619
 3748SOL    HW112143   5.264   1.577   2.667
 3748SOL    HW212144   5.342   1.560   2.525
 3749SOL     OW12145   0.113   6.286   2.968
 3749SOL    HW112146   0.016   6.306   2.952
 3749SOL    HW212147   0.126   6.187   2.972
 3750SOL     OW12148   5.907   4.170   0.133
 3750SOL    HW112149   5.910   4.227   0.051
 3750SOL    HW212150   5.877   4.225   0.211
 3751SOL     OW12151   1.935   3.386   1.706
 3751SOL    HW112152   1.896   3.424   1.622
 3751SOL    HW212153   1.996   3.454   1.748
 3752SOL     OW12154   0.884   6.655   6.628
 3752SOL    HW112155   0.852   6.607   6.546
 3752SOL    HW212156   0.983   6.666   6.624
 3753SOL     OW12157   0.028   6.066   4.090
 3753SOL    HW112158   6.967   6.006   4.083
 3753SOL    HW212159   0.089   6.033   4.161
 3754SOL     OW12160   6.139   6.154   1.452
 3754SOL    HW112161   6.234   6.184   1.445
 3754SOL    HW212162   6.131   6.059   1.421
 3755SOL     OW12163   4.898   4.026   3.753
 3755SOL    HW112164   4.921   3.944   3.805
 3755SOL    HW212165   4.865   3.999   3.662
 3756SOL     OW12166   2.329   1.915   6.654
 3756SOL    HW112167   2.292   1.823   6.645
 3756SOL    HW212168   2.389   1.920   6.735
 3757SOL     OW12169   2.886   5.588   6.537
 3757SOL    HW112170   2.879   5.680   6.575
 3757SOL    HW212171   2.913   5.594   6.440
 3758SOL     OW12172   2.102   1.088   4.048
 3758SOL    HW112173   2.117   1.187   4.038
 3758SOL    HW212174   2.113   1.044   3.960
 3759SOL     OW12175   5.135   4.564   5.652
 3759SOL    HW112176   5.185   4.562   5.738
 3759SOL    HW212177   5.051   4.616   5.663
 3760SOL     OW12178   1.668   2.499   4.647
 3760SOL    HW112179   1.645   2.484   4.743
 3760SOL    HW212180   1.767   2.489   4.635
 3761SOL     OW12181   0.766   6.473   4.693
 3761SOL    HW112182   0.826   6.458   4.771
 3761SOL    HW212183   0.811   6.531   4.626
 3762SOL     OW12184   0.782   4.111   0.530
 3762SOL    HW112185   0.851   4.062   0.583
 3762SOL    HW212186   0.719   4.158   0.592
 3763SOL     OW12187   6.424   2.970   6.435
 3763SOL    HW112188   6.435   3.062   6.475
 3763SOL    HW212189   6.497   2.953   6.370
 3764SOL     OW12190   2.462   6.921   3.859
 3764SOL    HW112191   2.519   6.983   3.804
 3764SOL    HW212192   2.427   6.969   3.939
 3765SOL     OW12193   5.891   0.782   2.970
 3765SOL    HW112194   5.879   0.825   3.060
 3765SOL    HW212195   5.896   0.682   2.982
 3766SOL     OW12196   0.308   0.957   4.525
 3766SOL    HW112197   0.298   0.877   4.466
 3766SOL    HW212198   0.273   1.038   4.477
 3767SOL     OW12199   1.438   5.296   6.941
 3767SOL    HW112200   1.468   5.304   0.017
 3767SOL    HW212201   1.508   5.333   6.880
 3768SOL     OW12202   5.006   6.665   0.244
 3768SOL    HW112203   4.979   6.754   0.210
 3768SOL    HW212204   5.017   6.601   0.168
 3769SOL     OW12205   5.097   6.451   5.449
 3769SOL    HW112206   5.071   6.386   5.520
 3769SOL    HW212207   5.030   6.526   5.446
 3770SOL     OW12208   2.040   1.271   6.660
 3770SOL    HW112209   2.099   1.291   6.738
 3770SOL    HW212210   2.096   1.239   6.583
 3771SOL     OW12211   5.546   1.919   6.429
 3771SOL    HW112212   5.516   1.894   6.337
 3771SOL    HW212213   5.539   1.840   6.489
 3772SOL     OW12214   5.552   0.869   1.502
 3772SOL    HW112215   5.617   0.832   1.435
 3772SOL    HW212216   5.491   0.797   1.533
 3773SOL     OW12217   6.416   2.488   6.135
 3773SOL    HW112218   6.332   2.478   6.080
 3773SOL    HW212219   6.403   2.559   6.203
 3774SOL     OW12220   0.291   0.863   7.017
 3774SOL    HW112221   0.295   0.807   6.934
 3774SOL    HW212222   0.230   0.941   7.001
 3775SOL     OW12223   5.950   3.708   3.472
 3775SOL    HW112224   5.968   3.654   3.390
 3775SOL    HW212225   5.909   3.650   3.542
 3776SOL     OW12226   2.317   2.722   1.458
 3776SOL    HW112227   2.263   2.703   1.540
 3776SOL    HW212228   2.403   2.671   1.461
 3777SOL     OW12229   2.888   5.043   3.889
 3777SOL    HW112230   2.794   5.016   3.868
 3777SOL    HW212231   2.891   5.142   3.904
 3778SOL     OW12232   2.762   5.553   1.353
 3778SOL    HW112233   2.757   5.636   1.408
 3778SOL    HW212234   2.792   5.476   1.409
 3779SOL     OW12235   2.605   4.670   6.702
 3779SOL    HW112236   2.535   4.678   6.631
 3779SOL    HW212237   2.562   4.645   6.788
 3780SOL     OW12238   3.406   6.291   4.961
 3780SOL    HW112239   3.418   6.281   5.060
 3780SOL    HW212240   3.494   6.280   4.915
 3781SOL     OW12241   3.302   6.140   4.575
 3781SOL    HW112242   3.392   6.143   4.532
 3781SOL    HW212243   3.292   6.054   4.625
 3782SOL     OW12244   2.021   1.514   4.295
 3782SOL    HW112245   2.104   1.523   4.350
 3782SOL    HW212246   2.012   1.593   4.235
 3783SOL     OW12247   5.221   6.534   4.899
 3783SOL    HW112248   5.201   6.582   4.985
 3783SOL    HW212249   5.217   6.435   4.915
 3784SOL     OW12250   5.573   0.999   3.035
 3784SOL    HW112251   5.493   1.055   3.056
 3784SOL    HW212252   5.606   0.956   3.119
 3785SOL     OW12253   2.555   1.960   1.215
 3785SOL    HW112254   2.464   2.001   1.221
 3785SOL    HW212255   2.616   2.021   1.164
 3786SOL     OW12256   3.112   5.159   2.667
 3786SOL    HW112257   3.125   5.214   2.749
 3786SOL    HW212258   3.130   5.215   2.586
 3787SOL     OW12259   4.154   1.119   3.658
 3787SOL    HW112260   4.148   1.156   3.751
 3787SOL    HW212261   4.103   1.178   3.596
 3788SOL     OW12262   5.736   3.091   2.838
 3788SOL    HW112263   5.690   3.064   2.753
 3788SOL    HW212264   5.813   3.030   2.855
 3789SOL     OW12265   1.871   4.792   4.019
 3789SOL    HW112266   1.913   4.865   4.074
 3789SOL    HW212267   1.905   4.797   3.925
 3790SOL     OW12268   2.033   3.159   4.119
 3790SOL    HW112269   1.987   3.173   4.032
 3790SOL    HW212270   2.126   3.123   4.103
 3791SOL     OW12271   5.080   6.737   1.749
 3791SOL    HW112272   5.091   6.793   1.831
 3791SOL    HW212273   5.032   6.652   1.773
 3792SOL     OW12274   6.044   6.791   5.439
 3792SOL    HW112275   6.033   6.692   5.452
 3792SOL    HW212276   6.141   6.814   5.435
 3793SOL     OW12277   1.861   1.650   2.795
 3793SOL    HW112278   1.867   1.728   2.732
 3793SOL    HW212279   1.874   1.682   2.889
 3794SOL     OW12280   4.392   6.181   2.024
 3794SOL    HW112281   4.477   6.233   2.035
 3794SOL    HW212282   4.356   6.195   1.931
 3795SOL     OW12283   5.300   0.437   6.374
 3795SOL    HW112284   5.231   0.381   6.327
 3795SOL    HW212285   5.330   0.389   6.457
 3796SOL     OW12286   1.420   1.852   1.628
 3796SOL    HW112287   1.322   1.865   1.641
 3796SOL    HW212288   1.436   1.779   1.562
 3797SOL     OW12289   1.341   4.812   2.700
 3797SOL    HW112290   1.258   4.863   2.676
 3797SOL    HW212291   1.407   4.820   2.625
 3798SOL     OW12292   2.277   4.914   2.719
 3798SOL    HW112293   2.375   4.901   2.737
 3798SOL    HW212294   2.224   4.870   2.791
 3799SOL     OW12295   1.722   1.351   5.425
 3799SOL    HW112296   1.760   1.289   5.357
 3799SOL    HW212297   1.790   1.366   5.497
 3800SOL     OW12298   4.842   2.531   4.652
 3800SOL    HW112299   4.916   2.586   4.691
 3800SOL    HW212300   4.846   2.537   4.553
 3801SOL     OW12301   6.652   5.664   5.904
 3801SOL    HW112302   6.666   5.749   5.954
 3801SOL    HW212303   6.571   5.673   5.845
 3802SOL     OW12304   0.865   2.180   5.023
 3802SOL    HW112305   0.870   2.279   5.032
 3802SOL    HW212306   0.769   2.151   5.017
 3803SOL     OW12307   3.860   0.021   1.391
 3803SOL    HW112308   3.831   0.075   1.469
 3803SOL    HW212309   3.960   0.022   1.385
 3804SOL     OW12310   4.400   2.095   4.370
 3804SOL    HW112311   4.315   2.063   4.328
 3804SOL    HW212312   4.379   2.154   4.448
 3805SOL     OW12313   2.964   4.201   1.745
 3805SOL    HW112314   2.947   4.292   1.782
 3805SOL    HW212315   2.878   4.160   1.715
 3806SOL     OW12316   2.737   2.570   0.299
 3806SOL    HW112317   2.704   2.648   0.245
 3806SOL    HW212318   2.686   2.565   0.384
 3807SOL     OW12319   0.833   0.075   3.973
 3807SOL    HW112320   0.857   0.160   4.019
 3807SOL    HW212321   0.871   7.017   4.025
 3808SOL     OW12322   3.545   6.964   1.870
 3808SOL    HW112323   3.459   6.995   1.912
 3808SOL    HW212324   3.622   6.989   1.929
 3809SOL     OW12325   5.796   1.333   0.138
 3809SOL    HW112326   5.831   1.311   0.229
 3809SOL    HW212327   5.781   1.431   0.131
 3810SOL     OW12328   3.181   3.247   5.357
 3810SOL    HW112329   3.111   3.185   5.392
 3810SOL    HW212330   3.187   3.328   5.415
 3811SOL     OW12331   0.818   4.770   4.935
 3811SOL    HW112332   0.890   4.702   4.919
 3811SOL    HW212333   0.842   4.856   4.890
 3812SOL     OW12334   5.996   1.525   5.558
 3812SOL    HW112335   5.954   1.485   5.639
 3812SOL    HW212336   6.021   1.452   5.494
 3813SOL     OW12337   2.921   5.603   0.151
 3813SOL    HW112338   2.993   5.536   0.131
 3813SOL    HW212339   2.849   5.559   0.205
 3814SOL     OW12340   0.006   6.019   2.072
 3814SOL    HW112341   0.082   5.960   2.097
 3814SOL    HW212342   6.957   5.966   2.021
 3815SOL     OW12343   5.509   2.038   1.703
 3815SOL    HW112344   5.470   1.952   1.671
 3815SOL    HW212345   5.455   2.073   1.780
 3816SOL     OW12346   0.185   6.871   1.898
 3816SOL    HW112347   0.125   6.921   1.961
 3816SOL    HW212348   0.237   6.936   1.844
 3817SOL     OW12349   4.470   1.871   4.674
 3817SOL    HW112350   4.446   1.871   4.771
 3817SOL    HW212351   4.568   1.853   4.663
 3818SOL     OW12352   4.463   6.595   2.686
 3818SOL    HW112353   4.561   6.611   2.677
 3818SOL    HW212354   4.445   6.551   2.775
 3819SOL     OW12355   5.077   5.147   0.136
 3819SOL    HW112356   5.014   5.070   0.152
 3819SOL    HW212357   5.069   5.212   0.211
 3820SOL     OW12358   4.958   5.679   3.977
 3820SOL    HW112359   4.865   5.717   3.984
 3820SOL    HW212360   5.024   5.753   3.973
 3821SOL     OW12361   1.452   3.659   1.726
 3821SOL    HW112362   1.473   3.565   1.699
 3821SOL    HW212363   1.412   3.707   1.648
 3822SOL     OW12364   2.336   5.128   1.207
 3822SOL    HW112365   2.326   5.226   1.225
 3822SOL    HW212366   2.374   5.114   1.116
 3823SOL     OW12367   3.341   2.927   5.708
 3823SOL    HW112368   3.436   2.954   5.698
 3823SOL    HW212369   3.321   2.850   5.648
 3824SOL     OW12370   6.273   1.886   5.987
 3824SOL    HW112371   6.224   1.950   6.046
 3824SOL    HW212372   6.213   1.811   5.960
 3825SOL     OW12373   0.345   6.359   6.060
 3825SOL    HW112374   0.374   6.359   6.156
 3825SOL    HW212375   0.246   6.371   6.055
 3826SOL     OW12376   6.660   3.379   1.751
 3826SOL    HW112377   6.689   3.328   1.669
 3826SOL    HW212378   6.699   3.471   1.748
 3827SOL     OW12379   4.099   3.086   0.446
 3827SOL    HW112380   4.051   3.051   0.365
 3827SOL    HW212381   4.133   3.010   0.501
 3828SOL     OW12382   5.269   2.054   2.190
 3828SOL    HW112383   5.312   1.964   2.179
 3828SOL    HW212384   5.296   2.093   2.278
 3829SOL     OW12385   2.442   5.429   3.590
 3829SOL    HW112386   2.444   5.350   3.652
 3829SOL    HW212387   2.448   5.513   3.644
 3830SOL     OW12388   2.578   0.602   4.774
 3830SOL    HW112389   2.553   0.663   4.849
 3830SOL    HW212390   2.499   0.548   4.747
 3831SOL     OW12391   4.119   1.868   2.737
 3831SOL    HW112392   4.048   1.890   2.670
 3831SOL    HW212393   4.165   1.783   2.711
 3832SOL     OW12394   6.378   0.633   1.722
 3832SOL    HW112395   6.366   0.574   1.802
 3832SOL    HW212396   6.428   0.582   1.651
 3833SOL     OW12397   0.778   4.918   7.009
 3833SOL    HW112398   0.729   4.966   0.063
 3833SOL    HW212399   0.822   4.985   6.949
 3834SOL     OW12400   3.471   1.808   0.619
 3834SOL    HW112401   3.467   1.764   0.529
 3834SOL    HW212402   3.415   1.756   0.684
 3835SOL     OW12403   3.678   5.556   5.843
 3835SOL    HW112404   3.710   5.462   5.847
 3835SOL    HW212405   3.604   5.569   5.909
 3836SOL     OW12406   1.430   3.733   6.336
 3836SOL    HW112407   1.496   3.739   6.261
 3836SOL    HW212408   1.338   3.743   6.300
 3837SOL     OW12409   3.734   3.731   0.313
 3837SOL    HW112410   3.798   3.808   0.321
 3837SOL    HW212411   3.782   3.646   0.334
 3838SOL     OW12412   6.252   2.331   4.516
 3838SOL    HW112413   6.343   2.337   4.477
 3838SOL    HW212414   6.235   2.412   4.573
 3839SOL     OW12415   5.731   6.084   5.729
 3839SOL    HW112416   5.683   6.129   5.653
 3839SOL    HW212417   5.741   6.149   5.804
 3840SOL     OW12418   1.817   1.317   3.766
 3840SOL    HW112419   1.777   1.282   3.681
 3840SOL    HW212420   1.834   1.241   3.828
 3841SOL     OW12421   0.672   3.566   5.351
 3841SOL    HW112422   0.695   3.478   5.391
 3841SOL    HW212423   0.683   3.562   5.251
 3842SOL     OW12424   1.041   4.834   6.847
 3842SOL    HW112425   1.082   4.904   6.907
 3842SOL    HW212426   0.943   4.829   6.865
 3843SOL     OW12427   5.871   3.337   0.682
 3843SOL    HW112428   5.771   3.335   0.671
 3843SOL    HW212429   5.903   3.246   0.708
 3844SOL     OW12430   2.105   5.108   6.176
 3844SOL    HW112431   2.167   5.177   6.213
 3844SOL    HW212432   2.011   5.132   6.200
 3845SOL     OW12433   3.502   4.007   3.067
 3845SOL    HW112434   3.437   4.035   2.997
 3845SOL    HW212435   3.461   3.936   3.124
 3846SOL     OW12436   0.520   5.145   4.626
 3846SOL    HW112437   0.531   5.071   4.692
 3846SOL    HW212438   0.438   5.129   4.571
 3847SOL     OW12439   0.287   0.195   6.105
 3847SOL    HW112440   0.255   0.248   6.184
 3847SOL    HW212441   0.349   0.123   6.136
 3848SOL     OW12442   2.195   4.615   1.360
 3848SOL    HW112443   2.101   4.589   1.340
 3848SOL    HW212444   2.198   4.669   1.444
 3849SOL     OW12445   1.417   1.838   5.464
 3849SOL    HW112446   1.346   1.809   5.400
 3849SOL    HW212447   1.461   1.758   5.505
 3850SOL     OW12448   3.430   4.114   1.985
 3850SOL    HW112449   3.369   4.148   1.913
 3850SOL    HW212450   3.520   4.157   1.975
 3851SOL     OW12451   2.120   3.027   2.605
 3851SOL    HW112452   2.092   2.999   2.697
 3851SOL    HW212453   2.108   3.125   2.595
 3852SOL     OW12454   4.118   1.038   4.737
 3852SOL    HW112455   4.130   1.136   4.754
 3852SOL    HW212456   4.184   0.986   4.791
 3853SOL     OW12457   1.029   3.538   2.013
 3853SOL    HW112458   1.069   3.509   1.926
 3853SOL    HW212459   1.098   3.588   2.066
 3854SOL     OW12460   1.244   3.553   4.230
 3854SOL    HW112461   1.145   3.566   4.225
 3854SOL    HW212462   1.268   3.462   4.198
 3855SOL     OW12463   6.626   3.282   5.780
 3855SOL    HW112464   6.564   3.343   5.830
 3855SOL    HW212465   6.588   3.263   5.689
 3856SOL     OW12466   0.283   6.147   5.661
 3856SOL    HW112467   0.340   6.095   5.725
 3856SOL    HW212468   0.257   6.089   5.584
 3857SOL     OW12469   0.898   6.776   4.805
 3857SOL    HW112470   0.807   6.786   4.764
 3857SOL    HW212471   0.940   6.692   4.770
 3858SOL     OW12472   2.407   5.830   6.615
 3858SOL    HW112473   2.406   5.777   6.531
 3858SOL    HW212474   2.486   5.804   6.671
 3859SOL     OW12475   0.344   3.185   2.392
 3859SOL    HW112476   0.397   3.109   2.429
 3859SOL    HW212477   0.259   3.195   2.443
 3860SOL     OW12478   2.676   6.919   5.827
 3860SOL    HW112479   2.662   6.970   5.742
 3860SOL    HW212480   2.762   6.947   5.869
 3861SOL     OW12481   4.802   4.569   0.696
 3861SOL    HW112482   4.721   4.628   0.698
 3861SOL    HW212483   4.862   4.597   0.621
 3862SOL     OW12484   1.080   5.825   6.049
 3862SOL    HW112485   1.014   5.837   5.975
 3862SOL    HW212486   1.165   5.785   6.013
 3863SOL     OW12487   3.230   3.854   1.677
 3863SOL    HW112488   3.264   3.844   1.770
 3863SOL    HW212489   3.137   3.819   1.671
 3864SOL     OW12490   3.139   1.967   0.298
 3864SOL    HW112491   3.098   1.885   0.337
 3864SOL    HW212492   3.083   2.047   0.321
 3865SOL     OW12493   4.647   0.498   2.480
 3865SOL    HW112494   4.590   0.427   2.439
 3865SOL    HW212495   4.605   0.588   2.464
 3866SOL     OW12496   3.795   6.887   6.792
 3866SOL    HW112497   3.846   6.945   6.728
 3866SOL    HW212498   3.739   6.822   6.741
 3867SOL     OW12499   2.083   3.186   3.170
 3867SOL    HW112500   2.070   3.219   3.264
 3867SOL    HW212501   2.116   3.261   3.113
 3868SOL     OW12502   1.903   5.949   3.171
 3868SOL    HW112503   1.954   6.035   3.175
 3868SOL    HW212504   1.947   5.887   3.105
 3869SOL     OW12505   1.081   3.072   3.231
 3869SOL    HW112506   1.120   3.099   3.319
 3869SOL    HW212507   1.153   3.073   3.161
 3870SOL     OW12508   2.544   4.783   0.040
 3870SOL    HW112509   2.518   4.836   6.978
 3870SOL    HW212510   2.463   4.739   0.079
 3871SOL     OW12511   2.381   0.438   3.162
 3871SOL    HW112512   2.435   0.356   3.178
 3871SOL    HW212513   2.360   0.446   3.065
 3872SOL     OW12514   3.679   4.039   0.539
 3872SOL    HW112515   3.610   3.969   0.520
 3872SOL    HW212516   3.747   4.002   0.602
 3873SOL     OW12517   5.142   4.976   2.443
 3873SOL    HW112518   5.195   4.908   2.392
 3873SOL    HW212519   5.065   4.931   2.489
 3874SOL     OW12520   4.409   0.652   6.122
 3874SOL    HW112521   4.347   0.607   6.187
 3874SOL    HW212522   4.502   0.648   6.156
 3875SOL     OW12523   1.499   5.145   0.958
 3875SOL    HW112524   1.528   5.074   1.022
 3875SOL    HW212525   1.469   5.103   0.872
 3876SOL     OW12526   5.179   3.706   3.326
 3876SOL    HW112527   5.153   3.654   3.244
 3876SOL    HW212528   5.234   3.647   3.386
 3877SOL     OW12529   5.844   1.108   2.260
 3877SOL    HW112530   5.773   1.122   2.330
 3877SOL    HW212531   5.930   1.086   2.305
 3878SOL     OW12532   3.271   6.494   5.887
 3878SOL    HW112533   3.203   6.461   5.822
 3878SOL    HW212534   3.282   6.593   5.877
 3879SOL     OW12535   3.940   6.059   1.626
 3879SOL    HW112536   3.973   6.152   1.641
 3879SOL    HW212537   3.840   6.057   1.639
 3880SOL     OW12538   5.168   3.317   4.049
 3880SOL    HW112539   5.204   3.225   4.033
 3880SOL    HW212540   5.076   3.311   4.088
 3881SOL     OW12541   1.826   3.392   0.465
 3881SOL    HW112542   1.770   3.345   0.396
 3881SOL    HW212543   1.795   3.487   0.474
 3882SOL     OW12544   0.417   0.397   5.988
 3882SOL    HW112545   0.413   0.300   6.013
 3882SOL    HW212546   0.325   0.434   5.982
 3883SOL     OW12547   3.477   0.719   5.768
 3883SOL    HW112548   3.511   0.813   5.767
 3883SOL    HW212549   3.477   0.683   5.674
 3884SOL     OW12550   1.576   4.684   6.146
 3884SOL    HW112551   1.519   4.766   6.152
 3884SOL    HW212552   1.517   4.604   6.132
 3885SOL     OW12553   6.594   1.195   4.174
 3885SOL    HW112554   6.554   1.175   4.264
 3885SOL    HW212555   6.663   1.266   4.184
 3886SOL     OW12556   6.908   6.069   5.542
 3886SOL    HW112557   6.859   6.148   5.577
 3886SOL    HW212558   6.986   6.099   5.488
 3887SOL     OW12559   4.546   2.555   5.822
 3887SOL    HW112560   4.454   2.550   5.862
 3887SOL    HW212561   4.545   2.619   5.746
 3888SOL     OW12562   6.470   2.156   0.797
 3888SOL    HW112563   6.507   2.177   0.888
 3888SOL    HW212564   6.403   2.225   0.772
 3889SOL     OW12565   0.668   5.959   6.358
 3889SOL    HW112566   0.740   5.981   6.292
 3889SOL    HW212567   0.621   5.876   6.330
 3890SOL     OW12568   5.894   4.003   2.723
 3890SOL    HW112569   5.824   3.932   2.717
 3890SOL    HW212570   5.850   4.092   2.738
 3891SOL     OW12571   5.388   4.992   5.738
 3891SOL    HW112572   5.325   5.062   5.772
 3891SOL    HW212573   5.465   5.036   5.691
 3892SOL     OW12574   5.070   6.408   3.189
 3892SOL    HW112575   5.095   6.505   3.184
 3892SOL    HW212576   4.970   6.400   3.193
 3893SOL     OW12577   2.713   6.041   3.894
 3893SOL    HW112578   2.652   6.120   3.887
 3893SOL    HW212579   2.710   6.004   3.986
 3894SOL     OW12580   5.370   4.168   0.104
 3894SOL    HW112581   5.459   4.183   0.061
 3894SOL    HW212582   5.384   4.142   0.200
 3895SOL     OW12583   2.349   2.122   5.709
 3895SOL    HW112584   2.272   2.175   5.746
 3895SOL    HW212585   2.316   2.031   5.681
 3896SOL     OW12586   6.758   2.447   5.473
 3896SOL    HW112587   6.829   2.516   5.487
 3896SOL    HW212588   6.679   2.468   5.531
 3897SOL     OW12589   3.439   6.296   2.159
 3897SOL    HW112590   3.521   6.329   2.111
 3897SOL    HW212591   3.359   6.313   2.102
 3898SOL     OW12592   3.869   3.999   4.092
 3898SOL    HW112593   3.900   4.056   4.016
 3898SOL    HW212594   3.941   3.992   4.161
 3899SOL     OW12595   4.735   1.662   5.097
 3899SOL    HW112596   4.753   1.599   5.022
 3899SOL    HW212597   4.784   1.747   5.081
 3900SOL     OW12598   6.670   2.499   3.697
 3900SOL    HW112599   6.626   2.530   3.613
 3900SOL    HW212600   6.757   2.455   3.675
 3901SOL     OW12601   2.231   5.918   5.060
 3901SOL    HW112602   2.221   5.862   4.978
 3901SOL    HW212603   2.303   5.986   5.046
 3902SOL     OW12604   4.439   5.214   1.255
 3902SOL    HW112605   4.523   5.161   1.246
 3902SOL    HW212606   4.461   5.310   1.272
 3903SOL     OW12607   3.773   3.070   5.933
 3903SOL    HW112608   3.779   3.011   5.852
 3903SOL    HW212609   3.863   3.110   5.951
 3904SOL     OW12610   2.295   6.348   0.849
 3904SOL    HW112611   2.363   6.347   0.922
 3904SOL    HW212612   2.206   6.321   0.886
 3905SOL     OW12613   0.350   0.499   5.308
 3905SOL    HW112614   0.439   0.541   5.326
 3905SOL    HW212615   0.343   0.476   5.211
 3906SOL     OW12616   0.169   5.700   4.869
 3906SOL    HW112617   0.110   5.766   4.916
 3906SOL    HW212618   0.129   5.677   4.780
 3907SOL     OW12619   0.865   0.884   4.757
 3907SOL    HW112620   0.926   0.961   4.739
 3907SOL    HW212621   0.805   0.870   4.678
 3908SOL     OW12622   1.724   0.308   4.315
 3908SOL    HW112623   1.686   0.268   4.232
 3908SOL    HW212624   1.650   0.345   4.371
 3909SOL     OW12625   6.012   2.276   0.457
 3909SOL    HW112626   6.034   2.276   0.360
 3909SOL    HW212627   5.977   2.366   0.484
 3910SOL     OW12628   3.739   3.019   0.802
 3910SOL    HW112629   3.684   2.996   0.722
 3910SOL    HW212630   3.836   3.003   0.783
 3911SOL     OW12631   6.943   0.974   0.886
 3911SOL    HW112632   6.862   1.029   0.865
 3911SOL    HW212633   6.985   1.007   0.970
 3912SOL     OW12634   3.898   2.583   0.172
 3912SOL    HW112635   3.824   2.610   0.110
 3912SOL    HW212636   3.865   2.509   0.232
 3913SOL     OW12637   4.763   5.542   1.581
 3913SOL    HW112638   4.776   5.611   1.653
 3913SOL    HW212639   4.812   5.458   1.607
 3914SOL     OW12640   6.988   1.085   0.634
 3914SOL    HW112641   6.981   1.038   0.723
 3914SOL    HW212642   6.934   1.169   0.637
 3915SOL     OW12643   4.727   5.647   5.653
 3915SOL    HW112644   4.656   5.603   5.707
 3915SOL    HW212645   4.725   5.746   5.670
 3916SOL     OW12646   2.443   1.846   2.638
 3916SOL    HW112647   2.424   1.882   2.547
 3916SOL    HW212648   2.536   1.872   2.666
 3917SOL     OW12649   3.450   4.456   1.497
 3917SOL    HW112650   3.418   4.362   1.510
 3917SOL    HW212651   3.488   4.467   1.406
 3918SOL     OW12652   5.395   1.110   0.349
 3918SOL    HW112653   5.449   1.027   0.345
 3918SOL    HW212654   5.310   1.093   0.400
 3919SOL     OW12655   4.088   6.553   2.331
 3919SOL    HW112656   4.088   6.479   2.398
 3919SOL    HW212657   4.182   6.578   2.309
 3920SOL     OW12658   2.977   1.522   5.632
 3920SOL    HW112659   2.973   1.619   5.610
 3920SOL    HW212660   3.070   1.489   5.620
 3921SOL     OW12661   6.925   3.101   6.304
 3921SOL    HW112662   6.953   3.010   6.334
 3921SOL    HW212663   6.888   3.152   6.382
 3922SOL     OW12664   4.749   4.171   3.095
 3922SOL    HW112665   4.747   4.151   3.193
 3922SOL    HW212666   4.760   4.085   3.045
 3923SOL     OW12667   5.357   0.957   1.296
 3923SOL    HW112668   5.422   0.948   1.371
 3923SOL    HW212669   5.382   1.036   1.240
 3924SOL     OW12670   5.561   5.507   4.237
 3924SOL    HW112671   5.580   5.581   4.302
 3924SOL    HW212672   5.472   5.466   4.257
 3925SOL     OW12673   5.181   3.848   1.176
 3925SOL    HW112674   5.117   3.847   1.253
 3925SOL    HW212675   5.181   3.938   1.134
 3926SOL     OW12676   0.350   5.874   5.797
 3926SOL    HW112677   0.350   5.778   5.768
 3926SOL    HW212678   0.259   5.912   5.785
 3927SOL     OW12679   5.495   2.301   5.929
 3927SOL    HW112680   5.434   2.350   5.866
 3927SOL    HW212681   5.579   2.354   5.942
 3928SOL     OW12682   3.459   5.895   2.059
 3928SOL    HW112683   3.490   5.947   2.138
 3928SOL    HW212684   3.527   5.900   1.986
 3929SOL     OW12685   0.630   2.314   5.200
 3929SOL    HW112686   0.689   2.361   5.265
 3929SOL    HW212687   0.570   2.250   5.248
 3930SOL     OW12688   1.863   4.483   4.037
 3930SOL    HW112689   1.863   4.439   4.127
 3930SOL    HW212690   1.955   4.518   4.017
 3931SOL     OW12691   2.057   2.292   1.567
 3931SOL    HW112692   2.112   2.328   1.642
 3931SOL    HW212693   2.002   2.215   1.601
 3932SOL     OW12694   2.438   4.798   3.828
 3932SOL    HW112695   2.398   4.806   3.736
 3932SOL    HW212696   2.372   4.831   3.896
 3933SOL     OW12697   1.891   5.913   1.247
 3933SOL    HW112698   1.826   5.959   1.307
 3933SOL    HW212699   1.841   5.856   1.182
 3934SOL     OW12700   0.130   0.714   1.723
 3934SOL    HW112701   0.165   0.681   1.811
 3934SOL    HW212702   0.147   0.644   1.653
 3935SOL     OW12703   6.499   3.519   6.053
 3935SOL    HW112704   6.436   3.479   5.986
 3935SOL    HW212705   6.449   3.578   6.116
 3936SOL     OW12706   6.617   4.349   5.738
 3936SOL    HW112707   6.709   4.352   5.699
 3936SOL    HW212708   6.617   4.291   5.819
 3937SOL     OW12709   0.211   6.022   1.551
 3937SOL    HW112710   0.229   6.116   1.580
 3937SOL    HW212711   0.259   6.005   1.464
 3938SOL     OW12712   1.203   3.281   2.021
 3938SOL    HW112713   1.172   3.207   2.080
 3938SOL    HW212714   1.126   3.316   1.968
 3939SOL     OW12715   0.894   1.090   3.077
 3939SOL    HW112716   0.870   1.066   3.171
 3939SOL    HW212717   0.955   1.020   3.039
 3940SOL     OW12718   3.321   5.824   0.826
 3940SOL    HW112719   3.416   5.845   0.802
 3940SOL    HW212720   3.312   5.820   0.925
 3941SOL     OW12721   5.422   6.306   2.533
 3941SOL    HW112722   5.367   6.244   2.590
 3941SOL    HW212723   5.388   6.303   2.439
 3942SOL     OW12724   0.045   5.937   5.309
 3942SOL    HW112725   6.969   5.956   5.285
 3942SOL    HW212726   0.105   6.009   5.272
 3943SOL     OW12727   1.505   2.842   0.284
 3943SOL    HW112728   1.602   2.836   0.257
 3943SOL    HW212729   1.452   2.881   0.208
 3944SOL     OW12730   5.254   3.189   6.839
 3944SOL    HW112731   5.205   3.252   6.899
 3944SOL    HW212732   5.217   3.196   6.746
 3945SOL     OW12733   5.858   0.663   3.248
 3945SOL    HW112734   5.773   0.611   3.238
 3945SOL    HW212735   5.845   0.733   3.318
 3946SOL     OW12736   0.555   2.981   0.144
 3946SOL    HW112737   0.633   3.043   0.138
 3946SOL    HW212738   0.493   3.010   0.217
 3947SOL     OW12739   5.860   5.586   1.874
 3947SOL    HW112740   5.891   5.657   1.937
 3947SOL    HW212741   5.789   5.623   1.814
 3948SOL     OW12742   1.527   2.948   5.736
 3948SOL    HW112743   1.615   2.968   5.694
 3948SOL    HW212744   1.456   3.005   5.695
 3949SOL     OW12745   6.186   0.222   1.614
 3949SOL    HW112746   6.223   0.312   1.589
 3949SOL    HW212747   6.152   0.176   1.531
 3950SOL     OW12748   3.187   4.454   1.687
 3950SOL    HW112749   3.241   4.539   1.690
 3950SOL    HW212750   3.109   4.462   1.749
 3951SOL     OW12751   0.814   2.390   4.372
 3951SOL    HW112752   0.737   2.433   4.420
 3951SOL    HW212753   0.833   2.301   4.413
 3952SOL     OW12754   5.774   3.721   0.119
 3952SOL    HW112755   5.839   3.793   0.093
 3952SOL    HW212756   5.725   3.749   0.202
 3953SOL     OW12757   3.236   3.679   6.665
 3953SOL    HW112758   3.319   3.624   6.677
 3953SOL    HW212759   3.257   3.775   6.685
 3954SOL     OW12760   0.502   2.697   5.721
 3954SOL    HW112761   0.434   2.653   5.662
 3954SOL    HW212762   0.553   2.627   5.771
 3955SOL     OW12763   0.566   3.800   0.556
 3955SOL    HW112764   0.621   3.844   0.485
 3955SOL    HW212765   0.482   3.853   0.570
 3956SOL     OW12766   6.741   3.039   5.681
 3956SOL    HW112767   6.724   3.099   5.758
 3956SOL    HW212768   6.668   2.971   5.675
 3957SOL     OW12769   1.007   1.595   3.306
 3957SOL    HW112770   0.977   1.610   3.212
 3957SOL    HW212771   0.968   1.509   3.340
 3958SOL     OW12772   5.550   6.202   0.082
 3958SOL    HW112773   5.630   6.261   0.076
 3958SOL    HW212774   5.468   6.257   0.096
 3959SOL     OW12775   2.784   5.456   0.676
 3959SOL    HW112776   2.697   5.419   0.644
 3959SOL    HW212777   2.783   5.460   0.776
 3960SOL     OW12778   4.959   3.326   0.992
 3960SOL    HW112779   5.045   3.371   1.018
 3960SOL    HW212780   4.978   3.243   0.940
 3961SOL     OW12781   5.461   0.510   1.963
 3961SOL    HW112782   5.440   0.446   2.038
 3961SOL    HW212783   5.402   0.590   1.970
 3962SOL     OW12784   0.814   6.682   5.654
 3962SOL    HW112785   0.870   6.617   5.603
 3962SOL    HW212786   0.791   6.644   5.743
 3963SOL     OW12787   4.376   5.893   3.692
 3963SOL    HW112788   4.362   5.980   3.644
 3963SOL    HW212789   4.288   5.861   3.728
 3964SOL     OW12790   5.743   6.389   6.198
 3964SOL    HW112791   5.673   6.424   6.136
 3964SOL    HW212792   5.707   6.389   6.292
 3965SOL     OW12793   4.094   2.885   0.068
 3965SOL    HW112794   4.131   2.978   0.072
 3965SOL    HW212795   4.044   2.873   7.001
 3966SOL     OW12796   6.082   3.376   5.225
 3966SOL    HW112797   6.120   3.302   5.280
 3966SOL    HW212798   6.006   3.419   5.275
 3967SOL     OW12799   1.663   6.343   6.605
 3967SOL    HW112800   1.686   6.271   6.671
 3967SOL    HW212801   1.675   6.308   6.512
 3968SOL     OW12802   5.710   0.198   1.615
 3968SOL    HW112803   5.655   0.246   1.683
 3968SOL    HW212804   5.702   0.244   1.526
 3969SOL     OW12805   0.510   6.172   1.799
 3969SOL    HW112806   0.539   6.156   1.705
 3969SOL    HW212807   0.482   6.268   1.809
 3970SOL     OW12808   4.977   4.622   4.096
 3970SOL    HW112809   4.972   4.624   4.196
 3970SOL    HW212810   4.969   4.715   4.060
 3971SOL     OW12811   1.602   5.959   3.982
 3971SOL    HW112812   1.611   5.900   4.063
 3971SOL    HW212813   1.663   6.038   3.992
 3972SOL     OW12814   1.117   0.296   0.336
 3972SOL    HW112815   1.211   0.286   0.305
 3972SOL    HW212816   1.113   0.365   0.409
 3973SOL     OW12817   3.640   2.892   2.806
 3973SOL    HW112818   3.639   2.833   2.725
 3973SOL    HW212819   3.674   2.983   2.780
 3974SOL     OW12820   5.876   0.504   6.168
 3974SOL    HW112821   5.827   0.515   6.081
 3974SOL    HW212822   5.825   0.551   6.241
 3975SOL     OW12823   6.789   6.317   5.637
 3975SOL    HW112824   6.707   6.355   5.680
 3975SOL    HW212825   6.867   6.376   5.656
 3976SOL     OW12826   1.295   2.996   6.412
 3976SOL    HW112827   1.309   2.900   6.436
 3976SOL    HW212828   1.362   3.052   6.460
 3977SOL     OW12829   4.381   6.574   6.111
 3977SOL    HW112830   4.462   6.629   6.089
 3977SOL    HW212831   4.398   6.523   6.195
 3978SOL     OW12832   6.035   3.507   6.892
 3978SOL    HW112833   6.006   3.453   6.971
 3978SOL    HW212834   6.133   3.526   6.899
 3979SOL     OW12835   1.070   0.130   3.136
 3979SOL    HW112836   1.021   0.210   3.170
 3979SOL    HW212837   1.008   0.051   3.132
 3980SOL     OW12838   4.896   3.509   4.824
 3980SOL    HW112839   4.993   3.503   4.846
 3980SOL    HW212840   4.844   3.526   4.908
 3981SOL     OW12841   6.267   1.908   5.541
 3981SOL    HW112842   6.286   1.810   5.542
 3981SOL    HW212843   6.168   1.922   5.538
 3982SOL     OW12844   3.049   1.832   4.043
 3982SOL    HW112845   3.142   1.858   4.068
 3982SOL    HW212846   2.984   1.898   4.082
 3983SOL     OW12847   3.586   6.676   3.990
 3983SOL    HW112848   3.603   6.754   4.049
 3983SOL    HW212849   3.494   6.641   4.006
 3984SOL     OW12850   1.613   0.060   1.627
 3984SOL    HW112851   1.619   0.097   1.720
 3984SOL    HW212852   1.703   0.060   1.584
 3985SOL     OW12853   1.393   3.529   1.976
 3985SOL    HW112854   1.315   3.466   1.979
 3985SOL    HW212855   1.397   3.574   1.887
 3986SOL     OW12856   1.338   2.806   2.168
 3986SOL    HW112857   1.249   2.799   2.123
 3986SOL    HW212858   1.404   2.750   2.118
 3987SOL     OW12859   2.410   4.505   6.372
 3987SOL    HW112860   2.416   4.552   6.284
 3987SOL    HW212861   2.502   4.475   6.400
 3988SOL     OW12862   4.315   1.898   6.714
 3988SOL    HW112863   4.357   1.921   6.627
 3988SOL    HW212864   4.223   1.939   6.719
 3989SOL     OW12865   4.371   0.832   6.441
 3989SOL    HW112866   4.335   0.911   6.489
 3989SOL    HW212867   4.390   0.856   6.346
 3990SOL     OW12868   1.252   2.595   3.334
 3990SOL    HW112869   1.336   2.581   3.387
 3990SOL    HW212870   1.190   2.518   3.349
 3991SOL     OW12871   6.820   1.325   4.262
 3991SOL    HW112872   6.811   1.332   4.361
 3991SOL    HW212873   6.804   1.414   4.221
 3992SOL     OW12874   5.335   4.145   6.137
 3992SOL    HW112875   5.349   4.128   6.235
 3992SOL    HW212876   5.305   4.239   6.124
 3993SOL     OW12877   1.759   1.422   3.147
 3993SOL    HW112878   1.825   1.487   3.111
 3993SOL    HW212879   1.808   1.345   3.189
 3994SOL     OW12880   2.445   1.981   3.966
 3994SOL    HW112881   2.440   2.011   4.062
 3994SOL    HW212882   2.495   1.895   3.960
 3995SOL     OW12883   1.442   3.871   2.136
 3995SOL    HW112884   1.426   3.787   2.187
 3995SOL    HW212885   1.528   3.912   2.165
 3996SOL     OW12886   5.803   6.645   3.231
 3996SOL    HW112887   5.754   6.571   3.278
 3996SOL    HW212888   5.766   6.733   3.259
 3997SOL     OW12889   5.706   3.845   2.840
 3997SOL    HW112890   5.641   3.856   2.765
 3997SOL    HW212891   5.663   3.792   2.914
 3998SOL     OW12892   5.675   2.580   3.240
 3998SOL    HW112893   5.696   2.492   3.199
 3998SOL    HW212894   5.642   2.643   3.169
 3999SOL     OW12895   4.927   2.635   1.584
 3999SOL    HW112896   4.872   2.623   1.501
 3999SOL    HW212897   4.994   2.707   1.568
 4000SOL     OW12898   3.164   5.340   2.233
 4000SOL    HW112899   3.160   5.240   2.230
 4000SOL    HW212900   3.165   5.376   2.139
 4001SOL     OW12901   1.790   4.799   4.554
 4001SOL    HW112902   1.829   4.885   4.587
 4001SOL    HW212903   1.859   4.749   4.501
 4002SOL     OW12904   3.524   4.154   3.375
 4002SOL    HW112905   3.488   4.221   3.310
 4002SOL    HW212906   3.537   4.066   3.328
 4003SOL     OW12907   2.558   1.051   5.419
 4003SOL    HW112908   2.464   1.017   5.425
 4003SOL    HW212909   2.578   1.075   5.324
 4004SOL     OW12910   0.908   3.540   3.576
 4004SOL    HW112911   0.929   3.464   3.637
 4004SOL    HW212912   0.930   3.626   3.623
 4005SOL     OW12913   5.151   2.879   0.871
 4005SOL    HW112914   5.178   2.836   0.957
 4005SOL    HW212915   5.132   2.809   0.803
 4006SOL     OW12916   4.532   5.094   3.269
 4006SOL    HW112917   4.534   5.172   3.207
 4006SOL    HW212918   4.610   5.034   3.250
 4007SOL     OW12919   6.761   1.313   3.365
 4007SOL    HW112920   6.770   1.273   3.456
 4007SOL    HW212921   6.746   1.241   3.298
 4008SOL     OW12922   3.285   0.452   1.013
 4008SOL    HW112923   3.263   0.549   1.027
 4008SOL    HW212924   3.201   0.399   1.006
 4009SOL     OW12925   4.709   2.184   0.803
 4009SOL    HW112926   4.694   2.179   0.704
 4009SOL    HW212927   4.639   2.130   0.850
 4010SOL     OW12928   2.570   4.984   1.719
 4010SOL    HW112929   2.642   5.049   1.742
 4010SOL    HW212930   2.610   4.895   1.698
 4011SOL     OW12931   4.924   5.768   6.934
 4011SOL    HW112932   4.984   5.760   7.014
 4011SOL    HW212933   4.953   5.701   6.865
 4012SOL     OW12934   4.256   0.598   2.575
 4012SOL    HW112935   4.285   0.572   2.667
 4012SOL    HW212936   4.186   0.533   2.542
 4013SOL     OW12937   0.209   0.998   6.442
 4013SOL    HW112938   0.280   1.052   6.488
 4013SOL    HW212939   0.241   0.904   6.431
 4014SOL     OW12940   2.858   5.165   2.530
 4014SOL    HW112941   2.844   5.204   2.621
 4014SOL    HW212942   2.871   5.066   2.537
 4015SOL     OW12943   4.107   4.663   6.049
 4015SOL    HW112944   4.165   4.583   6.032
 4015SOL    HW212945   4.023   4.656   5.995
 4016SOL     OW12946   3.970   5.341   5.637
 4016SOL    HW112947   3.905   5.289   5.692
 4016SOL    HW212948   4.008   5.415   5.691
 4017SOL     OW12949   0.573   4.780   6.008
 4017SOL    HW112950   0.565   4.781   6.108
 4017SOL    HW212951   0.513   4.709   5.971
 4018SOL     OW12952   4.601   6.383   2.032
 4018SOL    HW112953   4.637   6.296   2.065
 4018SOL    HW212954   4.640   6.458   2.085
 4019SOL     OW12955   5.371   3.551   3.461
 4019SOL    HW112956   5.347   3.471   3.516
 4019SOL    HW212957   5.391   3.628   3.522
 4020SOL     OW12958   6.157   4.779   3.785
 4020SOL    HW112959   6.190   4.789   3.879
 4020SOL    HW212960   6.111   4.863   3.757
 4021SOL     OW12961   4.188   3.585   5.821
 4021SOL    HW112962   4.180   3.682   5.841
 4021SOL    HW212963   4.139   3.531   5.889
 4022SOL     OW12964   2.328   1.012   1.354
 4022SOL    HW112965   2.264   0.961   1.297
 4022SOL    HW212966   2.419   0.971   1.348
 4023SOL     OW12967   0.246   1.594   4.839
 4023SOL    HW112968   0.194   1.680   4.839
 4023SOL    HW212969   0.342   1.613   4.861
 4024SOL     OW12970   0.411   5.497   4.657
 4024SOL    HW112971   0.324   5.465   4.621
 4024SOL    HW212972   0.478   5.503   4.582
 4025SOL     OW12973   0.526   5.759   4.117
 4025SOL    HW112974   0.538   5.660   4.131
 4025SOL    HW212975   0.616   5.803   4.117
 4026SOL     OW12976   6.534   6.364   3.612
 4026SOL    HW112977   6.596   6.298   3.570
 4026SOL    HW212978   6.508   6.332   3.703
 4027SOL     OW12979   2.905   3.807   5.799
 4027SOL    HW112980   2.946   3.738   5.740
 4027SOL    HW212981   2.819   3.839   5.759
 4028SOL     OW12982   4.924   1.782   2.791
 4028SOL    HW112983   4.893   1.844   2.720
 4028SOL    HW212984   4.847   1.759   2.851
 4029SOL     OW12985   2.222   5.393   6.210
 4029SOL    HW112986   2.311   5.348   6.210
 4029SOL    HW212987   2.209   5.443   6.296
 4030SOL     OW12988   0.275   1.061   2.715
 4030SOL    HW112989   0.229   1.102   2.636
 4030SOL    HW212990   0.211   1.058   2.792
 4031SOL     OW12991   5.897   6.573   1.292
 4031SOL    HW112992   5.815   6.623   1.267
 4031SOL    HW212993   5.976   6.635   1.288
 4032SOL     OW12994   5.727   0.621   1.714
 4032SOL    HW112995   5.792   0.692   1.740
 4032SOL    HW212996   5.634   0.654   1.730
 4033SOL     OW12997   2.082   2.712   2.639
 4033SOL    HW112998   2.103   2.670   2.727
 4033SOL    HW212999   2.082   2.642   2.568
 4034SOL     OW13000   0.132   2.776   4.923
 4034SOL    HW113001   0.072   2.731   4.857
 4034SOL    HW213002   0.089   2.777   5.013
 4035SOL     OW13003   5.395   1.803   1.355
 4035SOL    HW113004   5.405   1.767   1.448
 4035SOL    HW213005   5.297   1.814   1.334
 4036SOL     OW13006   2.654   5.337   3.148
 4036SOL    HW113007   2.720   5.273   3.107
 4036SOL    HW213008   2.563   5.320   3.109
 4037SOL     OW13009   2.314   0.750   6.036
 4037SOL    HW113010   2.260   0.666   6.039
 4037SOL    HW213011   2.254   0.827   6.016
 4038SOL     OW13012   3.557   3.859   5.969
 4038SOL    HW113013   3.616   3.779   5.978
 4038SOL    HW213014   3.582   3.910   5.887
 4039SOL     OW13015   6.118   5.119   1.718
 4039SOL    HW113016   6.026   5.085   1.741
 4039SOL    HW213017   6.111   5.209   1.676
 4040SOL     OW13018   3.544   5.194   5.231
 4040SOL    HW113019   3.504   5.135   5.161
 4040SOL    HW213020   3.630   5.232   5.197
 4041SOL     OW13021   2.828   5.945   0.725
 4041SOL    HW113022   2.783   5.912   0.643
 4041SOL    HW213023   2.908   5.999   0.700
 4042SOL     OW13024   6.172   0.562   3.906
 4042SOL    HW113025   6.221   0.639   3.946
 4042SOL    HW213026   6.175   0.568   3.806
 4043SOL     OW13027   5.151   3.692   6.468
 4043SOL    HW113028   5.194   3.723   6.553
 4043SOL    HW213029   5.220   3.689   6.395
 4044SOL     OW13030   3.817   5.118   3.499
 4044SOL    HW113031   3.784   5.069   3.418
 4044SOL    HW213032   3.853   5.052   3.565
 4045SOL     OW13033   5.244   0.251   5.481
 4045SOL    HW113034   5.259   0.305   5.564
 4045SOL    HW213035   5.148   0.225   5.475
 4046SOL     OW13036   6.710   1.849   2.775
 4046SOL    HW113037   6.787   1.836   2.837
 4046SOL    HW213038   6.625   1.821   2.821
 4047SOL     OW13039   2.562   3.216   6.724
 4047SOL    HW113040   2.615   3.259   6.797
 4047SOL    HW213041   2.540   3.122   6.749
 4048SOL     OW13042   4.487   1.387   2.149
 4048SOL    HW113043   4.397   1.428   2.163
 4048SOL    HW213044   4.540   1.443   2.085
 4049SOL     OW13045   4.018   4.876   6.643
 4049SOL    HW113046   3.991   4.970   6.661
 4049SOL    HW213047   4.011   4.857   6.545
 4050SOL     OW13048   0.219   5.205   2.856
 4050SOL    HW113049   0.205   5.248   2.945
 4050SOL    HW213050   0.196   5.270   2.783
 4051SOL     OW13051   5.247   1.221   5.679
 4051SOL    HW113052   5.276   1.315   5.700
 4051SOL    HW213053   5.149   1.221   5.656
 4052SOL     OW13054   6.192   1.933   3.771
 4052SOL    HW113055   6.275   1.926   3.825
 4052SOL    HW213056   6.195   2.016   3.714
 4053SOL     OW13057   1.145   5.617   4.555
 4053SOL    HW113058   1.148   5.573   4.466
 4053SOL    HW213059   1.234   5.656   4.576
 4054SOL     OW13060   5.086   4.228   0.677
 4054SOL    HW113061   5.126   4.285   0.605
 4054SOL    HW213062   5.044   4.286   0.747
 4055SOL     OW13063   1.062   3.697   1.332
 4055SOL    HW113064   1.006   3.636   1.276
 4055SOL    HW213065   1.151   3.710   1.289
 4056SOL     OW13066   4.706   3.451   0.922
 4056SOL    HW113067   4.626   3.393   0.937
 4056SOL    HW213068   4.789   3.397   0.941
 4057SOL     OW13069   6.559   3.598   6.552
 4057SOL    HW113070   6.475   3.621   6.502
 4057SOL    HW213071   6.535   3.555   6.639
 4058SOL     OW13072   2.792   6.472   5.720
 4058SOL    HW113073   2.797   6.414   5.801
 4058SOL    HW213074   2.708   6.450   5.669
 4059SOL     OW13075   1.123   1.864   4.091
 4059SOL    HW113076   1.218   1.879   4.064
 4059SOL    HW213077   1.065   1.934   4.049
 4060SOL     OW13078   6.395   5.972   5.297
 4060SOL    HW113079   6.454   5.934   5.225
 4060SOL    HW213080   6.305   5.994   5.259
 4061SOL     OW13081   2.289   5.160   1.667
 4061SOL    HW113082   2.347   5.079   1.662
 4061SOL    HW213083   2.227   5.161   1.588
 4062SOL     OW13084   2.243   1.786   1.847
 4062SOL    HW113085   2.282   1.874   1.818
 4062SOL    HW213086   2.312   1.714   1.837
 4063SOL     OW13087   5.447   1.790   0.713
 4063SOL    HW113088   5.469   1.706   0.665
 4063SOL    HW213089   5.531   1.842   0.730
 4064SOL     OW13090   1.970   2.153   4.841
 4064SOL    HW113091   1.935   2.091   4.911
 4064SOL    HW213092   1.898   2.171   4.773
 4065SOL     OW13093   1.952   0.001   0.453
 4065SOL    HW113094   1.913   0.046   0.533
 4065SOL    HW213095   1.911   0.039   0.370
 4066SOL     OW13096   0.236   4.087   3.415
 4066SOL    HW113097   0.231   4.184   3.437
 4066SOL    HW213098   0.328   4.065   3.382
 4067SOL     OW13099   5.502   5.025   2.412
 4067SOL    HW113100   5.562   4.953   2.448
 4067SOL    HW213101   5.483   5.093   2.482
 4068SOL     OW13102   1.450   2.797   5.480
 4068SOL    HW113103   1.546   2.773   5.497
 4068SOL    HW213104   1.396   2.775   5.561
 4069SOL     OW13105   4.046   0.032   6.880
 4069SOL    HW113106   4.043   6.953   6.900
 4069SOL    HW213107   3.993   0.051   6.797
 4070SOL     OW13108   1.345   3.013   3.034
 4070SOL    HW113109   1.347   3.013   2.934
 4070SOL    HW213110   1.378   2.925   3.068
 4071SOL     OW13111   0.630   0.409   3.796
 4071SOL    HW113112   0.599   0.320   3.831
 4071SOL    HW213113   0.564   0.443   3.729
 4072SOL     OW13114   1.730   5.609   3.324
 4072SOL    HW113115   1.816   5.564   3.347
 4072SOL    HW213116   1.749   5.701   3.289
 4073SOL     OW13117   3.150   5.093   0.169
 4073SOL    HW113118   3.081   5.032   0.129
 4073SOL    HW213119   3.240   5.051   0.158
 4074SOL     OW13120   0.866   5.772   2.680
 4074SOL    HW113121   0.948   5.758   2.735
 4074SOL    HW213122   0.883   5.847   2.615
 4075SOL     OW13123   5.331   0.155   0.835
 4075SOL    HW113124   5.280   0.216   0.774
 4075SOL    HW213125   5.266   0.103   0.891
 4076SOL     OW13126   3.073   3.947   5.224
 4076SOL    HW113127   3.117   4.019   5.170
 4076SOL    HW213128   3.058   3.867   5.166
 4077SOL     OW13129   3.918   1.946   1.702
 4077SOL    HW113130   3.930   2.030   1.755
 4077SOL    HW213131   3.898   1.969   1.607
 4078SOL     OW13132   3.061   4.934   2.769
 4078SOL    HW113133   3.150   4.896   2.794
 4078SOL    HW213134   3.073   5.019   2.719
 4079SOL     OW13135   1.113   2.527   4.050
 4079SOL    HW113136   1.202   2.540   4.093
 4079SOL    HW213137   1.060   2.611   4.058
 4080SOL     OW13138   5.594   1.233   5.083
 4080SOL    HW113139   5.619   1.161   5.149
 4080SOL    HW213140   5.534   1.299   5.127
 4081SOL     OW13141   1.585   3.407   3.190
 4081SOL    HW113142   1.554   3.501   3.175
 4081SOL    HW213143   1.615   3.367   3.104
 4082SOL     OW13144   1.173   3.188   0.991
 4082SOL    HW113145   1.093   3.129   1.006
 4082SOL    HW213146   1.171   3.223   0.898
 4083SOL     OW13147   5.823   2.548   4.425
 4083SOL    HW113148   5.862   2.504   4.345
 4083SOL    HW213149   5.864   2.638   4.438
 4084SOL     OW13150   6.568   1.610   4.216
 4084SOL    HW113151   6.529   1.702   4.230
 4084SOL    HW213152   6.503   1.542   4.249
 4085SOL     OW13153   3.471   5.932   0.300
 4085SOL    HW113154   3.437   5.941   0.393
 4085SOL    HW213155   3.564   5.896   0.302
 4086SOL     OW13156   1.636   5.372   1.010
 4086SOL    HW113157   1.570   5.298   1.025
 4086SOL    HW213158   1.631   5.436   1.087
 4087SOL     OW13159   2.375   2.171   3.285
 4087SOL    HW113160   2.442   2.245   3.278
 4087SOL    HW213161   2.352   2.156   3.381
 4088SOL     OW13162   6.391   1.777   1.130
 4088SOL    HW113163   6.331   1.724   1.190
 4088SOL    HW213164   6.473   1.804   1.180
 4089SOL     OW13165   0.576   1.050   4.096
 4089SOL    HW113166   0.572   1.149   4.113
 4089SOL    HW213167   0.607   1.004   4.179
 4090SOL     OW13168   2.430   4.032   6.407
 4090SOL    HW113169   2.447   4.100   6.336
 4090SOL    HW213170   2.371   3.960   6.372
 4091SOL     OW13171   4.780   6.085   0.222
 4091SOL    HW113172   4.734   5.998   0.206
 4091SOL    HW213173   4.866   6.069   0.269
 4092SOL     OW13174   0.413   2.698   5.109
 4092SOL    HW113175   0.345   2.724   5.041
 4092SOL    HW213176   0.414   2.765   5.182
 4093SOL     OW13177   5.709   1.282   3.326
 4093SOL    HW113178   5.785   1.226   3.359
 4093SOL    HW213179   5.715   1.290   3.226
 4094SOL     OW13180   2.257   4.245   5.340
 4094SOL    HW113181   2.247   4.339   5.309
 4094SOL    HW213182   2.353   4.219   5.335
 4095SOL     OW13183   1.029   2.938   5.749
 4095SOL    HW113184   1.086   3.019   5.761
 4095SOL    HW213185   0.998   2.905   5.838
 4096SOL     OW13186   4.618   5.164   6.761
 4096SOL    HW113187   4.703   5.145   6.810
 4096SOL    HW213188   4.636   5.165   6.663
 4097SOL     OW13189   3.507   3.582   5.725
 4097SOL    HW113190   3.553   3.661   5.684
 4097SOL    HW213191   3.534   3.499   5.676
 4098SOL     OW13192   0.548   2.672   2.959
 4098SOL    HW113193   0.553   2.754   3.015
 4098SOL    HW213194   0.478   2.611   2.995
 4099SOL     OW13195   3.011   6.084   2.001
 4099SOL    HW113196   3.064   6.007   1.965
 4099SOL    HW213197   3.073   6.159   2.025
 4100SOL     OW13198   4.662   6.261   3.658
 4100SOL    HW113199   4.676   6.163   3.640
 4100SOL    HW213200   4.651   6.309   3.571
 4101SOL     OW13201   5.796   1.681   6.142
 4101SOL    HW113202   5.775   1.657   6.237
 4101SOL    HW213203   5.759   1.610   6.082
 4102SOL     OW13204   5.842   0.698   0.630
 4102SOL    HW113205   5.849   0.798   0.632
 4102SOL    HW213206   5.784   0.668   0.706
 4103SOL     OW13207   0.507   0.995   2.275
 4103SOL    HW113208   0.460   0.909   2.255
 4103SOL    HW213209   0.519   1.005   2.374
 4104SOL     OW13210   1.879   4.637   2.514
 4104SOL    HW113211   1.949   4.655   2.444
 4104SOL    HW213212   1.809   4.577   2.476
 4105SOL     OW13213   3.954   5.417   0.433
 4105SOL    HW113214   3.920   5.510   0.448
 4105SOL    HW213215   3.991   5.410   0.340
 4106SOL     OW13216   7.018   3.636   4.672
 4106SOL    HW113217   0.043   3.721   4.702
 4106SOL    HW213218   0.034   3.559   4.725
 4107SOL     OW13219   0.339   6.426   1.406
 4107SOL    HW113220   0.422   6.481   1.423
 4107SOL    HW213221   0.347   6.381   1.317
 4108SOL     OW13222   6.617   3.882   6.508
 4108SOL    HW113223   6.715   3.862   6.501
 4108SOL    HW213224   6.568   3.801   6.540
 4109SOL     OW13225   3.752   6.479   3.923
 4109SOL    HW113226   3.706   6.410   3.980
 4109SOL    HW213227   3.720   6.570   3.949
 4110SOL     OW13228   4.860   3.178   6.098
 4110SOL    HW113229   4.938   3.226   6.139
 4110SOL    HW213230   4.787   3.244   6.079
 4111SOL     OW13231   4.215   2.649   0.030
 4111SOL    HW113232   4.156   2.725   0.059
 4111SOL    HW213233   4.178   2.607   6.966
 4112SOL     OW13234   4.278   1.513   4.519
 4112SOL    HW113235   4.190   1.519   4.567
 4112SOL    HW213236   4.313   1.605   4.502
 4113SOL     OW13237   3.377   5.151   5.467
 4113SOL    HW113238   3.435   5.094   5.409
 4113SOL    HW213239   3.434   5.202   5.531
 4114SOL     OW13240   3.150   1.580   4.137
 4114SOL    HW113241   3.056   1.553   4.159
 4114SOL    HW213242   3.164   1.675   4.164
 4115SOL     OW13243   4.791   5.669   1.840
 4115SOL    HW113244   4.766   5.760   1.873
 4115SOL    HW213245   4.889   5.655   1.853
 4116SOL     OW13246   3.628   1.963   1.893
 4116SOL    HW113247   3.647   2.051   1.937
 4116SOL    HW213248   3.659   1.965   1.798
 4117SOL     OW13249   1.204   5.001   0.936
 4117SOL    HW113250   1.166   5.080   0.889
 4117SOL    HW213251   1.301   5.017   0.955
 4118SOL     OW13252   1.195   6.873   0.880
 4118SOL    HW113253   1.214   6.883   0.978
 4118SOL    HW213254   1.260   6.808   0.840
 4119SOL     OW13255   3.504   0.840   4.248
 4119SOL    HW113256   3.472   0.874   4.160
 4119SOL    HW213257   3.600   0.813   4.240
 4120SOL     OW13258   4.101   6.786   2.040
 4120SOL    HW113259   4.109   6.699   1.990
 4120SOL    HW213260   4.024   6.838   2.004
 4121SOL     OW13261   6.571   2.479   4.665
 4121SOL    HW113262   6.592   2.511   4.573
 4121SOL    HW213263   6.539   2.556   4.721
 4122SOL     OW13264   0.595   6.619   5.319
 4122SOL    HW113265   0.648   6.701   5.299
 4122SOL    HW213266   0.530   6.638   5.392
 4123SOL     OW13267   5.870   4.236   5.933
 4123SOL    HW113268   5.802   4.180   5.885
 4123SOL    HW213269   5.875   4.326   5.891
 4124SOL     OW13270   5.430   6.911   3.893
 4124SOL    HW113271   5.397   6.885   3.803
 4124SOL    HW213272   5.353   6.918   3.956
 4125SOL     OW13273   4.613   0.873   1.858
 4125SOL    HW113274   4.526   0.894   1.903
 4125SOL    HW213275   4.661   0.958   1.836
 4126SOL     OW13276   1.627   4.346   4.727
 4126SOL    HW113277   1.555   4.302   4.673
 4126SOL    HW213278   1.694   4.387   4.666
 4127SOL     OW13279   5.599   3.345   4.748
 4127SOL    HW113280   5.614   3.440   4.722
 4127SOL    HW213281   5.668   3.287   4.705
 4128SOL     OW13282   1.730   3.533   2.379
 4128SOL    HW113283   1.790   3.541   2.459
 4128SOL    HW213284   1.661   3.463   2.397
 4129SOL     OW13285   5.768   2.218   5.947
 4129SOL    HW113286   5.728   2.148   5.888
 4129SOL    HW213287   5.793   2.177   6.035
 4130SOL     OW13288   6.459   3.999   6.301
 4130SOL    HW113289   6.464   4.098   6.287
 4130SOL    HW213290   6.516   3.973   6.380
 4131SOL     OW13291   0.108   5.718   3.975
 4131SOL    HW113292   0.075   5.765   4.057
 4131SOL    HW213293   0.184   5.657   3.999
 4132SOL     OW13294   5.080   3.353   3.256
 4132SOL    HW113295   5.072   3.375   3.353
 4132SOL    HW213296   5.091   3.438   3.203
 4133SOL     OW13297   2.859   0.871   1.099
 4133SOL    HW113298   2.865   0.813   1.180
 4133SOL    HW213299   2.830   0.963   1.126
 4134SOL     OW13300   2.317   1.895   0.755
 4134SOL    HW113301   2.364   1.879   0.842
 4134SOL    HW213302   2.288   1.808   0.716
 4135SOL     OW13303   1.602   0.709   2.874
 4135SOL    HW113304   1.520   0.764   2.891
 4135SOL    HW213305   1.619   0.649   2.953
 4136SOL     OW13306   0.343   2.376   4.224
 4136SOL    HW113307   0.327   2.458   4.169
 4136SOL    HW213308   0.424   2.328   4.189
 4137SOL     OW13309   3.185   3.969   6.691
 4137SOL    HW113310   3.256   3.999   6.629
 4137SOL    HW213311   3.208   3.996   6.785
 4138SOL     OW13312   4.395   4.640   4.225
 4138SOL    HW113313   4.431   4.548   4.236
 4138SOL    HW213314   4.387   4.661   4.127
 4139SOL     OW13315   1.772   1.906   5.906
 4139SOL    HW113316   1.747   2.000   5.882
 4139SOL    HW213317   1.868   1.890   5.880
 4140SOL     OW13318   3.852   1.322   5.284
 4140SOL    HW113319   3.921   1.256   5.253
 4140SOL    HW213320   3.845   1.397   5.217
 4141SOL     OW13321   5.263   5.197   1.219
 4141SOL    HW113322   5.328   5.247   1.275
 4141SOL    HW213323   5.170   5.231   1.236
 4142SOL     OW13324   0.221   4.628   0.820
 4142SOL    HW113325   0.223   4.725   0.797
 4142SOL    HW213326   0.126   4.599   0.834
 4143SOL     OW13327   6.572   2.714   0.918
 4143SOL    HW113328   6.539   2.718   0.824
 4143SOL    HW213329   6.511   2.655   0.972
 4144SOL     OW13330   5.321   1.562   1.625
 4144SOL    HW113331   5.395   1.591   1.684
 4144SOL    HW213332   5.250   1.633   1.624
 4145SOL     OW13333   0.805   6.849   1.429
 4145SOL    HW113334   0.830   6.772   1.488
 4145SOL    HW213335   0.876   6.919   1.435
 4146SOL     OW13336   5.395   0.162   6.229
 4146SOL    HW113337   5.464   0.109   6.180
 4146SOL    HW213338   5.432   0.191   6.318
 4147SOL     OW13339   3.445   2.165   6.123
 4147SOL    HW113340   3.378   2.151   6.050
 4147SOL    HW213341   3.420   2.110   6.202
 4148SOL     OW13342   0.015   0.501   3.926
 4148SOL    HW113343   7.018   0.405   3.949
 4148SOL    HW213344   0.070   0.506   3.842
 4149SOL     OW13345   6.254   3.048   0.807
 4149SOL    HW113346   6.218   3.137   0.832
 4149SOL    HW213347   6.354   3.054   0.797
 4150SOL     OW13348   5.545   0.542   6.088
 4150SOL    HW113349   5.450   0.557   6.062
 4150SOL    HW213350   5.602   0.615   6.052
 4151SOL     OW13351   6.774   6.077   0.377
 4151SOL    HW113352   6.852   6.016   0.388
 4151SOL    HW213353   6.737   6.066   0.284
 4152SOL     OW13354   4.329   4.898   2.133
 4152SOL    HW113355   4.347   4.956   2.053
 4152SOL    HW213356   4.232   4.875   2.136
 4153SOL     OW13357   5.958   5.362   6.351
 4153SOL    HW113358   5.969   5.313   6.437
 4153SOL    HW213359   5.951   5.295   6.276
 4154SOL     OW13360   5.988   3.552   4.823
 4154SOL    HW113361   5.973   3.588   4.731
 4154SOL    HW213362   6.029   3.461   4.816
 4155SOL     OW13363   0.782   3.939   2.490
 4155SOL    HW113364   0.701   3.881   2.483
 4155SOL    HW213365   0.815   3.939   2.584
 4156SOL     OW13366   5.766   6.762   5.581
 4156SOL    HW113367   5.796   6.711   5.500
 4156SOL    HW213368   5.842   6.767   5.647
 4157SOL     OW13369   4.216   0.746   3.892
 4157SOL    HW113370   4.213   0.650   3.866
 4157SOL    HW213371   4.243   0.755   3.988
 4158SOL     OW13372   0.970   5.053   3.143
 4158SOL    HW113373   0.938   5.146   3.160
 4158SOL    HW213374   0.938   4.992   3.216
 4159SOL     OW13375   1.038   2.961   3.926
 4159SOL    HW113376   1.072   3.049   3.894
 4159SOL    HW213377   1.023   2.901   3.847
 4160SOL     OW13378   6.339   0.465   0.646
 4160SOL    HW113379   6.392   0.418   0.576
 4160SOL    HW213380   6.401   0.515   0.707
 4161SOL     OW13381   1.413   1.172   6.843
 4161SOL    HW113382   1.354   1.180   6.763
 4161SOL    HW213383   1.493   1.233   6.833
 4162SOL     OW13384   6.125   6.900   4.242
 4162SOL    HW113385   6.078   6.988   4.230
 4162SOL    HW213386   6.081   6.849   4.316
 4163SOL     OW13387   5.581   1.433   3.507
 4163SOL    HW113388   5.607   1.383   3.424
 4163SOL    HW213389   5.662   1.451   3.561
 4164SOL     OW13390   1.951   0.932   6.718
 4164SOL    HW113391   1.897   0.956   6.638
 4164SOL    HW213392   2.048   0.936   6.696
 4165SOL     OW13393   4.018   6.484   0.551
 4165SOL    HW113394   4.054   6.571   0.585
 4165SOL    HW213395   4.040   6.412   0.616
 4166SOL     OW13396   4.387   2.757   0.667
 4166SOL    HW113397   4.446   2.810   0.728
 4166SOL    HW213398   4.300   2.803   0.656
 4167SOL     OW13399   2.217   2.551   1.743
 4167SOL    HW113400   2.304   2.577   1.786
 4167SOL    HW213401   2.179   2.471   1.790
 4168SOL     OW13402   0.272   5.393   1.774
 4168SOL    HW113403   0.324   5.335   1.712
 4168SOL    HW213404   0.300   5.376   1.869
 4169SOL     OW13405   4.976   3.795   3.890
 4169SOL    HW113406   4.953   3.823   3.983
 4169SOL    HW213407   5.056   3.735   3.891
 4170SOL     OW13408   3.873   2.655   5.555
 4170SOL    HW113409   3.966   2.642   5.589
 4170SOL    HW213410   3.876   2.679   5.458
 4171SOL     OW13411   5.148   4.108   1.575
 4171SOL    HW113412   5.136   4.009   1.564
 4171SOL    HW213413   5.093   4.156   1.506
 4172SOL     OW13414   0.510   1.923   0.988
 4172SOL    HW113415   0.509   2.021   1.007
 4172SOL    HW213416   0.603   1.888   1.000
 4173SOL     OW13417   5.446   2.981   4.847
 4173SOL    HW113418   5.510   2.940   4.782
 4173SOL    HW213419   5.418   2.913   4.914
 4174SOL     OW13420   4.708   0.790   3.610
 4174SOL    HW113421   4.622   0.755   3.572
 4174SOL    HW213422   4.765   0.714   3.639
 4175SOL     OW13423   3.299   0.164   3.518
 4175SOL    HW113424   3.259   0.214   3.441
 4175SOL    HW213425   3.231   0.102   3.557
 4176SOL     OW13426   4.634   0.099   2.892
 4176SOL    HW113427   4.633   0.190   2.850
 4176SOL    HW213428   4.721   0.085   2.939
 4177SOL     OW13429   0.292   6.162   3.810
 4177SOL    HW113430   0.214   6.209   3.769
 4177SOL    HW213431   0.312   6.203   3.900
 4178SOL     OW13432   3.201   1.781   5.949
 4178SOL    HW113433   3.134   1.853   5.965
 4178SOL    HW213434   3.239   1.791   5.856
 4179SOL     OW13435   5.372   3.599   5.412
 4179SOL    HW113436   5.294   3.641   5.366
 4179SOL    HW213437   5.440   3.571   5.345
 4180SOL     OW13438   5.060   4.530   1.063
 4180SOL    HW113439   4.999   4.605   1.086
 4180SOL    HW213440   5.095   4.489   1.148
 4181SOL     OW13441   0.534   1.659   6.514
 4181SOL    HW113442   0.592   1.697   6.586
 4181SOL    HW213443   0.439   1.688   6.528
 4182SOL     OW13444   6.650   0.396   2.310
 4182SOL    HW113445   6.562   0.429   2.275
 4182SOL    HW213446   6.710   0.375   2.233
 4183SOL     OW13447   2.738   1.538   1.682
 4183SOL    HW113448   2.690   1.456   1.651
 4183SOL    HW213449   2.729   1.610   1.614
 4184SOL     OW13450   3.692   5.541   0.626
 4184SOL    HW113451   3.608   5.545   0.571
 4184SOL    HW213452   3.760   5.603   0.587
 4185SOL     OW13453   0.137   0.052   3.234
 4185SOL    HW113454   0.117   0.112   3.157
 4185SOL    HW213455   0.051   0.020   3.275
 4186SOL     OW13456   2.650   3.768   0.859
 4186SOL    HW113457   2.652   3.688   0.919
 4186SOL    HW213458   2.686   3.743   0.770
 4187SOL     OW13459   3.667   3.615   6.436
 4187SOL    HW113460   3.582   3.661   6.408
 4187SOL    HW213461   3.688   3.542   6.371
 4188SOL     OW13462   4.641   0.531   3.867
 4188SOL    HW113463   4.648   0.438   3.904
 4188SOL    HW213464   4.688   0.536   3.779
 4189SOL     OW13465   2.253   1.591   4.393
 4189SOL    HW113466   2.262   1.612   4.490
 4189SOL    HW213467   2.301   1.661   4.339
 4190SOL     OW13468   3.040   0.824   6.791
 4190SOL    HW113469   2.984   0.744   6.773
 4190SOL    HW213470   2.980   0.902   6.811
 4191SOL     OW13471   6.355   2.764   3.076
 4191SOL    HW113472   6.308   2.781   2.989
 4191SOL    HW213473   6.291   2.721   3.139
 4192SOL     OW13474   5.955   1.287   3.029
 4192SOL    HW113475   5.971   1.285   2.931
 4192SOL    HW213476   5.866   1.330   3.047
 4193SOL     OW13477   2.403   6.842   2.560
 4193SOL    HW113478   2.439   6.852   2.468
 4193SOL    HW213479   2.327   6.905   2.573
 4194SOL     OW13480   6.969   1.606   4.031
 4194SOL    HW113481   0.050   1.611   4.025
 4194SOL    HW213482   6.937   1.666   4.104
 4195SOL     OW13483   5.709   0.351   1.353
 4195SOL    HW113484   5.796   0.393   1.376
 4195SOL    HW213485   5.719   0.295   1.271
 4196SOL     OW13486   5.210   2.968   4.274
 4196SOL    HW113487   5.168   2.942   4.187
 4196SOL    HW213488   5.299   2.923   4.282
 4197SOL     OW13489   5.272   4.545   4.830
 4197SOL    HW113490   5.232   4.478   4.767
 4197SOL    HW213491   5.357   4.582   4.790
 4198SOL     OW13492   5.944   3.924   0.059
 4198SOL    HW113493   5.952   4.012   0.107
 4198SOL    HW213494   6.026   3.869   0.077
 4199SOL     OW13495   3.250   3.735   4.831
 4199SOL    HW113496   3.167   3.789   4.847
 4199SOL    HW213497   3.239   3.681   4.747
 4200SOL     OW13498   2.024   0.333   6.827
 4200SOL    HW113499   2.039   0.284   6.913
 4200SOL    HW213500   2.055   0.276   6.750
 4201SOL     OW13501   5.834   0.226   3.783
 4201SOL    HW113502   5.930   0.204   3.768
 4201SOL    HW213503   5.793   0.158   3.843
 4202SOL     OW13504   5.586   5.117   5.356
 4202SOL    HW113505   5.673   5.099   5.401
 4202SOL    HW213506   5.590   5.205   5.308
 4203SOL     OW13507   4.941   5.638   3.079
 4203SOL    HW113508   4.864   5.700   3.062
 4203SOL    HW213509   5.018   5.663   3.020
 4204SOL     OW13510   3.607   3.267   1.119
 4204SOL    HW113511   3.513   3.257   1.152
 4204SOL    HW213512   3.668   3.211   1.175
 4205SOL     OW13513   3.404   5.203   4.446
 4205SOL    HW113514   3.457   5.286   4.463
 4205SOL    HW213515   3.370   5.203   4.352
 4206SOL     OW13516   4.920   0.364   4.893
 4206SOL    HW113517   4.958   0.421   4.820
 4206SOL    HW213518   4.824   0.389   4.908
 4207SOL     OW13519   1.353   0.762   1.902
 4207SOL    HW113520   1.385   0.791   1.812
 4207SOL    HW213521   1.254   0.774   1.907
 4208SOL     OW13522   1.299   2.668   0.623
 4208SOL    HW113523   1.279   2.725   0.543
 4208SOL    HW213524   1.236   2.590   0.624
 4209SOL     OW13525   2.346   6.893   5.219
 4209SOL    HW113526   2.330   6.964   5.150
 4209SOL    HW213527   2.369   6.807   5.174
 4210SOL     OW13528   4.261   3.004   0.813
 4210SOL    HW113529   4.340   2.973   0.866
 4210SOL    HW213530   4.279   3.096   0.778
 4211SOL     OW13531   4.386   4.618   3.950
 4211SOL    HW113532   4.417   4.637   3.857
 4211SOL    HW213533   4.297   4.661   3.965
 4212SOL     OW13534   6.091   1.035   2.929
 4212SOL    HW113535   6.020   1.065   2.992
 4212SOL    HW213536   6.131   0.949   2.962
 4213SOL     OW13537   1.623   1.009   2.446
 4213SOL    HW113538   1.723   1.018   2.446
 4213SOL    HW213539   1.588   1.032   2.355
 4214SOL     OW13540   0.975   3.559   4.965
 4214SOL    HW113541   0.947   3.463   4.973
 4214SOL    HW213542   1.064   3.572   5.010
 4215SOL     OW13543   0.795   5.297   5.056
 4215SOL    HW113544   0.827   5.334   4.969
 4215SOL    HW213545   0.874   5.281   5.116
 4216SOL     OW13546   0.623   2.612   4.142
 4216SOL    HW113547   0.665   2.702   4.136
 4216SOL    HW213548   0.620   2.582   4.237
 4217SOL     OW13549   0.101   1.055   2.964
 4217SOL    HW113550   0.061   0.967   2.988
 4217SOL    HW213551   0.156   1.088   3.041
 4218SOL     OW13552   4.238   7.003   2.153
 4218SOL    HW113553   4.296   0.020   2.080
 4218SOL    HW213554   4.194   6.918   2.122
 4219SOL     OW13555   4.705   5.793   4.508
 4219SOL    HW113556   4.748   5.883   4.514
 4219SOL    HW213557   4.678   5.775   4.414
 4220SOL     OW13558   6.468   3.555   4.427
 4220SOL    HW113559   6.506   3.643   4.456
 4220SOL    HW213560   6.502   3.483   4.489
 4221SOL     OW13561   5.144   5.661   6.418
 4221SOL    HW113562   5.118   5.743   6.368
 4221SOL    HW213563   5.132   5.581   6.359
 4222SOL     OW13564   5.144   2.587   1.822
 4222SOL    HW113565   5.131   2.559   1.917
 4222SOL    HW213566   5.056   2.584   1.774
 4223SOL     OW13567   3.313   4.068   2.252
 4223SOL    HW113568   3.354   4.097   2.166
 4223SOL    HW213569   3.216   4.047   2.237
 4224SOL     OW13570   4.375   2.375   4.808
 4224SOL    HW113571   4.435   2.455   4.800
 4224SOL    HW213572   4.291   2.401   4.855
 4225SOL     OW13573   6.083   0.183   4.598
 4225SOL    HW113574   6.183   0.174   4.594
 4225SOL    HW213575   6.056   0.271   4.559
 4226SOL     OW13576   0.547   1.693   3.703
 4226SOL    HW113577   0.449   1.676   3.715
 4226SOL    HW213578   0.595   1.672   3.788
 4227SOL     OW13579   4.414   4.497   0.229
 4227SOL    HW113580   4.378   4.488   0.136
 4227SOL    HW213581   4.510   4.468   0.231
 4228SOL     OW13582   6.414   5.241   3.203
 4228SOL    HW113583   6.444   5.222   3.109
 4228SOL    HW213584   6.426   5.338   3.222
 4229SOL     OW13585   4.576   4.773   5.637
 4229SOL    HW113586   4.620   4.847   5.688
 4229SOL    HW213587   4.627   4.756   5.553
 4230SOL     OW13588   3.560   0.743   5.134
 4230SOL    HW113589   3.621   0.823   5.136
 4230SOL    HW213590   3.509   0.741   5.049
 4231SOL     OW13591   4.743   6.777   5.132
 4231SOL    HW113592   4.723   6.875   5.129
 4231SOL    HW213593   4.658   6.726   5.140
 4232SOL     OW13594   2.138   4.789   2.930
 4232SOL    HW113595   2.123   4.705   2.981
 4232SOL    HW213596   2.161   4.863   2.994
 4233SOL     OW13597   6.896   6.601   0.096
 4233SOL    HW113598   6.821   6.576   0.156
 4233SOL    HW213599   6.983   6.581   0.141
 4234SOL     OW13600   3.066   4.810   6.223
 4234SOL    HW113601   3.107   4.721   6.203
 4234SOL    HW213602   3.029   4.850   6.139
 4235SOL     OW13603   6.388   3.506   5.448
 4235SOL    HW113604   6.304   3.477   5.493
 4235SOL    HW213605   6.366   3.553   5.363
 4236SOL     OW13606   1.360   2.963   4.422
 4236SOL    HW113607   1.373   3.060   4.442
 4236SOL    HW213608   1.323   2.952   4.329
 4237SOL     OW13609   5.165   3.487   4.778
 4237SOL    HW113610   5.228   3.562   4.757
 4237SOL    HW213611   5.125   3.453   4.692
 4238SOL     OW13612   4.188   5.691   3.931
 4238SOL    HW113613   4.109   5.667   3.988
 4238SOL    HW213614   4.162   5.766   3.869
 4239SOL     OW13615   5.013   6.037   5.942
 4239SOL    HW113616   5.039   5.941   5.935
 4239SOL    HW213617   5.086   6.094   5.906
 4240SOL     OW13618   2.536   4.928   6.541
 4240SOL    HW113619   2.439   4.903   6.543
 4240SOL    HW213620   2.581   4.893   6.622
 4241SOL     OW13621   4.529   0.266   0.867
 4241SOL    HW113622   4.461   0.193   0.862
 4241SOL    HW213623   4.558   0.291   0.775
 4242SOL     OW13624   1.990   0.707   3.111
 4242SOL    HW113625   1.967   0.650   3.032
 4242SOL    HW213626   1.914   0.705   3.176
 4243SOL     OW13627   1.207   3.670   2.206
 4243SOL    HW113628   1.181   3.633   2.295
 4243SOL    HW213629   1.299   3.638   2.182
 4244SOL     OW13630   4.652   6.778   0.990
 4244SOL    HW113631   4.670   6.694   1.041
 4244SOL    HW213632   4.707   6.778   0.906
 4245SOL     OW13633   6.803   3.301   1.143
 4245SOL    HW113634   6.792   3.342   1.233
 4245SOL    HW213635   6.848   3.365   1.081
 4246SOL     OW13636   5.258   1.884   3.005
 4246SOL    HW113637   5.160   1.893   3.023
 4246SOL    HW213638   5.289   1.961   2.949
 4247SOL     OW13639   1.736   4.806   5.489
 4247SOL    HW113640   1.831   4.833   5.470
 4247SOL    HW213641   1.736   4.734   5.558
 4248SOL     OW13642   1.767   0.787   3.295
 4248SOL    HW113643   1.727   0.877   3.312
 4248SOL    HW213644   1.835   0.767   3.366
 4249SOL     OW13645   6.778   0.021   5.081
 4249SOL    HW113646   6.827   0.085   5.140
 4249SOL    HW213647   6.841   6.967   5.053
 4250SOL     OW13648   0.020   5.866   4.508
 4250SOL    HW113649   6.988   5.951   4.499
 4250SOL    HW213650   0.118   5.885   4.507
 4251SOL     OW13651   5.797   1.893   6.005
 4251SOL    HW113652   5.828   1.965   6.067
 4251SOL    HW213653   5.802   1.805   6.052
 4252SOL     OW13654   6.467   6.701   6.811
 4252SOL    HW113655   6.552   6.696   6.758
 4252SOL    HW213656   6.477   6.649   6.896
 4253SOL     OW13657   4.142   5.373   2.575
 4253SOL    HW113658   4.043   5.385   2.571
 4253SOL    HW213659   4.172   5.317   2.497
 4254SOL     OW13660   1.662   2.971   6.818
 4254SOL    HW113661   1.603   3.052   6.814
 4254SOL    HW213662   1.742   2.990   6.874
 4255SOL     OW13663   0.884   3.720   2.971
 4255SOL    HW113664   0.795   3.680   2.951
 4255SOL    HW213665   0.872   3.801   3.028
 4256SOL     OW13666   0.751   5.351   1.872
 4256SOL    HW113667   0.726   5.446   1.890
 4256SOL    HW213668   0.822   5.348   1.802
 4257SOL     OW13669   6.008   0.488   5.409
 4257SOL    HW113670   5.953   0.462   5.331
 4257SOL    HW213671   6.104   0.493   5.382
 4258SOL     OW13672   3.743   5.789   0.262
 4258SOL    HW113673   3.718   5.711   0.204
 4258SOL    HW213674   3.812   5.844   0.215
 4259SOL     OW13675   0.820   6.967   2.300
 4259SOL    HW113676   0.867   6.881   2.322
 4259SOL    HW213677   0.776   7.003   2.382
 4260SOL     OW13678   4.972   0.310   4.231
 4260SOL    HW113679   5.054   0.367   4.235
 4260SOL    HW213680   4.891   0.368   4.230
 4261SOL     OW13681   2.138   6.992   3.833
 4261SOL    HW113682   2.115   6.907   3.788
 4261SOL    HW213683   2.205   0.023   3.779
 4262SOL     OW13684   1.590   3.951   6.872
 4262SOL    HW113685   1.648   3.871   6.889
 4262SOL    HW213686   1.646   4.033   6.868
 4263SOL     OW13687   2.448   2.397   4.064
 4263SOL    HW113688   2.480   2.424   4.155
 4263SOL    HW213689   2.430   2.479   4.009
 4264SOL     OW13690   5.367   1.279   4.643
 4264SOL    HW113691   5.351   1.377   4.657
 4264SOL    HW213692   5.385   1.262   4.546
 4265SOL     OW13693   3.524   1.302   0.733
 4265SOL    HW113694   3.522   1.278   0.830
 4265SOL    HW213695   3.553   1.223   0.679
 4266SOL     OW13696   1.582   6.713   0.876
 4266SOL    HW113697   1.650   6.674   0.814
 4266SOL    HW213698   1.580   6.661   0.961
 4267SOL     OW13699   1.738   4.274   4.983
 4267SOL    HW113700   1.772   4.291   4.890
 4267SOL    HW213701   1.701   4.181   4.988
 4268SOL     OW13702   1.250   4.303   6.483
 4268SOL    HW113703   1.317   4.377   6.476
 4268SOL    HW213704   1.159   4.341   6.500
 4269SOL     OW13705   2.722   1.605   4.490
 4269SOL    HW113706   2.783   1.585   4.413
 4269SOL    HW213707   2.629   1.581   4.465
 4270SOL     OW13708   3.974   2.508   0.472
 4270SOL    HW113709   3.977   2.409   0.486
 4270SOL    HW213710   4.057   2.537   0.424
 4271SOL     OW13711   6.863   0.746   1.191
 4271SOL    HW113712   6.939   0.808   1.175
 4271SOL    HW213713   6.851   0.731   1.289
 4272SOL     OW13714   6.714   1.250   6.163
 4272SOL    HW113715   6.638   1.192   6.134
 4272SOL    HW213716   6.756   1.292   6.082
 4273SOL     OW13717   3.815   5.563   4.778
 4273SOL    HW113718   3.773   5.472   4.779
 4273SOL    HW213719   3.837   5.588   4.684
 4274SOL     OW13720   6.893   1.354   1.695
 4274SOL    HW113721   6.899   1.317   1.787
 4274SOL    HW213722   6.802   1.338   1.658
 4275SOL     OW13723   0.415   3.115   3.315
 4275SOL    HW113724   0.452   3.202   3.283
 4275SOL    HW213725   0.329   3.132   3.364
 4276SOL     OW13726   2.210   6.087   4.368
 4276SOL    HW113727   2.178   6.083   4.463
 4276SOL    HW213728   2.291   6.030   4.358
 4277SOL     OW13729   6.155   5.455   3.183
 4277SOL    HW113730   6.152   5.529   3.250
 4277SOL    HW213731   6.237   5.463   3.127
 4278SOL     OW13732   1.142   6.846   1.962
 4278SOL    HW113733   1.057   6.899   1.957
 4278SOL    HW213734   1.197   6.879   2.039
 4279SOL     OW13735   2.189   1.989   3.171
 4279SOL    HW113736   2.118   2.052   3.202
 4279SOL    HW213737   2.279   2.025   3.197
 4280SOL     OW13738   0.954   6.861   6.262
 4280SOL    HW113739   0.864   6.839   6.300
 4280SOL    HW213740   0.945   6.888   6.166
 4281SOL     OW13741   4.331   6.236   3.685
 4281SOL    HW113742   4.428   6.222   3.665
 4281SOL    HW213743   4.277   6.178   3.625
 4282SOL     OW13744   3.581   4.257   1.139
 4282SOL    HW113745   3.664   4.201   1.128
 4282SOL    HW213746   3.521   4.214   1.207
 4283SOL     OW13747   4.940   1.283   3.835
 4283SOL    HW113748   4.917   1.248   3.745
 4283SOL    HW213749   4.974   1.377   3.827
 4284SOL     OW13750   4.679   5.802   6.184
 4284SOL    HW113751   4.686   5.902   6.184
 4284SOL    HW213752   4.768   5.762   6.162
 4285SOL     OW13753   3.023   0.083   5.589
 4285SOL    HW113754   3.066   0.088   5.680
 4285SOL    HW213755   2.985   0.172   5.565
 4286SOL     OW13756   5.619   1.143   6.385
 4286SOL    HW113757   5.583   1.051   6.370
 4286SOL    HW213758   5.585   1.203   6.313
 4287SOL     OW13759   4.675   0.602   0.182
 4287SOL    HW113760   4.665   0.633   0.087
 4287SOL    HW213761   4.585   0.596   0.225
 4288SOL     OW13762   6.461   6.727   2.277
 4288SOL    HW113763   6.362   6.722   2.267
 4288SOL    HW213764   6.487   6.815   2.318
 4289SOL     OW13765   0.850   3.599   4.538
 4289SOL    HW113766   0.874   3.647   4.454
 4289SOL    HW213767   0.875   3.503   4.530
 4290SOL     OW13768   0.024   1.144   3.362
 4290SOL    HW113769   6.963   1.196   3.392
 4290SOL    HW213770   0.007   1.046   3.374
 4291SOL     OW13771   5.134   3.208   6.607
 4291SOL    HW113772   5.164   3.144   6.536
 4291SOL    HW213773   5.088   3.286   6.565
 4292SOL     OW13774   5.867   2.124   0.635
 4292SOL    HW113775   5.932   2.072   0.691
 4292SOL    HW213776   5.917   2.179   0.568
 4293SOL     OW13777   3.760   4.351   7.002
 4293SOL    HW113778   3.674   4.357   6.952
 4293SOL    HW213779   3.804   4.264   6.983
 4294SOL     OW13780   2.491   2.077   6.493
 4294SOL    HW113781   2.443   2.152   6.448
 4294SOL    HW213782   2.425   2.018   6.540
 4295SOL     OW13783   3.617   6.272   2.795
 4295SOL    HW113784   3.693   6.208   2.780
 4295SOL    HW213785   3.612   6.335   2.717
 4296SOL     OW13786   2.729   6.067   2.042
 4296SOL    HW113787   2.823   6.103   2.044
 4296SOL    HW213788   2.697   6.053   2.135
 4297SOL     OW13789   5.947   4.692   0.880
 4297SOL    HW113790   6.032   4.728   0.840
 4297SOL    HW213791   5.936   4.729   0.972
 4298SOL     OW13792   3.456   6.604   0.299
 4298SOL    HW113793   3.505   6.662   0.234
 4298SOL    HW213794   3.405   6.533   0.249
 4299SOL     OW13795   1.139   2.938   0.118
 4299SOL    HW113796   1.127   2.889   0.031
 4299SOL    HW213797   1.232   2.924   0.151
 4300SOL     OW13798   3.016   0.950   0.844
 4300SOL    HW113799   2.951   0.959   0.920
 4300SOL    HW213800   2.980   0.885   0.777
 4301SOL     OW13801   3.154   6.888   1.557
 4301SOL    HW113802   3.072   6.854   1.605
 4301SOL    HW213803   3.226   6.819   1.562
 4302SOL     OW13804   1.801   5.449   5.783
 4302SOL    HW113805   1.860   5.372   5.805
 4302SOL    HW213806   1.778   5.498   5.867
 4303SOL     OW13807   6.092   4.376   3.499
 4303SOL    HW113808   6.047   4.432   3.429
 4303SOL    HW213809   6.182   4.415   3.520
 4304SOL     OW13810   3.452   3.665   1.540
 4304SOL    HW113811   3.429   3.763   1.534
 4304SOL    HW213812   3.454   3.638   1.637
 4305SOL     OW13813   1.709   0.280   5.242
 4305SOL    HW113814   1.620   0.237   5.258
 4305SOL    HW213815   1.730   0.342   5.317
 4306SOL     OW13816   5.438   3.470   4.988
 4306SOL    HW113817   5.478   3.489   4.898
 4306SOL    HW213818   5.343   3.443   4.977
 4307SOL     OW13819   6.707   1.705   5.187
 4307SOL    HW113820   6.692   1.699   5.285
 4307SOL    HW213821   6.782   1.769   5.168
 4308SOL     OW13822   4.779   5.132   6.993
 4308SOL    HW113823   4.812   5.209   0.029
 4308SOL    HW213824   4.761   5.054   0.035
 4309SOL     OW13825   1.367   3.027   0.428
 4309SOL    HW113826   1.392   3.044   0.523
 4309SOL    HW213827   1.430   2.961   0.388
 4310SOL     OW13828   6.906   1.630   2.863
 4310SOL    HW113829   6.980   1.657   2.926
 4310SOL    HW213830   6.920   1.674   2.774
 4311SOL     OW13831   1.054   0.109   2.448
 4311SOL    HW113832   1.105   0.026   2.471
 4311SOL    HW213833   1.117   0.186   2.443
 4312SOL     OW13834   0.306   4.687   2.484
 4312SOL    HW113835   0.396   4.732   2.476
 4312SOL    HW213836   0.246   4.743   2.541
 4313SOL     OW13837   6.210   1.719   0.149
 4313SOL    HW113838   6.251   1.751   0.063
 4313SOL    HW213839   6.236   1.781   0.223
 4314SOL     OW13840   6.696   2.139   5.240
 4314SOL    HW113841   6.601   2.109   5.247
 4314SOL    HW213842   6.751   2.064   5.201
 4315SOL     OW13843   2.829   1.685   4.098
 4315SOL    HW113844   2.915   1.728   4.071
 4315SOL    HW213845   2.760   1.701   4.028
 4316SOL     OW13846   5.272   6.938   1.768
 4316SOL    HW113847   5.192   6.978   1.815
 4316SOL    HW213848   5.280   6.978   1.677
 4317SOL     OW13849   4.301   1.189   6.157
 4317SOL    HW113850   4.289   1.262   6.091
 4317SOL    HW213851   4.217   1.178   6.210
 4318SOL     OW13852   0.436   1.231   4.427
 4318SOL    HW113853   0.460   1.143   4.467
 4318SOL    HW213854   0.372   1.218   4.352
 4319SOL     OW13855   1.066   4.818   2.293
 4319SOL    HW113856   1.013   4.746   2.339
 4319SOL    HW213857   1.107   4.781   2.209
 4320SOL     OW13858   3.387   5.981   0.545
 4320SOL    HW113859   3.361   6.055   0.608
 4320SOL    HW213860   3.308   5.922   0.528
 4321SOL     OW13861   6.332   6.688   2.589
 4321SOL    HW113862   6.312   6.762   2.525
 4321SOL    HW213863   6.414   6.639   2.560
 4322SOL     OW13864   0.790   3.258   5.336
 4322SOL    HW113865   0.788   3.166   5.296
 4322SOL    HW213866   0.884   3.282   5.360
 4323SOL     OW13867   3.947   5.502   6.545
 4323SOL    HW113868   3.918   5.497   6.449
 4323SOL    HW213869   4.037   5.544   6.550
 4324SOL     OW13870   6.943   4.322   5.693
 4324SOL    HW113871   7.010   4.385   5.654
 4324SOL    HW213872   6.985   4.233   5.706
 4325SOL     OW13873   2.912   0.369   2.423
 4325SOL    HW113874   2.907   0.455   2.474
 4325SOL    HW213875   3.000   0.325   2.442
 4326SOL     OW13876   4.627   2.631   2.937
 4326SOL    HW113877   4.599   2.584   3.021
 4326SOL    HW213878   4.584   2.588   2.859
 4327SOL     OW13879   3.250   5.841   4.271
 4327SOL    HW113880   3.338   5.880   4.295
 4327SOL    HW213881   3.197   5.907   4.219
 4328SOL     OW13882   5.598   6.234   4.956
 4328SOL    HW113883   5.550   6.214   5.041
 4328SOL    HW213884   5.634   6.328   4.960
 4329SOL     OW13885   6.684   2.049   5.639
 4329SOL    HW113886   6.666   2.148   5.638
 4329SOL    HW213887   6.612   2.003   5.690
 4330SOL     OW13888   2.949   4.816   4.860
 4330SOL    HW113889   2.978   4.876   4.935
 4330SOL    HW213890   2.877   4.755   4.891
 4331SOL     OW13891   6.340   0.863   1.881
 4331SOL    HW113892   6.257   0.845   1.933
 4331SOL    HW213893   6.366   0.780   1.830
 4332SOL     OW13894   0.157   4.918   2.618
 4332SOL    HW113895   0.115   4.895   2.706
 4332SOL    HW213896   0.155   5.018   2.606
 4333SOL     OW13897   3.464   2.205   5.549
 4333SOL    HW113898   3.506   2.145   5.617
 4333SOL    HW213899   3.389   2.256   5.591
 4334SOL     OW13900   0.600   2.390   3.990
 4334SOL    HW113901   0.636   2.467   4.044
 4334SOL    HW213902   0.588   2.419   3.895
 4335SOL     OW13903   2.666   3.520   0.982
 4335SOL    HW113904   2.572   3.508   0.947
 4335SOL    HW213905   2.725   3.452   0.940
 4336SOL     OW13906   3.072   5.423   5.947
 4336SOL    HW113907   3.172   5.420   5.956
 4336SOL    HW213908   3.047   5.496   5.884
 4337SOL     OW13909   1.560   5.336   3.585
 4337SOL    HW113910   1.579   5.293   3.673
 4337SOL    HW213911   1.507   5.419   3.599
 4338SOL     OW13912   4.412   0.960   6.195
 4338SOL    HW113913   4.370   1.049   6.182
 4338SOL    HW213914   4.424   0.915   6.106
 4339SOL     OW13915   3.904   2.961   6.171
 4339SOL    HW113916   3.880   3.043   6.120
 4339SOL    HW213917   3.871   2.970   6.265
 4340SOL     OW13918   0.346   3.556   0.888
 4340SOL    HW113919   0.331   3.460   0.910
 4340SOL    HW213920   0.265   3.593   0.841
 4341SOL     OW13921   6.825   6.750   2.573
 4341SOL    HW113922   6.801   6.812   2.498
 4341SOL    HW213923   6.774   6.665   2.563
 4342SOL     OW13924   5.476   3.901   2.690
 4342SOL    HW113925   5.456   3.970   2.760
 4342SOL    HW213926   5.391   3.859   2.660
 4343SOL     OW13927   4.399   0.529   5.822
 4343SOL    HW113928   4.403   0.614   5.874
 4343SOL    HW213929   4.410   0.452   5.885
 4344SOL     OW13930   0.210   3.362   3.743
 4344SOL    HW113931   0.239   3.269   3.724
 4344SOL    HW213932   0.289   3.423   3.747
 4345SOL     OW13933   2.849   3.496   2.277
 4345SOL    HW113934   2.897   3.570   2.231
 4345SOL    HW213935   2.792   3.446   2.212
 4346SOL     OW13936   1.300   3.819   1.918
 4346SOL    HW113937   1.345   3.777   1.839
 4346SOL    HW213938   1.364   3.824   1.994
 4347SOL     OW13939   5.939   5.128   1.159
 4347SOL    HW113940   6.018   5.121   1.099
 4347SOL    HW213941   5.959   5.189   1.235
 4348SOL     OW13942   5.400   5.940   4.183
 4348SOL    HW113943   5.380   5.872   4.253
 4348SOL    HW213944   5.354   6.026   4.206
 4349SOL     OW13945   7.015   3.282   4.470
 4349SOL    HW113946   0.058   3.238   4.405
 4349SOL    HW213947   0.016   3.250   4.563
 4350SOL     OW13948   4.598   1.273   4.866
 4350SOL    HW113949   4.596   1.205   4.794
 4350SOL    HW213950   4.664   1.247   4.936
 4351SOL     OW13951   0.893   6.311   0.421
 4351SOL    HW113952   0.868   6.223   0.460
 4351SOL    HW213953   0.906   6.378   0.494
 4352SOL     OW13954   3.727   3.816   0.961
 4352SOL    HW113955   3.683   3.779   0.879
 4352SOL    HW213956   3.657   3.851   1.024
 4353SOL     OW13957   3.434   2.696   0.902
 4353SOL    HW113958   3.532   2.698   0.880
 4353SOL    HW213959   3.395   2.787   0.889
 4354SOL     OW13960   5.558   0.108   3.644
 4354SOL    HW113961   5.571   0.122   3.742
 4354SOL    HW213962   5.647   0.093   3.600
 4355SOL     OW13963   1.241   6.254   3.411
 4355SOL    HW113964   1.156   6.265   3.359
 4355SOL    HW213965   1.318   6.248   3.348
 4356SOL     OW13966   5.896   2.408   5.801
 4356SOL    HW113967   5.880   2.495   5.847
 4356SOL    HW213968   5.846   2.336   5.849
 4357SOL     OW13969   6.754   0.840   2.567
 4357SOL    HW113970   6.734   0.925   2.519
 4357SOL    HW213971   6.767   0.859   2.665
 4358SOL     OW13972   1.370   6.793   6.834
 4358SOL    HW113973   1.449   6.757   6.784
 4358SOL    HW213974   1.344   6.730   6.906
 4359SOL     OW13975   1.905   1.424   7.008
 4359SOL    HW113976   1.908   1.369   6.925
 4359SOL    HW213977   1.977   1.394   0.052
 4360SOL     OW13978   1.722   3.201   3.369
 4360SOL    HW113979   1.698   3.111   3.333
 4360SOL    HW213980   1.674   3.272   3.316
 4361SOL     OW13981   0.230   1.209   0.773
 4361SOL    HW113982   0.167   1.192   0.697
 4361SOL    HW213983   0.308   1.262   0.742
 4362SOL     OW13984   1.124   5.771   3.660
 4362SOL    HW113985   1.070   5.701   3.611
 4362SOL    HW213986   1.147   5.737   3.751
 4363SOL     OW13987   4.675   1.500   1.976
 4363SOL    HW113988   4.718   1.471   1.891
 4363SOL    HW213989   4.742   1.548   2.033
 4364SOL     OW13990   4.049   3.768   2.647
 4364SOL    HW113991   4.069   3.672   2.626
 4364SOL    HW213992   4.063   3.784   2.745
 4365SOL     OW13993   3.128   2.034   1.740
 4365SOL    HW113994   3.148   2.132   1.731
 4365SOL    HW213995   3.198   1.991   1.797
 4366SOL     OW13996   4.048   6.175   4.823
 4366SOL    HW113997   4.120   6.183   4.892
 4366SOL    HW213998   3.981   6.107   4.852
 4367SOL     OW13999   2.184   5.695   3.408
 4367SOL    HW114000   2.251   5.768   3.420
 4367SOL    HW214001   2.231   5.606   3.411
 4368SOL     OW14002   4.672   4.402   2.995
 4368SOL    HW114003   4.729   4.485   2.999
 4368SOL    HW214004   4.725   4.324   3.029
 4369SOL     OW14005   4.056   4.820   3.041
 4369SOL    HW114006   4.097   4.742   2.993
 4369SOL    HW214007   3.958   4.824   3.020
 4370SOL     OW14008   3.837   4.433   1.494
 4370SOL    HW114009   3.772   4.424   1.570
 4370SOL    HW214010   3.911   4.367   1.507
 4371SOL     OW14011   3.387   1.159   1.487
 4371SOL    HW114012   3.482   1.128   1.490
 4371SOL    HW214013   3.329   1.096   1.538
 4372SOL     OW14014   2.169   3.125   4.408
 4372SOL    HW114015   2.126   3.075   4.332
 4372SOL    HW214016   2.115   3.207   4.428
 4373SOL     OW14017   4.646   1.272   5.385
 4373SOL    HW114018   4.681   1.366   5.383
 4373SOL    HW214019   4.547   1.274   5.401
 4374SOL     OW14020   2.269   1.490   1.668
 4374SOL    HW114021   2.292   1.559   1.599
 4374SOL    HW214022   2.219   1.415   1.625
 4375SOL     OW14023   4.444   0.690   3.508
 4375SOL    HW114024   4.424   0.707   3.411
 4375SOL    HW214025   4.362   0.709   3.562
 4376SOL     OW14026   0.082   6.602   1.301
 4376SOL    HW114027   0.122   6.520   1.344
 4376SOL    HW214028   0.046   6.662   1.372
 4377SOL     OW14029   5.904   6.661   6.501
 4377SOL    HW114030   5.832   6.643   6.569
 4377SOL    HW214031   5.990   6.680   6.548
 4378SOL     OW14032   1.990   5.224   2.790
 4378SOL    HW114033   1.896   5.254   2.809
 4378SOL    HW214034   1.992   5.177   2.702
 4379SOL     OW14035   1.156   0.496   1.926
 4379SOL    HW114036   1.256   0.496   1.922
 4379SOL    HW214037   1.120   0.504   1.834
 4380SOL     OW14038   1.485   5.908   5.353
 4380SOL    HW114039   1.523   5.844   5.286
 4380SOL    HW214040   1.480   5.999   5.313
 4381SOL     OW14041   3.501   6.502   4.751
 4381SOL    HW114042   3.561   6.491   4.830
 4381SOL    HW214043   3.421   6.556   4.777
 4382SOL     OW14044   4.910   3.844   4.135
 4382SOL    HW114045   4.922   3.771   4.203
 4382SOL    HW214046   4.877   3.927   4.180
 4383SOL     OW14047   0.602   2.987   5.938
 4383SOL    HW114048   0.676   2.994   6.004
 4383SOL    HW214049   0.622   2.916   5.871
 4384SOL     OW14050   3.608   5.983   0.692
 4384SOL    HW114051   3.569   6.018   0.777
 4384SOL    HW214052   3.534   5.960   0.629
 4385SOL     OW14053   0.666   2.415   2.409
 4385SOL    HW114054   0.623   2.437   2.321
 4385SOL    HW214055   0.634   2.325   2.439
 4386SOL     OW14056   1.080   3.052   6.728
 4386SOL    HW114057   1.055   3.015   6.639
 4386SOL    HW214058   1.025   3.009   6.799
 4387SOL     OW14059   0.128   3.214   1.811
 4387SOL    HW114060   0.189   3.149   1.857
 4387SOL    HW214061   0.165   3.307   1.820
 4388SOL     OW14062   3.441   0.985   6.020
 4388SOL    HW114063   3.482   1.002   5.931
 4388SOL    HW214064   3.417   0.889   6.028
 4389SOL     OW14065   5.196   2.582   2.829
 4389SOL    HW114066   5.146   2.641   2.766
 4389SOL    HW214067   5.132   2.526   2.881
 4390SOL     OW14068   4.770   2.819   2.279
 4390SOL    HW114069   4.838   2.762   2.233
 4390SOL    HW214070   4.735   2.887   2.215
 4391SOL     OW14071   1.248   5.662   0.298
 4391SOL    HW114072   1.207   5.574   0.276
 4391SOL    HW214073   1.197   5.705   0.372
 4392SOL     OW14074   4.999   3.082   4.393
 4392SOL    HW114075   4.989   3.181   4.401
 4392SOL    HW214076   5.081   3.061   4.339
 4393SOL     OW14077   4.745   6.610   3.148
 4393SOL    HW114078   4.765   6.524   3.102
 4393SOL    HW214079   4.678   6.662   3.095
 4394SOL     OW14080   5.156   0.340   2.737
 4394SOL    HW114081   5.208   0.294   2.809
 4394SOL    HW214082   5.058   0.321   2.750
 4395SOL     OW14083   5.847   1.939   1.851
 4395SOL    HW114084   5.784   1.932   1.928
 4395SOL    HW214085   5.940   1.920   1.881
 4396SOL     OW14086   0.991   0.842   4.208
 4396SOL    HW114087   0.999   0.838   4.108
 4396SOL    HW214088   1.082   0.842   4.249
 4397SOL     OW14089   6.508   0.133   5.122
 4397SOL    HW114090   6.599   0.097   5.101
 4397SOL    HW214091   6.506   0.231   5.101
 4398SOL     OW14092   0.285   4.644   4.449
 4398SOL    HW114093   0.284   4.624   4.352
 4398SOL    HW214094   0.193   4.637   4.486
 4399SOL     OW14095   1.949   1.315   1.047
 4399SOL    HW114096   1.916   1.332   0.954
 4399SOL    HW214097   1.897   1.372   1.112
 4400SOL     OW14098   3.238   6.424   4.606
 4400SOL    HW114099   3.212   6.443   4.701
 4400SOL    HW214100   3.247   6.325   4.593
 4401SOL     OW14101   5.753   6.014   4.623
 4401SOL    HW114102   5.810   6.030   4.704
 4401SOL    HW214103   5.658   6.036   4.645
 4402SOL     OW14104   0.541   6.396   3.034
 4402SOL    HW114105   0.588   6.484   3.033
 4402SOL    HW214106   0.531   6.362   2.941
 4403SOL     OW14107   0.784   0.329   3.418
 4403SOL    HW114108   0.819   0.341   3.511
 4403SOL    HW214109   0.856   0.351   3.352
 4404SOL     OW14110   0.669   3.922   3.660
 4404SOL    HW114111   0.718   3.965   3.584
 4404SOL    HW214112   0.734   3.871   3.717
 4405SOL     OW14113   3.535   4.449   5.846
 4405SOL    HW114114   3.533   4.464   5.747
 4405SOL    HW214115   3.561   4.534   5.892
 4406SOL     OW14116   5.821   4.062   1.158
 4406SOL    HW114117   5.763   4.019   1.228
 4406SOL    HW214118   5.916   4.061   1.189
 4407SOL     OW14119   5.791   0.219   6.938
 4407SOL    HW114120   5.819   0.133   6.895
 4407SOL    HW214121   5.842   0.294   6.898
 4408SOL     OW14122   4.534   6.974   6.470
 4408SOL    HW114123   4.478   6.914   6.412
 4408SOL    HW214124   4.631   6.951   6.457
 4409SOL     OW14125   3.493   0.326   1.584
 4409SOL    HW114126   3.571   0.328   1.646
 4409SOL    HW214127   3.428   0.257   1.614
 4410SOL     OW14128   2.102   5.010   1.896
 4410SOL    HW114129   2.190   4.963   1.897
 4410SOL    HW214130   2.075   5.027   1.801
 4411SOL     OW14131   3.938   2.974   2.788
 4411SOL    HW114132   3.869   2.953   2.857
 4411SOL    HW214133   4.027   2.940   2.818
 4412SOL     OW14134   3.957   1.174   6.758
 4412SOL    HW114135   3.961   1.256   6.816
 4412SOL    HW214136   4.031   1.113   6.783
 4413SOL     OW14137   4.186   6.306   4.416
 4413SOL    HW114138   4.096   6.263   4.418
 4413SOL    HW214139   4.181   6.392   4.364
 4414SOL     OW14140   3.809   4.958   1.947
 4414SOL    HW114141   3.736   4.892   1.966
 4414SOL    HW214142   3.865   4.925   1.871
 4415SOL     OW14143   5.137   2.664   6.720
 4415SOL    HW114144   5.190   2.623   6.793
 4415SOL    HW214145   5.177   2.639   6.631
 4416SOL     OW14146   3.285   6.996   4.671
 4416SOL    HW114147   3.252   6.983   4.764
 4416SOL    HW214148   3.344   0.058   4.668
 4417SOL     OW14149   7.015   6.250   2.274
 4417SOL    HW114150   6.981   6.343   2.285
 4417SOL    HW214151   6.994   6.217   2.182
 4418SOL     OW14152   3.729   0.236   3.808
 4418SOL    HW114153   3.702   0.235   3.712
 4418SOL    HW214154   3.663   0.185   3.863
 4419SOL     OW14155   0.378   5.094   6.912
 4419SOL    HW114156   0.419   5.048   6.833
 4419SOL    HW214157   0.415   5.186   6.919
 4420SOL     OW14158   5.442   1.781   6.651
 4420SOL    HW114159   5.350   1.746   6.667
 4420SOL    HW214160   5.483   1.808   6.738
 4421SOL     OW14161   1.618   1.624   3.259
 4421SOL    HW114162   1.677   1.552   3.222
 4421SOL    HW214163   1.558   1.586   3.329
 4422SOL     OW14164   1.884   4.220   6.014
 4422SOL    HW114165   1.872   4.198   5.917
 4422SOL    HW214166   1.916   4.139   6.063
 4423SOL     OW14167   1.399   2.256   6.201
 4423SOL    HW114168   1.326   2.205   6.248
 4423SOL    HW214169   1.475   2.271   6.264
 4424SOL     OW14170   6.712   0.162   2.867
 4424SOL    HW114171   6.790   0.172   2.805
 4424SOL    HW214172   6.706   0.244   2.925
 4425SOL     OW14173   4.107   4.662   6.428
 4425SOL    HW114174   4.094   4.569   6.393
 4425SOL    HW214175   4.166   4.714   6.365
 4426SOL     OW14176   0.522   0.437   5.725
 4426SOL    HW114177   0.481   0.423   5.815
 4426SOL    HW214178   0.453   0.421   5.654
 4427SOL     OW14179   1.243   0.481   3.258
 4427SOL    HW114180   1.212   0.482   3.353
 4427SOL    HW214181   1.301   0.402   3.243
 4428SOL     OW14182   2.312   5.861   4.189
 4428SOL    HW114183   2.250   5.853   4.111
 4428SOL    HW214184   2.390   5.919   4.164
 4429SOL     OW14185   3.299   6.875   3.364
 4429SOL    HW114186   3.395   6.849   3.374
 4429SOL    HW214187   3.242   6.793   3.372
 4430SOL     OW14188   2.643   0.841   2.450
 4430SOL    HW114189   2.659   0.935   2.419
 4430SOL    HW214190   2.675   0.777   2.380
 4431SOL     OW14191   2.874   1.925   3.579
 4431SOL    HW114192   2.822   1.996   3.533
 4431SOL    HW214193   2.916   1.963   3.662
 4432SOL     OW14194   2.919   3.745   2.991
 4432SOL    HW114195   2.875   3.767   3.078
 4432SOL    HW214196   3.006   3.794   2.985
 4433SOL     OW14197   6.030   6.969   2.323
 4433SOL    HW114198   6.052   6.961   2.421
 4433SOL    HW214199   5.989   0.039   2.305
 4434SOL     OW14200   6.300   2.708   4.248
 4434SOL    HW114201   6.364   2.700   4.324
 4434SOL    HW214202   6.216   2.753   4.280
 4435SOL     OW14203   3.675   2.969   1.636
 4435SOL    HW114204   3.666   3.067   1.617
 4435SOL    HW214205   3.702   2.956   1.732
 4436SOL     OW14206   4.890   1.702   6.690
 4436SOL    HW114207   4.815   1.665   6.745
 4436SOL    HW214208   4.898   1.800   6.708
 4437SOL     OW14209   3.426   1.024   4.673
 4437SOL    HW114210   3.362   0.983   4.608
 4437SOL    HW214211   3.439   1.121   4.649
 4438SOL     OW14212   4.301   2.835   6.846
 4438SOL    HW114213   4.253   2.809   6.930
 4438SOL    HW214214   4.238   2.885   6.786
 4439SOL     OW14215   2.044   5.779   2.344
 4439SOL    HW114216   1.996   5.834   2.275
 4439SOL    HW214217   1.980   5.752   2.415
 4440SOL     OW14218   1.128   6.972   6.441
 4440SOL    HW114219   1.059   6.956   6.372
 4440SOL    HW214220   1.109   6.916   6.521
 4441SOL     OW14221   5.556   2.720   3.050
 4441SOL    HW114222   5.485   2.661   3.087
 4441SOL    HW214223   5.520   2.770   2.972
 4442SOL     OW14224   3.218   5.989   3.693
 4442SOL    HW114225   3.130   5.952   3.721
 4442SOL    HW214226   3.289   5.920   3.707
 4443SOL     OW14227   2.456   1.827   5.666
 4443SOL    HW114228   2.512   1.897   5.710
 4443SOL    HW214229   2.513   1.773   5.604
 4444SOL     OW14230   5.513   0.019   1.012
 4444SOL    HW114231   5.522   6.941   0.989
 4444SOL    HW214232   5.431   0.056   0.970
 4445SOL     OW14233   1.273   0.858   6.152
 4445SOL    HW114234   1.189   0.910   6.133
 4445SOL    HW214235   1.280   0.841   6.250
 4446SOL     OW14236   6.632   0.306   2.572
 4446SOL    HW114237   6.674   0.215   2.579
 4446SOL    HW214238   6.652   0.346   2.483
 4447SOL     OW14239   5.404   2.338   5.624
 4447SOL    HW114240   5.470   2.271   5.591
 4447SOL    HW214241   5.337   2.357   5.552
 4448SOL     OW14242   2.220   3.798   7.008
 4448SOL    HW114243   2.155   3.782   0.064
 4448SOL    HW214244   2.313   3.793   0.024
 4449SOL     OW14245   1.586   1.588   5.178
 4449SOL    HW114246   1.593   1.535   5.263
 4449SOL    HW214247   1.678   1.614   5.148
 4450SOL     OW14248   3.821   3.263   3.345
 4450SOL    HW114249   3.918   3.251   3.368
 4450SOL    HW214250   3.773   3.175   3.354
 4451SOL     OW14251   6.684   4.780   2.283
 4451SOL    HW114252   6.739   4.797   2.366
 4451SOL    HW214253   6.663   4.683   2.277
 4452SOL     OW14254   6.255   6.386   6.637
 4452SOL    HW114255   6.281   6.396   6.541
 4452SOL    HW214256   6.271   6.293   6.668
 4453SOL     OW14257   5.240   2.526   1.158
 4453SOL    HW114258   5.252   2.499   1.254
 4453SOL    HW214259   5.285   2.460   1.099
 4454SOL     OW14260   5.673   3.163   1.392
 4454SOL    HW114261   5.725   3.204   1.318
 4454SOL    HW214262   5.578   3.152   1.364
 4455SOL     OW14263   4.019   1.367   2.494
 4455SOL    HW114264   3.966   1.312   2.429
 4455SOL    HW214265   3.963   1.441   2.529
 4456SOL     OW14266   1.421   4.913   3.319
 4456SOL    HW114267   1.509   4.904   3.272
 4456SOL    HW214268   1.433   4.965   3.403
 4457SOL     OW14269   5.425   1.871   6.186
 4457SOL    HW114270   5.441   1.843   6.091
 4457SOL    HW214271   5.340   1.831   6.219
 4458SOL     OW14272   3.481   2.421   6.396
 4458SOL    HW114273   3.553   2.373   6.344
 4458SOL    HW214274   3.520   2.502   6.438
 4459SOL     OW14275   4.786   6.660   4.528
 4459SOL    HW114276   4.832   6.729   4.584
 4459SOL    HW214277   4.852   6.594   4.494
 4460SOL     OW14278   3.010   2.360   6.048
 4460SOL    HW114279   3.027   2.286   6.114
 4460SOL    HW214280   3.062   2.441   6.075
 4461SOL     OW14281   2.159   6.965   2.574
 4461SOL    HW114282   2.136   6.949   2.478
 4461SOL    HW214283   2.163   0.045   2.590
 4462SOL     OW14284   6.912   5.130   1.075
 4462SOL    HW114285   6.927   5.038   1.038
 4462SOL    HW214286   6.850   5.180   1.016
 4463SOL     OW14287   1.616   3.708   6.114
 4463SOL    HW114288   1.686   3.652   6.070
 4463SOL    HW214289   1.657   3.762   6.187
 4464SOL     OW14290   5.578   3.564   6.285
 4464SOL    HW114291   5.632   3.501   6.230
 4464SOL    HW214292   5.639   3.631   6.328
 4465SOL     OW14293   1.397   6.177   1.962
 4465SOL    HW114294   1.462   6.112   2.000
 4465SOL    HW214295   1.366   6.146   1.872
 4466SOL     OW14296   0.953   1.865   3.039
 4466SOL    HW114297   0.935   1.910   3.126
 4466SOL    HW214298   0.983   1.932   2.972
 4467SOL     OW14299   1.245   6.764   3.658
 4467SOL    HW114300   1.278   6.859   3.665
 4467SOL    HW214301   1.147   6.764   3.642
 4468SOL     OW14302   1.186   2.822   0.427
 4468SOL    HW114303   1.227   2.914   0.425
 4468SOL    HW214304   1.094   2.827   0.466
 4469SOL     OW14305   3.967   0.116   0.565
 4469SOL    HW114306   3.949   0.127   0.467
 4469SOL    HW214307   3.973   0.206   0.608
 4470SOL     OW14308   4.854   3.907   1.317
 4470SOL    HW114309   4.800   3.895   1.234
 4470SOL    HW214310   4.827   3.993   1.362
 4471SOL     OW14311   6.587   2.905   1.268
 4471SOL    HW114312   6.564   2.811   1.242
 4471SOL    HW214313   6.643   2.947   1.196
 4472SOL     OW14314   1.807   4.081   2.126
 4472SOL    HW114315   1.710   4.094   2.105
 4472SOL    HW214316   1.830   4.129   2.210
 4473SOL     OW14317   6.810   6.947   4.364
 4473SOL    HW114318   6.746   6.932   4.439
 4473SOL    HW214319   6.765   6.928   4.277
 4474SOL     OW14320   4.444   0.563   2.817
 4474SOL    HW114321   4.506   0.618   2.760
 4474SOL    HW214322   4.392   0.624   2.878
 4475SOL     OW14323   2.017   4.255   0.388
 4475SOL    HW114324   1.979   4.201   0.463
 4475SOL    HW214325   2.097   4.208   0.350
 4476SOL     OW14326   4.910   6.420   2.235
 4476SOL    HW114327   4.874   6.378   2.319
 4476SOL    HW214328   4.924   6.349   2.166
 4477SOL     OW14329   1.639   1.329   0.439
 4477SOL    HW114330   1.612   1.425   0.451
 4477SOL    HW214331   1.694   1.320   0.357
 4478SOL     OW14332   1.990   6.587   2.364
 4478SOL    HW114333   1.955   6.495   2.385
 4478SOL    HW214334   1.926   6.655   2.399
 4479SOL     OW14335   1.342   0.296   5.541
 4479SOL    HW114336   1.403   0.223   5.569
 4479SOL    HW214337   1.396   0.376   5.513
 4480SOL     OW14338   1.305   4.739   4.538
 4480SOL    HW114339   1.389   4.705   4.496
 4480SOL    HW214340   1.298   4.705   4.631
 4481SOL     OW14341   1.116   6.277   4.172
 4481SOL    HW114342   1.051   6.250   4.243
 4481SOL    HW214343   1.069   6.336   4.105
 4482SOL     OW14344   0.347   4.973   4.014
 4482SOL    HW114345   0.437   5.009   3.988
 4482SOL    HW214346   0.346   4.953   4.112
 4483SOL     OW14347   5.513   3.116   1.833
 4483SOL    HW114348   5.438   3.110   1.767
 4483SOL    HW214349   5.576   3.188   1.804
 4484SOL     OW14350   3.630   2.535   5.469
 4484SOL    HW114351   3.547   2.591   5.461
 4484SOL    HW214352   3.696   2.583   5.527
 4485SOL     OW14353   5.140   1.594   6.545
 4485SOL    HW114354   5.188   1.528   6.602
 4485SOL    HW214355   5.064   1.634   6.597
 4486SOL     OW14356   6.250   3.196   4.564
 4486SOL    HW114357   6.261   3.126   4.493
 4486SOL    HW214358   6.228   3.283   4.522
 4487SOL     OW14359   2.929   3.222   6.554
 4487SOL    HW114360   2.838   3.220   6.513
 4487SOL    HW214361   2.995   3.252   6.485
 4488SOL     OW14362   6.951   1.631   4.590
 4488SOL    HW114363   6.867   1.576   4.594
 4488SOL    HW214364   6.995   1.617   4.501
 4489SOL     OW14365   5.852   6.727   4.650
 4489SOL    HW114366   5.822   6.636   4.680
 4489SOL    HW214367   5.772   6.788   4.644
 4490SOL     OW14368   6.489   1.715   2.925
 4490SOL    HW114369   6.516   1.646   2.992
 4490SOL    HW214370   6.402   1.688   2.883
 4491SOL     OW14371   0.825   3.597   2.596
 4491SOL    HW114372   0.793   3.675   2.649
 4491SOL    HW214373   0.747   3.547   2.559
 4492SOL     OW14374   4.976   3.028   0.240
 4492SOL    HW114375   5.032   2.989   0.167
 4492SOL    HW214376   4.899   3.079   0.201
 4493SOL     OW14377   5.771   5.801   4.423
 4493SOL    HW114378   5.737   5.824   4.332
 4493SOL    HW214379   5.792   5.885   4.473
 4494SOL     OW14380   0.039   4.110   5.344
 4494SOL    HW114381   0.132   4.080   5.366
 4494SOL    HW214382   0.022   4.095   5.246
 4495SOL     OW14383   4.802   6.549   1.785
 4495SOL    HW114384   4.878   6.508   1.835
 4495SOL    HW214385   4.778   6.491   1.707
 4496SOL     OW14386   5.030   3.497   5.371
 4496SOL    HW114387   4.996   3.430   5.306
 4496SOL    HW214388   5.080   3.569   5.322
 4497SOL     OW14389   6.253   5.057   0.447
 4497SOL    HW114390   6.260   5.051   0.347
 4497SOL    HW214391   6.272   5.150   0.477
 4498SOL     OW14392   0.306   3.389   0.210
 4498SOL    HW114393   0.356   3.474   0.193
 4498SOL    HW214394   0.255   3.397   0.295
 4499SOL     OW14395   6.945   3.012   5.987
 4499SOL    HW114396   6.987   3.036   6.074
 4499SOL    HW214397   6.893   3.090   5.952
 4500SOL     OW14398   2.954   3.782   4.330
 4500SOL    HW114399   2.900   3.786   4.414
 4500SOL    HW214400   3.010   3.698   4.331
 4501SOL     OW14401   6.986   4.686   5.757
 4501SOL    HW114402   7.012   4.656   5.665
 4501SOL    HW214403   0.012   4.627   5.825
 4502SOL     OW14404   1.009   2.398   6.868
 4502SOL    HW114405   0.948   2.393   6.789
 4502SOL    HW214406   0.956   2.424   6.949
 4503SOL     OW14407   1.250   1.615   3.444
 4503SOL    HW114408   1.154   1.627   3.420
 4503SOL    HW214409   1.287   1.535   3.397
 4504SOL     OW14410   5.554   2.567   4.725
 4504SOL    HW114411   5.556   2.659   4.764
 4504SOL    HW214412   5.539   2.573   4.626
 4505SOL     OW14413   1.588   6.405   5.325
 4505SOL    HW114414   1.616   6.318   5.365
 4505SOL    HW214415   1.611   6.406   5.228
 4506SOL     OW14416   3.985   0.494   5.155
 4506SOL    HW114417   3.889   0.503   5.180
 4506SOL    HW214418   3.997   0.413   5.097
 4507SOL     OW14419   5.639   4.241   0.501
 4507SOL    HW114420   5.547   4.253   0.539
 4507SOL    HW214421   5.641   4.157   0.446
 4508SOL     OW14422   1.250   3.843   6.916
 4508SOL    HW114423   1.267   3.895   7.000
 4508SOL    HW214424   1.329   3.851   6.856
 4509SOL     OW14425   3.193   1.740   4.624
 4509SOL    HW114426   3.290   1.753   4.641
 4509SOL    HW214427   3.163   1.653   4.665
 4510SOL     OW14428   5.018   0.294   5.150
 4510SOL    HW114429   4.973   0.317   5.064
 4510SOL    HW214430   5.094   0.357   5.167
 4511SOL     OW14431   6.454   2.414   0.499
 4511SOL    HW114432   6.487   2.443   0.589
 4511SOL    HW214433   6.406   2.327   0.508
 4512SOL     OW14434   2.660   5.721   6.716
 4512SOL    HW114435   2.621   5.644   6.666
 4512SOL    HW214436   2.720   5.773   6.655
 4513SOL     OW14437   4.865   0.484   1.849
 4513SOL    HW114438   4.925   0.561   1.829
 4513SOL    HW214439   4.916   0.414   1.900
 4514SOL     OW14440   2.891   1.173   5.281
 4514SOL    HW114441   2.885   1.225   5.195
 4514SOL    HW214442   2.859   1.231   5.356
 4515SOL     OW14443   0.555   5.016   0.675
 4515SOL    HW114444   0.643   5.065   0.680
 4515SOL    HW214445   0.490   5.058   0.738
 4516SOL     OW14446   0.854   1.120   5.348
 4516SOL    HW114447   0.812   1.198   5.302
 4516SOL    HW214448   0.928   1.152   5.407
 4517SOL     OW14449   3.760   6.814   5.713
 4517SOL    HW114450   3.798   6.813   5.621
 4517SOL    HW214451   3.782   6.728   5.759
 4518SOL     OW14452   0.798   2.397   3.751
 4518SOL    HW114453   0.866   2.348   3.807
 4518SOL    HW214454   0.804   2.364   3.656
 4519SOL     OW14455   0.160   3.140   3.490
 4519SOL    HW114456   0.206   3.147   3.578
 4519SOL    HW214457   0.065   3.112   3.504
 4520SOL     OW14458   6.811   4.928   3.346
 4520SOL    HW114459   6.801   5.026   3.365
 4520SOL    HW214460   6.907   4.909   3.323
 4521SOL     OW14461   5.444   3.127   0.019
 4521SOL    HW114462   5.540   3.157   0.009
 4521SOL    HW214463   5.396   3.140   6.951
 4522SOL     OW14464   6.468   0.077   4.057
 4522SOL    HW114465   6.514   0.101   3.971
 4522SOL    HW214466   6.423   0.159   4.094
 4523SOL     OW14467   3.229   4.000   6.948
 4523SOL    HW114468   3.136   3.983   6.981
 4523SOL    HW214469   3.295   3.974   0.001
 4524SOL     OW14470   5.128   0.576   4.999
 4524SOL    HW114471   5.168   0.626   5.076
 4524SOL    HW214472   5.070   0.638   4.946
 4525SOL     OW14473   6.057   1.640   5.035
 4525SOL    HW114474   5.999   1.562   5.060
 4525SOL    HW214475   6.143   1.608   4.996
 4526SOL     OW14476   5.073   6.636   0.735
 4526SOL    HW114477   5.122   6.722   0.723
 4526SOL    HW214478   5.026   6.611   0.650
 4527SOL     OW14479   5.122   0.544   2.349
 4527SOL    HW114480   5.044   0.499   2.306
 4527SOL    HW214481   5.118   0.530   2.448
 4528SOL     OW14482   5.730   0.001   0.836
 4528SOL    HW114483   5.698   6.956   0.766
 4528SOL    HW214484   5.677   7.006   0.920
 4529SOL     OW14485   3.085   0.248   3.069
 4529SOL    HW114486   3.117   0.159   3.100
 4529SOL    HW214487   3.146   0.319   3.102
 4530SOL     OW14488   0.333   3.021   5.775
 4530SOL    HW114489   0.235   3.006   5.764
 4530SOL    HW214490   0.361   2.990   5.866
 4531SOL     OW14491   0.126   3.282   4.006
 4531SOL    HW114492   0.145   3.325   3.917
 4531SOL    HW214493   0.109   3.185   3.993
 4532SOL     OW14494   6.281   1.132   0.893
 4532SOL    HW114495   6.284   1.037   0.862
 4532SOL    HW214496   6.354   1.148   0.959
 4533SOL     OW14497   2.006   5.751   2.971
 4533SOL    HW114498   2.051   5.829   2.928
 4533SOL    HW214499   2.068   5.672   2.971
 4534SOL     OW14500   6.139   3.626   5.067
 4534SOL    HW114501   6.070   3.604   4.998
 4534SOL    HW214502   6.140   3.553   5.136
 4535SOL     OW14503   4.869   3.127   2.252
 4535SOL    HW114504   4.864   3.078   2.339
 4535SOL    HW214505   4.831   3.069   2.179
 4536SOL     OW14506   5.997   1.167   4.856
 4536SOL    HW114507   5.954   1.137   4.771
 4536SOL    HW214508   5.931   1.220   4.910
 4537SOL     OW14509   3.957   2.729   6.841
 4537SOL    HW114510   3.995   2.639   6.823
 4537SOL    HW214511   3.867   2.720   6.882
 4538SOL     OW14512   3.239   1.790   3.104
 4538SOL    HW114513   3.314   1.844   3.064
 4538SOL    HW214514   3.277   1.717   3.160
 4539SOL     OW14515   2.247   2.001   2.755
 4539SOL    HW114516   2.282   2.038   2.841
 4539SOL    HW214517   2.313   1.935   2.718
 4540SOL     OW14518   3.745   3.222   4.827
 4540SOL    HW114519   3.747   3.295   4.759
 4540SOL    HW214520   3.827   3.227   4.884
 4541SOL     OW14521   5.125   2.053   1.217
 4541SOL    HW114522   5.190   2.094   1.281
 4541SOL    HW214523   5.032   2.085   1.238
 4542SOL     OW14524   5.880   6.640   2.619
 4542SOL    HW114525   5.901   6.611   2.712
 4542SOL    HW214526   5.781   6.647   2.607
 4543SOL     OW14527   5.772   1.589   1.054
 4543SOL    HW114528   5.783   1.648   0.974
 4543SOL    HW214529   5.685   1.608   1.099
 4544SOL     OW14530   3.352   5.620   6.712
 4544SOL    HW114531   3.308   5.633   6.801
 4544SOL    HW214532   3.308   5.545   6.663
 4545SOL     OW14533   3.746   2.108   5.603
 4545SOL    HW114534   3.692   2.098   5.686
 4545SOL    HW214535   3.752   2.020   5.556
 4546SOL     OW14536   0.708   6.526   6.440
 4546SOL    HW114537   0.686   6.458   6.511
 4546SOL    HW214538   0.750   6.480   6.362
 4547SOL     OW14539   5.373   2.558   1.666
 4547SOL    HW114540   5.299   2.585   1.727
 4547SOL    HW214541   5.444   2.629   1.667
 4548SOL     OW14542   0.506   4.119   3.743
 4548SOL    HW114543   0.580   4.054   3.726
 4548SOL    HW214544   0.420   4.069   3.757
 4549SOL     OW14545   6.665   3.164   2.977
 4549SOL    HW114546   6.593   3.189   3.041
 4549SOL    HW214547   6.751   3.150   3.026
 4550SOL     OW14548   0.847   5.442   3.662
 4550SOL    HW114549   0.756   5.456   3.702
 4550SOL    HW214550   0.872   5.521   3.606
 4551SOL     OW14551   0.777   2.994   5.242
 4551SOL    HW114552   0.789   2.927   5.316
 4551SOL    HW214553   0.759   2.946   5.156
 4552SOL     OW14554   0.467   3.383   4.586
 4552SOL    HW114555   0.519   3.446   4.643
 4552SOL    HW214556   0.465   3.415   4.492
 4553SOL     OW14557   4.375   5.173   0.371
 4553SOL    HW114558   4.360   5.109   0.295
 4553SOL    HW214559   4.452   5.233   0.349
 4554SOL     OW14560   4.451   6.966   3.000
 4554SOL    HW114561   4.507   0.012   2.947
 4554SOL    HW214562   4.355   6.988   2.986
 4555SOL     OW14563   5.285   2.425   6.628
 4555SOL    HW114564   5.304   2.442   6.531
 4555SOL    HW214565   5.223   2.347   6.637
 4556SOL     OW14566   4.178   0.826   3.616
 4556SOL    HW114567   4.188   0.810   3.714
 4556SOL    HW214568   4.165   0.924   3.599
 4557SOL     OW14569   5.537   0.284   5.988
 4557SOL    HW114570   5.558   0.370   6.034
 4557SOL    HW214571   5.555   0.208   6.049
 4558SOL     OW14572   6.479   3.496   6.789
 4558SOL    HW114573   6.385   3.482   6.817
 4558SOL    HW214574   6.528   3.547   6.859
 4559SOL     OW14575   1.983   6.489   1.392
 4559SOL    HW114576   2.036   6.485   1.308
 4559SOL    HW214577   2.034   6.444   1.466
 4560SOL     OW14578   5.272   3.287   3.077
 4560SOL    HW114579   5.189   3.291   3.133
 4560SOL    HW214580   5.342   3.346   3.117
 4561SOL     OW14581   3.381   0.380   6.935
 4561SOL    HW114582   3.337   0.431   6.861
 4561SOL    HW214583   3.313   0.357   7.004
 4562SOL     OW14584   2.862   5.438   6.807
 4562SOL    HW114585   2.928   5.364   6.821
 4562SOL    HW214586   2.900   5.505   6.742
 4563SOL     OW14587   5.596   1.877   6.873
 4563SOL    HW114588   5.685   1.888   6.917
 4563SOL    HW214589   5.527   1.929   6.923
 4564SOL     OW14590   1.679   6.230   0.181
 4564SOL    HW114591   1.721   6.240   0.091
 4564SOL    HW214592   1.626   6.145   0.184
 4565SOL     OW14593   0.911   0.871   5.526
 4565SOL    HW114594   0.861   0.863   5.440
 4565SOL    HW214595   0.910   0.966   5.557
 4566SOL     OW14596   6.942   0.873   6.883
 4566SOL    HW114597   6.929   0.907   6.976
 4566SOL    HW214598   0.019   0.882   6.857
 4567SOL     OW14599   6.640   1.394   0.986
 4567SOL    HW114600   6.563   1.453   0.962
 4567SOL    HW214601   6.717   1.449   1.018
 4568SOL     OW14602   3.203   4.396   5.628
 4568SOL    HW114603   3.222   4.466   5.559
 4568SOL    HW214604   3.117   4.350   5.606
 4569SOL     OW14605   0.838   1.664   4.356
 4569SOL    HW114606   0.858   1.757   4.388
 4569SOL    HW214607   0.915   1.605   4.376
 4570SOL     OW14608   6.915   5.819   3.804
 4570SOL    HW114609   6.837   5.767   3.767
 4570SOL    HW214610   6.953   5.770   3.882
 4571SOL     OW14611   3.171   3.326   4.762
 4571SOL    HW114612   3.210   3.348   4.852
 4571SOL    HW214613   3.094   3.263   4.774
 4572SOL     OW14614   1.326   6.938   1.119
 4572SOL    HW114615   1.342   6.998   1.198
 4572SOL    HW214616   1.332   6.842   1.148
 4573SOL     OW14617   5.376   5.734   0.824
 4573SOL    HW114618   5.442   5.797   0.783
 4573SOL    HW214619   5.361   5.758   0.920
 4574SOL     OW14620   7.002   4.111   1.944
 4574SOL    HW114621   6.962   4.198   1.915
 4574SOL    HW214622   0.038   4.125   2.027
 4575SOL     OW14623   6.775   1.068   1.911
 4575SOL    HW114624   6.814   0.995   1.855
 4575SOL    HW214625   6.676   1.073   1.897
 4576SOL     OW14626   3.262   5.336   6.597
 4576SOL    HW114627   3.321   5.352   6.518
 4576SOL    HW214628   3.172   5.305   6.566
 4577SOL     OW14629   1.226   3.440   3.070
 4577SOL    HW114630   1.232   3.518   3.131
 4577SOL    HW214631   1.243   3.356   3.121
 4578SOL     OW14632   6.906   3.982   4.154
 4578SOL    HW114633   6.892   4.073   4.192
 4578SOL    HW214634   6.908   3.914   4.228
 4579SOL     OW14635   5.343   2.246   3.286
 4579SOL    HW114636   5.267   2.300   3.248
 4579SOL    HW214637   5.380   2.292   3.367
 4580SOL     OW14638   6.156   6.279   0.726
 4580SOL    HW114639   6.203   6.205   0.775
 4580SOL    HW214640   6.156   6.361   0.782
 4581SOL     OW14641   3.093   5.508   3.677
 4581SOL    HW114642   3.133   5.420   3.652
 4581SOL    HW214643   3.085   5.565   3.595
 4582SOL     OW14644   5.124   6.125   3.221
 4582SOL    HW114645   5.053   6.079   3.274
 4582SOL    HW214646   5.108   6.224   3.222
 4583SOL     OW14647   3.089   1.895   5.658
 4583SOL    HW114648   3.178   1.878   5.700
 4583SOL    HW214649   3.101   1.907   5.559
 4584SOL     OW14650   0.623   5.218   5.547
 4584SOL    HW114651   0.711   5.177   5.522
 4584SOL    HW214652   0.576   5.249   5.465
 4585SOL     OW14653   3.184   6.135   3.171
 4585SOL    HW114654   3.271   6.181   3.191
 4585SOL    HW214655   3.148   6.093   3.254
 4586SOL     OW14656   3.641   5.923   1.838
 4586SOL    HW114657   3.719   5.862   1.821
 4586SOL    HW214658   3.644   5.999   1.773
 4587SOL     OW14659   2.718   3.211   1.402
 4587SOL    HW114660   2.813   3.237   1.415
 4587SOL    HW214661   2.694   3.138   1.465
 4588SOL     OW14662   3.875   3.369   5.320
 4588SOL    HW114663   3.974   3.359   5.314
 4588SOL    HW214664   3.838   3.302   5.384
 4589SOL     OW14665   6.243   2.365   4.197
 4589SOL    HW114666   6.257   2.428   4.121
 4589SOL    HW214667   6.330   2.351   4.245
 4590SOL     OW14668   4.571   5.104   2.624
 4590SOL    HW114669   4.633   5.126   2.699
 4590SOL    HW214670   4.547   5.007   2.627
 4591SOL     OW14671   5.442   5.594   5.240
 4591SOL    HW114672   5.494   5.634   5.316
 4591SOL    HW214673   5.503   5.576   5.163
 4592SOL     OW14674   4.062   2.215   6.864
 4592SOL    HW114675   3.963   2.231   6.869
 4592SOL    HW214676   4.082   2.151   6.790
 4593SOL     OW14677   3.692   6.323   2.362
 4593SOL    HW114678   3.691   6.379   2.445
 4593SOL    HW214679   3.716   6.229   2.386
 4594SOL     OW14680   2.354   1.539   1.903
 4594SOL    HW114681   2.304   1.508   1.822
 4594SOL    HW214682   2.292   1.540   1.981
 4595SOL     OW14683   4.242   2.999   6.547
 4595SOL    HW114684   4.235   2.920   6.486
 4595SOL    HW214685   4.158   3.007   6.601
 4596SOL     OW14686   5.740   6.868   2.183
 4596SOL    HW114687   5.784   6.807   2.249
 4596SOL    HW214688   5.702   6.947   2.231
 4597SOL     OW14689   5.334   4.018   6.380
 4597SOL    HW114690   5.369   3.935   6.336
 4597SOL    HW214691   5.403   4.053   6.444
 4598SOL     OW14692   2.373   5.522   6.699
 4598SOL    HW114693   2.330   5.562   6.618
 4598SOL    HW214694   2.423   5.439   6.674
 4599SOL     OW14695   1.540   4.803   1.402
 4599SOL    HW114696   1.590   4.748   1.335
 4599SOL    HW214697   1.520   4.748   1.483
 4600SOL     OW14698   2.954   5.766   0.896
 4600SOL    HW114699   2.943   5.670   0.870
 4600SOL    HW214700   2.898   5.823   0.837
 4601SOL     OW14701   2.000   0.539   5.243
 4601SOL    HW114702   1.990   0.596   5.325
 4601SOL    HW214703   2.096   0.531   5.219
 4602SOL     OW14704   1.382   0.195   2.172
 4602SOL    HW114705   1.346   0.145   2.093
 4602SOL    HW214706   1.354   0.149   2.257
 4603SOL     OW14707   3.447   6.653   1.312
 4603SOL    HW114708   3.495   6.641   1.398
 4603SOL    HW214709   3.509   6.692   1.244
 4604SOL     OW14710   3.267   0.332   2.149
 4604SOL    HW114711   3.176   0.328   2.191
 4604SOL    HW214712   3.300   0.239   2.135
 4605SOL     OW14713   5.296   0.380   4.856
 4605SOL    HW114714   5.231   0.432   4.912
 4605SOL    HW214715   5.247   0.338   4.780
 4606SOL     OW14716   6.248   6.562   5.234
 4606SOL    HW114717   6.279   6.650   5.267
 4606SOL    HW214718   6.229   6.567   5.136
 4607SOL     OW14719   3.424   1.403   1.639
 4607SOL    HW114720   3.370   1.473   1.592
 4607SOL    HW214721   3.425   1.319   1.585
 4608SOL     OW14722   1.998   4.159   5.527
 4608SOL    HW114723   2.055   4.208   5.462
 4608SOL    HW214724   1.927   4.109   5.478
 4609SOL     OW14725   5.002   6.979   0.262
 4609SOL    HW114726   4.952   0.038   0.301
 4609SOL    HW214727   5.048   7.009   0.178
 4610SOL     OW14728   0.258   2.932   6.604
 4610SOL    HW114729   0.307   2.849   6.631
 4610SOL    HW214730   0.180   2.946   6.665
 4611SOL     OW14731   0.782   3.858   0.201
 4611SOL    HW114732   0.745   3.769   0.174
 4611SOL    HW214733   0.713   3.908   0.254
 4612SOL     OW14734   2.002   6.530   6.268
 4612SOL    HW114735   2.084   6.582   6.246
 4612SOL    HW214736   2.023   6.459   6.335
 4613SOL     OW14737   3.142   5.384   2.505
 4613SOL    HW114738   3.178   5.367   2.414
 4613SOL    HW214739   3.052   5.428   2.497
 4614SOL     OW14740   1.876   5.630   6.952
 4614SOL    HW114741   1.962   5.582   6.936
 4614SOL    HW214742   1.838   5.660   6.864
 4615SOL     OW14743   1.511   2.110   0.173
 4615SOL    HW114744   1.579   2.060   0.227
 4615SOL    HW214745   1.553   2.191   0.133
 4616SOL     OW14746   5.729   0.644   6.847
 4616SOL    HW114747   5.641   0.613   6.812
 4616SOL    HW214748   5.724   0.742   6.867
 4617SOL     OW14749   0.553   2.660   1.636
 4617SOL    HW114750   0.608   2.609   1.570
 4617SOL    HW214751   0.476   2.704   1.590
 4618SOL     OW14752   0.705   2.214   6.187
 4618SOL    HW114753   0.790   2.163   6.172
 4618SOL    HW214754   0.711   2.263   6.274
 4619SOL     OW14755   3.834   0.840   3.347
 4619SOL    HW114756   3.861   0.903   3.420
 4619SOL    HW214757   3.787   0.761   3.387
 4620SOL     OW14758   2.898   4.768   6.712
 4620SOL    HW114759   2.808   4.730   6.693
 4620SOL    HW214760   2.929   4.738   6.802
 4621SOL     OW14761   0.737   0.417   5.232
 4621SOL    HW114762   0.683   0.489   5.276
 4621SOL    HW214763   0.675   0.346   5.198
 4622SOL     OW14764   1.475   3.373   0.579
 4622SOL    HW114765   1.395   3.418   0.619
 4622SOL    HW214766   1.479   3.278   0.612
 4623SOL     OW14767   6.679   4.727   1.422
 4623SOL    HW114768   6.690   4.804   1.485
 4623SOL    HW214769   6.767   4.704   1.382
 4624SOL     OW14770   5.069   0.552   3.960
 4624SOL    HW114771   4.993   0.613   3.984
 4624SOL    HW214772   5.144   0.606   3.922
 4625SOL     OW14773   1.194   3.657   6.626
 4625SOL    HW114774   1.178   3.754   6.642
 4625SOL    HW214775   1.138   3.603   6.689
 4626SOL     OW14776   6.507   5.024   1.147
 4626SOL    HW114777   6.568   5.006   1.070
 4626SOL    HW214778   6.518   4.954   1.217
 4627SOL     OW14779   3.469   5.979   5.727
 4627SOL    HW114780   3.448   5.905   5.664
 4627SOL    HW214781   3.542   5.951   5.789
 4628SOL     OW14782   6.311   4.706   1.947
 4628SOL    HW114783   6.334   4.610   1.966
 4628SOL    HW214784   6.213   4.720   1.962
 4629SOL     OW14785   2.048   4.597   5.626
 4629SOL    HW114786   2.044   4.501   5.656
 4629SOL    HW214787   1.956   4.628   5.601
 4630SOL     OW14788   2.538   5.652   2.936
 4630SOL    HW114789   2.603   5.715   2.977
 4630SOL    HW214790   2.503   5.690   2.850
 4631SOL     OW14791   2.590   6.245   2.552
 4631SOL    HW114792   2.549   6.156   2.531
 4631SOL    HW214793   2.597   6.299   2.468
 4632SOL     OW14794   4.895   5.542   4.225
 4632SOL    HW114795   4.929   5.581   4.139
 4632SOL    HW214796   4.800   5.513   4.212
 4633SOL     OW14797   6.833   1.659   4.272
 4633SOL    HW114798   6.833   1.753   4.304
 4633SOL    HW214799   6.739   1.629   4.255
 4634SOL     OW14800   3.073   4.846   0.994
 4634SOL    HW114801   3.061   4.801   1.082
 4634SOL    HW214802   3.056   4.944   1.004
 4635SOL     OW14803   5.247   3.219   2.551
 4635SOL    HW114804   5.224   3.181   2.461
 4635SOL    HW214805   5.212   3.313   2.557
 4636SOL     OW14806   3.174   5.343   0.435
 4636SOL    HW114807   3.092   5.306   0.480
 4636SOL    HW214808   3.158   5.347   0.336
 4637SOL     OW14809   1.469   1.018   5.271
 4637SOL    HW114810   1.435   0.938   5.220
 4637SOL    HW214811   1.456   1.003   5.369
 4638SOL     OW14812   4.858   3.044   5.848
 4638SOL    HW114813   4.822   3.113   5.786
 4638SOL    HW214814   4.834   3.068   5.942
 4639SOL     OW14815   0.496   3.833   5.894
 4639SOL    HW114816   0.488   3.757   5.830
 4639SOL    HW214817   0.578   3.820   5.951
 4640SOL     OW14818   5.531   4.335   2.859
 4640SOL    HW114819   5.571   4.367   2.945
 4640SOL    HW214820   5.468   4.404   2.823
 4641SOL     OW14821   2.479   5.092   4.428
 4641SOL    HW114822   2.540   5.016   4.452
 4641SOL    HW214823   2.526   5.154   4.366
 4642SOL     OW14824   6.402   6.124   4.417
 4642SOL    HW114825   6.315   6.108   4.462
 4642SOL    HW214826   6.450   6.038   4.402
 4643SOL     OW14827   3.968   2.259   1.845
 4643SOL    HW114828   4.008   2.343   1.809
 4643SOL    HW214829   3.868   2.267   1.845
 4644SOL     OW14830   1.469   6.491   4.628
 4644SOL    HW114831   1.425   6.567   4.580
 4644SOL    HW214832   1.453   6.407   4.577
 4645SOL     OW14833   1.776   6.534   4.591
 4645SOL    HW114834   1.681   6.556   4.612
 4645SOL    HW214835   1.815   6.608   4.536
 4646SOL     OW14836   2.969   0.598   2.172
 4646SOL    HW114837   3.018   0.655   2.106
 4646SOL    HW214838   2.942   0.512   2.128
 4647SOL     OW14839   6.308   0.340   4.042
 4647SOL    HW114840   6.251   0.415   4.006
 4647SOL    HW214841   6.256   0.255   4.039
 4648SOL     OW14842   2.381   5.466   2.505
 4648SOL    HW114843   2.424   5.413   2.578
 4648SOL    HW214844   2.332   5.404   2.444
 4649SOL     OW14845   5.170   0.590   5.464
 4649SOL    HW114846   5.076   0.563   5.481
 4649SOL    HW214847   5.177   0.640   5.378
 4650SOL     OW14848   5.214   5.306   2.465
 4650SOL    HW114849   5.193   5.261   2.379
 4650SOL    HW214850   5.141   5.371   2.488
 4651SOL     OW14851   0.363   2.147   1.574
 4651SOL    HW114852   0.374   2.240   1.609
 4651SOL    HW214853   0.451   2.113   1.541
 4652SOL     OW14854   6.557   6.972   5.698
 4652SOL    HW114855   6.656   6.967   5.686
 4652SOL    HW214856   6.526   0.046   5.679
 4653SOL     OW14857   0.256   6.319   6.780
 4653SOL    HW114858   0.187   6.389   6.760
 4653SOL    HW214859   0.227   6.232   6.739
 4654SOL     OW14860   1.050   0.244   0.049
 4654SOL    HW114861   1.088   0.315   7.009
 4654SOL    HW214862   1.109   0.232   0.129
 4655SOL     OW14863   0.581   4.533   3.079
 4655SOL    HW114864   0.563   4.625   3.044
 4655SOL    HW214865   0.675   4.528   3.112
 4656SOL     OW14866   1.323   0.634   3.831
 4656SOL    HW114867   1.413   0.629   3.786
 4656SOL    HW214868   1.264   0.696   3.780
 4657SOL     OW14869   5.058   6.916   1.306
 4657SOL    HW114870   5.125   6.865   1.253
 4657SOL    HW214871   4.990   6.956   1.245
 4658SOL     OW14872   4.889   0.292   2.797
 4658SOL    HW114873   4.798   0.304   2.756
 4658SOL    HW214874   4.884   0.309   2.896
 4659SOL     OW14875   1.969   2.677   4.913
 4659SOL    HW114876   1.975   2.691   4.815
 4659SOL    HW214877   1.918   2.752   4.955
 4660SOL     OW14878   0.254   1.393   6.192
 4660SOL    HW114879   0.165   1.361   6.159
 4660SOL    HW214880   0.326   1.345   6.142
 4661SOL     OW14881   3.419   3.881   3.910
 4661SOL    HW114882   3.371   3.795   3.925
 4661SOL    HW214883   3.360   3.957   3.937
 4662SOL     OW14884   4.968   0.392   5.450
 4662SOL    HW114885   4.917   0.400   5.536
 4662SOL    HW214886   4.916   0.334   5.386
 4663SOL     OW14887   6.894   2.256   2.589
 4663SOL    HW114888   6.908   2.318   2.666
 4663SOL    HW214889   6.892   2.307   2.503
 4664SOL     OW14890   3.571   2.534   0.316
 4664SOL    HW114891   3.520   2.586   0.247
 4664SOL    HW214892   3.586   2.441   0.282
 4665SOL     OW14893   5.042   0.348   6.716
 4665SOL    HW114894   4.955   0.298   6.719
 4665SOL    HW214895   5.083   0.348   6.807
 4666SOL     OW14896   2.521   1.540   0.793
 4666SOL    HW114897   2.529   1.519   0.891
 4666SOL    HW214898   2.524   1.456   0.740
 4667SOL     OW14899   0.061   4.883   6.509
 4667SOL    HW114900   0.097   4.883   6.602
 4667SOL    HW214901   7.007   4.814   6.502
 4668SOL     OW14902   6.260   1.611   4.482
 4668SOL    HW114903   6.216   1.702   4.482
 4668SOL    HW214904   6.301   1.595   4.572
 4669SOL     OW14905   1.161   0.049   0.438
 4669SOL    HW114906   1.120   0.126   0.389
 4669SOL    HW214907   1.103   0.024   0.515
 4670SOL     OW14908   2.624   2.256   4.512
 4670SOL    HW114909   2.592   2.175   4.562
 4670SOL    HW214910   2.551   2.289   4.452
 4671SOL     OW14911   5.285   3.422   1.573
 4671SOL    HW114912   5.383   3.423   1.551
 4671SOL    HW214913   5.232   3.422   1.488
 4672SOL     OW14914   2.050   3.961   6.517
 4672SOL    HW114915   2.034   4.055   6.549
 4672SOL    HW214916   2.094   3.908   6.589
 4673SOL     OW14917   3.685   1.398   2.538
 4673SOL    HW114918   3.637   1.339   2.603
 4673SOL    HW214919   3.620   1.434   2.471
 4674SOL     OW14920   4.650   5.697   4.956
 4674SOL    HW114921   4.670   5.781   5.006
 4674SOL    HW214922   4.719   5.683   4.886
 4675SOL     OW14923   1.198   4.203   0.101
 4675SOL    HW114924   1.141   4.200   0.019
 4675SOL    HW214925   1.145   4.241   0.177
 4676SOL     OW14926   1.208   5.544   3.299
 4676SOL    HW114927   1.269   5.623   3.296
 4676SOL    HW214928   1.256   5.466   3.338
 4677SOL     OW14929   1.764   2.787   0.149
 4677SOL    HW114930   1.828   2.776   0.224
 4677SOL    HW214931   1.737   2.697   0.114
 4678SOL     OW14932   2.014   4.537   2.740
 4678SOL    HW114933   2.003   4.438   2.743
 4678SOL    HW214934   1.952   4.575   2.671
 4679SOL     OW14935   4.961   0.234   1.949
 4679SOL    HW114936   5.010   0.240   1.862
 4679SOL    HW214937   4.896   0.158   1.946
 4680SOL     OW14938   2.545   1.314   1.667
 4680SOL    HW114939   2.475   1.303   1.738
 4680SOL    HW214940   2.617   1.246   1.680
 4681SOL     OW14941   5.577   4.099   1.483
 4681SOL    HW114942   5.499   4.045   1.515
 4681SOL    HW214943   5.610   4.157   1.558
 4682SOL     OW14944   4.654   3.799   6.378
 4682SOL    HW114945   4.703   3.717   6.406
 4682SOL    HW214946   4.699   3.880   6.415
 4683SOL     OW14947   6.136   4.021   3.726
 4683SOL    HW114948   6.131   3.925   3.700
 4683SOL    HW214949   6.152   4.027   3.825
 4684SOL     OW14950   4.393   6.365   6.934
 4684SOL    HW114951   4.451   6.443   6.956
 4684SOL    HW214952   4.448   6.294   6.890
 4685SOL     OW14953   2.593   3.552   5.965
 4685SOL    HW114954   2.544   3.465   5.969
 4685SOL    HW214955   2.572   3.607   6.046
 4686SOL     OW14956   3.128   5.910   0.636
 4686SOL    HW114957   3.199   5.921   0.706
 4686SOL    HW214958   3.112   5.997   0.590
 4687SOL     OW14959   2.988   0.796   2.685
 4687SOL    HW114960   2.999   0.824   2.589
 4687SOL    HW214961   2.969   0.698   2.688
 4688SOL     OW14962   5.766   2.898   5.971
 4688SOL    HW114963   5.814   2.949   5.899
 4688SOL    HW214964   5.760   2.955   6.053
 4689SOL     OW14965   5.563   0.502   0.564
 4689SOL    HW114966   5.522   0.414   0.542
 4689SOL    HW214967   5.496   0.575   0.550
 4690SOL     OW14968   2.569   1.288   0.652
 4690SOL    HW114969   2.635   1.285   0.577
 4690SOL    HW214970   2.518   1.202   0.654
 4691SOL     OW14971   6.000   5.024   0.501
 4691SOL    HW114972   6.099   5.031   0.501
 4691SOL    HW214973   5.964   5.047   0.411
 4692SOL     OW14974   6.360   4.190   3.024
 4692SOL    HW114975   6.445   4.237   3.002
 4692SOL    HW214976   6.330   4.217   3.116
 4693SOL     OW14977   1.888   0.748   3.787
 4693SOL    HW114978   1.821   0.813   3.751
 4693SOL    HW214979   1.842   0.666   3.820
 4694SOL     OW14980   2.784   1.318   0.453
 4694SOL    HW114981   2.849   1.392   0.472
 4694SOL    HW214982   2.828   1.250   0.395
 4695SOL     OW14983   1.470   5.972   0.838
 4695SOL    HW114984   1.558   5.943   0.800
 4695SOL    HW214985   1.442   5.908   0.910
 4696SOL     OW14986   1.592   5.108   6.152
 4696SOL    HW114987   1.568   5.077   6.060
 4696SOL    HW214988   1.571   5.206   6.160
 4697SOL     OW14989   2.646   4.560   0.905
 4697SOL    HW114990   2.610   4.648   0.936
 4697SOL    HW214991   2.582   4.519   0.840
 4698SOL     OW14992   4.501   0.671   3.203
 4698SOL    HW114993   4.571   0.740   3.221
 4698SOL    HW214994   4.427   0.712   3.150
 4699SOL     OW14995   0.988   0.430   2.321
 4699SOL    HW114996   1.066   0.407   2.380
 4699SOL    HW214997   0.964   0.350   2.265
 4700SOL     OW14998   6.024   2.248   2.988
 4700SOL    HW114999   6.001   2.163   3.035
 4700SOL    HW215000   5.957   2.266   2.917
 4701SOL     OW15001   3.411   1.582   2.128
 4701SOL    HW115002   3.365   1.650   2.070
 4701SOL    HW215003   3.500   1.561   2.088
 4702SOL     OW15004   5.224   4.817   6.206
 4702SOL    HW115005   5.280   4.807   6.123
 4702SOL    HW215006   5.245   4.905   6.249
 4703SOL     OW15007   1.238   4.769   3.054
 4703SOL    HW115008   1.198   4.743   3.142
 4703SOL    HW215009   1.168   4.808   2.995
 4704SOL     OW15010   0.499   5.331   5.744
 4704SOL    HW115011   0.402   5.309   5.756
 4704SOL    HW215012   0.534   5.284   5.662
 4705SOL     OW15013   3.108   2.763   1.705
 4705SOL    HW115014   3.085   2.670   1.679
 4705SOL    HW215015   3.039   2.826   1.668
 4706SOL     OW15016   1.402   0.557   0.413
 4706SOL    HW115017   1.368   0.545   0.320
 4706SOL    HW215018   1.501   0.568   0.412
 4707SOL     OW15019   1.263   0.006   1.466
 4707SOL    HW115020   1.333   6.976   1.519
 4707SOL    HW215021   1.307   0.078   1.412
 4708SOL     OW15022   0.767   2.785   3.893
 4708SOL    HW115023   0.811   2.750   3.975
 4708SOL    HW215024   0.669   2.765   3.897
 4709SOL     OW15025   4.726   3.975   5.202
 4709SOL    HW115026   4.752   3.885   5.237
 4709SOL    HW215027   4.789   4.001   5.129
 4710SOL     OW15028   5.582   6.502   4.163
 4710SOL    HW115029   5.506   6.532   4.220
 4710SOL    HW215030   5.586   6.402   4.164
 4711SOL     OW15031   6.196   3.249   3.175
 4711SOL    HW115032   6.168   3.153   3.180
 4711SOL    HW215033   6.206   3.275   3.079
 4712SOL     OW15034   4.207   4.244   5.392
 4712SOL    HW115035   4.205   4.305   5.313
 4712SOL    HW215036   4.229   4.297   5.474
 4713SOL     OW15037   5.693   4.158   0.947
 4713SOL    HW115038   5.743   4.128   1.029
 4713SOL    HW215039   5.654   4.248   0.964
 4714SOL     OW15040   6.483   0.749   6.105
 4714SOL    HW115041   6.486   0.828   6.167
 4714SOL    HW215042   6.392   0.743   6.064
 4715SOL     OW15043   6.316   2.110   1.781
 4715SOL    HW115044   6.346   2.026   1.826
 4715SOL    HW215045   6.232   2.093   1.730
 4716SOL     OW15046   3.577   4.451   5.593
 4716SOL    HW115047   3.670   4.436   5.626
 4716SOL    HW215048   3.552   4.378   5.530
 4717SOL     OW15049   3.066   5.103   5.787
 4717SOL    HW115050   3.020   5.179   5.834
 4717SOL    HW215051   3.165   5.119   5.788
 4718SOL     OW15052   5.332   4.276   1.455
 4718SOL    HW115053   5.273   4.212   1.503
 4718SOL    HW215054   5.421   4.233   1.439
 4719SOL     OW15055   6.485   3.213   3.823
 4719SOL    HW115056   6.506   3.166   3.737
 4719SOL    HW215057   6.532   3.301   3.825
 4720SOL     OW15058   2.966   4.555   6.920
 4720SOL    HW115059   3.007   4.526   7.006
 4720SOL    HW215060   2.866   4.556   6.930
 4721SOL     OW15061   6.521   3.573   2.589
 4721SOL    HW115062   6.455   3.635   2.633
 4721SOL    HW215063   6.606   3.621   2.572
 4722SOL     OW15064   1.004   4.441   6.387
 4722SOL    HW115065   0.911   4.476   6.390
 4722SOL    HW215066   1.005   4.350   6.345
 4723SOL     OW15067   3.980   3.965   6.253
 4723SOL    HW115068   4.016   4.004   6.337
 4723SOL    HW215069   4.054   3.923   6.201
 4724SOL     OW15070   0.636   6.455   4.310
 4724SOL    HW115071   0.699   6.423   4.239
 4724SOL    HW215072   0.590   6.538   4.278
 4725SOL     OW15073   5.767   5.332   0.469
 4725SOL    HW115074   5.746   5.316   0.566
 4725SOL    HW215075   5.699   5.394   0.431
 4726SOL     OW15076   2.020   2.877   5.701
 4726SOL    HW115077   2.091   2.910   5.639
 4726SOL    HW215078   2.031   2.921   5.790
 4727SOL     OW15079   0.936   5.520   0.520
 4727SOL    HW115080   0.902   5.575   0.597
 4727SOL    HW215081   1.035   5.530   0.514
 4728SOL     OW15082   6.023   0.964   4.068
 4728SOL    HW115083   5.986   1.057   4.073
 4728SOL    HW215084   5.959   0.905   4.019
 4729SOL     OW15085   6.212   0.745   0.540
 4729SOL    HW115086   6.242   0.650   0.528
 4729SOL    HW215087   6.241   0.799   0.461
 4730SOL     OW15088   3.393   6.635   5.054
 4730SOL    HW115089   3.300   6.600   5.061
 4730SOL    HW215090   3.454   6.562   5.023
 4731SOL     OW15091   3.078   6.866   0.654
 4731SOL    HW115092   2.995   6.892   0.605
 4731SOL    HW215093   3.151   6.847   0.588
 4732SOL     OW15094   6.922   3.780   4.345
 4732SOL    HW115095   6.919   3.828   4.433
 4732SOL    HW215096   6.919   3.681   4.361
 4733SOL     OW15097   2.095   3.416   2.962
 4733SOL    HW115098   2.182   3.456   2.932
 4733SOL    HW215099   2.037   3.399   2.883
 4734SOL     OW15100   4.948   3.831   6.330
 4734SOL    HW115101   4.956   3.926   6.358
 4734SOL    HW215102   5.004   3.773   6.389
 4735SOL     OW15103   0.021   6.402   4.882
 4735SOL    HW115104   0.116   6.378   4.901
 4735SOL    HW215105   6.992   6.419   4.968
 4736SOL     OW15106   6.470   2.011   2.974
 4736SOL    HW115107   6.479   1.912   2.968
 4736SOL    HW215108   6.376   2.035   3.001
 4737SOL     OW15109   1.884   5.163   1.121
 4737SOL    HW115110   1.869   5.254   1.159
 4737SOL    HW215111   1.860   5.093   1.189
 4738SOL     OW15112   2.206   0.359   3.606
 4738SOL    HW115113   2.201   0.425   3.531
 4738SOL    HW215114   2.229   0.407   3.691
 4739SOL     OW15115   5.969   3.668   4.548
 4739SOL    HW115116   6.031   3.746   4.554
 4739SOL    HW215117   5.889   3.692   4.493
 4740SOL     OW15118   0.346   1.335   1.762
 4740SOL    HW115119   0.297   1.404   1.815
 4740SOL    HW215120   0.396   1.380   1.688
 4741SOL     OW15121   4.602   4.885   1.313
 4741SOL    HW115122   4.610   4.788   1.335
 4741SOL    HW215123   4.628   4.899   1.217
 4742SOL     OW15124   2.568   5.790   1.031
 4742SOL    HW115125   2.498   5.809   1.101
 4742SOL    HW215126   2.609   5.876   1.001
 4743SOL     OW15127   2.155   1.950   6.993
 4743SOL    HW115128   2.099   1.917   0.050
 4743SOL    HW215129   2.144   1.889   6.915
 4744SOL     OW15130   1.858   3.562   5.731
 4744SOL    HW115131   1.936   3.542   5.672
 4744SOL    HW215132   1.816   3.649   5.703
 4745SOL     OW15133   3.766   5.346   5.092
 4745SOL    HW115134   3.852   5.295   5.092
 4745SOL    HW215135   3.722   5.338   5.002
 4746SOL     OW15136   6.550   6.263   0.712
 4746SOL    HW115137   6.556   6.278   0.811
 4746SOL    HW215138   6.553   6.351   0.665
 4747SOL     OW15139   6.784   2.099   0.643
 4747SOL    HW115140   6.813   2.195   0.644
 4747SOL    HW215141   6.780   2.064   0.736
 4748SOL     OW15142   1.069   0.478   1.363
 4748SOL    HW115143   1.064   0.412   1.289
 4748SOL    HW215144   1.137   0.448   1.430
 4749SOL     OW15145   2.269   6.582   0.228
 4749SOL    HW115146   2.297   6.642   0.303
 4749SOL    HW215147   2.346   6.569   0.165
 4750SOL     OW15148   0.032   0.836   4.586
 4750SOL    HW115149   0.050   0.929   4.618
 4750SOL    HW215150   0.110   0.778   4.610
 4751SOL     OW15151   1.765   4.914   6.273
 4751SOL    HW115152   1.717   4.989   6.229
 4751SOL    HW215153   1.797   4.849   6.204
 4752SOL     OW15154   3.115   6.277   1.787
 4752SOL    HW115155   3.023   6.242   1.805
 4752SOL    HW215156   3.150   6.322   1.869
 4753SOL     OW15157   5.783   6.623   5.317
 4753SOL    HW115158   5.807   6.704   5.264
 4753SOL    HW215159   5.684   6.607   5.310
 4754SOL     OW15160   0.170   7.005   5.968
 4754SOL    HW115161   0.197   6.981   5.875
 4754SOL    HW215162   0.184   0.084   5.982
 4755SOL     OW15163   2.278   1.754   6.297
 4755SOL    HW115164   2.281   1.852   6.276
 4755SOL    HW215165   2.370   1.716   6.293
 4756SOL     OW15166   4.720   2.917   1.431
 4756SOL    HW115167   4.713   2.899   1.529
 4756SOL    HW215168   4.660   2.854   1.381
 4757SOL     OW15169   2.291   2.158   1.929
 4757SOL    HW115170   2.325   2.096   2.000
 4757SOL    HW215171   2.283   2.108   1.843
 4758SOL     OW15172   4.872   5.140   5.266
 4758SOL    HW115173   4.931   5.070   5.225
 4758SOL    HW215174   4.925   5.194   5.331
 4759SOL     OW15175   5.630   5.705   6.196
 4759SOL    HW115176   5.687   5.633   6.236
 4759SOL    HW215177   5.553   5.663   6.146
 4760SOL     OW15178   2.036   1.035   1.741
 4760SOL    HW115179   2.065   1.078   1.826
 4760SOL    HW215180   2.002   1.105   1.678
 4761SOL     OW15181   6.955   0.097   6.425
 4761SOL    HW115182   0.016   0.037   6.424
 4761SOL    HW215183   6.941   0.135   6.334
 4762SOL     OW15184   2.669   5.373   2.096
 4762SOL    HW115185   2.615   5.446   2.137
 4762SOL    HW215186   2.681   5.391   1.998
 4763SOL     OW15187   6.135   6.059   3.160
 4763SOL    HW115188   6.223   6.104   3.176
 4763SOL    HW215189   6.061   6.119   3.190
 4764SOL     OW15190   4.245   3.612   5.075
 4764SOL    HW115191   4.182   3.606   4.997
 4764SOL    HW215192   4.339   3.610   5.042
 4765SOL     OW15193   4.972   5.979   4.953
 4765SOL    HW115194   5.045   6.021   5.007
 4765SOL    HW215195   4.925   5.909   5.007
 4766SOL     OW15196   2.312   0.126   3.662
 4766SOL    HW115197   2.411   0.136   3.669
 4766SOL    HW215198   2.272   0.212   3.630
 4767SOL     OW15199   4.009   6.777   6.936
 4767SOL    HW115200   4.008   6.677   6.940
 4767SOL    HW215201   3.943   6.809   6.868
 4768SOL     OW15202   6.147   0.547   4.495
 4768SOL    HW115203   6.069   0.609   4.483
 4768SOL    HW215204   6.130   0.462   4.444
 4769SOL     OW15205   4.266   6.216   1.773
 4769SOL    HW115206   4.273   6.139   1.709
 4769SOL    HW215207   4.169   6.234   1.792
 4770SOL     OW15208   2.578   0.627   3.254
 4770SOL    HW115209   2.545   0.720   3.266
 4770SOL    HW215210   2.503   0.569   3.221
 4771SOL     OW15211   3.868   4.186   5.718
 4771SOL    HW115212   3.843   4.181   5.621
 4771SOL    HW215213   3.923   4.267   5.735
 4772SOL     OW15214   3.023   1.220   1.518
 4772SOL    HW115215   2.926   1.202   1.501
 4772SOL    HW215216   3.036   1.316   1.540
 4773SOL     OW15217   0.215   5.817   3.327
 4773SOL    HW115218   0.287   5.864   3.277
 4773SOL    HW215219   0.252   5.738   3.375
 4774SOL     OW15220   1.057   3.396   1.772
 4774SOL    HW115221   1.034   3.312   1.723
 4774SOL    HW215222   1.044   3.475   1.711
 4775SOL     OW15223   4.267   0.324   2.879
 4775SOL    HW115224   4.186   0.356   2.830
 4775SOL    HW215225   4.331   0.399   2.890
 4776SOL     OW15226   2.891   5.873   2.348
 4776SOL    HW115227   2.986   5.902   2.331
 4776SOL    HW215228   2.870   5.794   2.292
 4777SOL     OW15229   2.568   4.676   1.439
 4777SOL    HW115230   2.598   4.670   1.344
 4777SOL    HW215231   2.536   4.586   1.470
 4778SOL     OW15232   4.841   3.794   1.884
 4778SOL    HW115233   4.865   3.700   1.905
 4778SOL    HW215234   4.772   3.795   1.811
 4779SOL     OW15235   6.686   0.375   3.046
 4779SOL    HW115236   6.755   0.431   3.000
 4779SOL    HW215237   6.595   0.398   3.012
 4780SOL     OW15238   1.034   6.572   6.217
 4780SOL    HW115239   1.122   6.602   6.181
 4780SOL    HW215240   0.969   6.648   6.216
 4781SOL     OW15241   2.314   5.208   0.865
 4781SOL    HW115242   2.286   5.291   0.818
 4781SOL    HW215243   2.375   5.232   0.941
 4782SOL     OW15244   5.328   6.514   6.892
 4782SOL    HW115245   5.254   6.518   6.959
 4782SOL    HW215246   5.319   6.430   6.837
 4783SOL     OW15247   5.200   4.105   1.087
 4783SOL    HW115248   5.171   4.183   1.143
 4783SOL    HW215249   5.131   4.088   1.016
 4784SOL     OW15250   5.642   5.337   5.192
 4784SOL    HW115251   5.688   5.261   5.148
 4784SOL    HW215252   5.656   5.421   5.139
 4785SOL     OW15253   0.055   6.249   0.674
 4785SOL    HW115254   6.980   6.240   0.640
 4785SOL    HW215255   0.073   6.344   0.698
 4786SOL     OW15256   1.822   3.119   2.016
 4786SOL    HW115257   1.886   3.070   1.958
 4786SOL    HW215258   1.766   3.053   2.067
 4787SOL     OW15259   3.083   2.093   3.413
 4787SOL    HW115260   3.021   2.171   3.403
 4787SOL    HW215261   3.037   2.010   3.381
 4788SOL     OW15262   1.044   4.977   5.053
 4788SOL    HW115263   1.103   5.057   5.064
 4788SOL    HW215264   1.009   4.973   4.960
 4789SOL     OW15265   5.550   0.250   6.669
 4789SOL    HW115266   5.619   0.297   6.614
 4789SOL    HW215267   5.460   0.264   6.628
 4790SOL     OW15268   5.811   2.810   6.322
 4790SOL    HW115269   5.798   2.907   6.300
 4790SOL    HW215270   5.726   2.760   6.304
 4791SOL     OW15271   5.502   6.850   2.080
 4791SOL    HW115272   5.595   6.853   2.115
 4791SOL    HW215273   5.438   6.833   2.155
 4792SOL     OW15274   2.411   2.710   2.967
 4792SOL    HW115275   2.420   2.809   2.955
 4792SOL    HW215276   2.315   2.684   2.958
 4793SOL     OW15277   1.359   6.806   6.275
 4793SOL    HW115278   1.394   6.865   6.202
 4793SOL    HW215279   1.362   6.855   6.362
 4794SOL     OW15280   2.269   6.634   3.283
 4794SOL    HW115281   2.191   6.667   3.228
 4794SOL    HW215282   2.236   6.609   3.374
 4795SOL     OW15283   6.050   3.349   4.232
 4795SOL    HW115284   5.974   3.405   4.199
 4795SOL    HW215285   6.099   3.399   4.304
 4796SOL     OW15286   5.871   3.746   0.859
 4796SOL    HW115287   5.845   3.842   0.846
 4796SOL    HW215288   5.806   3.702   0.920
 4797SOL     OW15289   0.842   4.840   6.034
 4797SOL    HW115290   0.888   4.756   6.002
 4797SOL    HW215291   0.743   4.825   6.035
 4798SOL     OW15292   0.159   4.293   4.137
 4798SOL    HW115293   0.168   4.379   4.188
 4798SOL    HW215294   0.209   4.221   4.184
 4799SOL     OW15295   4.462   1.482   4.748
 4799SOL    HW115296   4.471   1.386   4.777
 4799SOL    HW215297   4.400   1.488   4.670
 4800SOL     OW15298   2.659   2.899   5.555
 4800SOL    HW115299   2.601   2.874   5.478
 4800SOL    HW215300   2.699   2.989   5.538
 4801SOL     OW15301   1.500   1.594   0.562
 4801SOL    HW115302   1.407   1.602   0.526
 4801SOL    HW215303   1.541   1.685   0.569
 4802SOL     OW15304   2.592   6.868   1.691
 4802SOL    HW115305   2.573   6.947   1.633
 4802SOL    HW215306   2.525   6.864   1.765
 4803SOL     OW15307   0.780   6.747   0.513
 4803SOL    HW115308   0.741   6.793   0.433
 4803SOL    HW215309   0.706   6.720   0.575
 4804SOL     OW15310   4.274   5.192   6.089
 4804SOL    HW115311   4.308   5.175   6.182
 4804SOL    HW215312   4.264   5.105   6.041
 4805SOL     OW15313   6.821   1.533   0.186
 4805SOL    HW115314   6.732   1.547   0.229
 4805SOL    HW215315   6.813   1.544   0.087
 4806SOL     OW15316   0.619   3.601   2.896
 4806SOL    HW115317   0.570   3.648   2.822
 4806SOL    HW215318   0.640   3.507   2.867
 4807SOL     OW15319   0.539   6.234   1.518
 4807SOL    HW115320   0.570   6.327   1.537
 4807SOL    HW215321   0.439   6.232   1.519
 4808SOL     OW15322   5.137   3.464   1.337
 4808SOL    HW115323   5.112   3.529   1.266
 4808SOL    HW215324   5.071   3.389   1.339
 4809SOL     OW15325   3.519   5.112   6.948
 4809SOL    HW115326   3.443   5.125   6.885
 4809SOL    HW215327   3.494   5.045   7.018
 4810SOL     OW15328   0.959   5.813   1.627
 4810SOL    HW115329   0.978   5.764   1.542
 4810SOL    HW215330   0.873   5.864   1.617
 4811SOL     OW15331   3.338   5.126   1.943
 4811SOL    HW115332   3.374   5.134   2.036
 4811SOL    HW215333   3.396   5.063   1.890
 4812SOL     OW15334   0.279   5.515   4.086
 4812SOL    HW115335   0.340   5.540   4.161
 4812SOL    HW215336   0.315   5.433   4.040
 4813SOL     OW15337   5.073   1.766   2.270
 4813SOL    HW115338   5.126   1.758   2.185
 4813SOL    HW215339   5.060   1.862   2.292
 4814SOL     OW15340   0.038   3.830   1.160
 4814SOL    HW115341   0.087   3.837   1.073
 4814SOL    HW215342   6.974   3.885   1.155
 4815SOL     OW15343   4.883   5.300   1.626
 4815SOL    HW115344   4.968   5.292   1.678
 4815SOL    HW215345   4.824   5.222   1.648
 4816SOL     OW15346   5.232   5.344   2.820
 4816SOL    HW115347   5.229   5.258   2.770
 4816SOL    HW215348   5.158   5.404   2.789
 4817SOL     OW15349   1.269   2.260   5.656
 4817SOL    HW115350   1.294   2.195   5.728
 4817SOL    HW215351   1.349   2.314   5.631
 4818SOL     OW15352   6.813   6.641   3.492
 4818SOL    HW115353   6.807   6.616   3.588
 4818SOL    HW215354   6.721   6.665   3.458
 4819SOL     OW15355   1.475   3.369   6.883
 4819SOL    HW115356   1.423   3.375   6.798
 4819SOL    HW215357   1.433   3.428   6.952
 4820SOL     OW15358   6.846   3.049   2.051
 4820SOL    HW115359   6.806   3.078   2.137
 4820SOL    HW215360   6.848   3.126   1.987
 4821SOL     OW15361   6.813   5.683   2.558
 4821SOL    HW115362   6.902   5.691   2.513
 4821SOL    HW215363   6.741   5.677   2.489
 4822SOL     OW15364   1.228   4.004   4.198
 4822SOL    HW115365   1.266   4.068   4.132
 4822SOL    HW215366   1.287   3.924   4.205
 4823SOL     OW15367   1.756   2.657   1.653
 4823SOL    HW115368   1.809   2.636   1.736
 4823SOL    HW215369   1.800   2.732   1.604
 4824SOL     OW15370   5.452   0.758   5.052
 4824SOL    HW115371   5.466   0.844   5.002
 4824SOL    HW215372   5.471   0.681   4.991
 4825SOL     OW15373   1.619   0.230   4.080
 4825SOL    HW115374   1.669   0.143   4.076
 4825SOL    HW215375   1.573   0.246   3.993
 4826SOL     OW15376   4.371   0.133   1.650
 4826SOL    HW115377   4.455   0.142   1.597
 4826SOL    HW215378   4.315   0.216   1.640
 4827SOL     OW15379   6.711   1.818   0.959
 4827SOL    HW115380   6.682   1.843   0.866
 4827SOL    HW215381   6.767   1.735   0.956
 4828SOL     OW15382   4.862   0.899   2.568
 4828SOL    HW115383   4.891   0.841   2.645
 4828SOL    HW215384   4.819   0.982   2.604
 4829SOL     OW15385   3.595   0.063   5.463
 4829SOL    HW115386   3.663   0.001   5.423
 4829SOL    HW215387   3.630   0.157   5.459
 4830SOL     OW15388   2.919   5.649   3.835
 4830SOL    HW115389   2.995   5.595   3.799
 4830SOL    HW215390   2.845   5.650   3.769
 4831SOL     OW15391   3.388   4.946   6.492
 4831SOL    HW115392   3.301   4.995   6.482
 4831SOL    HW215393   3.382   4.859   6.443
 4832SOL     OW15394   3.104   3.136   4.133
 4832SOL    HW115395   3.095   3.107   4.228
 4832SOL    HW215396   3.034   3.203   4.111
 4833SOL     OW15397   0.081   2.610   3.852
 4833SOL    HW115398   0.088   2.535   3.918
 4833SOL    HW215399   0.082   2.573   3.759
 4834SOL     OW15400   1.830   5.288   1.686
 4834SOL    HW115401   1.749   5.291   1.745
 4834SOL    HW215402   1.910   5.318   1.737
 4835SOL     OW15403   0.208   2.427   4.978
 4835SOL    HW115404   0.148   2.459   4.905
 4835SOL    HW215405   0.296   2.475   4.972
 4836SOL     OW15406   4.899   1.230   4.997
 4836SOL    HW115407   4.843   1.172   5.056
 4836SOL    HW215408   4.960   1.172   4.942
 4837SOL     OW15409   7.007   3.541   4.427
 4837SOL    HW115410   7.010   3.572   4.522
 4837SOL    HW215411   6.999   3.442   4.424
 4838SOL     OW15412   1.437   4.533   6.443
 4838SOL    HW115413   1.513   4.475   6.415
 4838SOL    HW215414   1.472   4.607   6.501
 4839SOL     OW15415   2.374   1.826   0.306
 4839SOL    HW115416   2.447   1.874   0.355
 4839SOL    HW215417   2.295   1.886   0.297
 4840SOL     OW15418   5.584   3.528   5.235
 4840SOL    HW115419   5.531   3.507   5.152
 4840SOL    HW215420   5.680   3.508   5.219
 4841SOL     OW15421   3.315   5.418   3.189
 4841SOL    HW115422   3.219   5.426   3.163
 4841SOL    HW215423   3.359   5.507   3.182
 4842SOL     OW15424   3.040   5.465   3.150
 4842SOL    HW115425   2.996   5.385   3.191
 4842SOL    HW215426   2.972   5.518   3.099
 4843SOL     OW15427   0.410   2.500   2.509
 4843SOL    HW115428   0.356   2.429   2.554
 4843SOL    HW215429   0.503   2.468   2.494
 4844SOL     OW15430   0.969   5.587   4.763
 4844SOL    HW115431   1.009   5.633   4.842
 4844SOL    HW215432   1.028   5.599   4.684
 4845SOL     OW15433   4.954   3.802   5.032
 4845SOL    HW115434   4.889   3.728   5.045
 4845SOL    HW215435   4.905   3.890   5.032
 4846SOL     OW15436   6.933   3.485   5.084
 4846SOL    HW115437   6.904   3.403   5.034
 4846SOL    HW215438   0.014   3.486   5.093
 4847SOL     OW15439   2.291   6.354   6.104
 4847SOL    HW115440   2.381   6.312   6.105
 4847SOL    HW215441   2.295   6.443   6.149
 4848SOL     OW15442   2.694   0.715   4.022
 4848SOL    HW115443   2.753   0.689   4.098
 4848SOL    HW215444   2.693   0.815   4.014
 4849SOL     OW15445   1.862   6.647   0.996
 4849SOL    HW115446   1.912   6.580   0.941
 4849SOL    HW215447   1.891   6.740   0.971
 4850SOL     OW15448   4.588   0.764   0.664
 4850SOL    HW115449   4.612   0.670   0.639
 4850SOL    HW215450   4.603   0.825   0.586
 4851SOL     OW15451   3.579   5.810   6.788
 4851SOL    HW115452   3.503   5.746   6.782
 4851SOL    HW215453   3.630   5.810   6.702
 4852SOL     OW15454   4.468   5.144   4.646
 4852SOL    HW115455   4.376   5.144   4.685
 4852SOL    HW215456   4.527   5.204   4.699
 4853SOL     OW15457   3.570   0.559   2.993
 4853SOL    HW115458   3.632   0.588   2.920
 4853SOL    HW215459   3.558   0.635   3.058
 4854SOL     OW15460   5.967   6.270   1.626
 4854SOL    HW115461   6.018   6.221   1.555
 4854SOL    HW215462   5.870   6.274   1.600
 4855SOL     OW15463   6.418   4.839   4.637
 4855SOL    HW115464   6.473   4.907   4.588
 4855SOL    HW215465   6.374   4.779   4.571
 4856SOL     OW15466   0.198   3.934   3.046
 4856SOL    HW115467   0.239   3.879   3.118
 4856SOL    HW215468   0.270   3.978   2.992
 4857SOL     OW15469   2.460   2.085   4.687
 4857SOL    HW115470   2.392   2.155   4.707
 4857SOL    HW215471   2.457   2.015   4.758
 4858SOL     OW15472   0.278   5.931   4.454
 4858SOL    HW115473   0.341   5.862   4.489
 4858SOL    HW215474   0.305   6.021   4.488
 4859SOL     OW15475   0.729   5.821   2.178
 4859SOL    HW115476   0.653   5.803   2.241
 4859SOL    HW215477   0.772   5.735   2.152
 4860SOL     OW15478   4.808   5.380   0.906
 4860SOL    HW115479   4.834   5.440   0.981
 4860SOL    HW215480   4.834   5.423   0.819
 4861SOL     OW15481   0.512   4.645   6.651
 4861SOL    HW115482   0.480   4.564   6.700
 4861SOL    HW215483   0.573   4.618   6.576
 4862SOL     OW15484   2.689   4.616   5.288
 4862SOL    HW115485   2.620   4.661   5.231
 4862SOL    HW215486   2.775   4.609   5.236
 4863SOL     OW15487   4.413   2.082   3.136
 4863SOL    HW115488   4.345   2.151   3.114
 4863SOL    HW215489   4.470   2.114   3.212
 4864SOL     OW15490   3.268   1.303   1.879
 4864SOL    HW115491   3.309   1.343   1.798
 4864SOL    HW215492   3.251   1.374   1.947
 4865SOL     OW15493   4.078   5.681   5.410
 4865SOL    HW115494   4.036   5.605   5.359
 4865SOL    HW215495   4.074   5.764   5.354
 4866SOL     OW15496   5.963   4.398   0.893
 4866SOL    HW115497   5.907   4.359   0.819
 4866SOL    HW215498   5.992   4.490   0.867
 4867SOL     OW15499   4.775   6.008   2.806
 4867SOL    HW115500   4.687   5.986   2.849
 4867SOL    HW215501   4.840   5.935   2.825
 4868SOL     OW15502   0.517   5.514   1.315
 4868SOL    HW115503   0.421   5.538   1.327
 4868SOL    HW215504   0.525   5.450   1.238
 4869SOL     OW15505   6.808   1.193   0.383
 4869SOL    HW115506   6.740   1.255   0.344
 4869SOL    HW215507   6.896   1.239   0.390
 4870SOL     OW15508   5.574   6.536   2.263
 4870SOL    HW115509   5.520   6.474   2.206
 4870SOL    HW215510   5.526   6.623   2.274
 4871SOL     OW15511   1.421   3.385   4.092
 4871SOL    HW115512   1.433   3.295   4.050
 4871SOL    HW215513   1.450   3.382   4.188
 4872SOL     OW15514   1.184   1.110   2.470
 4872SOL    HW115515   1.233   1.187   2.429
 4872SOL    HW215516   1.249   1.037   2.491
 4873SOL     OW15517   0.118   5.580   5.386
 4873SOL    HW115518   0.181   5.644   5.341
 4873SOL    HW215519   0.167   5.531   5.458
 4874SOL     OW15520   5.474   3.411   3.253
 4874SOL    HW115521   5.550   3.457   3.207
 4874SOL    HW215522   5.452   3.459   3.338
 4875SOL     OW15523   5.894   2.278   6.832
 4875SOL    HW115524   5.796   2.270   6.811
 4875SOL    HW215525   5.934   2.352   6.779
 4876SOL     OW15526   0.170   1.472   0.174
 4876SOL    HW115527   0.149   1.375   0.159
 4876SOL    HW215528   0.189   1.486   0.271
 4877SOL     OW15529   6.414   1.443   1.307
 4877SOL    HW115530   6.467   1.365   1.342
 4877SOL    HW215531   6.434   1.524   1.361
 4878SOL     OW15532   6.772   1.948   2.097
 4878SOL    HW115533   6.785   1.880   2.024
 4878SOL    HW215534   6.676   1.949   2.124
 4879SOL     OW15535   4.286   5.131   3.574
 4879SOL    HW115536   4.278   5.033   3.590
 4879SOL    HW215537   4.357   5.149   3.506
 4880SOL     OW15538   5.881   1.870   6.385
 4880SOL    HW115539   5.853   1.780   6.417
 4880SOL    HW215540   5.870   1.876   6.286
 4881SOL     OW15541   3.529   6.406   6.465
 4881SOL    HW115542   3.613   6.398   6.410
 4881SOL    HW215543   3.459   6.345   6.429
 4882SOL     OW15544   5.599   0.346   5.530
 4882SOL    HW115545   5.561   0.396   5.452
 4882SOL    HW215546   5.564   0.252   5.529
 4883SOL     OW15547   0.209   4.980   1.949
 4883SOL    HW115548   0.111   4.993   1.935
 4883SOL    HW215549   0.242   4.908   1.886
 4884SOL     OW15550   3.320   6.690   1.596
 4884SOL    HW115551   3.418   6.683   1.577
 4884SOL    HW215552   3.286   6.602   1.628
 4885SOL     OW15553   1.936   0.152   1.742
 4885SOL    HW115554   1.952   0.058   1.773
 4885SOL    HW215555   1.914   0.150   1.644
 4886SOL     OW15556   6.439   0.323   6.875
 4886SOL    HW115557   6.449   0.286   6.783
 4886SOL    HW215558   6.501   0.401   6.887
 4887SOL     OW15559   0.393   2.127   3.701
 4887SOL    HW115560   0.424   2.059   3.768
 4887SOL    HW215561   0.387   2.085   3.611
 4888SOL     OW15562   2.742   5.192   2.824
 4888SOL    HW115563   2.780   5.122   2.884
 4888SOL    HW215564   2.809   5.265   2.810
 4889SOL     OW15565   0.839   1.906   0.312
 4889SOL    HW115566   0.911   1.972   0.290
 4889SOL    HW215567   0.800   1.870   0.227
 4890SOL     OW15568   1.120   0.831   4.576
 4890SOL    HW115569   1.132   0.779   4.492
 4890SOL    HW215570   1.088   0.923   4.553
 4891SOL     OW15571   0.805   4.846   0.454
 4891SOL    HW115572   0.864   4.831   0.374
 4891SOL    HW215573   0.862   4.865   0.534
 4892SOL     OW15574   0.730   5.413   0.319
 4892SOL    HW115575   0.639   5.429   0.356
 4892SOL    HW215576   0.799   5.458   0.376
 4893SOL     OW15577   0.609   3.308   6.598
 4893SOL    HW115578   0.687   3.371   6.604
 4893SOL    HW215579   0.642   3.216   6.578
 4894SOL     OW15580   2.368   1.448   3.401
 4894SOL    HW115581   2.281   1.416   3.365
 4894SOL    HW215582   2.354   1.486   3.493
 4895SOL     OW15583   0.943   3.144   7.012
 4895SOL    HW115584   0.940   3.243   0.012
 4895SOL    HW215585   0.977   3.096   0.073
 4896SOL     OW15586   3.974   5.219   4.928
 4896SOL    HW115587   3.908   5.252   4.860
 4896SOL    HW215588   4.049   5.285   4.937
 4897SOL     OW15589   3.760   5.492   6.329
 4897SOL    HW115590   3.755   5.405   6.280
 4897SOL    HW215591   3.827   5.552   6.284
 4898SOL     OW15592   5.117   2.039   5.267
 4898SOL    HW115593   5.087   2.134   5.272
 4898SOL    HW215594   5.062   1.984   5.330
 4899SOL     OW15595   5.708   4.427   3.708
 4899SOL    HW115596   5.669   4.342   3.744
 4899SOL    HW215597   5.790   4.451   3.760
 4900SOL     OW15598   1.215   6.885   5.466
 4900SOL    HW115599   1.305   6.905   5.504
 4900SOL    HW215600   1.145   6.932   5.519
 4901SOL     OW15601   0.585   0.128   3.830
 4901SOL    HW115602   0.677   0.097   3.853
 4901SOL    HW215603   0.518   0.062   3.863
 4902SOL     OW15604   2.238   4.470   1.711
 4902SOL    HW115605   2.252   4.434   1.803
 4902SOL    HW215606   2.153   4.433   1.673
 4903SOL     OW15607   4.788   0.168   6.625
 4903SOL    HW115608   4.752   0.170   6.718
 4903SOL    HW215609   4.719   0.204   6.562
 4904SOL     OW15610   2.478   6.046   4.115
 4904SOL    HW115611   2.576   6.054   4.136
 4904SOL    HW215612   2.430   6.126   4.152
 4905SOL     OW15613   4.879   3.229   1.875
 4905SOL    HW115614   4.803   3.170   1.845
 4905SOL    HW215615   4.940   3.176   1.934
 4906SOL     OW15616   5.245   0.510   0.381
 4906SOL    HW115617   5.314   0.479   0.316
 4906SOL    HW215618   5.258   0.607   0.400
 4907SOL     OW15619   3.178   0.870   3.357
 4907SOL    HW115620   3.233   0.874   3.440
 4907SOL    HW215621   3.201   0.788   3.305
 4908SOL     OW15622   3.369   6.230   6.307
 4908SOL    HW115623   3.335   6.223   6.213
 4908SOL    HW215624   3.421   6.147   6.329
 4909SOL     OW15625   6.594   6.662   5.250
 4909SOL    HW115626   6.631   6.752   5.226
 4909SOL    HW215627   6.541   6.670   5.335
 4910SOL     OW15628   5.797   0.102   5.022
 4910SOL    HW115629   5.757   0.110   5.113
 4910SOL    HW215630   5.885   0.055   5.029
 4911SOL     OW15631   0.050   2.584   6.094
 4911SOL    HW115632   0.029   2.577   5.996
 4911SOL    HW215633   0.133   2.637   6.107
 4912SOL     OW15634   2.522   2.370   2.455
 4912SOL    HW115635   2.474   2.454   2.433
 4912SOL    HW215636   2.594   2.353   2.387
 4913SOL     OW15637   3.058   3.962   3.181
 4913SOL    HW115638   3.090   4.039   3.237
 4913SOL    HW215639   3.107   3.962   3.094
 4914SOL     OW15640   2.529   6.641   3.568
 4914SOL    HW115641   2.536   6.722   3.625
 4914SOL    HW215642   2.592   6.649   3.491
 4915SOL     OW15643   3.333   5.603   4.119
 4915SOL    HW115644   3.317   5.576   4.024
 4915SOL    HW215645   3.310   5.700   4.130
 4916SOL     OW15646   2.073   1.502   2.569
 4916SOL    HW115647   2.081   1.582   2.510
 4916SOL    HW215648   2.019   1.525   2.649
 4917SOL     OW15649   1.886   4.919   0.619
 4917SOL    HW115650   1.809   4.855   0.621
 4917SOL    HW215651   1.886   4.974   0.702
 4918SOL     OW15652   2.307   0.182   2.203
 4918SOL    HW115653   2.372   0.256   2.183
 4918SOL    HW215654   2.273   0.143   2.118
 4919SOL     OW15655   2.433   2.648   1.927
 4919SOL    HW115656   2.399   2.705   2.002
 4919SOL    HW215657   2.453   2.556   1.962
 4920SOL     OW15658   4.382   0.914   0.272
 4920SOL    HW115659   4.364   0.815   0.271
 4920SOL    HW215660   4.463   0.932   0.327
 4921SOL     OW15661   1.097   4.561   1.592
 4921SOL    HW115662   1.026   4.619   1.631
 4921SOL    HW215663   1.151   4.615   1.526
 4922SOL     OW15664   1.410   3.012   5.275
 4922SOL    HW115665   1.470   3.029   5.197
 4922SOL    HW215666   1.444   2.933   5.327
 4923SOL     OW15667   4.899   0.975   1.074
 4923SOL    HW115668   4.944   0.899   1.121
 4923SOL    HW215669   4.960   1.055   1.074
 4924SOL     OW15670   0.517   4.108   4.776
 4924SOL    HW115671   0.553   4.030   4.726
 4924SOL    HW215672   0.581   4.133   4.849
 4925SOL     OW15673   4.584   6.145   6.788
 4925SOL    HW115674   4.494   6.113   6.817
 4925SOL    HW215675   4.653   6.075   6.808
 4926SOL     OW15676   4.634   2.382   1.989
 4926SOL    HW115677   4.695   2.436   1.931
 4926SOL    HW215678   4.652   2.403   2.085
 4927SOL     OW15679   3.397   2.917   3.374
 4927SOL    HW115680   3.368   2.952   3.464
 4927SOL    HW215681   3.319   2.915   3.312
 4928SOL     OW15682   0.256   5.832   0.165
 4928SOL    HW115683   0.297   5.894   0.232
 4928SOL    HW215684   0.298   5.847   0.076
 4929SOL     OW15685   1.154   5.301   4.216
 4929SOL    HW115686   1.074   5.261   4.261
 4929SOL    HW215687   1.182   5.243   4.139
 4930SOL     OW15688   0.295   2.104   0.658
 4930SOL    HW115689   0.344   2.106   0.572
 4930SOL    HW215690   0.232   2.182   0.663
 4931SOL     OW15691   6.994   0.883   0.439
 4931SOL    HW115692   0.063   0.849   0.407
 4931SOL    HW215693   7.009   0.955   0.508
 4932SOL     OW15694   2.633   2.105   1.665
 4932SOL    HW115695   2.637   2.150   1.575
 4932SOL    HW215696   2.723   2.109   1.708
 4933SOL     OW15697   2.788   0.985   3.902
 4933SOL    HW115698   2.772   0.952   3.809
 4933SOL    HW215699   2.884   0.975   3.926
 4934SOL     OW15700   0.903   5.743   4.331
 4934SOL    HW115701   0.996   5.771   4.352
 4934SOL    HW215702   0.853   5.725   4.416
 4935SOL     OW15703   1.453   1.140   0.596
 4935SOL    HW115704   1.496   1.209   0.538
 4935SOL    HW215705   1.360   1.167   0.619
 4936SOL     OW15706   3.991   5.588   0.939
 4936SOL    HW115707   4.041   5.605   0.854
 4936SOL    HW215708   3.912   5.529   0.920
 4937SOL     OW15709   0.600   2.712   6.174
 4937SOL    HW115710   0.655   2.714   6.090
 4937SOL    HW215711   0.649   2.760   6.246
 4938SOL     OW15712   3.394   4.649   1.668
 4938SOL    HW115713   3.468   4.669   1.734
 4938SOL    HW215714   3.418   4.568   1.615
 4939SOL     OW15715   1.921   1.669   1.974
 4939SOL    HW115716   1.863   1.594   1.942
 4939SOL    HW215717   1.864   1.744   2.008
 4940SOL     OW15718   0.394   2.637   4.613
 4940SOL    HW115719   0.456   2.618   4.689
 4940SOL    HW215720   0.300   2.626   4.643
 4941SOL     OW15721   3.870   2.315   5.325
 4941SOL    HW115722   3.929   2.339   5.403
 4941SOL    HW215723   3.917   2.341   5.240
 4942SOL     OW15724   6.024   1.885   4.021
 4942SOL    HW115725   5.994   1.791   4.040
 4942SOL    HW215726   6.062   1.889   3.928
 4943SOL     OW15727   5.670   3.040   6.648
 4943SOL    HW115728   5.770   3.047   6.656
 4943SOL    HW215729   5.640   2.950   6.681
 4944SOL     OW15730   1.188   5.320   1.102
 4944SOL    HW115731   1.218   5.398   1.047
 4944SOL    HW215732   1.266   5.259   1.118
 4945SOL     OW15733   1.951   1.150   4.960
 4945SOL    HW115734   1.864   1.102   4.948
 4945SOL    HW215735   1.934   1.248   4.967
 4946SOL     OW15736   2.054   5.282   6.992
 4946SOL    HW115737   2.016   5.330   0.052
 4946SOL    HW215738   2.028   5.186   6.995
 4947SOL     OW15739   1.808   0.885   1.772
 4947SOL    HW115740   1.820   0.815   1.843
 4947SOL    HW215741   1.897   0.921   1.745
 4948SOL     OW15742   1.432   2.309   1.922
 4948SOL    HW115743   1.445   2.388   1.982
 4948SOL    HW215744   1.337   2.279   1.928
 4949SOL     OW15745   6.973   4.062   0.462
 4949SOL    HW115746   7.007   3.969   0.473
 4949SOL    HW215747   6.874   4.059   0.446
 4950SOL     OW15748   2.117   3.971   5.231
 4950SOL    HW115749   2.113   4.014   5.321
 4950SOL    HW215750   2.201   4.000   5.185
 4951SOL     OW15751   4.736   5.797   3.532
 4951SOL    HW115752   4.740   5.775   3.435
 4951SOL    HW215753   4.824   5.833   3.563
 4952SOL     OW15754   0.492   6.564   5.914
 4952SOL    HW115755   0.452   6.655   5.905
 4952SOL    HW215756   0.426   6.502   5.956
 4953SOL     OW15757   1.099   2.117   4.752
 4953SOL    HW115758   1.086   2.049   4.824
 4953SOL    HW215759   1.108   2.208   4.793
 4954SOL     OW15760   3.255   4.034   4.765
 4954SOL    HW115761   3.167   3.985   4.770
 4954SOL    HW215762   3.326   3.979   4.809
 4955SOL     OW15763   3.298   5.660   6.991
 4955SOL    HW115764   3.289   5.562   6.978
 4955SOL    HW215765   3.303   5.681   0.070
 4956SOL     OW15766   2.478   6.976   4.874
 4956SOL    HW115767   2.476   0.031   4.941
 4956SOL    HW215768   2.385   6.948   4.853
 4957SOL     OW15769   6.154   4.377   0.289
 4957SOL    HW115770   6.096   4.297   0.279
 4957SOL    HW215771   6.238   4.351   0.338
 4958SOL     OW15772   2.997   6.391   0.276
 4958SOL    HW115773   2.948   6.432   0.353
 4958SOL    HW215774   2.936   6.385   0.197
 4959SOL     OW15775   0.779   3.378   2.311
 4959SOL    HW115776   0.813   3.469   2.288
 4959SOL    HW215777   0.856   3.320   2.339
 4960SOL     OW15778   3.995   5.869   4.162
 4960SOL    HW115779   3.985   5.965   4.136
 4960SOL    HW215780   4.091   5.851   4.183
 4961SOL     OW15781   3.806   0.980   0.588
 4961SOL    HW115782   3.861   1.003   0.669
 4961SOL    HW215783   3.709   0.986   0.611
 4962SOL     OW15784   0.995   4.225   1.076
 4962SOL    HW115785   1.024   4.167   1.151
 4962SOL    HW215786   1.063   4.297   1.061
 4963SOL     OW15787   0.961   4.058   6.073
 4963SOL    HW115788   0.928   4.124   6.140
 4963SOL    HW215789   0.924   3.967   6.094
 4964SOL     OW15790   2.846   6.862   4.608
 4964SOL    HW115791   2.757   6.889   4.570
 4964SOL    HW215792   2.900   6.943   4.627
 4965SOL     OW15793   1.481   6.127   2.740
 4965SOL    HW115794   1.441   6.152   2.652
 4965SOL    HW215795   1.411   6.132   2.811
 4966SOL     OW15796   3.658   6.301   4.634
 4966SOL    HW115797   3.623   6.389   4.666
 4966SOL    HW215798   3.601   6.267   4.559
 4967SOL     OW15799   4.251   4.783   4.996
 4967SOL    HW115800   4.326   4.844   5.024
 4967SOL    HW215801   4.286   4.690   4.986
 4968SOL     OW15802   6.884   1.605   3.657
 4968SOL    HW115803   6.951   1.536   3.682
 4968SOL    HW215804   6.797   1.561   3.635
 4969SOL     OW15805   0.723   5.849   2.977
 4969SOL    HW115806   0.747   5.760   2.936
 4969SOL    HW215807   0.623   5.857   2.983
 4970SOL     OW15808   1.434   1.218   1.665
 4970SOL    HW115809   1.417   1.314   1.686
 4970SOL    HW215810   1.347   1.170   1.655
 4971SOL     OW15811   6.847   6.328   2.939
 4971SOL    HW115812   6.794   6.401   2.895
 4971SOL    HW215813   6.866   6.353   3.034
 4972SOL     OW15814   1.838   4.242   1.261
 4972SOL    HW115815   1.779   4.282   1.191
 4972SOL    HW215816   1.846   4.143   1.246
 4973SOL     OW15817   6.847   0.395   0.999
 4973SOL    HW115818   6.767   0.409   1.057
 4973SOL    HW215819   6.920   0.457   1.027
 4974SOL     OW15820   3.726   4.936   5.354
 4974SOL    HW115821   3.695   4.922   5.259
 4974SOL    HW215822   3.813   4.984   5.354
 4975SOL     OW15823   6.028   3.507   0.836
 4975SOL    HW115824   5.967   3.436   0.800
 4975SOL    HW215825   5.979   3.595   0.836
 4976SOL     OW15826   1.450   0.077   4.601
 4976SOL    HW115827   1.386   0.143   4.562
 4976SOL    HW215828   1.528   0.065   4.539
 4977SOL     OW15829   2.603   4.987   6.283
 4977SOL    HW115830   2.593   4.895   6.246
 4977SOL    HW215831   2.579   4.987   6.380
 4978SOL     OW15832   5.137   4.720   5.004
 4978SOL    HW115833   5.179   4.651   4.944
 4978SOL    HW215834   5.208   4.776   5.045
 4979SOL     OW15835   1.767   6.728   6.375
 4979SOL    HW115836   1.697   6.709   6.307
 4979SOL    HW215837   1.857   6.720   6.334
 4980SOL     OW15838   6.057   4.257   2.712
 4980SOL    HW115839   5.959   4.259   2.691
 4980SOL    HW215840   6.107   4.220   2.634
 4981SOL     OW15841   3.478   4.941   1.817
 4981SOL    HW115842   3.515   4.914   1.728
 4981SOL    HW215843   3.510   4.878   1.887
 4982SOL     OW15844   4.824   1.216   6.376
 4982SOL    HW115845   4.904   1.214   6.316
 4982SOL    HW215846   4.741   1.214   6.321
 4983SOL     OW15847   6.890   5.232   2.860
 4983SOL    HW115848   6.937   5.306   2.812
 4983SOL    HW215849   6.901   5.147   2.809
 4984SOL     OW15850   5.256   4.570   2.992
 4984SOL    HW115851   5.247   4.605   2.899
 4984SOL    HW215852   5.183   4.504   3.010
 4985SOL     OW15853   5.997   5.519   2.920
 4985SOL    HW115854   6.030   5.478   3.005
 4985SOL    HW215855   5.966   5.612   2.937
 4986SOL     OW15856   1.108   5.074   2.377
 4986SOL    HW115857   1.204   5.098   2.392
 4986SOL    HW215858   1.099   4.975   2.366
 4987SOL     OW15859   0.483   0.531   2.234
 4987SOL    HW115860   0.494   0.560   2.139
 4987SOL    HW215861   0.398   0.566   2.271
 4988SOL     OW15862   5.929   0.260   3.426
 4988SOL    HW115863   6.001   0.225   3.485
 4988SOL    HW215864   5.888   0.185   3.374
 4989SOL     OW15865   4.117   1.221   2.735
 4989SOL    HW115866   4.064   1.148   2.776
 4989SOL    HW215867   4.079   1.244   2.645
 4990SOL     OW15868   4.480   1.672   5.430
 4990SOL    HW115869   4.499   1.765   5.463
 4990SOL    HW215870   4.463   1.613   5.509
 4991SOL     OW15871   1.127   5.423   5.072
 4991SOL    HW115872   1.126   5.518   5.039
 4991SOL    HW215873   1.089   5.419   5.164
 4992SOL     OW15874   0.132   1.549   3.524
 4992SOL    HW115875   0.051   1.534   3.467
 4992SOL    HW215876   0.139   1.477   3.592
 4993SOL     OW15877   4.195   6.549   4.787
 4993SOL    HW115878   4.260   6.575   4.716
 4993SOL    HW215879   4.112   6.512   4.745
 4994SOL     OW15880   3.051   5.186   6.096
 4994SOL    HW115881   2.978   5.125   6.068
 4994SOL    HW215882   3.045   5.272   6.046
 4995SOL     OW15883   0.950   0.492   5.070
 4995SOL    HW115884   0.896   0.488   4.986
 4995SOL    HW215885   0.902   0.443   5.143
 4996SOL     OW15886   6.756   1.092   4.751
 4996SOL    HW115887   6.720   1.096   4.844
 4996SOL    HW215888   6.703   1.026   4.698
 4997SOL     OW15889   3.397   2.043   1.647
 4997SOL    HW115890   3.410   2.071   1.551
 4997SOL    HW215891   3.480   2.065   1.699
 4998SOL     OW15892   1.087   3.318   4.099
 4998SOL    HW115893   1.155   3.291   4.030
 4998SOL    HW215894   0.997   3.325   4.055
 4999SOL     OW15895   0.646   3.615   4.724
 4999SOL    HW115896   0.710   3.593   4.651
 4999SOL    HW215897   0.631   3.533   4.781
 5000SOL     OW15898   2.732   5.318   3.707
 5000SOL    HW115899   2.745   5.284   3.614
 5000SOL    HW215900   2.815   5.301   3.760
 5001SOL     OW15901   0.917   5.255   2.464
 5001SOL    HW115902   0.933   5.348   2.496
 5001SOL    HW215903   1.002   5.217   2.428
 5002SOL     OW15904   0.752   3.889   3.197
 5002SOL    HW115905   0.708   3.885   3.107
 5002SOL    HW215906   0.685   3.920   3.265
 5003SOL     OW15907   4.277   6.534   3.713
 5003SOL    HW115908   4.367   6.555   3.751
 5003SOL    HW215909   4.267   6.435   3.704
 5004SOL     OW15910   2.708   5.938   6.113
 5004SOL    HW115911   2.797   5.955   6.072
 5004SOL    HW215912   2.700   5.988   6.200
 5005SOL     OW15913   2.954   2.795   6.182
 5005SOL    HW115914   2.961   2.769   6.278
 5005SOL    HW215915   3.005   2.732   6.125
 5006SOL     OW15916   5.526   1.703   1.837
 5006SOL    HW115917   5.529   1.622   1.896
 5006SOL    HW215918   5.564   1.782   1.886
 5007SOL     OW15919   6.048   0.276   2.059
 5007SOL    HW115920   6.111   0.216   2.009
 5007SOL    HW215921   5.965   0.289   2.005
 5008SOL     OW15922   6.198   6.575   1.637
 5008SOL    HW115923   6.168   6.509   1.705
 5008SOL    HW215924   6.121   6.633   1.610
 5009SOL     OW15925   0.999   2.364   0.238
 5009SOL    HW115926   0.937   2.442   0.241
 5009SOL    HW215927   1.094   2.396   0.242
 5010SOL     OW15928   4.112   2.806   0.581
 5010SOL    HW115929   4.085   2.809   0.485
 5010SOL    HW215930   4.039   2.845   0.637
 5011SOL     OW15931   2.105   3.818   6.740
 5011SOL    HW115932   2.042   3.775   6.805
 5011SOL    HW215933   2.193   3.834   6.784
 5012SOL     OW15934   5.730   1.602   5.161
 5012SOL    HW115935   5.775   1.662   5.227
 5012SOL    HW215936   5.655   1.552   5.206
 5013SOL     OW15937   5.841   0.182   5.799
 5013SOL    HW115938   5.748   0.219   5.804
 5013SOL    HW215939   5.840   0.086   5.829
 5014SOL     OW15940   6.417   3.452   1.709
 5014SOL    HW115941   6.498   3.416   1.755
 5014SOL    HW215942   6.403   3.403   1.623
 5015SOL     OW15943   5.599   0.085   3.957
 5015SOL    HW115944   5.535   0.008   3.946
 5015SOL    HW215945   5.669   0.060   4.024
 5016SOL     OW15946   1.218   3.285   4.942
 5016SOL    HW115947   1.310   3.302   4.906
 5016SOL    HW215948   1.161   3.244   4.871
 5017SOL     OW15949   0.396   2.365   1.365
 5017SOL    HW115950   0.342   2.421   1.302
 5017SOL    HW215951   0.338   2.295   1.407
 5018SOL     OW15952   0.680   5.915   1.668
 5018SOL    HW115953   0.638   5.889   1.581
 5018SOL    HW215954   0.631   5.870   1.743
 5019SOL     OW15955   1.471   5.199   5.162
 5019SOL    HW115956   1.482   5.112   5.210
 5019SOL    HW215957   1.419   5.262   5.220
 5020SOL     OW15958   0.276   6.586   4.295
 5020SOL    HW115959   0.261   6.657   4.364
 5020SOL    HW215960   0.374   6.573   4.281
 5021SOL     OW15961   2.010   0.819   0.980
 5021SOL    HW115962   1.941   0.886   1.010
 5021SOL    HW215963   1.966   0.730   0.966
 5022SOL     OW15964   0.508   3.135   1.407
 5022SOL    HW115965   0.547   3.192   1.335
 5022SOL    HW215966   0.420   3.173   1.435
 5023SOL     OW15967   0.717   4.563   2.213
 5023SOL    HW115968   0.741   4.507   2.134
 5023SOL    HW215969   0.663   4.642   2.183
 5024SOL     OW15970   5.380   3.893   1.479
 5024SOL    HW115971   5.283   3.875   1.492
 5024SOL    HW215972   5.406   3.874   1.384
 5025SOL     OW15973   3.915   1.273   3.509
 5025SOL    HW115974   3.931   1.328   3.591
 5025SOL    HW215975   3.870   1.329   3.440
 5026SOL     OW15976   6.274   6.233   5.012
 5026SOL    HW115977   6.241   6.158   5.069
 5026SOL    HW215978   6.348   6.281   5.059
 5027SOL     OW15979   5.336   0.579   0.066
 5027SOL    HW115980   5.329   0.677   0.082
 5027SOL    HW215981   5.399   0.538   0.132
 5028SOL     OW15982   6.924   2.446   2.811
 5028SOL    HW115983   7.009   2.496   2.825
 5028SOL    HW215984   6.850   2.511   2.792
 5029SOL     OW15985   6.238   2.249   2.192
 5029SOL    HW115986   6.191   2.198   2.265
 5029SOL    HW215987   6.260   2.341   2.225
 5030SOL     OW15988   0.048   5.255   6.718
 5030SOL    HW115989   0.073   5.186   6.786
 5030SOL    HW215990   0.109   5.247   6.639
 5031SOL     OW15991   6.918   0.598   5.385
 5031SOL    HW115992   6.870   0.666   5.330
 5031SOL    HW215993   6.852   0.544   5.436
 5032SOL     OW15994   3.554   2.845   5.371
 5032SOL    HW115995   3.481   2.854   5.304
 5032SOL    HW215996   3.636   2.810   5.325
 5033SOL     OW15997   2.275   1.222   0.795
 5033SOL    HW115998   2.201   1.285   0.771
 5033SOL    HW215999   2.241   1.128   0.792
 5034SOL     OW16000   4.611   6.283   4.087
 5034SOL    HW116001   4.668   6.353   4.129
 5034SOL    HW216002   4.550   6.245   4.156
 5035SOL     OW16003   0.584   4.540   4.454
 5035SOL    HW116004   0.585   4.460   4.515
 5035SOL    HW216005   0.497   4.588   4.464
 5036SOL     OW16006   6.628   3.356   5.205
 5036SOL    HW116007   6.643   3.361   5.304
 5036SOL    HW216008   6.545   3.406   5.181
 5037SOL     OW16009   4.649   4.571   1.004
 5037SOL    HW116010   4.667   4.553   0.907
 5037SOL    HW216011   4.601   4.494   1.044
 5038SOL     OW16012   3.297   3.444   4.087
 5038SOL    HW116013   3.396   3.449   4.101
 5038SOL    HW216014   3.276   3.387   4.008
 5039SOL     OW16015   2.061   2.967   6.134
 5039SOL    HW116016   2.045   2.888   6.193
 5039SOL    HW216017   2.076   3.049   6.190
 5040SOL     OW16018   1.112   5.150   5.759
 5040SOL    HW116019   1.107   5.246   5.788
 5040SOL    HW216020   1.026   5.104   5.782
 5041SOL     OW16021   0.617   3.440   1.923
 5041SOL    HW116022   0.676   3.510   1.964
 5041SOL    HW216023   0.527   3.441   1.966
 5042SOL     OW16024   0.088   3.510   5.932
 5042SOL    HW116025   0.022   3.519   5.857
 5042SOL    HW216026   0.155   3.439   5.909
 5043SOL     OW16027   4.365   0.582   0.513
 5043SOL    HW116028   4.363   0.676   0.546
 5043SOL    HW216029   4.276   0.539   0.529
 5044SOL     OW16030   6.784   5.285   0.852
 5044SOL    HW116031   6.692   5.316   0.873
 5044SOL    HW216032   6.789   5.256   0.756
 5045SOL     OW16033   6.101   4.000   6.388
 5045SOL    HW116034   6.020   4.055   6.408
 5045SOL    HW216035   6.132   4.019   6.295
 5046SOL     OW16036   3.340   3.285   3.851
 5046SOL    HW116037   3.282   3.341   3.792
 5046SOL    HW216038   3.411   3.240   3.796
 5047SOL     OW16039   1.830   3.659   3.109
 5047SOL    HW116040   1.788   3.748   3.126
 5047SOL    HW216041   1.767   3.603   3.055
 5048SOL     OW16042   1.526   1.448   5.830
 5048SOL    HW116043   1.582   1.530   5.838
 5048SOL    HW216044   1.584   1.371   5.803
 5049SOL     OW16045   6.304   0.427   6.301
 5049SOL    HW116046   6.260   0.413   6.213
 5049SOL    HW216047   6.255   0.498   6.352
 5050SOL     OW16048   1.903   0.944   0.331
 5050SOL    HW116049   1.828   0.976   0.273
 5050SOL    HW216050   1.972   1.016   0.339
 5051SOL     OW16051   3.738   4.510   1.240
 5051SOL    HW116052   3.718   4.424   1.192
 5051SOL    HW216053   3.796   4.490   1.319
 5052SOL     OW16054   3.196   1.896   5.402
 5052SOL    HW116055   3.284   1.850   5.396
 5052SOL    HW216056   3.207   1.994   5.384
 5053SOL     OW16057   0.352   5.146   2.497
 5053SOL    HW116058   0.358   5.052   2.464
 5053SOL    HW216059   0.433   5.168   2.551
 5054SOL     OW16060   3.923   4.651   5.313
 5054SOL    HW116061   3.935   4.736   5.263
 5054SOL    HW216062   3.848   4.599   5.272
 5055SOL     OW16063   6.456   3.301   6.230
 5055SOL    HW116064   6.522   3.312   6.305
 5055SOL    HW216065   6.473   3.370   6.160
 5056SOL     OW16066   5.114   3.726   5.255
 5056SOL    HW116067   5.079   3.757   5.166
 5056SOL    HW216068   5.133   3.806   5.313
 5057SOL     OW16069   0.979   6.677   2.137
 5057SOL    HW116070   1.005   6.765   2.096
 5057SOL    HW216071   0.950   6.614   2.065
 5058SOL     OW16072   2.829   5.042   6.638
 5058SOL    HW116073   2.754   5.042   6.573
 5058SOL    HW216074   2.865   4.949   6.647
 5059SOL     OW16075   0.668   0.534   2.833
 5059SOL    HW116076   0.594   0.516   2.899
 5059SOL    HW216077   0.631   0.530   2.740
 5060SOL     OW16078   6.400   1.763   6.183
 5060SOL    HW116079   6.339   1.788   6.108
 5060SOL    HW216080   6.437   1.672   6.167
 5061SOL     OW16081   4.717   3.130   0.129
 5061SOL    HW116082   4.640   3.067   0.131
 5061SOL    HW216083   4.717   3.185   0.213
 5062SOL     OW16084   0.638   0.134   1.182
 5062SOL    HW116085   0.640   0.167   1.088
 5062SOL    HW216086   0.680   0.201   1.242
 5063SOL     OW16087   0.906   6.962   2.028
 5063SOL    HW116088   0.872   6.987   2.118
 5063SOL    HW216089   0.835   6.912   1.978
 5064SOL     OW16090   4.593   3.169   0.503
 5064SOL    HW116091   4.631   3.079   0.522
 5064SOL    HW216092   4.625   3.234   0.572
 5065SOL     OW16093   2.578   6.783   5.364
 5065SOL    HW116094   2.598   6.686   5.383
 5065SOL    HW216095   2.493   6.789   5.312
 5066SOL     OW16096   5.666   4.648   1.576
 5066SOL    HW116097   5.573   4.621   1.601
 5066SOL    HW216098   5.679   4.635   1.478
 5067SOL     OW16099   5.180   1.051   0.523
 5067SOL    HW116100   5.143   1.108   0.596
 5067SOL    HW216101   5.132   0.964   0.521
 5068SOL     OW16102   3.184   4.764   0.553
 5068SOL    HW116103   3.270   4.745   0.601
 5068SOL    HW216104   3.113   4.783   0.621
 5069SOL     OW16105   0.805   4.837   2.777
 5069SOL    HW116106   0.731   4.897   2.746
 5069SOL    HW216107   0.807   4.756   2.719
 5070SOL     OW16108   4.916   3.282   4.107
 5070SOL    HW116109   4.880   3.375   4.118
 5070SOL    HW216110   4.880   3.243   4.023
 5071SOL     OW16111   4.044   1.980   5.899
 5071SOL    HW116112   3.961   2.034   5.905
 5071SOL    HW216113   4.109   2.024   5.838
 5072SOL     OW16114   0.460   4.572   0.947
 5072SOL    HW116115   0.445   4.594   1.043
 5072SOL    HW216116   0.374   4.582   0.897
 5073SOL     OW16117   6.208   6.716   2.191
 5073SOL    HW116118   6.177   6.798   2.239
 5073SOL    HW216119   6.143   6.694   2.118
 5074SOL     OW16120   2.795   4.164   6.776
 5074SOL    HW116121   2.881   4.205   6.745
 5074SOL    HW216122   2.725   4.175   6.705
 5075SOL     OW16123   0.571   5.363   5.325
 5075SOL    HW116124   0.594   5.365   5.227
 5075SOL    HW216125   0.478   5.328   5.336
 5076SOL     OW16126   3.123   0.659   0.747
 5076SOL    HW116127   3.136   0.564   0.719
 5076SOL    HW216128   3.061   0.662   0.826
 5077SOL     OW16129   1.521   2.695   3.494
 5077SOL    HW116130   1.462   2.743   3.559
 5077SOL    HW216131   1.598   2.654   3.543
 5078SOL     OW16132   1.486   2.149   4.385
 5078SOL    HW116133   1.434   2.199   4.454
 5078SOL    HW216134   1.437   2.152   4.298
 5079SOL     OW16135   3.416   4.962   5.715
 5079SOL    HW116136   3.379   4.996   5.628
 5079SOL    HW216137   3.502   5.009   5.735
 5080SOL     OW16138   5.804   6.380   5.369
 5080SOL    HW116139   5.727   6.360   5.429
 5080SOL    HW216140   5.809   6.479   5.353
 5081SOL     OW16141   3.418   3.552   3.107
 5081SOL    HW116142   3.389   3.622   3.042
 5081SOL    HW216143   3.481   3.591   3.174
 5082SOL     OW16144   5.457   5.927   5.783
 5082SOL    HW116145   5.441   5.973   5.870
 5082SOL    HW216146   5.546   5.881   5.785
 5083SOL     OW16147   1.577   6.618   1.737
 5083SOL    HW116148   1.509   6.545   1.745
 5083SOL    HW216149   1.666   6.583   1.766
 5084SOL     OW16150   1.158   5.580   3.898
 5084SOL    HW116151   1.155   5.484   3.926
 5084SOL    HW216152   1.233   5.626   3.946
 5085SOL     OW16153   5.784   1.432   6.732
 5085SOL    HW116154   5.819   1.524   6.715
 5085SOL    HW216155   5.757   1.424   6.828
 5086SOL     OW16156   6.540   4.823   3.592
 5086SOL    HW116157   6.536   4.793   3.497
 5086SOL    HW216158   6.495   4.755   3.650
 5087SOL     OW16159   6.522   5.906   5.065
 5087SOL    HW116160   6.593   5.836   5.069
 5087SOL    HW216161   6.528   5.955   4.978
 5088SOL     OW16162   6.301   0.494   5.672
 5088SOL    HW116163   6.317   0.482   5.574
 5088SOL    HW216164   6.209   0.465   5.695
 5089SOL     OW16165   5.688   3.379   2.941
 5089SOL    HW116166   5.768   3.319   2.946
 5089SOL    HW216167   5.609   3.328   2.907
 5090SOL     OW16168   1.628   5.051   1.480
 5090SOL    HW116169   1.550   5.081   1.535
 5090SOL    HW216170   1.603   4.969   1.428
 5091SOL     OW16171   1.037   6.149   2.288
 5091SOL    HW116172   1.100   6.196   2.225
 5091SOL    HW216173   1.029   6.203   2.372
 5092SOL     OW16174   3.349   2.089   0.647
 5092SOL    HW116175   3.387   2.002   0.615
 5092SOL    HW216176   3.423   2.157   0.653
 5093SOL     OW16177   1.420   1.947   2.240
 5093SOL    HW116178   1.377   1.908   2.159
 5093SOL    HW216179   1.484   1.881   2.279
 5094SOL     OW16180   0.663   6.314   5.008
 5094SOL    HW116181   0.671   6.409   4.979
 5094SOL    HW216182   0.754   6.273   5.014
 5095SOL     OW16183   2.386   0.406   5.126
 5095SOL    HW116184   2.348   0.458   5.202
 5095SOL    HW216185   2.472   0.449   5.095
 5096SOL     OW16186   5.080   3.617   1.095
 5096SOL    HW116187   4.992   3.616   1.142
 5096SOL    HW216188   5.125   3.705   1.110
 5097SOL     OW16189   1.849   6.551   5.757
 5097SOL    HW116190   1.801   6.479   5.706
 5097SOL    HW216191   1.841   6.532   5.855
 5098SOL     OW16192   0.193   1.527   2.577
 5098SOL    HW116193   0.096   1.548   2.592
 5098SOL    HW216194   0.249   1.600   2.617
 5099SOL     OW16195   1.443   0.166   5.198
 5099SOL    HW116196   1.361   0.212   5.232
 5099SOL    HW216197   1.438   0.160   5.098
 5100SOL     OW16198   5.488   6.047   0.340
 5100SOL    HW116199   5.549   6.100   0.398
 5100SOL    HW216200   5.482   6.090   0.250
 5101SOL     OW16201   4.228   6.404   6.709
 5101SOL    HW116202   4.283   6.395   6.792
 5101SOL    HW216203   4.174   6.321   6.696
 5102SOL     OW16204   4.082   7.016   5.031
 5102SOL    HW116205   3.991   7.000   4.992
 5102SOL    HW216206   4.126   0.073   4.982
 5103SOL     OW16207   0.273   0.289   3.980
 5103SOL    HW116208   0.284   0.288   3.880
 5103SOL    HW216209   0.318   0.370   4.017
 5104SOL     OW16210   1.537   0.618   2.054
 5104SOL    HW116211   1.491   0.674   1.985
 5104SOL    HW216212   1.567   0.677   2.129
 5105SOL     OW16213   3.688   3.910   6.382
 5105SOL    HW116214   3.769   3.897   6.324
 5105SOL    HW216215   3.645   3.997   6.359
 5106SOL     OW16216   3.514   0.134   2.408
 5106SOL    HW116217   3.544   0.209   2.467
 5106SOL    HW216218   3.524   0.047   2.456
 5107SOL     OW16219   2.468   0.108   6.337
 5107SOL    HW116220   2.541   0.092   6.270
 5107SOL    HW216221   2.413   0.187   6.308
 5108SOL     OW16222   2.971   3.817   4.045
 5108SOL    HW116223   2.918   3.889   4.000
 5108SOL    HW216224   2.958   3.821   4.144
 5109SOL     OW16225   0.331   1.170   1.159
 5109SOL    HW116226   0.333   1.072   1.136
 5109SOL    HW216227   0.385   1.185   1.241
 5110SOL     OW16228   2.016   5.748   5.630
 5110SOL    HW116229   1.923   5.780   5.611
 5110SOL    HW216230   2.013   5.676   5.700
 5111SOL     OW16231   1.480   1.161   0.104
 5111SOL    HW116232   1.469   1.179   0.006
 5111SOL    HW216233   1.394   1.129   0.142
 5112SOL     OW16234   0.617   6.063   3.942
 5112SOL    HW116235   0.523   6.033   3.928
 5112SOL    HW216236   0.662   6.002   4.007
 5113SOL     OW16237   1.321   0.550   0.123
 5113SOL    HW116238   1.376   0.597   0.054
 5113SOL    HW216239   1.257   0.489   0.076
 5114SOL     OW16240   3.655   4.859   6.885
 5114SOL    HW116241   3.623   4.803   6.809
 5114SOL    HW216242   3.618   4.952   6.877
 5115SOL     OW16243   1.662   3.598   5.437
 5115SOL    HW116244   1.614   3.637   5.516
 5115SOL    HW216245   1.707   3.513   5.464
 5116SOL     OW16246   6.211   5.017   0.191
 5116SOL    HW116247   6.290   4.990   0.136
 5116SOL    HW216248   6.136   4.953   0.175
 5117SOL     OW16249   2.352   4.352   4.784
 5117SOL    HW116250   2.277   4.340   4.848
 5117SOL    HW216251   2.435   4.311   4.821
 5118SOL     OW16252   4.153   5.933   0.081
 5118SOL    HW116253   4.188   6.026   0.083
 5118SOL    HW216254   4.220   5.871   0.121
 5119SOL     OW16255   6.070   0.905   2.023
 5119SOL    HW116256   6.054   0.819   2.071
 5119SOL    HW216257   6.016   0.978   2.066
 5120SOL     OW16258   5.036   1.609   2.505
 5120SOL    HW116259   5.063   1.635   2.412
 5120SOL    HW216260   4.958   1.665   2.533
 5121SOL     OW16261   0.034   3.268   5.481
 5121SOL    HW116262   0.067   3.284   5.388
 5121SOL    HW216263   0.041   3.171   5.502
 5122SOL     OW16264   2.136   7.005   3.500
 5122SOL    HW116265   2.088   0.073   3.490
 5122SOL    HW216266   2.222   0.001   3.549
 5123SOL     OW16267   4.750   4.198   2.742
 5123SOL    HW116268   4.751   4.239   2.651
 5123SOL    HW216269   4.688   4.250   2.801
 5124SOL     OW16270   2.984   6.337   6.710
 5124SOL    HW116271   3.038   6.339   6.625
 5124SOL    HW216272   3.038   6.375   6.785
 5125SOL     OW16273   7.015   3.001   4.321
 5125SOL    HW116274   0.093   2.977   4.316
 5125SOL    HW216275   6.977   3.009   4.229
 5126SOL     OW16276   6.284   4.650   6.264
 5126SOL    HW116277   6.258   4.719   6.198
 5126SOL    HW216278   6.368   4.604   6.233
 5127SOL     OW16279   5.748   3.337   6.802
 5127SOL    HW116280   5.664   3.335   6.748
 5127SOL    HW216281   5.823   3.369   6.744
 5128SOL     OW16282   6.982   0.534   6.826
 5128SOL    HW116283   6.931   0.601   6.880
 5128SOL    HW216284   7.004   0.455   6.882
 5129SOL     OW16285   4.542   1.772   2.127
 5129SOL    HW116286   4.454   1.784   2.080
 5129SOL    HW216287   4.541   1.686   2.177
 5130SOL     OW16288   1.359   5.380   3.859
 5130SOL    HW116289   1.320   5.375   3.768
 5130SOL    HW216290   1.357   5.290   3.902
 5131SOL     OW16291   3.325   5.102   3.068
 5131SOL    HW116292   3.402   5.051   3.030
 5131SOL    HW216293   3.359   5.168   3.135
 5132SOL     OW16294   3.962   1.633   0.053
 5132SOL    HW116295   3.883   1.684   0.085
 5132SOL    HW216296   4.029   1.625   0.126
 5133SOL     OW16297   4.117   4.578   6.694
 5133SOL    HW116298   4.097   4.621   6.606
 5133SOL    HW216299   4.214   4.587   6.714
 5134SOL     OW16300   6.702   6.048   1.466
 5134SOL    HW116301   6.799   6.058   1.489
 5134SOL    HW216302   6.685   5.955   1.432
 5135SOL     OW16303   6.064   3.197   1.943
 5135SOL    HW116304   6.160   3.180   1.921
 5135SOL    HW216305   6.014   3.110   1.944
 5136SOL     OW16306   0.640   0.668   6.190
 5136SOL    HW116307   0.650   0.695   6.094
 5136SOL    HW216308   0.619   0.570   6.195
 5137SOL     OW16309   5.335   1.137   5.234
 5137SOL    HW116310   5.391   1.129   5.316
 5137SOL    HW216311   5.255   1.078   5.242
 5138SOL     OW16312   3.521   2.939   4.223
 5138SOL    HW116313   3.510   2.905   4.316
 5138SOL    HW216314   3.441   2.994   4.198
 5139SOL     OW16315   2.028   0.140   4.596
 5139SOL    HW116316   2.035   0.063   4.532
 5139SOL    HW216317   2.037   0.226   4.545
 5140SOL     OW16318   4.541   2.239   6.482
 5140SOL    HW116319   4.498   2.152   6.506
 5140SOL    HW216320   4.491   2.280   6.406
 5141SOL     OW16321   6.288   3.020   2.536
 5141SOL    HW116322   6.284   2.932   2.489
 5141SOL    HW216323   6.360   3.077   2.497
 5142SOL     OW16324   0.202   0.049   2.453
 5142SOL    HW116325   0.232   0.144   2.458
 5142SOL    HW216326   0.251   0.002   2.379
 5143SOL     OW16327   0.569   5.445   3.736
 5143SOL    HW116328   0.556   5.466   3.832
 5143SOL    HW216329   0.567   5.529   3.682
 5144SOL     OW16330   2.596   2.994   6.136
 5144SOL    HW116331   2.678   3.043   6.162
 5144SOL    HW216332   2.575   3.011   6.040
 5145SOL     OW16333   2.892   6.101   6.985
 5145SOL    HW116334   2.955   6.068   0.037
 5145SOL    HW216335   2.941   6.107   6.898
 5146SOL     OW16336   5.449   4.857   6.005
 5146SOL    HW116337   5.479   4.929   6.067
 5146SOL    HW216338   5.431   4.895   5.914
 5147SOL     OW16339   4.733   2.772   3.641
 5147SOL    HW116340   4.690   2.692   3.683
 5147SOL    HW216341   4.829   2.776   3.667
 5148SOL     OW16342   0.359   6.607   0.831
 5148SOL    HW116343   0.456   6.602   0.809
 5148SOL    HW216344   0.348   6.636   0.927
 5149SOL     OW16345   5.273   4.515   3.372
 5149SOL    HW116346   5.362   4.474   3.393
 5149SOL    HW216347   5.211   4.501   3.449
 5150SOL     OW16348   0.341   5.876   3.823
 5150SOL    HW116349   0.319   5.974   3.820
 5150SOL    HW216350   0.268   5.827   3.871
 5151SOL     OW16351   5.872   5.113   1.542
 5151SOL    HW116352   5.821   5.027   1.545
 5151SOL    HW216353   5.815   5.187   1.577
 5152SOL     OW16354   1.154   0.966   6.604
 5152SOL    HW116355   1.092   0.912   6.662
 5152SOL    HW216356   1.170   1.055   6.647
 5153SOL     OW16357   1.267   1.936   1.007
 5153SOL    HW116358   1.266   2.024   0.961
 5153SOL    HW216359   1.176   1.894   1.002
 5154SOL     OW16360   6.940   2.860   6.649
 5154SOL    HW116361   7.018   2.876   6.710
 5154SOL    HW216362   6.867   2.925   6.670
 5155SOL     OW16363   1.801   1.535   0.914
 5155SOL    HW116364   1.798   1.590   0.997
 5155SOL    HW216365   1.711   1.535   0.870
 5156SOL     OW16366   5.221   5.428   5.587
 5156SOL    HW116367   5.234   5.524   5.609
 5156SOL    HW216368   5.197   5.419   5.490
 5157SOL     OW16369   4.152   0.328   1.668
 5157SOL    HW116370   4.157   0.308   1.766
 5157SOL    HW216371   4.102   0.414   1.654
 5158SOL     OW16372   2.780   1.549   2.441
 5158SOL    HW116373   2.767   1.603   2.358
 5158SOL    HW216374   2.702   1.488   2.454
 5159SOL     OW16375   6.353   2.926   5.370
 5159SOL    HW116376   6.396   2.860   5.308
 5159SOL    HW216377   6.288   2.878   5.429
 5160SOL     OW16378   6.672   6.145   3.335
 5160SOL    HW116379   6.681   6.046   3.320
 5160SOL    HW216380   6.661   6.163   3.433
 5161SOL     OW16381   0.984   3.550   0.303
 5161SOL    HW116382   0.989   3.637   0.253
 5161SOL    HW216383   1.069   3.536   0.354
 5162SOL     OW16384   6.799   6.767   2.947
 5162SOL    HW116385   6.879   6.742   3.001
 5162SOL    HW216386   6.768   6.859   2.974
 5163SOL     OW16387   2.961   6.969   2.332
 5163SOL    HW116388   3.060   6.977   2.323
 5163SOL    HW216389   2.934   6.875   2.314
 5164SOL     OW16390   3.458   3.623   0.820
 5164SOL    HW116391   3.473   3.572   0.735
 5164SOL    HW216392   3.513   3.582   0.893
 5165SOL     OW16393   1.331   4.495   0.002
 5165SOL    HW116394   1.359   4.432   6.949
 5165SOL    HW216395   1.308   4.443   0.084
 5166SOL     OW16396   1.709   5.891   1.723
 5166SOL    HW116397   1.796   5.844   1.736
 5166SOL    HW216398   1.708   5.975   1.777
 5167SOL     OW16399   4.781   2.333   5.206
 5167SOL    HW116400   4.811   2.426   5.228
 5167SOL    HW216401   4.756   2.328   5.110
 5168SOL     OW16402   4.441   2.424   2.475
 5168SOL    HW116403   4.381   2.494   2.438
 5168SOL    HW216404   4.427   2.338   2.425
 5169SOL     OW16405   3.942   6.372   3.729
 5169SOL    HW116406   3.898   6.456   3.763
 5169SOL    HW216407   3.872   6.302   3.716
 5170SOL     OW16408   0.848   3.143   6.206
 5170SOL    HW116409   0.936   3.168   6.246
 5170SOL    HW216410   0.776   3.201   6.245
 5171SOL     OW16411   1.748   5.829   5.535
 5171SOL    HW116412   1.700   5.878   5.462
 5171SOL    HW216413   1.716   5.734   5.539
 5172SOL     OW16414   0.004   5.402   3.974
 5172SOL    HW116415   7.015   5.449   3.886
 5172SOL    HW216416   0.083   5.437   4.024
 5173SOL     OW16417   4.537   4.316   5.538
 5173SOL    HW116418   4.573   4.292   5.628
 5173SOL    HW216419   4.456   4.374   5.548
 5174SOL     OW16420   2.486   6.156   3.494
 5174SOL    HW116421   2.415   6.223   3.472
 5174SOL    HW216422   2.545   6.143   3.414
 5175SOL     OW16423   2.807   4.218   0.058
 5175SOL    HW116424   2.888   4.160   0.060
 5175SOL    HW216425   2.782   4.237   6.982
 5176SOL     OW16426   5.464   5.589   0.436
 5176SOL    HW116427   5.533   5.533   0.390
 5176SOL    HW216428   5.442   5.549   0.525
 5177SOL     OW16429   5.510   0.186   6.937
 5177SOL    HW116430   5.593   0.239   6.958
 5177SOL    HW216431   5.503   0.174   6.838
 5178SOL     OW16432   1.078   3.785   1.711
 5178SOL    HW116433   1.120   3.760   1.623
 5178SOL    HW216434   1.144   3.837   1.765
 5179SOL     OW16435   6.042   4.538   2.565
 5179SOL    HW116436   6.074   4.489   2.647
 5179SOL    HW216437   6.112   4.604   2.537
 5180SOL     OW16438   2.237   6.904   2.267
 5180SOL    HW116439   2.251   6.998   2.237
 5180SOL    HW216440   2.325   6.863   2.291
 5181SOL     OW16441   0.914   6.889   6.018
 5181SOL    HW116442   0.832   6.947   6.026
 5181SOL    HW216443   0.892   6.809   5.963
 5182SOL     OW16444   3.617   5.502   3.342
 5182SOL    HW116445   3.557   5.541   3.272
 5182SOL    HW216446   3.712   5.526   3.323
 5183SOL     OW16447   4.538   1.425   3.658
 5183SOL    HW116448   4.443   1.399   3.639
 5183SOL    HW216449   4.539   1.490   3.734
 5184SOL     OW16450   2.557   1.228   3.840
 5184SOL    HW116451   2.495   1.162   3.798
 5184SOL    HW216452   2.532   1.241   3.936
 5185SOL     OW16453   6.043   1.172   1.682
 5185SOL    HW116454   6.063   1.095   1.743
 5185SOL    HW216455   5.967   1.148   1.622
 5186SOL     OW16456   6.668   3.446   6.370
 5186SOL    HW116457   6.758   3.477   6.339
 5186SOL    HW216458   6.625   3.517   6.425
 5187SOL     OW16459   2.134   4.922   5.258
 5187SOL    HW116460   2.222   4.874   5.254
 5187SOL    HW216461   2.096   4.928   5.166
 5188SOL     OW16462   6.126   6.516   2.579
 5188SOL    HW116463   6.053   6.565   2.533
 5188SOL    HW216464   6.197   6.581   2.608
 5189SOL     OW16465   5.116   6.845   6.228
 5189SOL    HW116466   5.196   6.851   6.289
 5189SOL    HW216467   5.039   6.893   6.270
 5190SOL     OW16468   1.716   3.954   1.300
 5190SOL    HW116469   1.660   3.872   1.289
 5190SOL    HW216470   1.697   3.996   1.388
 5191SOL     OW16471   3.061   4.879   2.379
 5191SOL    HW116472   2.991   4.812   2.403
 5191SOL    HW216473   3.140   4.868   2.440
 5192SOL     OW16474   2.184   4.809   2.119
 5192SOL    HW116475   2.143   4.771   2.202
 5192SOL    HW216476   2.231   4.735   2.069
 5193SOL     OW16477   5.569   0.346   6.395
 5193SOL    HW116478   5.514   0.417   6.351
 5193SOL    HW216479   5.652   0.330   6.342
 5194SOL     OW16480   5.044   2.008   6.578
 5194SOL    HW116481   5.135   1.994   6.619
 5194SOL    HW216482   4.975   2.007   6.650
 5195SOL     OW16483   6.915   0.565   4.610
 5195SOL    HW116484   6.918   0.466   4.594
 5195SOL    HW216485   7.009   0.599   4.622
 5196SOL     OW16486   5.385   6.595   2.648
 5196SOL    HW116487   5.342   6.506   2.657
 5196SOL    HW216488   5.482   6.584   2.626
 5197SOL     OW16489   0.959   4.158   5.790
 5197SOL    HW116490   1.047   4.155   5.741
 5197SOL    HW216491   0.970   4.113   5.879
 5198SOL     OW16492   5.462   5.426   2.396
 5198SOL    HW116493   5.400   5.352   2.424
 5198SOL    HW216494   5.549   5.386   2.367
 5199SOL     OW16495   6.874   4.638   1.073
 5199SOL    HW116496   6.939   4.647   1.149
 5199SOL    HW216497   6.806   4.568   1.096
 5200SOL     OW16498   0.496   4.057   5.110
 5200SOL    HW116499   0.535   3.965   5.101
 5200SOL    HW216500   0.526   4.097   5.197
 5201SOL     OW16501   1.589   5.287   4.086
 5201SOL    HW116502   1.601   5.300   3.988
 5201SOL    HW216503   1.541   5.201   4.103
 5202SOL     OW16504   0.202   4.325   0.566
 5202SOL    HW116505   0.247   4.414   0.560
 5202SOL    HW216506   0.190   4.299   0.662
 5203SOL     OW16507   1.530   2.554   6.610
 5203SOL    HW116508   1.614   2.579   6.657
 5203SOL    HW216509   1.521   2.454   6.608
 5204SOL     OW16510   4.302   5.391   7.010
 5204SOL    HW116511   4.351   5.444   6.941
 5204SOL    HW216512   4.218   5.354   6.970
 5205SOL     OW16513   1.469   0.131   1.881
 5205SOL    HW116514   1.537   0.068   1.919
 5205SOL    HW216515   1.410   0.082   1.817
 5206SOL     OW16516   0.692   4.080   6.691
 5206SOL    HW116517   0.707   4.174   6.722
 5206SOL    HW216518   0.728   4.017   6.760
 5207SOL     OW16519   1.637   4.919   3.795
 5207SOL    HW116520   1.731   4.913   3.830
 5207SOL    HW216521   1.603   4.827   3.776
 5208SOL     OW16522   3.960   1.391   6.941
 5208SOL    HW116523   4.013   1.340   7.008
 5208SOL    HW216524   3.945   1.484   6.974
 5209SOL     OW16525   5.436   5.697   2.838
 5209SOL    HW116526   5.509   5.710   2.905
 5209SOL    HW216527   5.354   5.664   2.883
 5210SOL     OW16528   5.249   5.058   4.011
 5210SOL    HW116529   5.320   5.018   3.953
 5210SOL    HW216530   5.173   5.090   3.953
 5211SOL     OW16531   3.788   3.018   3.515
 5211SOL    HW116532   3.732   2.984   3.590
 5211SOL    HW216533   3.881   3.037   3.548
 5212SOL     OW16534   1.108   2.154   0.855
 5212SOL    HW116535   1.144   2.127   0.766
 5212SOL    HW216536   1.040   2.226   0.844
 5213SOL     OW16537   4.812   2.556   5.911
 5213SOL    HW116538   4.720   2.538   5.877
 5213SOL    HW216539   4.855   2.470   5.939
 5214SOL     OW16540   5.211   1.669   6.037
 5214SOL    HW116541   5.118   1.684   6.005
 5214SOL    HW216542   5.268   1.748   6.014
 5215SOL     OW16543   5.007   4.844   2.907
 5215SOL    HW116544   5.005   4.749   2.875
 5215SOL    HW216545   5.103   4.872   2.919
 5216SOL     OW16546   5.014   4.999   0.518
 5216SOL    HW116547   5.106   4.984   0.554
 5216SOL    HW216548   5.017   5.006   0.419
 5217SOL     OW16549   2.911   5.303   3.932
 5217SOL    HW116550   2.862   5.390   3.927
 5217SOL    HW216551   2.969   5.301   4.013
 5218SOL     OW16552   1.478   6.211   3.216
 5218SOL    HW116553   1.467   6.250   3.125
 5218SOL    HW216554   1.459   6.112   3.213
 5219SOL     OW16555   3.351   6.924   6.405
 5219SOL    HW116556   3.421   6.959   6.467
 5219SOL    HW216557   3.366   6.827   6.389
 5220SOL     OW16558   0.571   6.318   2.762
 5220SOL    HW116559   0.517   6.329   2.679
 5220SOL    HW216560   0.610   6.226   2.765
 5221SOL     OW16561   5.002   1.014   4.839
 5221SOL    HW116562   5.100   1.029   4.827
 5221SOL    HW216563   4.954   1.039   4.755
 5222SOL     OW16564   1.977   0.458   3.798
 5222SOL    HW116565   2.070   0.480   3.827
 5222SOL    HW216566   1.977   0.370   3.749
 5223SOL     OW16567   4.464   0.829   1.610
 5223SOL    HW116568   4.459   0.730   1.600
 5223SOL    HW216569   4.502   0.852   1.700
 5224SOL     OW16570   6.285   1.944   2.593
 5224SOL    HW116571   6.247   1.882   2.525
 5224SOL    HW216572   6.346   2.009   2.549
 5225SOL     OW16573   6.156   6.162   4.111
 5225SOL    HW116574   6.251   6.179   4.138
 5225SOL    HW216575   6.111   6.248   4.090
 5226SOL     OW16576   0.952   6.445   4.019
 5226SOL    HW116577   0.953   6.517   4.089
 5226SOL    HW216578   0.857   6.416   4.003
 5227SOL     OW16579   6.206   4.472   3.150
 5227SOL    HW116580   6.164   4.425   3.073
 5227SOL    HW216581   6.218   4.408   3.226
 5228SOL     OW16582   5.655   1.936   0.843
 5228SOL    HW116583   5.589   1.949   0.917
 5228SOL    HW216584   5.632   1.995   0.766
 5229SOL     OW16585   1.249   3.857   5.695
 5229SOL    HW116586   1.209   3.836   5.606
 5229SOL    HW216587   1.306   3.780   5.725
 5230SOL     OW16588   0.294   0.330   0.267
 5230SOL    HW116589   0.265   0.325   0.363
 5230SOL    HW216590   0.266   0.417   0.228
 5231SOL     OW16591   4.088   3.264   3.825
 5231SOL    HW116592   4.071   3.300   3.916
 5231SOL    HW216593   4.112   3.338   3.763
 5232SOL     OW16594   4.523   2.172   0.145
 5232SOL    HW116595   4.478   2.259   0.165
 5232SOL    HW216596   4.564   2.176   0.054
 5233SOL     OW16597   0.244   6.210   2.475
 5233SOL    HW116598   0.244   6.280   2.547
 5233SOL    HW216599   0.183   6.238   2.401
 5234SOL     OW16600   3.447   6.442   0.713
 5234SOL    HW116601   3.419   6.457   0.618
 5234SOL    HW216602   3.392   6.499   0.773
 5235SOL     OW16603   1.193   3.231   0.638
 5235SOL    HW116604   1.288   3.200   0.638
 5235SOL    HW216605   1.134   3.157   0.671
 5236SOL     OW16606   4.877   3.635   1.269
 5236SOL    HW116607   4.886   3.599   1.362
 5236SOL    HW216608   4.837   3.727   1.272
 5237SOL     OW16609   2.366   2.173   5.356
 5237SOL    HW116610   2.407   2.261   5.381
 5237SOL    HW216611   2.290   2.188   5.292
 5238SOL     OW16612   1.831   4.563   0.678
 5238SOL    HW116613   1.864   4.504   0.752
 5238SOL    HW216614   1.873   4.535   0.592
 5239SOL     OW16615   3.280   3.013   3.610
 5239SOL    HW116616   3.207   2.983   3.671
 5239SOL    HW216617   3.317   3.101   3.642
 5240SOL     OW16618   3.310   2.054   5.109
 5240SOL    HW116619   3.265   2.066   5.198
 5240SOL    HW216620   3.268   2.115   5.043
 5241SOL     OW16621   1.336   6.362   6.204
 5241SOL    HW116622   1.247   6.327   6.173
 5241SOL    HW216623   1.362   6.315   6.288
 5242SOL     OW16624   6.054   1.440   5.972
 5242SOL    HW116625   6.028   1.426   6.068
 5242SOL    HW216626   6.136   1.387   5.952
 5243SOL     OW16627   1.167   5.230   0.780
 5243SOL    HW116628   1.154   5.222   0.681
 5243SOL    HW216629   1.191   5.324   0.803
 5244SOL     OW16630   4.484   4.587   5.824
 5244SOL    HW116631   4.384   4.584   5.831
 5244SOL    HW216632   4.511   4.654   5.755
 5245SOL     OW16633   4.742   3.867   6.800
 5245SOL    HW116634   4.745   3.902   6.706
 5245SOL    HW216635   4.674   3.794   6.806
 5246SOL     OW16636   1.081   3.572   2.535
 5246SOL    HW116637   0.987   3.551   2.560
 5246SOL    HW216638   1.109   3.657   2.578
 5247SOL     OW16639   6.931   5.103   0.637
 5247SOL    HW116640   6.975   5.146   0.716
 5247SOL    HW216641   6.943   5.161   0.557
 5248SOL     OW16642   5.312   1.206   5.983
 5248SOL    HW116643   5.254   1.142   5.932
 5248SOL    HW216644   5.259   1.246   6.058
 5249SOL     OW16645   0.903   4.906   5.284
 5249SOL    HW116646   0.934   4.922   5.191
 5249SOL    HW216647   0.825   4.844   5.282
 5250SOL     OW16648   0.314   1.641   6.084
 5250SOL    HW116649   0.300   1.546   6.111
 5250SOL    HW216650   0.407   1.653   6.050
 5251SOL     OW16651   6.162   3.467   1.381
 5251SOL    HW116652   6.077   3.449   1.333
 5251SOL    HW216653   6.182   3.392   1.444
 5252SOL     OW16654   3.743   6.111   0.280
 5252SOL    HW116655   3.716   6.194   0.328
 5252SOL    HW216656   3.672   6.041   0.293
 5253SOL     OW16657   5.791   3.757   4.325
 5253SOL    HW116658   5.696   3.751   4.356
 5253SOL    HW216659   5.807   3.848   4.286
 5254SOL     OW16660   4.208   0.738   4.175
 5254SOL    HW116661   4.162   0.688   4.248
 5254SOL    HW216662   4.253   0.819   4.213
 5255SOL     OW16663   3.048   6.376   5.249
 5255SOL    HW116664   3.088   6.311   5.184
 5255SOL    HW216665   3.085   6.467   5.232
 5256SOL     OW16666   4.937   0.717   3.302
 5256SOL    HW116667   4.977   0.689   3.214
 5256SOL    HW216668   4.967   0.809   3.324
 5257SOL     OW16669   4.001   0.133   0.128
 5257SOL    HW116670   3.912   0.106   0.163
 5257SOL    HW216671   4.012   0.099   0.034
 5258SOL     OW16672   4.824   4.329   2.498
 5258SOL    HW116673   4.818   4.238   2.457
 5258SOL    HW216674   4.801   4.398   2.430
 5259SOL     OW16675   4.314   5.716   3.195
 5259SOL    HW116676   4.237   5.711   3.131
 5259SOL    HW216677   4.295   5.658   3.274
 5260SOL     OW16678   5.540   3.445   1.470
 5260SOL    HW116679   5.534   3.408   1.377
 5260SOL    HW216680   5.595   3.529   1.468
 5261SOL     OW16681   0.547   2.247   4.742
 5261SOL    HW116682   0.454   2.224   4.769
 5261SOL    HW216683   0.552   2.343   4.715
 5262SOL     OW16684   2.780   6.654   2.231
 5262SOL    HW116685   2.866   6.690   2.195
 5262SOL    HW216686   2.712   6.651   2.158
 5263SOL     OW16687   1.595   6.743   6.701
 5263SOL    HW116688   1.558   6.778   6.614
 5263SOL    HW216689   1.690   6.715   6.688
 5264SOL     OW16690   6.913   1.927   1.343
 5264SOL    HW116691   6.946   2.008   1.294
 5264SOL    HW216692   6.965   1.917   1.428
 5265SOL     OW16693   5.672   4.917   2.046
 5265SOL    HW116694   5.695   4.854   2.121
 5265SOL    HW216695   5.604   4.983   2.078
 5266SOL     OW16696   1.480   6.839   1.585
 5266SOL    HW116697   1.513   6.766   1.644
 5266SOL    HW216698   1.539   6.920   1.595
 5267SOL     OW16699   4.908   5.188   4.930
 5267SOL    HW116700   4.994   5.233   4.905
 5267SOL    HW216701   4.858   5.247   4.993
 5268SOL     OW16702   6.514   5.568   5.379
 5268SOL    HW116703   6.475   5.659   5.366
 5268SOL    HW216704   6.613   5.573   5.371
 5269SOL     OW16705   2.023   5.412   4.055
 5269SOL    HW116706   1.983   5.494   4.095
 5269SOL    HW216707   2.120   5.426   4.039
 5270SOL     OW16708   5.978   2.948   1.953
 5270SOL    HW116709   5.971   2.894   2.037
 5270SOL    HW216710   5.964   2.888   1.874
 5271SOL     OW16711   4.983   4.962   5.090
 5271SOL    HW116712   4.938   5.017   5.019
 5271SOL    HW216713   5.040   4.893   5.046
 5272SOL     OW16714   7.014   6.535   4.239
 5272SOL    HW116715   0.093   6.541   4.259
 5272SOL    HW216716   7.001   6.507   4.144
 5273SOL     OW16717   0.521   1.329   4.098
 5273SOL    HW116718   0.468   1.404   4.138
 5273SOL    HW216719   0.488   1.312   4.005
 5274SOL     OW16720   6.921   4.750   4.057
 5274SOL    HW116721   7.019   4.773   4.063
 5274SOL    HW216722   6.892   4.752   3.962
 5275SOL     OW16723   2.575   0.180   6.810
 5275SOL    HW116724   2.501   0.246   6.821
 5275SOL    HW216725   2.624   0.171   6.897
 5276SOL     OW16726   6.640   6.852   1.735
 5276SOL    HW116727   6.693   6.879   1.655
 5276SOL    HW216728   6.553   6.812   1.706
 5277SOL     OW16729   1.174   1.683   3.050
 5277SOL    HW116730   1.204   1.676   3.145
 5277SOL    HW216731   1.080   1.717   3.048
 5278SOL     OW16732   0.396   5.614   5.716
 5278SOL    HW116733   0.438   5.534   5.759
 5278SOL    HW216734   0.332   5.583   5.645
 5279SOL     OW16735   1.659   5.539   6.010
 5279SOL    HW116736   1.628   5.634   6.018
 5279SOL    HW216737   1.736   5.524   6.072
 5280SOL     OW16738   3.713   5.833   4.770
 5280SOL    HW116739   3.714   5.737   4.743
 5280SOL    HW216740   3.636   5.850   4.831
 5281SOL     OW16741   1.648   0.715   4.397
 5281SOL    HW116742   1.654   0.814   4.383
 5281SOL    HW216743   1.710   0.669   4.335
 5282SOL     OW16744   1.538   0.333   2.475
 5282SOL    HW116745   1.466   0.342   2.407
 5282SOL    HW216746   1.605   0.265   2.445
 5283SOL     OW16747   6.993   0.927   3.932
 5283SOL    HW116748   6.971   0.847   3.988
 5283SOL    HW216749   6.932   1.002   3.958
 5284SOL     OW16750   5.623   1.900   2.016
 5284SOL    HW116751   5.586   1.984   1.978
 5284SOL    HW216752   5.631   1.909   2.116
 5285SOL     OW16753   1.032   3.111   3.653
 5285SOL    HW116754   1.025   3.016   3.685
 5285SOL    HW216755   1.115   3.122   3.598
 5286SOL     OW16756   6.517   3.049   0.827
 5286SOL    HW116757   6.548   3.052   0.921
 5286SOL    HW216758   6.554   2.967   0.782
 5287SOL     OW16759   3.413   5.116   1.407
 5287SOL    HW116760   3.370   5.192   1.456
 5287SOL    HW216761   3.488   5.150   1.351
 5288SOL     OW16762   5.162   0.162   2.131
 5288SOL    HW116763   5.105   0.201   2.059
 5288SOL    HW216764   5.121   0.182   2.220
 5289SOL     OW16765   1.783   5.179   6.618
 5289SOL    HW116766   1.748   5.086   6.622
 5289SOL    HW216767   1.725   5.234   6.557
 5290SOL     OW16768   1.802   3.838   5.681
 5290SOL    HW116769   1.825   3.823   5.585
 5290SOL    HW216770   1.702   3.836   5.692
 5291SOL     OW16771   2.809   4.278   5.407
 5291SOL    HW116772   2.869   4.351   5.377
 5291SOL    HW216773   2.859   4.192   5.411
 5292SOL     OW16774   6.693   4.262   6.571
 5292SOL    HW116775   6.719   4.237   6.478
 5292SOL    HW216776   6.774   4.266   6.628
 5293SOL     OW16777   2.350   5.325   4.739
 5293SOL    HW116778   2.412   5.404   4.737
 5293SOL    HW216779   2.390   5.251   4.685
 5294SOL     OW16780   4.144   0.689   5.081
 5294SOL    HW116781   4.092   0.607   5.105
 5294SOL    HW216782   4.152   0.748   5.162
 5295SOL     OW16783   3.216   0.894   2.796
 5295SOL    HW116784   3.126   0.852   2.784
 5295SOL    HW216785   3.274   0.869   2.719
 5296SOL     OW16786   3.734   4.407   0.935
 5296SOL    HW116787   3.759   4.485   0.878
 5296SOL    HW216788   3.812   4.345   0.941
 5297SOL     OW16789   2.558   4.190   0.420
 5297SOL    HW116790   2.655   4.211   0.428
 5297SOL    HW216791   2.504   4.260   0.467
 5298SOL     OW16792   2.639   6.822   0.314
 5298SOL    HW116793   2.696   6.750   0.274
 5298SOL    HW216794   2.644   6.904   0.258
 5299SOL     OW16795   3.077   1.987   0.590
 5299SOL    HW116796   3.168   2.025   0.603
 5299SOL    HW216797   3.083   1.890   0.570
 5300SOL     OW16798   1.461   4.606   0.428
 5300SOL    HW116799   1.449   4.513   0.396
 5300SOL    HW216800   1.521   4.656   0.366
 5301SOL     OW16801   4.564   0.477   6.659
 5301SOL    HW116802   4.586   0.412   6.586
 5301SOL    HW216803   4.638   0.477   6.726
 5302SOL     OW16804   4.441   6.115   3.435
 5302SOL    HW116805   4.530   6.159   3.423
 5302SOL    HW216806   4.368   6.181   3.414
 5303SOL     OW16807   6.697   5.075   6.239
 5303SOL    HW116808   6.690   5.146   6.168
 5303SOL    HW216809   6.617   5.081   6.299
 5304SOL     OW16810   6.078   1.303   0.912
 5304SOL    HW116811   6.108   1.380   0.968
 5304SOL    HW216812   6.154   1.240   0.896
 5305SOL     OW16813   1.223   5.189   2.787
 5305SOL    HW116814   1.135   5.185   2.835
 5305SOL    HW216815   1.294   5.151   2.846
 5306SOL     OW16816   6.940   4.077   6.011
 5306SOL    HW116817   6.971   4.069   5.916
 5306SOL    HW216818   6.926   3.985   6.049
 5307SOL     OW16819   4.586   2.377   0.516
 5307SOL    HW116820   4.653   2.303   0.518
 5307SOL    HW216821   4.581   2.415   0.423
 5308SOL     OW16822   1.561   4.635   2.801
 5308SOL    HW116823   1.551   4.537   2.781
 5308SOL    HW216824   1.654   4.664   2.780
 5309SOL     OW16825   4.018   5.680   2.551
 5309SOL    HW116826   3.976   5.591   2.536
 5309SOL    HW216827   4.104   5.668   2.601
 5310SOL     OW16828   6.119   3.540   2.759
 5310SOL    HW116829   6.076   3.574   2.842
 5310SOL    HW216830   6.088   3.596   2.681
 5311SOL     OW16831   5.889   6.944   0.201
 5311SOL    HW116832   5.888   6.952   0.102
 5311SOL    HW216833   5.970   6.893   0.230
 5312SOL     OW16834   0.256   6.278   1.619
 5312SOL    HW116835   0.255   6.357   1.557
 5312SOL    HW216836   0.231   6.308   1.711
 5313SOL     OW16837   6.705   5.065   5.179
 5313SOL    HW116838   6.680   5.160   5.159
 5313SOL    HW216839   6.776   5.064   5.250
 5314SOL     OW16840   5.791   6.286   1.100
 5314SOL    HW116841   5.828   6.353   1.164
 5314SOL    HW216842   5.795   6.323   1.007
 5315SOL     OW16843   4.563   2.236   3.599
 5315SOL    HW116844   4.661   2.239   3.622
 5315SOL    HW216845   4.511   2.217   3.682
 5316SOL     OW16846   0.838   3.311   5.061
 5316SOL    HW116847   0.903   3.235   5.070
 5316SOL    HW216848   0.786   3.319   5.146
 5317SOL     OW16849   6.886   1.327   5.691
 5317SOL    HW116850   6.940   1.243   5.688
 5317SOL    HW216851   6.910   1.385   5.613
 5318SOL     OW16852   0.111   2.919   0.404
 5318SOL    HW116853   0.066   2.953   0.322
 5318SOL    HW216854   0.197   2.874   0.378
 5319SOL     OW16855   4.439   6.622   0.741
 5319SOL    HW116856   4.425   6.640   0.644
 5319SOL    HW216857   4.489   6.536   0.752
 5320SOL     OW16858   4.291   5.627   1.097
 5320SOL    HW116859   4.240   5.712   1.087
 5320SOL    HW216860   4.254   5.558   1.035
 5321SOL     OW16861   1.469   4.462   4.906
 5321SOL    HW116862   1.521   4.395   4.852
 5321SOL    HW216863   1.503   4.462   5.000
 5322SOL     OW16864   5.494   7.011   1.397
 5322SOL    HW116865   5.497   0.037   1.308
 5322SOL    HW216866   5.437   0.046   1.459
 5323SOL     OW16867   4.553   1.078   5.672
 5323SOL    HW116868   4.474   1.103   5.728
 5323SOL    HW216869   4.580   0.984   5.693
 5324SOL     OW16870   2.790   2.547   6.756
 5324SOL    HW116871   2.749   2.456   6.755
 5324SOL    HW216872   2.725   2.612   6.795
 5325SOL     OW16873   2.649   1.714   5.283
 5325SOL    HW116874   2.576   1.682   5.222
 5325SOL    HW216875   2.736   1.711   5.235
 5326SOL     OW16876   6.545   5.797   3.395
 5326SOL    HW116877   6.468   5.840   3.347
 5326SOL    HW216878   6.626   5.800   3.337
 5327SOL     OW16879   5.249   2.277   4.644
 5327SOL    HW116880   5.293   2.361   4.612
 5327SOL    HW216881   5.172   2.255   4.584
 5328SOL     OW16882   4.217   3.854   5.872
 5328SOL    HW116883   4.126   3.894   5.858
 5328SOL    HW216884   4.282   3.896   5.809
 5329SOL     OW16885   1.265   5.535   6.303
 5329SOL    HW116886   1.247   5.472   6.228
 5329SOL    HW216887   1.302   5.621   6.267
 5330SOL     OW16888   3.480   3.836   0.413
 5330SOL    HW116889   3.565   3.798   0.376
 5330SOL    HW216890   3.405   3.816   0.351
 5331SOL     OW16891   6.541   2.038   6.821
 5331SOL    HW116892   6.604   2.081   6.886
 5331SOL    HW216893   6.563   2.069   6.729
 5332SOL     OW16894   1.542   4.327   1.716
 5332SOL    HW116895   1.472   4.380   1.765
 5332SOL    HW216896   1.554   4.364   1.624
 5333SOL     OW16897   1.141   0.855   3.342
 5333SOL    HW116898   1.194   0.835   3.260
 5333SOL    HW216899   1.057   0.903   3.316
 5334SOL     OW16900   3.181   0.546   5.066
 5334SOL    HW116901   3.195   0.644   5.052
 5334SOL    HW216902   3.223   0.518   5.152
 5335SOL     OW16903   6.357   6.084   0.608
 5335SOL    HW116904   6.433   6.147   0.624
 5335SOL    HW216905   6.310   6.066   0.694
 5336SOL     OW16906   1.819   3.449   2.056
 5336SOL    HW116907   1.803   3.398   1.972
 5336SOL    HW216908   1.750   3.423   2.125
 5337SOL     OW16909   4.711   4.138   1.438
 5337SOL    HW116910   4.788   4.196   1.412
 5337SOL    HW216911   4.685   4.157   1.533
 5338SOL     OW16912   6.613   2.064   6.544
 5338SOL    HW116913   6.521   2.072   6.505
 5338SOL    HW216914   6.653   2.155   6.554
 5339SOL     OW16915   6.421   1.956   3.972
 5339SOL    HW116916   6.492   1.936   3.904
 5339SOL    HW216917   6.434   1.895   4.051
 5340SOL     OW16918   5.773   2.902   6.918
 5340SOL    HW116919   5.733   2.993   6.928
 5340SOL    HW216920   5.775   2.877   6.821
 5341SOL     OW16921   3.752   2.475   5.766
 5341SOL    HW116922   3.812   2.491   5.687
 5341SOL    HW216923   3.792   2.518   5.847
 5342SOL     OW16924   3.701   0.526   5.194
 5342SOL    HW116925   3.670   0.613   5.156
 5342SOL    HW216926   3.628   0.459   5.186
 5343SOL     OW16927   4.027   3.608   2.980
 5343SOL    HW116928   3.950   3.652   2.933
 5343SOL    HW216929   4.041   3.516   2.942
 5344SOL     OW16930   1.769   2.611   2.495
 5344SOL    HW116931   1.807   2.703   2.491
 5344SOL    HW216932   1.839   2.546   2.525
 5345SOL     OW16933   4.589   6.269   0.662
 5345SOL    HW116934   4.615   6.264   0.758
 5345SOL    HW216935   4.584   6.178   0.623
 5346SOL     OW16936   2.958   5.898   3.739
 5346SOL    HW116937   2.967   5.815   3.792
 5346SOL    HW216938   2.869   5.941   3.759
 5347SOL     OW16939   6.960   2.428   2.366
 5347SOL    HW116940   6.903   2.437   2.284
 5347SOL    HW216941   0.019   2.368   2.345
 5348SOL     OW16942   0.980   1.486   0.554
 5348SOL    HW116943   0.970   1.413   0.486
 5348SOL    HW216944   1.065   1.535   0.538
 5349SOL     OW16945   0.387   2.375   0.061
 5349SOL    HW116946   0.452   2.394   0.134
 5349SOL    HW216947   0.298   2.353   0.100
 5350SOL     OW16948   2.215   0.453   6.437
 5350SOL    HW116949   2.303   0.492   6.462
 5350SOL    HW216950   2.224   0.401   6.353
 5351SOL     OW16951   5.106   6.089   1.511
 5351SOL    HW116952   5.186   6.051   1.557
 5351SOL    HW216953   5.121   6.091   1.413
 5352SOL     OW16954   2.301   6.288   4.189
 5352SOL    HW116955   2.227   6.285   4.121
 5352SOL    HW216956   2.280   6.224   4.263
 5353SOL     OW16957   4.440   6.328   4.721
 5353SOL    HW116958   4.446   6.389   4.800
 5353SOL    HW216959   4.389   6.246   4.746
 5354SOL     OW16960   2.466   4.655   2.558
 5354SOL    HW116961   2.440   4.664   2.462
 5354SOL    HW216962   2.386   4.671   2.616
 5355SOL     OW16963   4.418   1.666   3.908
 5355SOL    HW116964   4.353   1.695   3.837
 5355SOL    HW216965   4.504   1.714   3.896
 5356SOL     OW16966   6.165   4.094   1.723
 5356SOL    HW116967   6.131   4.003   1.698
 5356SOL    HW216968   6.154   4.107   1.821
 5357SOL     OW16969   3.543   1.005   0.672
 5357SOL    HW116970   3.482   0.938   0.629
 5357SOL    HW216971   3.549   0.987   0.770
 5358SOL     OW16972   4.116   2.011   0.465
 5358SOL    HW116973   4.155   2.099   0.494
 5358SOL    HW216974   4.026   2.000   0.508
 5359SOL     OW16975   2.214   1.750   1.058
 5359SOL    HW116976   2.211   1.701   1.145
 5359SOL    HW216977   2.309   1.771   1.034
 5360SOL     OW16978   4.029   6.683   5.265
 5360SOL    HW116979   4.096   6.752   5.292
 5360SOL    HW216980   4.054   6.645   5.176
 5361SOL     OW16981   2.143   1.231   4.588
 5361SOL    HW116982   2.163   1.223   4.491
 5361SOL    HW216983   2.187   1.313   4.625
 5362SOL     OW16984   5.119   4.384   3.169
 5362SOL    HW116985   5.028   4.423   3.180
 5362SOL    HW216986   5.186   4.440   3.218
 5363SOL     OW16987   0.837   6.114   5.729
 5363SOL    HW116988   0.754   6.164   5.703
 5363SOL    HW216989   0.877   6.070   5.649
 5364SOL     OW16990   6.296   5.605   0.761
 5364SOL    HW116991   6.356   5.586   0.683
 5364SOL    HW216992   6.225   5.670   0.733
 5365SOL     OW16993   4.304   2.804   6.337
 5365SOL    HW116994   4.230   2.829   6.274
 5365SOL    HW216995   4.384   2.776   6.284
 5366SOL     OW16996   4.638   4.801   0.544
 5366SOL    HW116997   4.591   4.799   0.456
 5366SOL    HW216998   4.578   4.766   0.616
 5367SOL     OW16999   0.634   5.057   0.190
 5367SOL    HW117000   0.535   5.049   0.177
 5367SOL    HW217001   0.654   5.076   0.286
 5368SOL     OW17002   5.604   1.578   2.674
 5368SOL    HW117003   5.591   1.632   2.591
 5368SOL    HW217004   5.518   1.533   2.698
 5369SOL     OW17005   2.209   5.217   3.181
 5369SOL    HW117006   2.292   5.192   3.133
 5369SOL    HW217007   2.224   5.301   3.233
 5370SOL     OW17008   4.281   3.252   1.616
 5370SOL    HW117009   4.205   3.308   1.651
 5370SOL    HW217010   4.251   3.156   1.610
 5371SOL     OW17011   1.871   3.881   4.593
 5371SOL    HW117012   1.946   3.830   4.550
 5371SOL    HW217013   1.808   3.912   4.523
 5372SOL     OW17014   2.980   5.742   2.049
 5372SOL    HW117015   3.031   5.715   2.131
 5372SOL    HW217016   3.045   5.768   1.977
 5373SOL     OW17017   3.057   4.968   4.350
 5373SOL    HW117018   3.042   4.997   4.445
 5373SOL    HW217019   3.154   4.976   4.328
 5374SOL     OW17020   1.489   3.130   6.576
 5374SOL    HW117021   1.583   3.098   6.587
 5374SOL    HW217022   1.486   3.229   6.591
 5375SOL     OW17023   0.981   4.424   5.406
 5375SOL    HW117024   0.895   4.447   5.360
 5375SOL    HW217025   1.051   4.403   5.338
 5376SOL     OW17026   1.506   3.435   1.593
 5376SOL    HW117027   1.505   3.398   1.501
 5376SOL    HW217028   1.538   3.365   1.657
 5377SOL     OW17029   6.274   0.180   1.899
 5377SOL    HW117030   6.224   0.181   1.812
 5377SOL    HW217031   6.297   0.086   1.923
 5378SOL     OW17032   6.512   0.518   0.870
 5378SOL    HW117033   6.588   0.469   0.828
 5378SOL    HW217034   6.548   0.587   0.933
 5379SOL     OW17035   0.210   5.121   3.774
 5379SOL    HW117036   0.131   5.103   3.716
 5379SOL    HW217037   0.235   5.038   3.824
 5380SOL     OW17038   2.229   0.716   3.438
 5380SOL    HW117039   2.208   0.638   3.379
 5380SOL    HW217040   2.322   0.705   3.475
 5381SOL     OW17041   6.812   3.928   0.892
 5381SOL    HW117042   6.823   3.972   0.981
 5381SOL    HW217043   6.725   3.957   0.851
 5382SOL     OW17044   2.954   0.122   1.683
 5382SOL    HW117045   2.967   0.220   1.669
 5382SOL    HW217046   2.948   0.075   1.595
 5383SOL     OW17047   2.727   2.422   5.442
 5383SOL    HW117048   2.730   2.476   5.527
 5383SOL    HW217049   2.773   2.335   5.457
 5384SOL     OW17050   6.254   6.564   4.126
 5384SOL    HW117051   6.331   6.594   4.071
 5384SOL    HW217052   6.261   6.605   4.218
 5385SOL     OW17053   2.955   3.777   2.694
 5385SOL    HW117054   2.960   3.780   2.794
 5385SOL    HW217055   2.921   3.688   2.664
 5386SOL     OW17056   4.928   6.390   4.164
 5386SOL    HW117057   4.973   6.460   4.108
 5386SOL    HW217058   4.957   6.299   4.132
 5387SOL     OW17059   2.522   5.730   2.604
 5387SOL    HW117060   2.580   5.650   2.594
 5387SOL    HW217061   2.446   5.725   2.539
 5388SOL     OW17062   5.086   6.575   2.554
 5388SOL    HW117063   5.072   6.533   2.464
 5388SOL    HW217064   5.130   6.665   2.543
 5389SOL     OW17065   4.796   1.090   1.533
 5389SOL    HW117066   4.819   1.184   1.508
 5389SOL    HW217067   4.717   1.059   1.480
 5390SOL     OW17068   5.306   5.396   4.282
 5390SOL    HW117069   5.235   5.408   4.212
 5390SOL    HW217070   5.319   5.298   4.298
 5391SOL     OW17071   2.938   3.135   0.474
 5391SOL    HW117072   3.034   3.131   0.502
 5391SOL    HW217073   2.928   3.198   0.397
 5392SOL     OW17074   6.351   3.408   1.185
 5392SOL    HW117075   6.323   3.438   1.276
 5392SOL    HW217076   6.399   3.320   1.192
 5393SOL     OW17077   6.891   6.870   0.030
 5393SOL    HW117078   6.883   6.900   0.125
 5393SOL    HW217079   6.908   6.771   0.028
 5394SOL     OW17080   0.390   3.582   6.222
 5394SOL    HW117081   0.483   3.572   6.259
 5394SOL    HW217082   0.355   3.673   6.244
 5395SOL     OW17083   4.851   0.621   1.056
 5395SOL    HW117084   4.915   0.677   1.110
 5395SOL    HW217085   4.894   0.534   1.034
 5396SOL     OW17086   5.100   3.684   2.129
 5396SOL    HW117087   5.156   3.661   2.209
 5396SOL    HW217088   5.088   3.602   2.072
 5397SOL     OW17089   6.757   2.819   1.938
 5397SOL    HW117090   6.794   2.900   1.983
 5397SOL    HW217091   6.726   2.754   2.007
 5398SOL     OW17092   3.372   2.763   1.726
 5398SOL    HW117093   3.429   2.709   1.663
 5398SOL    HW217094   3.276   2.740   1.712
 5399SOL     OW17095   2.653   6.623   0.875
 5399SOL    HW117096   2.722   6.651   0.942
 5399SOL    HW217097   2.661   6.525   0.859
 5400SOL     OW17098   2.628   4.176   0.954
 5400SOL    HW117099   2.574   4.097   0.926
 5400SOL    HW217100   2.579   4.226   1.026
 5401SOL     OW17101   5.851   3.226   2.300
 5401SOL    HW117102   5.862   3.234   2.201
 5401SOL    HW217103   5.906   3.297   2.346
 5402SOL     OW17104   2.579   5.698   1.779
 5402SOL    HW117105   2.639   5.778   1.776
 5402SOL    HW217106   2.508   5.707   1.709
 5403SOL     OW17107   6.831   3.301   6.573
 5403SOL    HW117108   6.909   3.321   6.514
 5403SOL    HW217109   6.754   3.360   6.550
 5404SOL     OW17110   1.297   2.843   3.591
 5404SOL    HW117111   1.211   2.792   3.581
 5404SOL    HW217112   1.296   2.921   3.529
 5405SOL     OW17113   6.773   5.836   6.975
 5405SOL    HW117114   6.867   5.825   7.008
 5405SOL    HW217115   6.716   5.765   7.016
 5406SOL     OW17116   2.135   1.961   0.358
 5406SOL    HW117117   2.051   1.974   0.305
 5406SOL    HW217118   2.144   2.035   0.425
 5407SOL     OW17119   4.509   3.374   0.106
 5407SOL    HW117120   4.483   3.309   0.177
 5407SOL    HW217121   4.517   3.466   0.145
 5408SOL     OW17122   2.296   0.942   5.735
 5408SOL    HW117123   2.337   0.851   5.734
 5408SOL    HW217124   2.214   0.942   5.678
 5409SOL     OW17125   5.446   0.146   3.215
 5409SOL    HW117126   5.507   0.209   3.262
 5409SOL    HW217127   5.403   0.085   3.283
 5410SOL     OW17128   2.857   2.097   1.815
 5410SOL    HW117129   2.952   2.078   1.791
 5410SOL    HW217130   2.853   2.183   1.866
 5411SOL     OW17131   6.579   5.047   5.970
 5411SOL    HW117132   6.531   4.997   6.042
 5411SOL    HW217133   6.523   5.124   5.939
 5412SOL     OW17134   5.116   2.695   0.649
 5412SOL    HW117135   5.138   2.758   0.574
 5412SOL    HW217136   5.031   2.647   0.629
 5413SOL     OW17137   3.072   1.494   1.550
 5413SOL    HW117138   3.153   1.545   1.523
 5413SOL    HW217139   2.990   1.549   1.530
 5414SOL     OW17140   5.273   1.970   4.609
 5414SOL    HW117141   5.239   2.047   4.663
 5414SOL    HW217142   5.372   1.964   4.620
 5415SOL     OW17143   0.594   5.814   1.422
 5415SOL    HW117144   0.505   5.769   1.417
 5415SOL    HW217145   0.648   5.791   1.341
 5416SOL     OW17146   4.296   5.093   5.453
 5416SOL    HW117147   4.386   5.131   5.473
 5416SOL    HW217148   4.299   4.993   5.461
 5417SOL     OW17149   3.841   6.770   5.452
 5417SOL    HW117150   3.906   6.739   5.382
 5417SOL    HW217151   3.748   6.749   5.423
 5418SOL     OW17152   3.229   0.528   2.646
 5418SOL    HW117153   3.170   0.522   2.726
 5418SOL    HW217154   3.289   0.608   2.654
 5419SOL     OW17155   3.669   4.847   0.492
 5419SOL    HW117156   3.645   4.931   0.443
 5419SOL    HW217157   3.586   4.795   0.511
 5420SOL     OW17158   2.153   2.960   3.027
 5420SOL    HW117159   2.142   2.897   3.104
 5420SOL    HW217160   2.141   3.054   3.060
 5421SOL     OW17161   1.602   3.689   1.374
 5421SOL    HW117162   1.667   3.628   1.419
 5421SOL    HW217163   1.544   3.733   1.443
 5422SOL     OW17164   0.975   4.952   0.649
 5422SOL    HW117165   0.898   5.015   0.663
 5422SOL    HW217166   0.957   4.866   0.696
 5423SOL     OW17167   6.439   3.113   0.113
 5423SOL    HW117168   6.523   3.063   0.133
 5423SOL    HW217169   6.459   3.211   0.106
 5424SOL     OW17170   5.079   3.459   4.313
 5424SOL    HW117171   5.164   3.462   4.261
 5424SOL    HW217172   5.095   3.417   4.402
 5425SOL     OW17173   4.159   1.218   4.953
 5425SOL    HW117174   4.078   1.159   4.956
 5425SOL    HW217175   4.133   1.308   4.920
 5426SOL     OW17176   5.637   6.216   4.231
 5426SOL    HW117177   5.688   6.132   4.212
 5426SOL    HW217178   5.628   6.229   4.329
 5427SOL     OW17179   4.382   6.029   6.558
 5427SOL    HW117180   4.383   6.024   6.658
 5427SOL    HW217181   4.368   6.124   6.530
 5428SOL     OW17182   0.526   0.289   0.948
 5428SOL    HW117183   0.611   0.327   0.983
 5428SOL    HW217184   0.476   0.359   0.898
 5429SOL     OW17185   1.627   1.285   6.741
 5429SOL    HW117186   1.709   1.277   6.799
 5429SOL    HW217187   1.655   1.309   6.648
 5430SOL     OW17188   0.149   1.872   6.148
 5430SOL    HW117189   0.225   1.886   6.212
 5430SOL    HW217190   0.176   1.804   6.080
 5431SOL     OW17191   3.466   6.556   6.943
 5431SOL    HW117192   3.556   6.537   6.983
 5431SOL    HW217193   3.426   6.470   6.909
 5432SOL     OW17194   5.288   0.279   6.580
 5432SOL    HW117195   5.206   0.320   6.620
 5432SOL    HW217196   5.283   0.179   6.588
 5433SOL     OW17197   0.484   2.063   4.528
 5433SOL    HW117198   0.458   2.131   4.597
 5433SOL    HW217199   0.412   1.994   4.520
 5434SOL     OW17200   2.939   0.356   5.559
 5434SOL    HW117201   2.971   0.427   5.622
 5434SOL    HW217202   2.912   0.397   5.472
 5435SOL     OW17203   4.589   0.109   2.072
 5435SOL    HW117204   4.516   0.076   2.013
 5435SOL    HW217205   4.677   0.093   2.028
 5436SOL     OW17206   4.841   4.346   3.451
 5436SOL    HW117207   4.939   4.345   3.431
 5436SOL    HW217208   4.820   4.420   3.515
 5437SOL     OW17209   2.656   4.530   0.369
 5437SOL    HW117210   2.698   4.589   0.438
 5437SOL    HW217211   2.723   4.463   0.337
 5438SOL     OW17212   6.767   2.673   1.667
 5438SOL    HW117213   6.737   2.738   1.737
 5438SOL    HW217214   6.775   2.582   1.708
 5439SOL     OW17215   1.547   1.879   1.302
 5439SOL    HW117216   1.529   1.852   1.208
 5439SOL    HW217217   1.644   1.869   1.323
 5440SOL     OW17218   1.451   1.107   1.270
 5440SOL    HW117219   1.449   1.203   1.241
 5440SOL    HW217220   1.358   1.079   1.294
 5441SOL     OW17221   4.039   1.690   3.823
 5441SOL    HW117222   4.070   1.676   3.917
 5441SOL    HW217223   3.957   1.746   3.822
 5442SOL     OW17224   4.172   6.776   2.817
 5442SOL    HW117225   4.109   6.752   2.744
 5442SOL    HW217226   4.194   6.873   2.812
 5443SOL     OW17227   3.174   6.966   4.906
 5443SOL    HW117228   3.128   0.024   4.952
 5443SOL    HW217229   3.106   6.895   4.885
 5444SOL     OW17230   0.872   0.600   4.182
 5444SOL    HW117231   0.808   0.617   4.107
 5444SOL    HW217232   0.910   0.686   4.214
 5445SOL     OW17233   6.689   4.033   3.541
 5445SOL    HW117234   6.594   4.032   3.571
 5445SOL    HW217235   6.726   3.940   3.547
 5446SOL     OW17236   6.073   5.793   5.030
 5446SOL    HW117237   6.120   5.818   4.945
 5446SOL    HW217238   6.072   5.694   5.040
 5447SOL     OW17239   3.253   2.303   0.063
 5447SOL    HW117240   3.265   2.371   7.010
 5447SOL    HW217241   3.204   2.343   0.140
 5448SOL     OW17242   4.355   2.660   5.280
 5448SOL    HW117243   4.279   2.609   5.240
 5448SOL    HW217244   4.325   2.704   5.365
 5449SOL     OW17245   1.333   2.456   5.993
 5449SOL    HW117246   1.352   2.403   6.075
 5449SOL    HW217247   1.344   2.398   5.912
 5450SOL     OW17248   2.455   0.917   1.744
 5450SOL    HW117249   2.531   0.854   1.724
 5450SOL    HW217250   2.380   0.899   1.682
 5451SOL     OW17251   1.626   5.920   3.211
 5451SOL    HW117252   1.581   5.927   3.122
 5451SOL    HW217253   1.724   5.937   3.201
 5452SOL     OW17254   2.049   4.381   0.120
 5452SOL    HW117255   2.140   4.422   0.116
 5452SOL    HW217256   2.034   4.342   0.211
 5453SOL     OW17257   6.601   4.303   0.723
 5453SOL    HW117258   6.599   4.212   0.764
 5453SOL    HW217259   6.696   4.337   0.721
 5454SOL     OW17260   0.224   4.357   6.738
 5454SOL    HW117261   0.160   4.430   6.761
 5454SOL    HW217262   0.318   4.389   6.752
 5455SOL     OW17263   6.715   3.051   1.090
 5455SOL    HW117264   6.713   3.147   1.118
 5455SOL    HW217265   6.807   3.015   1.101
 5456SOL     OW17266   3.245   0.701   6.331
 5456SOL    HW117267   3.337   0.692   6.368
 5456SOL    HW217268   3.231   0.634   6.258
 5457SOL     OW17269   5.358   2.355   0.987
 5457SOL    HW117270   5.455   2.341   1.006
 5457SOL    HW217271   5.306   2.273   1.012
 5458SOL     OW17272   1.078   4.620   0.013
 5458SOL    HW117273   1.164   4.569   0.004
 5458SOL    HW217274   1.050   4.653   6.942
 5459SOL     OW17275   1.713   5.206   0.165
 5459SOL    HW117276   1.731   5.183   0.260
 5459SOL    HW217277   1.672   5.127   0.119
 5460SOL     OW17278   3.251   0.137   1.861
 5460SOL    HW117279   3.332   0.101   1.815
 5460SOL    HW217280   3.186   0.171   1.793
 5461SOL     OW17281   5.579   6.275   5.474
 5461SOL    HW117282   5.565   6.188   5.427
 5461SOL    HW217283   5.549   6.350   5.415
 5462SOL     OW17284   1.714   0.735   1.104
 5462SOL    HW117285   1.667   0.766   1.022
 5462SOL    HW217286   1.659   0.758   1.185
 5463SOL     OW17287   6.249   2.253   0.604
 5463SOL    HW117288   6.184   2.248   0.528
 5463SOL    HW217289   6.199   2.271   0.689
 5464SOL     OW17290   1.779   0.637   4.186
 5464SOL    HW117291   1.836   0.719   4.199
 5464SOL    HW217292   1.792   0.602   4.094
 5465SOL     OW17293   3.868   0.021   3.453
 5465SOL    HW117294   3.946   6.980   3.470
 5465SOL    HW217295   3.791   7.012   3.510
 5466SOL     OW17296   5.522   4.957   4.783
 5466SOL    HW117297   5.611   4.919   4.805
 5466SOL    HW217298   5.487   4.913   4.700
 5467SOL     OW17299   5.358   2.120   2.494
 5467SOL    HW117300   5.280   2.173   2.529
 5467SOL    HW217301   5.339   2.023   2.506
 5468SOL     OW17302   5.070   1.802   4.811
 5468SOL    HW117303   5.094   1.792   4.714
 5468SOL    HW217304   5.040   1.896   4.828
 5469SOL     OW17305   3.850   4.731   6.200
 5469SOL    HW117306   3.842   4.810   6.262
 5469SOL    HW217307   3.930   4.677   6.227
 5470SOL     OW17308   2.009   5.047   3.608
 5470SOL    HW117309   1.929   5.080   3.558
 5470SOL    HW217310   2.089   5.101   3.581
 5471SOL     OW17311   5.403   6.175   1.478
 5471SOL    HW117312   5.485   6.159   1.423
 5471SOL    HW217313   5.322   6.153   1.423
 5472SOL     OW17314   4.948   4.017   5.849
 5472SOL    HW117315   4.871   3.986   5.793
 5472SOL    HW217316   5.015   4.063   5.792
 5473SOL     OW17317   0.974   3.452   2.931
 5473SOL    HW117318   1.066   3.432   2.965
 5473SOL    HW217319   0.948   3.545   2.957
 5474SOL     OW17320   2.214   5.014   4.486
 5474SOL    HW117321   2.164   5.100   4.477
 5474SOL    HW217322   2.308   5.027   4.456
 5475SOL     OW17323   3.945   2.611   1.306
 5475SOL    HW117324   3.887   2.680   1.349
 5475SOL    HW217325   4.033   2.606   1.354
 5476SOL     OW17326   2.075   3.634   6.114
 5476SOL    HW117327   2.118   3.548   6.086
 5476SOL    HW217328   2.135   3.710   6.089
 5477SOL     OW17329   2.068   3.369   3.395
 5477SOL    HW117330   1.984   3.401   3.349
 5477SOL    HW217331   2.129   3.446   3.411
 5478SOL     OW17332   5.609   5.966   6.309
 5478SOL    HW117333   5.599   5.879   6.261
 5478SOL    HW217334   5.694   6.010   6.279
 5479SOL     OW17335   4.687   0.719   5.143
 5479SOL    HW117336   4.731   0.781   5.208
 5479SOL    HW217337   4.725   0.733   5.052
 5480SOL     OW17338   0.747   4.222   4.458
 5480SOL    HW117339   0.711   4.259   4.544
 5480SOL    HW217340   0.756   4.122   4.466
 5481SOL     OW17341   2.982   0.087   4.616
 5481SOL    HW117342   2.936   0.173   4.593
 5481SOL    HW217343   3.069   0.106   4.662
 5482SOL     OW17344   3.670   4.430   1.713
 5482SOL    HW117345   3.669   4.524   1.749
 5482SOL    HW217346   3.601   4.422   1.641
 5483SOL     OW17347   0.572   2.454   5.831
 5483SOL    HW117348   0.666   2.425   5.813
 5483SOL    HW217349   0.532   2.396   5.903
 5484SOL     OW17350   4.669   0.458   4.876
 5484SOL    HW117351   4.645   0.367   4.842
 5484SOL    HW217352   4.637   0.469   4.970
 5485SOL     OW17353   2.779   6.399   5.192
 5485SOL    HW117354   2.800   6.447   5.107
 5485SOL    HW217355   2.865   6.373   5.237
 5486SOL     OW17356   2.951   5.737   5.270
 5486SOL    HW117357   2.995   5.826   5.285
 5486SOL    HW217358   3.017   5.664   5.285
 5487SOL     OW17359   2.898   4.420   5.869
 5487SOL    HW117360   2.806   4.458   5.877
 5487SOL    HW217361   2.906   4.373   5.781
 5488SOL     OW17362   6.024   1.060   0.422
 5488SOL    HW117363   5.991   1.150   0.394
 5488SOL    HW217364   6.112   1.041   0.378
 5489SOL     OW17365   6.698   3.149   2.248
 5489SOL    HW117366   6.679   3.241   2.215
 5489SOL    HW217367   6.657   3.136   2.338
 5490SOL     OW17368   0.905   6.763   2.457
 5490SOL    HW117369   0.970   6.763   2.532
 5490SOL    HW217370   0.904   6.672   2.413
 5491SOL     OW17371   6.918   3.105   0.694
 5491SOL    HW117372   6.935   3.031   0.759
 5491SOL    HW217373   6.846   3.165   0.729
 5492SOL     OW17374   0.723   2.163   5.436
 5492SOL    HW117375   0.781   2.126   5.364
 5492SOL    HW217376   0.722   2.100   5.514
 5493SOL     OW17377   4.195   3.554   1.817
 5493SOL    HW117378   4.284   3.595   1.796
 5493SOL    HW217379   4.164   3.587   1.907
 5494SOL     OW17380   6.068   4.408   5.224
 5494SOL    HW117381   6.040   4.344   5.295
 5494SOL    HW217382   6.154   4.452   5.250
 5495SOL     OW17383   5.939   0.314   0.368
 5495SOL    HW117384   5.924   0.344   0.462
 5495SOL    HW217385   5.857   0.329   0.314
 5496SOL     OW17386   4.615   0.800   4.297
 5496SOL    HW117387   4.678   0.750   4.355
 5496SOL    HW217388   4.571   0.737   4.232
 5497SOL     OW17389   0.582   1.064   6.091
 5497SOL    HW117390   0.590   0.991   6.023
 5497SOL    HW217391   0.522   1.135   6.057
 5498SOL     OW17392   0.541   4.793   1.796
 5498SOL    HW117393   0.589   4.866   1.749
 5498SOL    HW217394   0.581   4.705   1.771
 5499SOL     OW17395   0.408   0.584   4.934
 5499SOL    HW117396   0.468   0.547   4.863
 5499SOL    HW217397   0.410   0.684   4.930
 5500SOL     OW17398   2.193   0.596   0.500
 5500SOL    HW117399   2.099   0.597   0.466
 5500SOL    HW217400   2.250   0.543   0.437
 5501SOL     OW17401   3.853   1.936   6.910
 5501SOL    HW117402   3.780   1.875   6.879
 5501SOL    HW217403   3.942   1.899   6.882
 5502SOL     OW17404   5.006   2.912   7.015
 5502SOL    HW117405   5.028   2.943   6.923
 5502SOL    HW217406   4.942   2.834   7.010
 5503SOL     OW17407   0.688   3.574   0.188
 5503SOL    HW117408   0.704   3.515   0.109
 5503SOL    HW217409   0.696   3.520   0.272
 5504SOL     OW17410   3.844   0.987   7.002
 5504SOL    HW117411   3.839   0.912   0.050
 5504SOL    HW217412   3.816   0.954   6.912
 5505SOL     OW17413   2.441   4.635   4.120
 5505SOL    HW117414   2.405   4.709   4.063
 5505SOL    HW217415   2.539   4.649   4.135
 5506SOL     OW17416   0.228   3.296   5.856
 5506SOL    HW117417   0.180   3.274   5.771
 5506SOL    HW217418   0.245   3.212   5.908
 5507SOL     OW17419   3.060   0.236   6.197
 5507SOL    HW117420   3.016   0.311   6.148
 5507SOL    HW217421   3.038   0.242   6.295
 5508SOL     OW17422   0.634   0.760   6.768
 5508SOL    HW117423   0.627   0.857   6.792
 5508SOL    HW217424   0.629   0.705   6.850
 5509SOL     OW17425   0.114   5.196   0.851
 5509SOL    HW117426   0.179   5.272   0.854
 5509SOL    HW217427   0.073   5.184   0.942
 5510SOL     OW17428   4.097   5.272   6.832
 5510SOL    HW117429   4.188   5.251   6.797
 5510SOL    HW217430   4.056   5.190   6.871
 5511SOL     OW17431   0.744   1.488   5.517
 5511SOL    HW117432   0.787   1.417   5.460
 5511SOL    HW217433   0.689   1.548   5.458
 5512SOL     OW17434   3.761   0.941   2.138
 5512SOL    HW117435   3.776   1.010   2.066
 5512SOL    HW217436   3.664   0.938   2.161
 5513SOL     OW17437   4.522   4.735   0.292
 5513SOL    HW117438   4.462   4.655   0.289
 5513SOL    HW217439   4.487   4.805   0.230
 5514SOL     OW17440   2.996   6.661   5.940
 5514SOL    HW117441   3.006   6.740   5.880
 5514SOL    HW217442   3.034   6.580   5.894
 5515SOL     OW17443   2.184   5.729   1.896
 5515SOL    HW117444   2.230   5.816   1.911
 5515SOL    HW217445   2.251   5.658   1.876
 5516SOL     OW17446   2.542   2.812   5.330
 5516SOL    HW117447   2.611   2.766   5.274
 5516SOL    HW217448   2.517   2.899   5.288
 5517SOL     OW17449   1.890   3.961   2.919
 5517SOL    HW117450   1.982   3.923   2.918
 5517SOL    HW217451   1.881   4.024   2.997
 5518SOL     OW17452   4.858   4.258   5.654
 5518SOL    HW117453   4.876   4.309   5.570
 5518SOL    HW217454   4.808   4.174   5.632
 5519SOL     OW17455   4.611   2.558   3.726
 5519SOL    HW117456   4.666   2.480   3.756
 5519SOL    HW217457   4.526   2.526   3.685
 5520SOL     OW17458   5.603   6.326   1.892
 5520SOL    HW117459   5.666   6.403   1.885
 5520SOL    HW217460   5.514   6.359   1.922
 5521SOL     OW17461   5.551   5.614   1.377
 5521SOL    HW117462   5.519   5.570   1.461
 5521SOL    HW217463   5.593   5.545   1.318
 5522SOL     OW17464   5.896   5.115   0.775
 5522SOL    HW117465   5.950   5.197   0.796
 5522SOL    HW217466   5.916   5.086   0.681
 5523SOL     OW17467   5.924   1.572   2.078
 5523SOL    HW117468   5.907   1.484   2.123
 5523SOL    HW217469   5.959   1.556   1.986
 5524SOL     OW17470   3.031   0.542   4.833
 5524SOL    HW117471   3.030   0.534   4.933
 5524SOL    HW217472   3.124   0.526   4.799
 5525SOL     OW17473   6.271   2.601   1.272
 5525SOL    HW117474   6.307   2.554   1.352
 5525SOL    HW217475   6.175   2.574   1.258
 5526SOL     OW17476   4.733   4.743   3.066
 5526SOL    HW117477   4.647   4.764   3.021
 5526SOL    HW217478   4.770   4.826   3.108
 5527SOL     OW17479   5.500   2.548   4.173
 5527SOL    HW117480   5.483   2.645   4.191
 5527SOL    HW217481   5.564   2.539   4.097
 5528SOL     OW17482   1.048   1.759   1.243
 5528SOL    HW117483   1.097   1.846   1.245
 5528SOL    HW217484   1.108   1.688   1.207
 5529SOL     OW17485   3.394   0.729   2.657
 5529SOL    HW117486   3.471   0.667   2.642
 5529SOL    HW217487   3.391   0.797   2.584
 5530SOL     OW17488   6.612   2.596   1.408
 5530SOL    HW117489   6.528   2.551   1.439
 5530SOL    HW217490   6.666   2.624   1.486
 5531SOL     OW17491   3.555   3.911   1.163
 5531SOL    HW117492   3.548   3.920   1.262
 5531SOL    HW217493   3.467   3.880   1.126
 5532SOL     OW17494   1.610   3.146   1.198
 5532SOL    HW117495   1.590   3.244   1.193
 5532SOL    HW217496   1.636   3.112   1.108
 5533SOL     OW17497   4.222   1.479   4.257
 5533SOL    HW117498   4.213   1.472   4.356
 5533SOL    HW217499   4.315   1.509   4.234
 5534SOL     OW17500   1.126   1.490   5.338
 5534SOL    HW117501   1.166   1.398   5.328
 5534SOL    HW217502   1.102   1.506   5.433
 5535SOL     OW17503   0.905   2.100   3.180
 5535SOL    HW117504   0.920   2.194   3.147
 5535SOL    HW217505   0.807   2.083   3.190
 5536SOL     OW17506   2.868   0.332   4.683
 5536SOL    HW117507   2.924   0.414   4.696
 5536SOL    HW217508   2.832   0.331   4.590
 5537SOL     OW17509   2.974   1.068   2.778
 5537SOL    HW117510   3.007   0.975   2.760
 5537SOL    HW217511   3.038   1.134   2.738
 5538SOL     OW17512   4.865   6.016   4.551
 5538SOL    HW117513   4.858   6.041   4.648
 5538SOL    HW217514   4.900   6.095   4.500
 5539SOL     OW17515   2.609   2.599   1.134
 5539SOL    HW117516   2.549   2.672   1.101
 5539SOL    HW217517   2.621   2.531   1.062
 5540SOL     OW17518   5.342   4.255   2.560
 5540SOL    HW117519   5.335   4.156   2.546
 5540SOL    HW217520   5.259   4.288   2.605
 5541SOL     OW17521   4.740   1.282   5.669
 5541SOL    HW117522   4.798   1.282   5.588
 5541SOL    HW217523   4.652   1.240   5.647
 5542SOL     OW17524   4.534   4.546   6.303
 5542SOL    HW117525   4.583   4.610   6.361
 5542SOL    HW217526   4.570   4.552   6.209
 5543SOL     OW17527   6.273   2.724   6.293
 5543SOL    HW117528   6.207   2.782   6.245
 5543SOL    HW217529   6.343   2.782   6.335
 5544SOL     OW17530   6.226   0.675   5.999
 5544SOL    HW117531   6.220   0.576   5.999
 5544SOL    HW217532   6.185   0.711   6.083
 5545SOL     OW17533   3.099   2.137   2.156
 5545SOL    HW117534   3.109   2.159   2.253
 5545SOL    HW217535   3.033   2.200   2.115
 5546SOL     OW17536   1.962   4.962   5.976
 5546SOL    HW117537   1.939   4.868   6.001
 5546SOL    HW217538   2.031   4.997   6.038
 5547SOL     OW17539   3.891   5.755   5.009
 5547SOL    HW117540   3.917   5.675   5.063
 5547SOL    HW217541   3.832   5.727   4.934
 5548SOL     OW17542   6.300   3.373   5.027
 5548SOL    HW117543   6.205   3.359   5.054
 5548SOL    HW217544   6.313   3.345   4.932
 5549SOL     OW17545   2.445   4.952   6.862
 5549SOL    HW117546   2.461   5.042   6.823
 5549SOL    HW217547   2.359   4.914   6.826
 5550SOL     OW17548   4.105   6.528   1.368
 5550SOL    HW117549   4.061   6.440   1.384
 5550SOL    HW217550   4.071   6.596   1.433
 5551SOL     OW17551   0.831   1.582   3.068
 5551SOL    HW117552   0.846   1.672   3.027
 5551SOL    HW217553   0.745   1.543   3.033
 5552SOL     OW17554   0.313   2.870   1.740
 5552SOL    HW117555   0.256   2.789   1.755
 5552SOL    HW217556   0.353   2.867   1.649
 5553SOL     OW17557   5.087   5.884   0.588
 5553SOL    HW117558   5.026   5.906   0.512
 5553SOL    HW217559   5.087   5.785   0.603
 5554SOL     OW17560   2.756   2.326   4.723
 5554SOL    HW117561   2.705   2.319   4.638
 5554SOL    HW217562   2.840   2.271   4.717
 5555SOL     OW17563   0.258   5.862   2.847
 5555SOL    HW117564   0.295   5.786   2.794
 5555SOL    HW217565   0.282   5.948   2.802
 5556SOL     OW17566   0.130   1.311   4.881
 5556SOL    HW117567   0.186   1.231   4.862
 5556SOL    HW217568   0.169   1.391   4.837
 5557SOL     OW17569   2.416   0.306   3.887
 5557SOL    HW117570   2.368   0.238   3.942
 5557SOL    HW217571   2.491   0.262   3.837
 5558SOL     OW17572   5.144   3.071   4.970
 5558SOL    HW117573   5.204   3.011   5.022
 5558SOL    HW217574   5.169   3.166   4.986
 5559SOL     OW17575   1.949   0.576   1.402
 5559SOL    HW117576   1.923   0.482   1.380
 5559SOL    HW217577   2.037   0.577   1.449
 5560SOL     OW17578   0.250   1.114   4.267
 5560SOL    HW117579   0.257   1.022   4.227
 5560SOL    HW217580   0.154   1.137   4.280
 5561SOL     OW17581   1.845   2.774   3.155
 5561SOL    HW117582   1.751   2.741   3.143
 5561SOL    HW217583   1.849   2.834   3.235
 5562SOL     OW17584   2.480   2.546   5.811
 5562SOL    HW117585   2.474   2.528   5.713
 5562SOL    HW217586   2.390   2.572   5.845
 5563SOL     OW17587   4.516   5.805   1.615
 5563SOL    HW117588   4.527   5.794   1.517
 5563SOL    HW217589   4.452   5.736   1.650
 5564SOL     OW17590   5.746   4.498   1.820
 5564SOL    HW117591   5.738   4.547   1.733
 5564SOL    HW217592   5.840   4.504   1.853
 5565SOL     OW17593   3.363   3.712   5.425
 5565SOL    HW117594   3.425   3.652   5.476
 5565SOL    HW217595   3.412   3.751   5.347
 5566SOL     OW17596   1.837   4.958   1.293
 5566SOL    HW117597   1.798   4.950   1.384
 5566SOL    HW217598   1.931   4.924   1.293
 5567SOL     OW17599   1.456   5.702   2.013
 5567SOL    HW117600   1.407   5.638   2.072
 5567SOL    HW217601   1.468   5.662   1.922
 5568SOL     OW17602   3.219   2.297   1.685
 5568SOL    HW117603   3.275   2.319   1.765
 5568SOL    HW217604   3.276   2.253   1.616
 5569SOL     OW17605   5.387   1.872   0.082
 5569SOL    HW117606   5.438   1.895   0.165
 5569SOL    HW217607   5.380   1.953   0.024
 5570SOL     OW17608   6.970   4.356   6.009
 5570SOL    HW117609   6.952   4.284   6.076
 5570SOL    HW217610   6.933   4.329   5.920
 5571SOL     OW17611   6.999   4.949   5.773
 5571SOL    HW117612   6.987   4.852   5.753
 5571SOL    HW217613   0.042   4.959   5.851
 5572SOL     OW17614   5.216   2.366   5.821
 5572SOL    HW117615   5.279   2.348   5.745
 5572SOL    HW217616   5.254   2.438   5.879
 5573SOL     OW17617   1.231   3.862   0.431
 5573SOL    HW117618   1.260   3.770   0.404
 5573SOL    HW217619   1.288   3.894   0.506
 5574SOL     OW17620   0.655   5.764   4.871
 5574SOL    HW117621   0.561   5.730   4.868
 5574SOL    HW217622   0.694   5.747   4.961
 5575SOL     OW17623   1.896   1.057   1.119
 5575SOL    HW117624   1.918   1.153   1.104
 5575SOL    HW217625   1.801   1.040   1.092
 5576SOL     OW17626   6.059   5.831   6.819
 5576SOL    HW117627   5.993   5.855   6.748
 5576SOL    HW217628   6.062   5.903   6.888
 5577SOL     OW17629   2.066   3.575   5.566
 5577SOL    HW117630   2.078   3.598   5.470
 5577SOL    HW217631   2.152   3.588   5.615
 5578SOL     OW17632   3.880   2.662   6.490
 5578SOL    HW117633   3.857   2.735   6.426
 5578SOL    HW217634   3.977   2.669   6.515
 5579SOL     OW17635   4.850   4.244   0.038
 5579SOL    HW117636   4.847   4.145   0.026
 5579SOL    HW217637   4.943   4.277   0.025
 5580SOL     OW17638   5.912   1.317   0.375
 5580SOL    HW117639   5.852   1.330   0.454
 5580SOL    HW217640   5.982   1.389   0.375
 5581SOL     OW17641   2.741   2.282   6.833
 5581SOL    HW117642   2.668   2.269   6.900
 5581SOL    HW217643   2.830   2.263   6.875
 5582SOL     OW17644   4.083   3.659   3.419
 5582SOL    HW117645   4.102   3.750   3.455
 5582SOL    HW217646   3.984   3.643   3.419
 5583SOL     OW17647   4.118   6.833   1.115
 5583SOL    HW117648   4.207   6.833   1.071
 5583SOL    HW217649   4.118   6.899   1.190
 5584SOL     OW17650   6.504   2.902   3.462
 5584SOL    HW117651   6.524   2.914   3.365
 5584SOL    HW217652   6.407   2.920   3.479
 5585SOL     OW17653   6.109   6.841   3.971
 5585SOL    HW117654   6.156   6.767   3.923
 5585SOL    HW217655   6.157   6.860   4.057
 5586SOL     OW17656   2.133   0.734   6.409
 5586SOL    HW117657   2.151   0.773   6.500
 5586SOL    HW217658   2.162   0.638   6.408
 5587SOL     OW17659   3.530   0.272   4.381
 5587SOL    HW117660   3.609   0.222   4.417
 5587SOL    HW217661   3.464   0.208   4.343
 5588SOL     OW17662   4.063   0.471   6.735
 5588SOL    HW117663   4.128   0.530   6.688
 5588SOL    HW217664   4.042   0.509   6.825
 5589SOL     OW17665   4.128   3.619   6.735
 5589SOL    HW117666   4.193   3.688   6.765
 5589SOL    HW217667   4.130   3.612   6.635
 5590SOL     OW17668   0.339   6.655   3.088
 5590SOL    HW117669   0.419   6.626   3.036
 5590SOL    HW217670   0.256   6.628   3.039
 5591SOL     OW17671   4.813   0.978   0.060
 5591SOL    HW117672   4.714   0.992   0.053
 5591SOL    HW217673   4.844   0.922   7.003
 5592SOL     OW17674   1.903   2.318   2.385
 5592SOL    HW117675   1.847   2.328   2.467
 5592SOL    HW217676   1.987   2.268   2.407
 5593SOL     OW17677   1.624   3.220   5.423
 5593SOL    HW117678   1.698   3.284   5.443
 5593SOL    HW217679   1.662   3.134   5.389
 5594SOL     OW17680   2.829   0.597   0.029
 5594SOL    HW117681   2.796   0.644   0.111
 5594SOL    HW217682   2.760   0.601   6.976
 5595SOL     OW17683   0.196   1.378   5.140
 5595SOL    HW117684   0.245   1.309   5.194
 5595SOL    HW217685   0.166   1.339   5.054
 5596SOL     OW17686   5.249   1.466   3.010
 5596SOL    HW117687   5.319   1.510   3.066
 5596SOL    HW217688   5.200   1.535   2.957
 5597SOL     OW17689   0.010   1.085   6.235
 5597SOL    HW117690   6.974   1.124   6.309
 5597SOL    HW217691   0.099   1.056   6.270
 5598SOL     OW17692   6.772   2.305   4.094
 5598SOL    HW117693   6.674   2.293   4.076
 5598SOL    HW217694   6.822   2.303   4.007
 5599SOL     OW17695   4.952   2.648   3.248
 5599SOL    HW117696   4.871   2.683   3.202
 5599SOL    HW217697   4.925   2.599   3.331
 5600SOL     OW17698   2.616   1.381   1.968
 5600SOL    HW117699   2.582   1.443   1.897
 5600SOL    HW217700   2.591   1.417   2.058
 5601SOL     OW17701   5.919   3.121   5.310
 5601SOL    HW117702   6.011   3.090   5.286
 5601SOL    HW217703   5.871   3.049   5.359
 5602SOL     OW17704   6.522   2.259   3.090
 5602SOL    HW117705   6.587   2.322   3.048
 5602SOL    HW217706   6.541   2.166   3.060
 5603SOL     OW17707   4.138   1.485   5.267
 5603SOL    HW117708   4.156   1.412   5.333
 5603SOL    HW217709   4.223   1.533   5.246
 5604SOL     OW17710   0.887   0.334   4.148
 5604SOL    HW117711   0.895   0.432   4.168
 5604SOL    HW217712   0.974   0.288   4.169
 5605SOL     OW17713   4.326   6.560   4.525
 5605SOL    HW117714   4.266   6.627   4.482
 5605SOL    HW217715   4.301   6.468   4.495
 5606SOL     OW17716   4.889   3.004   0.529
 5606SOL    HW117717   4.851   2.922   0.571
 5606SOL    HW217718   4.905   2.987   0.432
 5607SOL     OW17719   6.193   2.834   2.304
 5607SOL    HW117720   6.184   2.751   2.358
 5607SOL    HW217721   6.105   2.855   2.259
 5608SOL     OW17722   5.110   0.545   3.050
 5608SOL    HW117723   5.144   0.631   3.012
 5608SOL    HW217724   5.185   0.478   3.053
 5609SOL     OW17725   0.465   0.316   0.655
 5609SOL    HW117726   0.480   0.394   0.715
 5609SOL    HW217727   0.548   0.261   0.649
 5610SOL     OW17728   5.540   4.642   1.018
 5610SOL    HW117729   5.582   4.728   1.048
 5610SOL    HW217730   5.443   4.658   0.998
 5611SOL     OW17731   6.346   4.917   1.764
 5611SOL    HW117732   6.267   4.978   1.758
 5611SOL    HW217733   6.328   4.846   1.832
 5612SOL     OW17734   3.448   1.668   0.380
 5612SOL    HW117735   3.510   1.589   0.379
 5612SOL    HW217736   3.364   1.646   0.332
 5613SOL     OW17737   5.689   5.039   5.855
 5613SOL    HW117738   5.676   4.972   5.782
 5613SOL    HW217739   5.641   5.123   5.832
 5614SOL     OW17740   5.391   3.400   3.887
 5614SOL    HW117741   5.328   3.326   3.909
 5614SOL    HW217742   5.340   3.483   3.864
 5615SOL     OW17743   0.099   2.345   3.242
 5615SOL    HW117744   0.185   2.331   3.292
 5615SOL    HW217745   0.062   2.256   3.216
 5616SOL     OW17746   1.556   3.286   2.383
 5616SOL    HW117747   1.484   3.353   2.399
 5616SOL    HW217748   1.517   3.207   2.334
 5617SOL     OW17749   2.304   4.891   6.000
 5617SOL    HW117750   2.305   4.928   5.907
 5617SOL    HW217751   2.256   4.803   5.999
 5618SOL     OW17752   5.806   6.225   2.854
 5618SOL    HW117753   5.797   6.287   2.775
 5618SOL    HW217754   5.862   6.147   2.828
 5619SOL     OW17755   4.003   3.069   3.666
 5619SOL    HW117756   3.953   3.010   3.730
 5619SOL    HW217757   4.054   3.138   3.717
 5620SOL     OW17758   5.429   4.453   5.051
 5620SOL    HW117759   5.505   4.516   5.069
 5620SOL    HW217760   5.369   4.492   4.982
 5621SOL     OW17761   0.979   2.233   5.584
 5621SOL    HW117762   0.926   2.267   5.662
 5621SOL    HW217763   1.077   2.244   5.602
 5622SOL     OW17764   4.749   6.078   3.937
 5622SOL    HW117765   4.717   6.039   3.851
 5622SOL    HW217766   4.678   6.138   3.975
 5623SOL     OW17767   4.839   5.572   3.726
 5623SOL    HW117768   4.800   5.641   3.666
 5623SOL    HW217769   4.932   5.600   3.753
 5624SOL     OW17770   6.172   5.052   3.128
 5624SOL    HW117771   6.206   5.033   3.036
 5624SOL    HW217772   6.230   5.120   3.172
 5625SOL     OW17773   1.380   6.045   5.566
 5625SOL    HW117774   1.419   5.986   5.495
 5625SOL    HW217775   1.316   5.992   5.622
 5626SOL     OW17776   1.127   4.575   6.663
 5626SOL    HW117777   1.201   4.582   6.597
 5626SOL    HW217778   1.076   4.662   6.665
 5627SOL     OW17779   0.615   5.932   0.205
 5627SOL    HW117780   0.670   5.934   0.121
 5627SOL    HW217781   0.543   6.001   0.199
 5628SOL     OW17782   2.539   2.569   1.414
 5628SOL    HW117783   2.605   2.588   1.487
 5628SOL    HW217784   2.583   2.583   1.325
 5629SOL     OW17785   5.666   3.589   2.578
 5629SOL    HW117786   5.697   3.645   2.501
 5629SOL    HW217787   5.739   3.526   2.605
 5630SOL     OW17788   1.080   3.850   6.389
 5630SOL    HW117789   1.167   3.900   6.389
 5630SOL    HW217790   1.010   3.905   6.433
 5631SOL     OW17791   3.629   1.825   2.110
 5631SOL    HW117792   3.626   1.877   2.024
 5631SOL    HW217793   3.549   1.849   2.165
 5632SOL     OW17794   5.372   6.884   5.916
 5632SOL    HW117795   5.325   6.972   5.922
 5632SOL    HW217796   5.460   6.895   5.870
 5633SOL     OW17797   0.598   4.936   5.546
 5633SOL    HW117798   0.665   4.888   5.601
 5633SOL    HW217799   0.608   5.034   5.558
 5634SOL     OW17800   2.402   0.277   1.395
 5634SOL    HW117801   2.376   0.371   1.377
 5634SOL    HW217802   2.324   0.228   1.436
 5635SOL     OW17803   2.510   0.532   0.520
 5635SOL    HW117804   2.494   0.434   0.509
 5635SOL    HW217805   2.464   0.564   0.603
 5636SOL     OW17806   5.477   1.486   5.268
 5636SOL    HW117807   5.509   1.460   5.358
 5636SOL    HW217808   5.378   1.469   5.261
 5637SOL     OW17809   4.983   6.570   4.354
 5637SOL    HW117810   4.962   6.496   4.291
 5637SOL    HW217811   4.954   6.657   4.313
 5638SOL     OW17812   6.058   5.335   0.732
 5638SOL    HW117813   6.025   5.429   0.729
 5638SOL    HW217814   6.100   5.316   0.821
 5639SOL     OW17815   1.774   0.336   1.277
 5639SOL    HW117816   1.804   0.391   1.199
 5639SOL    HW217817   1.783   0.239   1.255
 5640SOL     OW17818   2.637   6.057   2.809
 5640SOL    HW117819   2.687   5.993   2.750
 5640SOL    HW217820   2.667   6.151   2.788
 5641SOL     OW17821   0.656   4.508   4.116
 5641SOL    HW117822   0.703   4.590   4.147
 5641SOL    HW217823   0.572   4.534   4.067
 5642SOL     OW17824   1.919   4.638   0.111
 5642SOL    HW117825   1.977   4.557   0.099
 5642SOL    HW217826   1.832   4.623   0.063
 5643SOL     OW17827   4.439   2.344   5.206
 5643SOL    HW117828   4.353   2.366   5.160
 5643SOL    HW217829   4.436   2.380   5.300
 5644SOL     OW17830   4.409   1.188   5.140
 5644SOL    HW117831   4.320   1.180   5.095
 5644SOL    HW217832   4.481   1.187   5.071
 5645SOL     OW17833   6.038   5.811   4.069
 5645SOL    HW117834   5.981   5.889   4.095
 5645SOL    HW217835   6.034   5.742   4.142
 5646SOL     OW17836   0.482   5.550   4.309
 5646SOL    HW117837   0.537   5.504   4.378
 5646SOL    HW217838   0.472   5.647   4.332
 5647SOL     OW17839   5.620   5.240   6.160
 5647SOL    HW117840   5.596   5.169   6.227
 5647SOL    HW217841   5.719   5.253   6.158
 5648SOL     OW17842   1.854   1.671   5.116
 5648SOL    HW117843   1.881   1.759   5.077
 5648SOL    HW217844   1.875   1.671   5.214
 5649SOL     OW17845   0.860   0.572   5.606
 5649SOL    HW117846   0.874   0.582   5.704
 5649SOL    HW217847   0.930   0.626   5.557
 5650SOL     OW17848   6.154   5.029   6.656
 5650SOL    HW117849   6.233   5.088   6.672
 5650SOL    HW217850   6.117   4.999   6.743
 5651SOL     OW17851   6.572   0.760   3.029
 5651SOL    HW117852   6.594   0.742   2.933
 5651SOL    HW217853   6.652   0.741   3.086
 5652SOL     OW17854   4.685   4.911   0.091
 5652SOL    HW117855   4.677   4.812   0.098
 5652SOL    HW217856   4.594   4.952   0.097
 5653SOL     OW17857   1.306   6.063   6.054
 5653SOL    HW117858   1.256   6.024   5.976
 5653SOL    HW217859   1.277   6.017   6.138
 5654SOL     OW17860   0.255   5.931   5.494
 5654SOL    HW117861   0.167   5.900   5.459
 5654SOL    HW217862   0.326   5.865   5.469
 5655SOL     OW17863   6.671   3.423   3.817
 5655SOL    HW117864   6.758   3.444   3.773
 5655SOL    HW217865   6.633   3.506   3.857
 5656SOL     OW17866   3.688   4.560   0.143
 5656SOL    HW117867   3.717   4.480   0.090
 5656SOL    HW217868   3.691   4.538   0.240
 5657SOL     OW17869   3.920   6.552   2.112
 5657SOL    HW117870   3.965   6.528   2.198
 5657SOL    HW217871   3.890   6.647   2.115
 5658SOL     OW17872   4.372   0.142   5.518
 5658SOL    HW117873   4.340   0.049   5.499
 5658SOL    HW217874   4.471   0.141   5.533
 5659SOL     OW17875   3.775   3.689   2.928
 5659SOL    HW117876   3.727   3.762   2.878
 5659SOL    HW217877   3.720   3.606   2.926
 5660SOL     OW17878   5.645   6.292   0.475
 5660SOL    HW117879   5.740   6.304   0.445
 5660SOL    HW217880   5.590   6.370   0.444
 5661SOL     OW17881   6.390   5.466   4.320
 5661SOL    HW117882   6.361   5.451   4.226
 5661SOL    HW217883   6.383   5.380   4.371
 5662SOL     OW17884   2.335   4.380   4.501
 5662SOL    HW117885   2.425   4.407   4.468
 5662SOL    HW217886   2.337   4.368   4.600
 5663SOL     OW17887   1.622   4.260   0.071
 5663SOL    HW117888   1.526   4.248   0.044
 5663SOL    HW217889   1.626   4.277   0.170
 5664SOL     OW17890   0.508   4.535   2.801
 5664SOL    HW117891   0.410   4.514   2.791
 5664SOL    HW217892   0.544   4.485   2.879
 5665SOL     OW17893   2.137   2.318   5.886
 5665SOL    HW117894   2.141   2.400   5.829
 5665SOL    HW217895   2.185   2.335   5.972
 5666SOL     OW17896   5.653   5.263   0.726
 5666SOL    HW117897   5.591   5.186   0.714
 5666SOL    HW217898   5.734   5.233   0.777
 5667SOL     OW17899   0.316   5.321   3.372
 5667SOL    HW117900   0.367   5.294   3.454
 5667SOL    HW217901   0.239   5.259   3.359
 5668SOL     OW17902   6.253   2.228   5.918
 5668SOL    HW117903   6.179   2.193   5.861
 5668SOL    HW217904   6.249   2.185   6.009
 5669SOL     OW17905   6.978   4.106   6.378
 5669SOL    HW117906   6.946   4.018   6.412
 5669SOL    HW217907   6.901   4.161   6.346
 5670SOL     OW17908   0.635   4.177   4.094
 5670SOL    HW117909   0.556   4.219   4.140
 5670SOL    HW217910   0.613   4.082   4.072
 5671SOL     OW17911   1.883   1.120   6.035
 5671SOL    HW117912   1.876   1.140   6.133
 5671SOL    HW217913   1.976   1.142   6.004
 5672SOL     OW17914   4.661   5.186   5.906
 5672SOL    HW117915   4.694   5.232   5.988
 5672SOL    HW217916   4.567   5.214   5.887
 5673SOL     OW17917   0.210   0.558   2.277
 5673SOL    HW117918   0.157   0.617   2.338
 5673SOL    HW217919   0.172   0.563   2.185
 5674SOL     OW17920   6.875   3.308   1.905
 5674SOL    HW117921   6.955   3.298   1.845
 5674SOL    HW217922   6.792   3.311   1.850
 5675SOL     OW17923   4.141   2.600   5.628
 5675SOL    HW117924   4.207   2.619   5.701
 5675SOL    HW217925   4.159   2.509   5.590
 5676SOL     OW17926   2.201   0.507   1.879
 5676SOL    HW117927   2.127   0.457   1.923
 5676SOL    HW217928   2.239   0.575   1.942
 5677SOL     OW17929   6.725   0.635   3.990
 5677SOL    HW117930   6.694   0.658   3.898
 5677SOL    HW217931   6.809   0.685   4.010
 5678SOL     OW17932   2.147   6.082   3.139
 5678SOL    HW117933   2.179   6.003   3.192
 5678SOL    HW217934   2.138   6.055   3.043
 5679SOL     OW17935   1.723   6.310   5.068
 5679SOL    HW117936   1.731   6.409   5.052
 5679SOL    HW217937   1.813   6.273   5.093
 5680SOL     OW17938   2.160   6.347   6.438
 5680SOL    HW117939   2.240   6.406   6.449
 5680SOL    HW217940   2.185   6.265   6.386
 5681SOL     OW17941   1.683   2.684   6.836
 5681SOL    HW117942   1.703   2.680   6.934
 5681SOL    HW217943   1.659   2.778   6.811
 5682SOL     OW17944   1.265   3.380   4.653
 5682SOL    HW117945   1.238   3.286   4.674
 5682SOL    HW217946   1.189   3.442   4.675
 5683SOL     OW17947   3.516   2.323   5.812
 5683SOL    HW117948   3.603   2.368   5.832
 5683SOL    HW217949   3.444   2.361   5.871
 5684SOL     OW17950   3.510   4.168   3.855
 5684SOL    HW117951   3.412   4.159   3.842
 5684SOL    HW217952   3.558   4.109   3.790
 5685SOL     OW17953   0.275   5.260   2.017
 5685SOL    HW117954   0.280   5.166   1.985
 5685SOL    HW217955   0.321   5.267   2.106
 5686SOL     OW17956   3.201   6.704   0.434
 5686SOL    HW117957   3.128   6.740   0.377
 5686SOL    HW217958   3.259   6.643   0.380
 5687SOL     OW17959   5.129   5.140   5.435
 5687SOL    HW117960   5.179   5.054   5.420
 5687SOL    HW217961   5.182   5.216   5.396
 5688SOL     OW17962   5.876   2.033   1.063
 5688SOL    HW117963   5.965   1.988   1.072
 5688SOL    HW217964   5.833   2.005   0.977
 5689SOL     OW17965   3.688   2.731   0.805
 5689SOL    HW117966   3.734   2.819   0.814
 5689SOL    HW217967   3.712   2.689   0.717
 5690SOL     OW17968   4.769   6.218   0.891
 5690SOL    HW117969   4.769   6.204   0.990
 5690SOL    HW217970   4.803   6.310   0.870
 5691SOL     OW17971   1.107   0.239   1.943
 5691SOL    HW117972   1.194   0.189   1.943
 5691SOL    HW217973   1.125   0.335   1.961
 5692SOL     OW17974   6.372   2.808   6.647
 5692SOL    HW117975   6.386   2.864   6.566
 5692SOL    HW217976   6.313   2.731   6.625
 5693SOL     OW17977   4.959   2.437   2.926
 5693SOL    HW117978   4.893   2.509   2.945
 5693SOL    HW217979   4.911   2.353   2.902
 5694SOL     OW17980   6.900   1.851   3.765
 5694SOL    HW117981   6.991   1.891   3.771
 5694SOL    HW217982   6.904   1.766   3.713
 5695SOL     OW17983   1.640   3.418   3.588
 5695SOL    HW117984   1.655   3.333   3.539
 5695SOL    HW217985   1.687   3.493   3.541
 5696SOL     OW17986   2.631   0.524   5.120
 5696SOL    HW117987   2.591   0.611   5.148
 5696SOL    HW217988   2.727   0.538   5.095
 5697SOL     OW17989   6.488   2.834   0.392
 5697SOL    HW117990   6.429   2.909   0.421
 5697SOL    HW217991   6.548   2.865   0.319
 5698SOL     OW17992   0.728   3.652   1.631
 5698SOL    HW117993   0.666   3.592   1.682
 5698SOL    HW217994   0.762   3.724   1.692
 5699SOL     OW17995   6.172   0.813   5.040
 5699SOL    HW117996   6.206   0.771   5.125
 5699SOL    HW217997   6.091   0.763   5.009
 5700SOL     OW17998   1.822   5.489   3.729
 5700SOL    HW117999   1.841   5.404   3.778
 5700SOL    HW218000   1.729   5.521   3.750
 5701SOL     OW18001   6.443   5.517   1.200
 5701SOL    HW118002   6.439   5.584   1.126
 5701SOL    HW218003   6.418   5.427   1.163
 5702SOL     OW18004   2.144   0.240   6.606
 5702SOL    HW118005   2.184   0.320   6.562
 5702SOL    HW218006   2.129   0.168   6.538
 5703SOL     OW18007   4.543   4.682   0.757
 5703SOL    HW118008   4.537   4.758   0.821
 5703SOL    HW218009   4.489   4.604   0.790
 5704SOL     OW18010   3.997   5.379   3.312
 5704SOL    HW118011   3.973   5.343   3.222
 5704SOL    HW218012   3.989   5.307   3.381
 5705SOL     OW18013   5.998   0.893   1.536
 5705SOL    HW118014   5.958   0.843   1.459
 5705SOL    HW218015   6.096   0.903   1.522
 5706SOL     OW18016   1.131   1.201   6.746
 5706SOL    HW118017   1.050   1.156   6.785
 5706SOL    HW218018   1.103   1.284   6.699
 5707SOL     OW18019   2.326   2.279   0.223
 5707SOL    HW118020   2.372   2.205   0.272
 5707SOL    HW218021   2.345   2.271   0.125
 5708SOL     OW18022   5.057   6.878   1.980
 5708SOL    HW118023   4.981   6.942   1.993
 5708SOL    HW218024   5.095   6.853   2.069
 5709SOL     OW18025   1.289   0.454   2.695
 5709SOL    HW118026   1.366   0.512   2.668
 5709SOL    HW218027   1.266   0.471   2.791
 5710SOL     OW18028   2.836   3.396   6.064
 5710SOL    HW118029   2.782   3.403   6.148
 5710SOL    HW218030   2.798   3.457   5.995
 5711SOL     OW18031   4.333   0.963   4.274
 5711SOL    HW118032   4.431   0.947   4.269
 5711SOL    HW218033   4.315   1.060   4.258
 5712SOL     OW18034   0.268   6.091   6.146
 5712SOL    HW118035   0.261   6.071   6.244
 5712SOL    HW218036   0.307   6.182   6.134
 5713SOL     OW18037   6.789   2.834   2.611
 5713SOL    HW118038   6.823   2.927   2.625
 5713SOL    HW218039   6.716   2.836   2.542
 5714SOL     OW18040   1.573   0.701   6.292
 5714SOL    HW118041   1.477   0.720   6.272
 5714SOL    HW218042   1.630   0.741   6.221
 5715SOL     OW18043   1.271   6.389   2.735
 5715SOL    HW118044   1.188   6.414   2.785
 5715SOL    HW218045   1.252   6.311   2.675
 5716SOL     OW18046   2.204   3.873   6.072
 5716SOL    HW118047   2.301   3.895   6.065
 5716SOL    HW218048   2.166   3.861   5.980
 5717SOL     OW18049   1.614   3.974   0.437
 5717SOL    HW118050   1.558   3.911   0.490
 5717SOL    HW218051   1.598   3.959   0.340
 5718SOL     OW18052   3.204   4.296   6.315
 5718SOL    HW118053   3.300   4.315   6.294
 5718SOL    HW218054   3.171   4.220   6.259
 5719SOL     OW18055   3.487   0.827   6.568
 5719SOL    HW118056   3.418   0.821   6.641
 5719SOL    HW218057   3.501   0.736   6.528
 5720SOL     OW18058   1.280   4.772   5.115
 5720SOL    HW118059   1.376   4.800   5.108
 5720SOL    HW218060   1.222   4.841   5.070
 5721SOL     OW18061   0.711   4.245   1.414
 5721SOL    HW118062   0.778   4.237   1.488
 5721SOL    HW218063   0.740   4.187   1.337
 5722SOL     OW18064   5.358   6.604   4.312
 5722SOL    HW118065   5.328   6.556   4.395
 5722SOL    HW218066   5.305   6.688   4.302
 5723SOL     OW18067   2.967   5.253   0.624
 5723SOL    HW118068   2.909   5.330   0.650
 5723SOL    HW218069   2.920   5.167   0.646
 5724SOL     OW18070   5.267   1.385   6.670
 5724SOL    HW118071   5.333   1.371   6.743
 5724SOL    HW218072   5.189   1.323   6.683
 5725SOL     OW18073   5.174   5.440   6.230
 5725SOL    HW118074   5.270   5.420   6.208
 5725SOL    HW218075   5.116   5.371   6.187
 5726SOL     OW18076   5.274   3.511   6.028
 5726SOL    HW118077   5.339   3.558   5.967
 5726SOL    HW218078   5.293   3.413   6.027
 5727SOL     OW18079   5.949   2.050   3.427
 5727SOL    HW118080   6.014   2.115   3.468
 5727SOL    HW218081   5.865   2.048   3.482
 5728SOL     OW18082   6.027   0.697   5.799
 5728SOL    HW118083   6.027   0.610   5.749
 5728SOL    HW218084   6.102   0.697   5.865
 5729SOL     OW18085   0.782   1.891   6.404
 5729SOL    HW118086   0.843   1.966   6.429
 5729SOL    HW218087   0.688   1.917   6.424
 5730SOL     OW18088   4.852   4.860   6.227
 5730SOL    HW118089   4.803   4.814   6.153
 5730SOL    HW218090   4.917   4.925   6.189
 5731SOL     OW18091   3.057   0.923   3.989
 5731SOL    HW118092   3.139   0.968   3.953
 5731SOL    HW218093   3.082   0.839   4.036
 5732SOL     OW18094   5.766   5.095   4.960
 5732SOL    HW118095   5.866   5.106   4.954
 5732SOL    HW218096   5.723   5.148   4.887
 5733SOL     OW18097   3.414   1.215   0.124
 5733SOL    HW118098   3.513   1.223   0.130
 5733SOL    HW218099   3.386   1.126   0.159
 5734SOL     OW18100   2.013   6.262   6.056
 5734SOL    HW118101   1.958   6.346   6.058
 5734SOL    HW218102   2.109   6.286   6.069
 5735SOL     OW18103   3.837   0.741   2.343
 5735SOL    HW118104   3.802   0.814   2.284
 5735SOL    HW218105   3.936   0.748   2.349
 5736SOL     OW18106   4.718   4.293   6.610
 5736SOL    HW118107   4.774   4.366   6.572
 5736SOL    HW218108   4.624   4.302   6.578
 5737SOL     OW18109   4.599   5.253   0.994
 5737SOL    HW118110   4.680   5.291   0.949
 5737SOL    HW218111   4.546   5.328   1.035
 5738SOL     OW18112   3.263   1.360   6.435
 5738SOL    HW118113   3.325   1.390   6.362
 5738SOL    HW218114   3.290   1.403   6.521
 5739SOL     OW18115   2.216   0.338   5.765
 5739SOL    HW118116   2.300   0.290   5.742
 5739SOL    HW218117   2.138   0.287   5.730
 5740SOL     OW18118   5.506   3.657   2.233
 5740SOL    HW118119   5.441   3.585   2.255
 5740SOL    HW218120   5.531   3.651   2.137
 5741SOL     OW18121   0.148   3.882   4.107
 5741SOL    HW118122   0.140   3.794   4.154
 5741SOL    HW218123   0.063   3.934   4.118
 5742SOL     OW18124   4.807   0.475   3.430
 5742SOL    HW118125   4.847   0.559   3.392
 5742SOL    HW218126   4.815   0.477   3.529
 5743SOL     OW18127   3.631   3.964   5.438
 5743SOL    HW118128   3.731   3.960   5.437
 5743SOL    HW218129   3.596   3.920   5.355
 5744SOL     OW18130   5.631   6.639   2.521
 5744SOL    HW118131   5.606   6.736   2.511
 5744SOL    HW218132   5.613   6.592   2.435
 5745SOL     OW18133   2.039   2.484   3.167
 5745SOL    HW118134   1.972   2.504   3.095
 5745SOL    HW218135   2.110   2.425   3.131
 5746SOL     OW18136   4.375   0.257   3.241
 5746SOL    HW118137   4.455   0.255   3.182
 5746SOL    HW218138   4.394   0.313   3.322
 5747SOL     OW18139   0.950   6.303   1.507
 5747SOL    HW118140   0.889   6.238   1.462
 5747SOL    HW218141   0.955   6.282   1.605
 5748SOL     OW18142   0.465   5.874   0.426
 5748SOL    HW118143   0.459   5.922   0.514
 5748SOL    HW218144   0.546   5.905   0.377
 5749SOL     OW18145   1.974   6.237   5.126
 5749SOL    HW118146   2.055   6.241   5.068
 5749SOL    HW218147   1.959   6.143   5.156
 5750SOL     OW18148   6.639   4.639   4.072
 5750SOL    HW118149   6.600   4.716   4.123
 5750SOL    HW218150   6.722   4.669   4.026
 5751SOL     OW18151   2.183   3.808   4.022
 5751SOL    HW118152   2.188   3.831   3.925
 5751SOL    HW218153   2.249   3.735   4.042
 5752SOL     OW18154   5.315   0.565   1.188
 5752SOL    HW118155   5.359   0.511   1.260
 5752SOL    HW218156   5.249   0.628   1.230
 5753SOL     OW18157   3.233   4.122   4.482
 5753SOL    HW118158   3.203   4.064   4.557
 5753SOL    HW218159   3.321   4.164   4.505
 5754SOL     OW18160   1.096   6.058   1.526
 5754SOL    HW118161   1.063   6.043   1.432
 5754SOL    HW218162   1.058   5.988   1.586
 5755SOL     OW18163   2.014   2.406   0.177
 5755SOL    HW118164   2.092   2.362   0.132
 5755SOL    HW218165   2.006   2.501   0.147
 5756SOL     OW18166   5.652   5.981   1.463
 5756SOL    HW118167   5.657   5.962   1.561
 5756SOL    HW218168   5.570   5.936   1.425
 5757SOL     OW18169   6.864   0.308   3.632
 5757SOL    HW118170   6.819   0.337   3.548
 5757SOL    HW218171   6.794   0.281   3.699
 5758SOL     OW18172   0.810   0.189   2.944
 5758SOL    HW118173   0.724   0.217   2.902
 5758SOL    HW218174   0.836   0.099   2.910
 5759SOL     OW18175   3.713   6.796   1.122
 5759SOL    HW118176   3.796   6.773   1.072
 5759SOL    HW218177   3.701   6.895   1.124
 5760SOL     OW18178   0.271   3.256   1.522
 5760SOL    HW118179   0.255   3.354   1.532
 5760SOL    HW218180   0.197   3.205   1.566
 5761SOL     OW18181   5.210   5.445   5.272
 5761SOL    HW118182   5.219   5.366   5.212
 5761SOL    HW218183   5.294   5.500   5.266
 5762SOL     OW18184   5.262   4.560   7.007
 5762SOL    HW118185   5.254   4.500   6.927
 5762SOL    HW218186   5.354   4.599   7.011
 5763SOL     OW18187   5.282   0.234   0.377
 5763SOL    HW118188   5.266   0.330   0.398
 5763SOL    HW218189   5.352   0.197   0.438
 5764SOL     OW18190   4.093   5.884   3.770
 5764SOL    HW118191   4.064   5.975   3.800
 5764SOL    HW218192   4.020   5.818   3.790
 5765SOL     OW18193   6.095   4.942   1.461
 5765SOL    HW118194   6.139   4.973   1.545
 5765SOL    HW218195   6.015   4.999   1.442
 5766SOL     OW18196   0.431   1.569   4.200
 5766SOL    HW118197   0.461   1.664   4.196
 5766SOL    HW218198   0.453   1.531   4.290
 5767SOL     OW18199   2.245   0.144   0.817
 5767SOL    HW118200   2.300   0.071   0.857
 5767SOL    HW218201   2.275   0.232   0.853
 5768SOL     OW18202   7.013   6.174   4.672
 5768SOL    HW118203   0.013   6.266   4.706
 5768SOL    HW218204   0.019   6.107   4.742
 5769SOL     OW18205   1.384   5.045   6.368
 5769SOL    HW118206   1.471   5.047   6.318
 5769SOL    HW218207   1.317   4.992   6.315
 5770SOL     OW18208   1.574   5.533   1.208
 5770SOL    HW118209   1.589   5.626   1.239
 5770SOL    HW218210   1.554   5.474   1.286
 5771SOL     OW18211   2.404   5.096   4.051
 5771SOL    HW118212   2.317   5.115   4.098
 5771SOL    HW218213   2.479   5.106   4.117
 5772SOL     OW18214   4.041   0.474   2.227
 5772SOL    HW118215   4.091   0.417   2.292
 5772SOL    HW218216   4.020   0.562   2.269
 5773SOL     OW18217   4.431   2.230   2.255
 5773SOL    HW118218   4.470   2.139   2.271
 5773SOL    HW218219   4.380   2.229   2.169
 5774SOL     OW18220   0.448   6.361   3.441
 5774SOL    HW118221   0.391   6.359   3.359
 5774SOL    HW218222   0.450   6.269   3.482
 5775SOL     OW18223   0.495   5.500   2.531
 5775SOL    HW118224   0.519   5.490   2.627
 5775SOL    HW218225   0.568   5.464   2.474
 5776SOL     OW18226   2.022   0.317   3.135
 5776SOL    HW118227   2.067   0.284   3.052
 5776SOL    HW218228   1.979   0.405   3.117
 5777SOL     OW18229   1.856   6.968   3.310
 5777SOL    HW118230   1.907   6.892   3.352
 5777SOL    HW218231   1.769   6.980   3.358
 5778SOL     OW18232   0.715   1.660   6.771
 5778SOL    HW118233   0.767   1.698   6.847
 5778SOL    HW218234   0.758   1.575   6.741
 5779SOL     OW18235   5.451   2.301   6.363
 5779SOL    HW118236   5.522   2.371   6.356
 5779SOL    HW218237   5.478   2.221   6.310
 5780SOL     OW18238   4.965   4.894   3.354
 5780SOL    HW118239   4.998   4.956   3.425
 5780SOL    HW218240   5.037   4.828   3.331
 5781SOL     OW18241   0.561   3.780   5.118
 5781SOL    HW118242   0.640   3.719   5.108
 5781SOL    HW218243   0.548   3.802   5.215
 5782SOL     OW18244   0.567   1.185   0.775
 5782SOL    HW118245   0.598   1.118   0.842
 5782SOL    HW218246   0.601   1.276   0.800
 5783SOL     OW18247   2.142   2.008   2.367
 5783SOL    HW118248   2.216   2.055   2.414
 5783SOL    HW218249   2.171   1.984   2.274
 5784SOL     OW18250   0.628   6.334   6.627
 5784SOL    HW118251   0.599   6.275   6.552
 5784SOL    HW218252   0.622   6.284   6.714
 5785SOL     OW18253   2.102   1.563   1.279
 5785SOL    HW118254   2.016   1.541   1.326
 5785SOL    HW218255   2.146   1.479   1.249
 5786SOL     OW18256   0.316   3.908   0.616
 5786SOL    HW118257   0.278   3.961   0.541
 5786SOL    HW218258   0.317   3.964   0.699
 5787SOL     OW18259   2.386   1.521   5.596
 5787SOL    HW118260   2.325   1.470   5.536
 5787SOL    HW218261   2.333   1.563   5.670
 5788SOL     OW18262   2.769   0.846   2.835
 5788SOL    HW118263   2.853   0.836   2.781
 5788SOL    HW218264   2.787   0.824   2.931
 5789SOL     OW18265   4.107   5.076   6.364
 5789SOL    HW118266   4.120   5.037   6.273
 5789SOL    HW218267   4.187   5.056   6.421
 5790SOL     OW18268   0.569   3.337   4.154
 5790SOL    HW118269   0.621   3.301   4.076
 5790SOL    HW218270   0.542   3.260   4.213
 5791SOL     OW18271   2.379   0.489   2.873
 5791SOL    HW118272   2.304   0.447   2.822
 5791SOL    HW218273   2.349   0.578   2.908
 5792SOL     OW18274   6.775   1.858   3.081
 5792SOL    HW118275   6.770   1.758   3.092
 5792SOL    HW218276   6.706   1.901   3.139
 5793SOL     OW18277   6.377   1.019   3.845
 5793SOL    HW118278   6.346   0.970   3.927
 5793SOL    HW218279   6.338   1.111   3.844
 5794SOL     OW18280   3.779   3.390   6.990
 5794SOL    HW118281   3.849   3.392   6.919
 5794SOL    HW218282   3.707   3.457   6.968
 5795SOL     OW18283   5.686   4.699   5.924
 5795SOL    HW118284   5.646   4.736   6.008
 5795SOL    HW218285   5.613   4.677   5.859
 5796SOL     OW18286   3.248   1.626   0.202
 5796SOL    HW118287   3.251   1.526   0.209
 5796SOL    HW218288   3.205   1.652   0.115
 5797SOL     OW18289   3.332   2.089   4.503
 5797SOL    HW118290   3.278   2.074   4.586
 5797SOL    HW218291   3.424   2.119   4.527
 5798SOL     OW18292   0.298   4.728   4.848
 5798SOL    HW118293   0.246   4.648   4.821
 5798SOL    HW218294   0.247   4.811   4.824
 5799SOL     OW18295   5.397   6.831   2.907
 5799SOL    HW118296   5.313   6.783   2.932
 5799SOL    HW218297   5.395   6.852   2.809
 5800SOL     OW18298   5.686   4.590   1.309
 5800SOL    HW118299   5.758   4.526   1.282
 5800SOL    HW218300   5.601   4.565   1.263
 5801SOL     OW18301   0.295   1.137   3.444
 5801SOL    HW118302   0.341   1.130   3.355
 5801SOL    HW218303   0.196   1.148   3.430
 5802SOL     OW18304   0.318   3.797   6.375
 5802SOL    HW118305   0.290   3.790   6.471
 5802SOL    HW218306   0.266   3.870   6.330
 5803SOL     OW18307   1.145   4.453   1.025
 5803SOL    HW118308   1.142   4.550   1.003
 5803SOL    HW218309   1.181   4.402   0.947
 5804SOL     OW18310   6.320   3.864   4.682
 5804SOL    HW118311   6.238   3.886   4.629
 5804SOL    HW218312   6.320   3.766   4.703
 5805SOL     OW18313   4.194   3.869   6.157
 5805SOL    HW118314   4.231   3.852   6.065
 5805SOL    HW218315   4.253   3.933   6.205
 5806SOL     OW18316   0.940   6.763   0.161
 5806SOL    HW118317   0.915   6.697   0.091
 5806SOL    HW218318   0.858   6.815   0.189
 5807SOL     OW18319   1.810   3.770   0.732
 5807SOL    HW118320   1.890   3.826   0.710
 5807SOL    HW218321   1.802   3.696   0.666
 5808SOL     OW18322   5.509   4.030   2.451
 5808SOL    HW118323   5.473   3.974   2.377
 5808SOL    HW218324   5.492   3.985   2.539
 5809SOL     OW18325   6.687   3.123   4.662
 5809SOL    HW118326   6.677   3.207   4.716
 5809SOL    HW218327   6.623   3.054   4.695
 5810SOL     OW18328   3.353   1.414   3.650
 5810SOL    HW118329   3.272   1.367   3.617
 5810SOL    HW218330   3.431   1.392   3.591
 5811SOL     OW18331   2.656   0.345   4.861
 5811SOL    HW118332   2.726   0.317   4.795
 5811SOL    HW218333   2.674   0.438   4.892
 5812SOL     OW18334   4.670   0.445   3.201
 5812SOL    HW118335   4.726   0.465   3.281
 5812SOL    HW218336   4.597   0.514   3.195
 5813SOL     OW18337   1.222   1.215   5.837
 5813SOL    HW118338   1.155   1.183   5.769
 5813SOL    HW218339   1.308   1.236   5.791
 5814SOL     OW18340   0.386   4.507   0.624
 5814SOL    HW118341   0.483   4.514   0.647
 5814SOL    HW218342   0.331   4.542   0.700
 5815SOL     OW18343   4.033   2.213   2.866
 5815SOL    HW118344   4.057   2.140   2.929
 5815SOL    HW218345   3.935   2.233   2.873
 5816SOL     OW18346   4.926   0.261   0.131
 5816SOL    HW118347   4.942   0.339   0.071
 5816SOL    HW218348   4.964   0.178   0.089
 5817SOL     OW18349   5.510   3.262   6.325
 5817SOL    HW118350   5.446   3.332   6.356
 5817SOL    HW218351   5.597   3.273   6.374
 5818SOL     OW18352   5.848   6.650   5.860
 5818SOL    HW118353   5.946   6.631   5.869
 5818SOL    HW218354   5.801   6.568   5.829
 5819SOL     OW18355   5.312   0.186   1.252
 5819SOL    HW118356   5.221   0.221   1.275
 5819SOL    HW218357   5.367   0.260   1.212
 5820SOL     OW18358   5.098   7.012   3.286
 5820SOL    HW118359   5.161   0.053   3.334
 5820SOL    HW218360   5.014   7.001   3.340
 5821SOL     OW18361   2.886   0.355   2.080
 5821SOL    HW118362   2.812   0.343   2.014
 5821SOL    HW218363   2.852   0.335   2.172
 5822SOL     OW18364   0.395   2.381   1.743
 5822SOL    HW118365   0.491   2.352   1.743
 5822SOL    HW218366   0.389   2.474   1.705
 5823SOL     OW18367   1.630   1.386   4.696
 5823SOL    HW118368   1.563   1.422   4.761
 5823SOL    HW218369   1.718   1.430   4.712
 5824SOL     OW18370   6.539   6.751   3.436
 5824SOL    HW118371   6.459   6.705   3.474
 5824SOL    HW218372   6.556   6.717   3.343
 5825SOL     OW18373   2.435   1.578   6.467
 5825SOL    HW118374   2.411   1.523   6.388
 5825SOL    HW218375   2.529   1.611   6.458
 5826SOL     OW18376   5.884   6.176   5.229
 5826SOL    HW118377   5.810   6.155   5.166
 5826SOL    HW218378   5.857   6.252   5.288
 5827SOL     OW18379   0.756   5.441   4.766
 5827SOL    HW118380   0.686   5.454   4.697
 5827SOL    HW218381   0.835   5.499   4.745
 5828SOL     OW18382   0.480   3.979   2.228
 5828SOL    HW118383   0.557   3.918   2.242
 5828SOL    HW218384   0.399   3.925   2.205
 5829SOL     OW18385   3.082   1.107   1.926
 5829SOL    HW118386   3.154   1.171   1.900
 5829SOL    HW218387   2.993   1.142   1.896
 5830SOL     OW18388   3.571   0.979   5.733
 5830SOL    HW118389   3.529   1.049   5.675
 5830SOL    HW218390   3.643   1.020   5.789
 5831SOL     OW18391   5.643   6.080   3.031
 5831SOL    HW118392   5.706   6.124   2.966
 5831SOL    HW218393   5.657   6.120   3.122
 5832SOL     OW18394   3.984   4.104   5.273
 5832SOL    HW118395   3.965   4.006   5.282
 5832SOL    HW218396   4.082   4.118   5.263
 5833SOL     OW18397   2.968   3.567   3.911
 5833SOL    HW118398   2.988   3.665   3.911
 5833SOL    HW218399   2.919   3.543   3.827
 5834SOL     OW18400   6.119   1.485   0.315
 5834SOL    HW118401   6.149   1.395   0.284
 5834SOL    HW218402   6.180   1.555   0.278
 5835SOL     OW18403   4.999   2.195   3.278
 5835SOL    HW118404   5.064   2.183   3.353
 5835SOL    HW218405   5.032   2.265   3.216
 5836SOL     OW18406   3.041   6.306   2.552
 5836SOL    HW118407   3.044   6.395   2.597
 5836SOL    HW218408   2.991   6.241   2.609
 5837SOL     OW18409   4.664   4.336   0.229
 5837SOL    HW118410   4.724   4.309   0.154
 5837SOL    HW218411   4.704   4.306   0.316
 5838SOL     OW18412   1.383   1.819   5.971
 5838SOL    HW118413   1.286   1.798   5.955
 5838SOL    HW218414   1.430   1.736   6.002
 5839SOL     OW18415   6.801   3.288   2.538
 5839SOL    HW118416   6.877   3.321   2.482
 5839SOL    HW218417   6.733   3.244   2.480
 5840SOL     OW18418   1.263   5.915   6.270
 5840SOL    HW118419   1.322   5.839   6.243
 5840SOL    HW218420   1.168   5.882   6.276
 5841SOL     OW18421   6.093   3.445   3.310
 5841SOL    HW118422   6.173   3.505   3.307
 5841SOL    HW218423   6.114   3.359   3.264
 5842SOL     OW18424   3.997   2.927   0.804
 5842SOL    HW118425   3.986   2.877   0.890
 5842SOL    HW218426   4.084   2.975   0.804
 5843SOL     OW18427   1.858   3.550   2.629
 5843SOL    HW118428   1.856   3.646   2.657
 5843SOL    HW218429   1.846   3.491   2.709
 5844SOL     OW18430   0.151   5.692   6.369
 5844SOL    HW118431   0.107   5.619   6.316
 5844SOL    HW218432   0.091   5.718   6.445
 5845SOL     OW18433   0.939   2.533   3.416
 5845SOL    HW118434   0.892   2.448   3.439
 5845SOL    HW218435   0.966   2.531   3.320
 5846SOL     OW18436   6.923   2.608   5.028
 5846SOL    HW118437   6.885   2.516   5.037
 5846SOL    HW218438   6.932   2.650   5.118
 5847SOL     OW18439   2.179   2.360   2.742
 5847SOL    HW118440   2.079   2.359   2.729
 5847SOL    HW218441   2.220   2.420   2.673
 5848SOL     OW18442   2.376   4.877   3.581
 5848SOL    HW118443   2.370   4.809   3.508
 5848SOL    HW218444   2.338   4.964   3.549
 5849SOL     OW18445   1.154   0.432   5.936
 5849SOL    HW118446   1.222   0.503   5.955
 5849SOL    HW218447   1.150   0.417   5.837
 5850SOL     OW18448   1.528   4.160   2.129
 5850SOL    HW118449   1.526   4.159   2.229
 5850SOL    HW218450   1.461   4.095   2.094
 5851SOL     OW18451   6.166   3.955   2.663
 5851SOL    HW118452   6.070   3.983   2.658
 5851SOL    HW218453   6.225   4.035   2.657
 5852SOL     OW18454   3.874   6.121   2.819
 5852SOL    HW118455   3.947   6.104   2.753
 5852SOL    HW218456   3.841   6.034   2.856
 5853SOL     OW18457   3.169   5.314   6.310
 5853SOL    HW118458   3.121   5.296   6.396
 5853SOL    HW218459   3.112   5.282   6.234
 5854SOL     OW18460   6.950   2.015   5.450
 5854SOL    HW118461   6.943   2.103   5.402
 5854SOL    HW218462   7.008   1.953   5.398
 5855SOL     OW18463   1.297   0.840   4.272
 5855SOL    HW118464   1.330   0.747   4.290
 5855SOL    HW218465   1.323   0.900   4.347
 5856SOL     OW18466   2.459   4.845   3.133
 5856SOL    HW118467   2.438   4.779   3.204
 5856SOL    HW218468   2.433   4.937   3.164
 5857SOL     OW18469   6.399   2.504   4.993
 5857SOL    HW118470   6.376   2.411   4.965
 5857SOL    HW218471   6.379   2.516   5.090
 5858SOL     OW18472   3.091   1.284   2.405
 5858SOL    HW118473   3.130   1.370   2.373
 5858SOL    HW218474   3.078   1.289   2.505
 5859SOL     OW18475   6.737   6.049   0.667
 5859SOL    HW118476   6.681   6.128   0.693
 5859SOL    HW218477   6.749   6.048   0.568
 5860SOL     OW18478   1.733   4.700   1.868
 5860SOL    HW118479   1.750   4.605   1.894
 5860SOL    HW218480   1.707   4.703   1.771
 5861SOL     OW18481   5.308   2.209   3.764
 5861SOL    HW118482   5.265   2.142   3.825
 5861SOL    HW218483   5.405   2.190   3.756
 5862SOL     OW18484   3.841   5.048   3.205
 5862SOL    HW118485   3.919   5.001   3.246
 5862SOL    HW218486   3.758   4.993   3.219
 5863SOL     OW18487   1.982   0.791   6.165
 5863SOL    HW118488   2.048   0.778   6.238
 5863SOL    HW218489   1.904   0.730   6.179
 5864SOL     OW18490   4.055   4.265   1.496
 5864SOL    HW118491   4.133   4.309   1.451
 5864SOL    HW218492   4.089   4.198   1.563
 5865SOL     OW18493   5.291   0.775   3.305
 5865SOL    HW118494   5.224   0.842   3.337
 5865SOL    HW218495   5.270   0.751   3.210
 5866SOL     OW18496   4.714   6.844   5.487
 5866SOL    HW118497   4.660   6.764   5.515
 5866SOL    HW218498   4.775   6.819   5.412
 5867SOL     OW18499   0.128   2.828   1.377
 5867SOL    HW118500   0.042   2.860   1.335
 5867SOL    HW218501   0.107   2.766   1.453
 5868SOL     OW18502   1.076   0.124   5.451
 5868SOL    HW118503   1.012   0.195   5.421
 5868SOL    HW218504   1.169   0.159   5.448
 5869SOL     OW18505   2.548   4.527   4.470
 5869SOL    HW118506   2.596   4.574   4.544
 5869SOL    HW218507   2.600   4.537   4.385
 5870SOL     OW18508   5.566   5.373   4.557
 5870SOL    HW118509   5.621   5.455   4.572
 5870SOL    HW218510   5.470   5.393   4.573
 5871SOL     OW18511   3.563   3.302   0.130
 5871SOL    HW118512   3.643   3.338   0.082
 5871SOL    HW218513   3.583   3.210   0.163
 5872SOL     OW18514   4.277   5.827   6.397
 5872SOL    HW118515   4.178   5.840   6.385
 5872SOL    HW218516   4.317   5.909   6.438
 5873SOL     OW18517   2.573   2.971   0.278
 5873SOL    HW118518   2.610   2.906   0.212
 5873SOL    HW218519   2.607   2.948   0.369
 5874SOL     OW18520   2.323   3.382   1.598
 5874SOL    HW118521   2.247   3.446   1.587
 5874SOL    HW218522   2.356   3.385   1.692
 5875SOL     OW18523   3.489   1.876   6.990
 5875SOL    HW118524   3.411   1.938   6.983
 5875SOL    HW218525   3.562   1.921   0.022
 5876SOL     OW18526   3.414   3.462   6.637
 5876SOL    HW118527   3.374   3.446   6.547
 5876SOL    HW218528   3.378   3.395   6.703
 5877SOL     OW18529   6.321   0.620   1.320
 5877SOL    HW118530   6.404   0.639   1.371
 5877SOL    HW218531   6.287   0.704   1.279
 5878SOL     OW18532   4.555   5.481   2.003
 5878SOL    HW118533   4.642   5.511   1.964
 5878SOL    HW218534   4.494   5.560   2.013
 5879SOL     OW18535   3.543   3.116   6.400
 5879SOL    HW118536   3.498   3.171   6.329
 5879SOL    HW218537   3.487   3.118   6.483
 5880SOL     OW18538   5.247   3.227   5.619
 5880SOL    HW118539   5.161   3.273   5.639
 5880SOL    HW218540   5.274   3.247   5.525
 5881SOL     OW18541   0.827   6.493   2.461
 5881SOL    HW118542   0.828   6.467   2.558
 5881SOL    HW218543   0.740   6.536   2.439
 5882SOL     OW18544   1.093   6.243   5.788
 5882SOL    HW118545   1.111   6.264   5.692
 5882SOL    HW218546   0.994   6.235   5.802
 5883SOL     OW18547   0.159   3.884   0.925
 5883SOL    HW118548   0.189   3.812   0.863
 5883SOL    HW218549   0.082   3.933   0.883
 5884SOL     OW18550   5.616   1.757   3.748
 5884SOL    HW118551   5.563   1.813   3.811
 5884SOL    HW218552   5.674   1.695   3.801
 5885SOL     OW18553   0.300   5.434   0.150
 5885SOL    HW118554   0.243   5.358   0.181
 5885SOL    HW218555   0.333   5.485   0.229
 5886SOL     OW18556   1.506   3.671   3.104
 5886SOL    HW118557   1.422   3.689   3.054
 5886SOL    HW218558   1.550   3.758   3.127
 5887SOL     OW18559   2.131   2.203   1.298
 5887SOL    HW118560   2.075   2.224   1.218
 5887SOL    HW218561   2.090   2.245   1.379
 5888SOL     OW18562   2.623   6.552   1.790
 5888SOL    HW118563   2.619   6.475   1.726
 5888SOL    HW218564   2.643   6.636   1.740
 5889SOL     OW18565   0.030   0.542   1.286
 5889SOL    HW118566   6.996   0.464   1.318
 5889SOL    HW218567   0.044   0.535   1.187
 5890SOL     OW18568   2.654   6.354   2.288
 5890SOL    HW118569   2.727   6.411   2.325
 5890SOL    HW218570   2.683   6.258   2.288
 5891SOL     OW18571   2.698   3.221   1.133
 5891SOL    HW118572   2.691   3.227   1.232
 5891SOL    HW218573   2.608   3.235   1.092
 5892SOL     OW18574   0.802   3.267   0.727
 5892SOL    HW118575   0.826   3.318   0.810
 5892SOL    HW218576   0.796   3.330   0.650
 5893SOL     OW18577   0.922   5.796   1.936
 5893SOL    HW118578   0.889   5.786   1.842
 5893SOL    HW218579   0.845   5.812   1.998
 5894SOL     OW18580   1.321   5.730   5.948
 5894SOL    HW118581   1.402   5.770   5.905
 5894SOL    HW218582   1.299   5.643   5.905
 5895SOL     OW18583   5.763   3.134   4.636
 5895SOL    HW118584   5.760   3.058   4.700
 5895SOL    HW218585   5.847   3.186   4.650
 5896SOL     OW18586   6.017   2.156   1.471
 5896SOL    HW118587   5.942   2.153   1.537
 5896SOL    HW218588   5.993   2.217   1.396
 5897SOL     OW18589   4.625   1.580   0.902
 5897SOL    HW118590   4.723   1.596   0.914
 5897SOL    HW218591   4.583   1.661   0.861
 5898SOL     OW18592   1.862   1.547   5.707
 5898SOL    HW118593   1.911   1.549   5.794
 5898SOL    HW218594   1.909   1.486   5.643
 5899SOL     OW18595   0.103   5.388   6.280
 5899SOL    HW118596   0.133   5.410   6.188
 5899SOL    HW218597   0.017   5.337   6.276
 5900SOL     OW18598   6.840   6.054   2.960
 5900SOL    HW118599   6.858   6.024   2.866
 5900SOL    HW218600   6.846   6.154   2.964
 5901SOL     OW18601   1.814   7.001   6.503
 5901SOL    HW118602   1.847   0.033   6.582
 5901SOL    HW218603   1.783   6.910   6.531
 5902SOL     OW18604   5.990   4.674   4.853
 5902SOL    HW118605   6.068   4.701   4.910
 5902SOL    HW218606   5.965   4.580   4.874
 5903SOL     OW18607   6.400   2.326   6.402
 5903SOL    HW118608   6.370   2.231   6.392
 5903SOL    HW218609   6.403   2.370   6.313
 5904SOL     OW18610   2.122   4.534   3.100
 5904SOL    HW118611   2.167   4.474   3.166
 5904SOL    HW218612   2.023   4.535   3.118
 5905SOL     OW18613   5.739   1.048   4.282
 5905SOL    HW118614   5.837   1.031   4.287
 5905SOL    HW218615   5.722   1.144   4.259
 5906SOL     OW18616   5.080   0.943   5.339
 5906SOL    HW118617   5.023   0.874   5.294
 5906SOL    HW218618   5.035   0.974   5.423
 5907SOL     OW18619   1.817   1.674   0.010
 5907SOL    HW118620   1.751   1.709   6.962
 5907SOL    HW218621   1.857   1.589   6.995
 5908SOL     OW18622   4.608   3.665   5.922
 5908SOL    HW118623   4.564   3.744   5.966
 5908SOL    HW218624   4.700   3.654   5.959
 5909SOL     OW18625   6.941   4.515   5.281
 5909SOL    HW118626   6.891   4.590   5.239
 5909SOL    HW218627   6.948   4.439   5.217
 5910SOL     OW18628   2.062   3.858   1.436
 5910SOL    HW118629   2.044   3.780   1.376
 5910SOL    HW218630   2.104   3.932   1.382
 5911SOL     OW18631   6.241   5.158   6.225
 5911SOL    HW118632   6.282   5.206   6.303
 5911SOL    HW218633   6.256   5.211   6.142
 5912SOL     OW18634   6.342   3.712   6.948
 5912SOL    HW118635   6.321   3.792   6.891
 5912SOL    HW218636   6.441   3.704   6.958
 5913SOL     OW18637   2.004   1.859   5.773
 5913SOL    HW118638   1.947   1.884   5.695
 5913SOL    HW218639   2.046   1.770   5.757
 5914SOL     OW18640   2.305   5.340   0.536
 5914SOL    HW118641   2.287   5.390   0.620
 5914SOL    HW218642   2.305   5.403   0.458
 5915SOL     OW18643   4.841   2.947   2.507
 5915SOL    HW118644   4.825   2.892   2.589
 5915SOL    HW218645   4.789   2.909   2.431
 5916SOL     OW18646   4.010   7.002   5.538
 5916SOL    HW118647   3.951   6.922   5.546
 5916SOL    HW218648   4.093   6.977   5.488
 5917SOL     OW18649   3.553   3.285   3.027
 5917SOL    HW118650   3.522   3.374   3.059
 5917SOL    HW218651   3.652   3.288   3.010
 5918SOL     OW18652   1.917   3.398   3.952
 5918SOL    HW118653   1.938   3.402   4.049
 5918SOL    HW218654   1.995   3.434   3.900
 5919SOL     OW18655   2.457   2.454   6.915
 5919SOL    HW118656   2.455   2.365   6.870
 5919SOL    HW218657   2.369   2.500   6.904
 5920SOL     OW18658   3.713   0.385   6.619
 5920SOL    HW118659   3.731   0.343   6.708
 5920SOL    HW218660   3.772   0.465   6.607
 5921SOL     OW18661   3.981   5.033   5.596
 5921SOL    HW118662   4.004   5.044   5.499
 5921SOL    HW218663   4.052   5.076   5.651
 5922SOL     OW18664   6.349   4.692   3.075
 5922SOL    HW118665   6.310   4.740   2.997
 5922SOL    HW218666   6.298   4.608   3.091
 5923SOL     OW18667   6.794   0.217   3.266
 5923SOL    HW118668   6.828   0.243   3.175
 5923SOL    HW218669   6.698   0.190   3.260
 5924SOL     OW18670   5.010   2.187   4.564
 5924SOL    HW118671   4.927   2.221   4.608
 5924SOL    HW218672   4.986   2.124   4.490
 5925SOL     OW18673   5.265   5.808   1.117
 5925SOL    HW118674   5.211   5.792   1.200
 5925SOL    HW218675   5.268   5.906   1.097
 5926SOL     OW18676   3.522   4.869   1.535
 5926SOL    HW118677   3.463   4.795   1.568
 5926SOL    HW218678   3.470   4.926   1.470
 5927SOL     OW18679   2.744   5.989   1.736
 5927SOL    HW118680   2.836   5.974   1.701
 5927SOL    HW218681   2.749   6.039   1.823
 5928SOL     OW18682   1.115   6.931   2.784
 5928SOL    HW118683   1.183   6.991   2.825
 5928SOL    HW218684   1.033   6.930   2.842
 5929SOL     OW18685   1.279   6.627   6.099
 5929SOL    HW118686   1.335   6.684   6.159
 5929SOL    HW218687   1.319   6.535   6.094
 5930SOL     OW18688   6.223   1.353   4.896
 5930SOL    HW118689   6.210   1.336   4.994
 5930SOL    HW218690   6.168   1.287   4.844
 5931SOL     OW18691   6.206   5.524   1.365
 5931SOL    HW118692   6.236   5.453   1.428
 5931SOL    HW218693   6.275   5.538   1.294
 5932SOL     OW18694   2.112   6.590   0.840
 5932SOL    HW118695   2.092   6.653   0.765
 5932SOL    HW218696   2.211   6.587   0.856
 5933SOL     OW18697   6.999   4.243   3.272
 5933SOL    HW118698   6.989   4.342   3.267
 5933SOL    HW218699   6.994   4.213   3.367
 5934SOL     OW18700   3.652   3.884   2.769
 5934SOL    HW118701   3.568   3.939   2.769
 5934SOL    HW218702   3.720   3.927   2.709
 5935SOL     OW18703   4.023   3.902   4.297
 5935SOL    HW118704   4.064   3.825   4.346
 5935SOL    HW218705   4.017   3.981   4.359
 5936SOL     OW18706   4.928   4.945   6.830
 5936SOL    HW118707   4.970   5.026   6.787
 5936SOL    HW218708   4.855   4.974   6.891
 5937SOL     OW18709   2.068   3.536   0.862
 5937SOL    HW118710   1.983   3.489   0.886
 5937SOL    HW218711   2.103   3.499   0.776
 5938SOL     OW18712   2.314   4.139   3.113
 5938SOL    HW118713   2.412   4.157   3.098
 5938SOL    HW218714   2.267   4.138   3.025
 5939SOL     OW18715   2.950   0.313   2.826
 5939SOL    HW118716   2.859   0.272   2.819
 5939SOL    HW218717   2.983   0.305   2.920
 5940SOL     OW18718   3.791   0.037   2.933
 5940SOL    HW118719   3.702   0.081   2.947
 5940SOL    HW218720   3.840   0.033   3.020
 5941SOL     OW18721   6.310   5.114   2.443
 5941SOL    HW118722   6.397   5.097   2.489
 5941SOL    HW218723   6.316   5.083   2.348
 5942SOL     OW18724   4.036   3.450   5.996
 5942SOL    HW118725   4.083   3.495   6.072
 5942SOL    HW218726   3.938   3.472   5.999
 5943SOL     OW18727   1.898   5.931   0.426
 5943SOL    HW118728   1.997   5.921   0.433
 5943SOL    HW218729   1.876   6.028   0.414
 5944SOL     OW18730   5.004   1.376   2.029
 5944SOL    HW118731   4.992   1.385   1.930
 5944SOL    HW218732   4.996   1.466   2.071
 5945SOL     OW18733   6.542   4.707   5.947
 5945SOL    HW118734   6.602   4.747   5.878
 5945SOL    HW218735   6.516   4.777   6.014
 5946SOL     OW18736   4.794   2.937   6.245
 5946SOL    HW118737   4.824   3.024   6.204
 5946SOL    HW218738   4.717   2.955   6.306
 5947SOL     OW18739   4.418   3.680   1.667
 5947SOL    HW118740   4.475   3.634   1.599
 5947SOL    HW218741   4.337   3.717   1.622
 5948SOL     OW18742   3.556   4.918   3.066
 5948SOL    HW118743   3.631   4.885   3.009
 5948SOL    HW218744   3.574   4.897   3.162
 5949SOL     OW18745   4.296   4.841   1.323
 5949SOL    HW118746   4.386   4.874   1.350
 5949SOL    HW218747   4.250   4.800   1.402
 5950SOL     OW18748   6.121   1.888   4.425
 5950SOL    HW118749   6.116   1.952   4.348
 5950SOL    HW218750   6.178   1.927   4.497
 5951SOL     OW18751   1.873   5.753   3.993
 5951SOL    HW118752   1.855   5.752   3.895
 5951SOL    HW218753   1.788   5.773   4.042
 5952SOL     OW18754   6.754   6.552   3.751
 5952SOL    HW118755   6.781   6.465   3.792
 5952SOL    HW218756   6.655   6.560   3.750
 5953SOL     OW18757   6.539   2.854   5.730
 5953SOL    HW118758   6.578   2.820   5.816
 5953SOL    HW218759   6.441   2.834   5.728
 5954SOL     OW18760   6.843   4.752   6.508
 5954SOL    HW118761   6.893   4.665   6.506
 5954SOL    HW218762   6.814   4.776   6.416
 5955SOL     OW18763   5.076   5.284   1.817
 5955SOL    HW118764   5.122   5.195   1.823
 5955SOL    HW218765   5.010   5.292   1.891
 5956SOL     OW18766   4.535   2.165   6.778
 5956SOL    HW118767   4.533   2.262   6.804
 5956SOL    HW218768   4.442   2.129   6.778
 5957SOL     OW18769   6.095   6.048   6.511
 5957SOL    HW118770   6.027   6.121   6.521
 5957SOL    HW218771   6.048   5.961   6.495
 5958SOL     OW18772   6.890   5.862   1.793
 5958SOL    HW118773   6.895   5.854   1.693
 5958SOL    HW218774   6.851   5.951   1.817
 5959SOL     OW18775   2.738   1.697   5.946
 5959SOL    HW118776   2.805   1.749   5.893
 5959SOL    HW218777   2.707   1.618   5.892
 5960SOL     OW18778   2.752   6.959   3.608
 5960SOL    HW118779   2.847   6.984   3.630
 5960SOL    HW218780   2.752   6.887   3.539
 5961SOL     OW18781   3.213   0.795   4.800
 5961SOL    HW118782   3.207   0.731   4.724
 5961SOL    HW218783   3.295   0.777   4.854
 5962SOL     OW18784   4.625   5.553   2.288
 5962SOL    HW118785   4.548   5.492   2.269
 5962SOL    HW218786   4.710   5.500   2.290
 5963SOL     OW18787   3.826   3.482   2.579
 5963SOL    HW118788   3.924   3.495   2.596
 5963SOL    HW218789   3.814   3.409   2.511
 5964SOL     OW18790   0.194   5.063   6.207
 5964SOL    HW118791   0.268   5.081   6.272
 5964SOL    HW218792   0.107   5.054   6.256
 5965SOL     OW18793   2.193   2.768   5.970
 5965SOL    HW118794   2.139   2.848   5.995
 5965SOL    HW218795   2.220   2.719   6.053
 5966SOL     OW18796   3.267   5.932   4.995
 5966SOL    HW118797   3.275   5.936   4.896
 5966SOL    HW218798   3.253   5.838   5.024
 5967SOL     OW18799   4.629   0.014   3.195
 5967SOL    HW118800   4.708   0.045   3.140
 5967SOL    HW218801   4.561   6.991   3.134
 5968SOL     OW18802   6.470   2.384   3.341
 5968SOL    HW118803   6.509   2.347   3.257
 5968SOL    HW218804   6.524   2.463   3.370
 5969SOL     OW18805   5.725   3.847   3.662
 5969SOL    HW118806   5.725   3.893   3.751
 5969SOL    HW218807   5.752   3.751   3.673
 5970SOL     OW18808   1.473   3.695   2.474
 5970SOL    HW118809   1.455   3.793   2.476
 5970SOL    HW218810   1.483   3.665   2.379
 5971SOL     OW18811   1.817   6.234   2.959
 5971SOL    HW118812   1.757   6.155   2.947
 5971SOL    HW218813   1.904   6.217   2.914
 5972SOL     OW18814   5.085   0.057   0.015
 5972SOL    HW118815   5.161   0.121   0.021
 5972SOL    HW218816   5.097   7.017   6.954
 5973SOL     OW18817   1.967   4.251   2.865
 5973SOL    HW118818   2.005   4.226   2.776
 5973SOL    HW218819   2.025   4.213   2.938
 5974SOL     OW18820   7.011   3.781   0.483
 5974SOL    HW118821   6.967   3.743   0.402
 5974SOL    HW218822   6.951   3.772   0.562
 5975SOL     OW18823   3.705   2.829   1.339
 5975SOL    HW118824   3.693   2.769   1.260
 5975SOL    HW218825   3.660   2.789   1.419
 5976SOL     OW18826   2.870   3.376   4.984
 5976SOL    HW118827   2.796   3.367   4.917
 5976SOL    HW218828   2.951   3.327   4.951
 5977SOL     OW18829   1.473   4.673   1.989
 5977SOL    HW118830   1.567   4.677   1.954
 5977SOL    HW218831   1.412   4.642   1.916
 5978SOL     OW18832   5.361   4.684   2.683
 5978SOL    HW118833   5.393   4.618   2.616
 5978SOL    HW218834   5.435   4.706   2.747
 5979SOL     OW18835   6.316   0.839   3.630
 5979SOL    HW118836   6.294   0.891   3.547
 5979SOL    HW218837   6.348   0.902   3.701
 5980SOL     OW18838   5.158   3.951   0.693
 5980SOL    HW118839   5.117   4.042   0.691
 5980SOL    HW218840   5.257   3.958   0.680
 5981SOL     OW18841   5.811   1.418   2.580
 5981SOL    HW118842   5.761   1.489   2.629
 5981SOL    HW218843   5.752   1.338   2.568
 5982SOL     OW18844   6.938   1.849   6.677
 5982SOL    HW118845   6.970   1.911   6.606
 5982SOL    HW218846   6.871   1.786   6.638
 5983SOL     OW18847   1.531   1.442   3.899
 5983SOL    HW118848   1.501   1.437   3.994
 5983SOL    HW218849   1.621   1.399   3.889
 5984SOL     OW18850   6.846   6.109   4.466
 5984SOL    HW118851   6.843   6.154   4.377
 5984SOL    HW218852   6.924   6.144   4.519
 5985SOL     OW18853   5.013   1.818   3.974
 5985SOL    HW118854   4.960   1.734   3.981
 5985SOL    HW218855   4.954   1.896   3.995
 5986SOL     OW18856   3.751   3.211   2.782
 5986SOL    HW118857   3.780   3.211   2.878
 5986SOL    HW218858   3.814   3.265   2.727
 5987SOL     OW18859   4.619   6.573   4.849
 5987SOL    HW118860   4.719   6.577   4.839
 5987SOL    HW218861   4.576   6.631   4.780
 5988SOL     OW18862   4.156   6.818   4.061
 5988SOL    HW118863   4.145   6.823   3.962
 5988SOL    HW218864   4.165   6.911   4.098
 5989SOL     OW18865   2.871   0.432   6.020
 5989SOL    HW118866   2.801   0.500   6.044
 5989SOL    HW218867   2.845   0.385   5.936
 5990SOL     OW18868   3.425   5.280   0.548
 5990SOL    HW118869   3.485   5.359   0.534
 5990SOL    HW218870   3.330   5.307   0.530
 5991SOL     OW18871   3.591   5.403   4.461
 5991SOL    HW118872   3.683   5.433   4.488
 5991SOL    HW218873   3.540   5.482   4.427
 5992SOL     OW18874   3.592   0.558   3.782
 5992SOL    HW118875   3.525   0.536   3.711
 5992SOL    HW218876   3.683   0.531   3.752
 5993SOL     OW18877   2.504   6.175   6.152
 5993SOL    HW118878   2.551   6.099   6.197
 5993SOL    HW218879   2.537   6.185   6.058
 5994SOL     OW18880   5.994   2.808   2.636
 5994SOL    HW118881   5.965   2.894   2.594
 5994SOL    HW218882   6.080   2.823   2.685
 5995SOL     OW18883   6.675   4.971   0.918
 5995SOL    HW118884   6.700   5.057   0.876
 5995SOL    HW218885   6.743   4.901   0.896
 5996SOL     OW18886   0.228   5.258   6.490
 5996SOL    HW118887   0.183   5.315   6.421
 5996SOL    HW218888   0.303   5.309   6.533
 5997SOL     OW18889   0.405   6.688   1.660
 5997SOL    HW118890   0.430   6.785   1.667
 5997SOL    HW218891   0.323   6.671   1.714
 5998SOL     OW18892   5.580   1.783   2.471
 5998SOL    HW118893   5.573   1.750   2.377
 5998SOL    HW218894   5.624   1.873   2.472
 5999SOL     OW18895   1.824   1.976   2.907
 5999SOL    HW118896   1.843   2.073   2.892
 5999SOL    HW218897   1.728   1.957   2.886
 6000SOL     OW18898   4.198   5.391   2.294
 6000SOL    HW118899   4.280   5.346   2.257
 6000SOL    HW218900   4.195   5.486   2.264
 6001SOL     OW18901   6.616   2.842   6.757
 6001SOL    HW118902   6.641   2.750   6.729
 6001SOL    HW218903   6.518   2.856   6.742
 6002SOL     OW18904   1.691   0.546   1.813
 6002SOL    HW118905   1.633   0.590   1.881
 6002SOL    HW218906   1.786   0.577   1.825
 6003SOL     OW18907   5.393   4.196   4.958
 6003SOL    HW118908   5.407   4.183   4.859
 6003SOL    HW218909   5.415   4.290   4.982
 6004SOL     OW18910   0.596   3.490   2.493
 6004SOL    HW118911   0.651   3.430   2.436
 6004SOL    HW218912   0.540   3.549   2.436
 6005SOL     OW18913   3.300   5.540   3.869
 6005SOL    HW118914   3.244   5.576   3.794
 6005SOL    HW218915   3.394   5.571   3.858
 6006SOL     OW18916   2.773   6.499   6.647
 6006SOL    HW118917   2.854   6.444   6.667
 6006SOL    HW218918   2.705   6.442   6.601
 6007SOL     OW18919   5.972   2.518   4.159
 6007SOL    HW118920   5.960   2.424   4.190
 6007SOL    HW218921   6.062   2.528   4.118
 6008SOL     OW18922   2.991   4.676   5.918
 6008SOL    HW118923   3.064   4.657   5.984
 6008SOL    HW218924   2.948   4.590   5.889
 6009SOL     OW18925   2.365   1.824   4.310
 6009SOL    HW118926   2.450   1.875   4.293
 6009SOL    HW218927   2.287   1.884   4.296
 6010SOL     OW18928   2.084   4.289   2.590
 6010SOL    HW118929   2.175   4.252   2.575
 6010SOL    HW218930   2.056   4.342   2.510
 6011SOL     OW18931   5.485   2.758   2.220
 6011SOL    HW118932   5.476   2.843   2.273
 6011SOL    HW218933   5.441   2.769   2.131
 6012SOL     OW18934   6.642   2.871   0.663
 6012SOL    HW118935   6.741   2.865   0.675
 6012SOL    HW218936   6.619   2.853   0.567
 6013SOL     OW18937   6.069   0.999   2.367
 6013SOL    HW118938   6.165   1.023   2.354
 6013SOL    HW218939   6.053   0.973   2.462
 6014SOL     OW18940   5.526   0.226   0.518
 6014SOL    HW118941   5.562   0.183   0.435
 6014SOL    HW218942   5.574   0.189   0.598
 6015SOL     OW18943   5.639   2.179   4.632
 6015SOL    HW118944   5.600   2.217   4.716
 6015SOL    HW218945   5.713   2.239   4.600
 6016SOL     OW18946   1.796   0.649   5.091
 6016SOL    HW118947   1.876   0.612   5.138
 6016SOL    HW218948   1.755   0.579   5.034
 6017SOL     OW18949   6.296   5.080   2.875
 6017SOL    HW118950   6.262   5.132   2.796
 6017SOL    HW218951   6.390   5.108   2.895
 6018SOL     OW18952   2.890   3.286   0.928
 6018SOL    HW118953   2.837   3.267   1.011
 6018SOL    HW218954   2.852   3.234   0.851
 6019SOL     OW18955   3.521   0.926   3.963
 6019SOL    HW118956   3.593   0.877   3.914
 6019SOL    HW218957   3.556   1.015   3.993
 6020SOL     OW18958   3.944   0.782   2.646
 6020SOL    HW118959   3.992   0.728   2.576
 6020SOL    HW218960   3.879   0.843   2.603
 6021SOL     OW18961   4.272   1.465   2.456
 6021SOL    HW118962   4.182   1.421   2.447
 6021SOL    HW218963   4.319   1.429   2.536
 6022SOL     OW18964   4.507   1.548   3.250
 6022SOL    HW118965   4.502   1.643   3.217
 6022SOL    HW218966   4.421   1.523   3.293
 6023SOL     OW18967   0.466   1.645   3.199
 6023SOL    HW118968   0.534   1.631   3.128
 6023SOL    HW218969   0.453   1.560   3.251
 6024SOL     OW18970   0.652   4.965   1.640
 6024SOL    HW118971   0.736   4.918   1.614
 6024SOL    HW218972   0.654   5.059   1.605
 6025SOL     OW18973   4.330   1.453   1.582
 6025SOL    HW118974   4.398   1.485   1.648
 6025SOL    HW218975   4.353   1.487   1.491
 6026SOL     OW18976   6.439   4.662   5.239
 6026SOL    HW118977   6.513   4.630   5.180
 6026SOL    HW218978   6.446   4.761   5.251
 6027SOL     OW18979   2.913   2.749   6.483
 6027SOL    HW118980   2.839   2.815   6.467
 6027SOL    HW218981   2.883   2.681   6.550
 6028SOL     OW18982   1.829   4.090   0.194
 6028SOL    HW118983   1.884   4.097   0.277
 6028SOL    HW218984   1.761   4.163   0.192
 6029SOL     OW18985   2.249   6.083   0.707
 6029SOL    HW118986   2.167   6.140   0.711
 6029SOL    HW218987   2.227   5.992   0.741
 6030SOL     OW18988   2.221   0.881   1.589
 6030SOL    HW118989   2.247   0.957   1.529
 6030SOL    HW218990   2.151   0.912   1.653
 6031SOL     OW18991   5.241   6.507   5.723
 6031SOL    HW118992   5.249   6.446   5.645
 6031SOL    HW218993   5.180   6.583   5.699
 6032SOL     OW18994   1.437   3.152   1.982
 6032SOL    HW118995   1.358   3.214   1.984
 6032SOL    HW218996   1.491   3.163   2.065
 6033SOL     OW18997   1.488   2.049   3.394
 6033SOL    HW118998   1.420   1.980   3.416
 6033SOL    HW218999   1.577   2.022   3.432
 6034SOL     OW19000   2.039   4.507   5.183
 6034SOL    HW119001   2.100   4.536   5.257
 6034SOL    HW219002   1.969   4.445   5.219
 6035SOL     OW19003   5.625   0.338   4.275
 6035SOL    HW119004   5.630   0.364   4.372
 6035SOL    HW219005   5.716   0.341   4.235
 6036SOL     OW19006   0.760   6.882   5.245
 6036SOL    HW119007   0.766   6.955   5.314
 6036SOL    HW219008   0.775   6.920   5.154
 6037SOL     OW19009   5.790   5.832   5.058
 6037SOL    HW119010   5.762   5.827   5.154
 6037SOL    HW219011   5.888   5.815   5.051
 6038SOL     OW19012   6.404   4.530   5.828
 6038SOL    HW119013   6.451   4.607   5.871
 6038SOL    HW219014   6.472   4.467   5.790
 6039SOL     OW19015   3.323   3.378   2.329
 6039SOL    HW119016   3.312   3.478   2.329
 6039SOL    HW219017   3.233   3.335   2.329
 6040SOL     OW19018   0.645   2.230   6.856
 6040SOL    HW119019   0.665   2.259   6.762
 6040SOL    HW219020   0.696   2.288   6.920
 6041SOL     OW19021   0.782   1.519   0.118
 6041SOL    HW119022   0.794   1.507   0.217
 6041SOL    HW219023   0.761   1.615   0.099
 6042SOL     OW19024   5.258   4.911   2.861
 6042SOL    HW119025   5.292   4.866   2.778
 6042SOL    HW219026   5.336   4.939   2.917
 6043SOL     OW19027   1.029   4.590   4.899
 6043SOL    HW119028   1.106   4.634   4.854
 6043SOL    HW219029   1.052   4.572   4.994
 6044SOL     OW19030   0.643   0.583   1.199
 6044SOL    HW119031   0.687   0.564   1.287
 6044SOL    HW219032   0.637   0.682   1.185
 6045SOL     OW19033   6.183   4.797   0.761
 6045SOL    HW119034   6.271   4.835   0.791
 6045SOL    HW219035   6.155   4.843   0.677
 6046SOL     OW19036   3.101   2.811   0.192
 6046SOL    HW119037   3.083   2.751   0.269
 6046SOL    HW219038   3.023   2.872   0.177
 6047SOL     OW19039   6.527   0.410   4.175
 6047SOL    HW119040   6.444   0.383   4.126
 6047SOL    HW219041   6.607   0.386   4.120
 6048SOL     OW19042   4.309   0.283   4.087
 6048SOL    HW119043   4.389   0.263   4.144
 6048SOL    HW219044   4.230   0.234   4.122
 6049SOL     OW19045   5.024   3.931   6.706
 6049SOL    HW119046   4.948   3.942   6.770
 6049SOL    HW219047   5.044   3.833   6.694
 6050SOL     OW19048   4.530   4.759   5.336
 6050SOL    HW119049   4.472   4.780   5.415
 6050SOL    HW219050   4.608   4.821   5.334
 6051SOL     OW19051   2.007   2.106   2.679
 6051SOL    HW119052   2.005   2.139   2.773
 6051SOL    HW219053   2.089   2.050   2.665
 6052SOL     OW19054   0.264   1.787   1.025
 6052SOL    HW119055   0.359   1.820   1.027
 6052SOL    HW219056   0.202   1.865   1.030
 6053SOL     OW19057   2.323   6.886   0.105
 6053SOL    HW119058   2.353   6.843   0.020
 6053SOL    HW219059   2.373   6.971   0.118
 6054SOL     OW19060   1.318   5.272   0.427
 6054SOL    HW119061   1.233   5.238   0.467
 6054SOL    HW219062   1.374   5.314   0.498
 6055SOL     OW19063   4.609   1.100   4.673
 6055SOL    HW119064   4.690   1.076   4.620
 6055SOL    HW219065   4.547   1.022   4.677
 6056SOL     OW19066   3.604   1.577   6.425
 6056SOL    HW119067   3.606   1.486   6.465
 6056SOL    HW219068   3.645   1.575   6.334
 6057SOL     OW19069   3.473   1.085   4.927
 6057SOL    HW119070   3.495   1.183   4.917
 6057SOL    HW219071   3.428   1.052   4.845
 6058SOL     OW19072   5.834   2.385   4.659
 6058SOL    HW119073   5.783   2.420   4.737
 6058SOL    HW219074   5.818   2.443   4.580
 6059SOL     OW19075   5.359   4.339   6.562
 6059SOL    HW119076   5.403   4.253   6.537
 6059SOL    HW219077   5.316   4.379   6.481
 6060SOL     OW19078   4.829   5.313   5.503
 6060SOL    HW119079   4.870   5.336   5.591
 6060SOL    HW219080   4.799   5.396   5.457
 6061SOL     OW19081   3.248   1.999   6.662
 6061SOL    HW119082   3.279   2.084   6.621
 6061SOL    HW219083   3.148   1.999   6.669
 6062SOL     OW19084   1.655   1.123   4.639
 6062SOL    HW119085   1.650   1.222   4.655
 6062SOL    HW219086   1.681   1.078   4.724
 6063SOL     OW19087   4.240   0.988   6.995
 6063SOL    HW119088   4.273   1.082   6.999
 6063SOL    HW219089   4.155   0.980   0.029
 6064SOL     OW19090   1.289   5.598   2.861
 6064SOL    HW119091   1.374   5.646   2.882
 6064SOL    HW219092   1.269   5.533   2.935
 6065SOL     OW19093   6.592   6.780   0.701
 6065SOL    HW119094   6.581   6.762   0.799
 6065SOL    HW219095   6.545   6.709   0.648
 6066SOL     OW19096   4.390   2.325   0.827
 6066SOL    HW119097   4.297   2.319   0.862
 6066SOL    HW219098   4.391   2.304   0.730
 6067SOL     OW19099   5.988   1.399   6.265
 6067SOL    HW119100   6.007   1.325   6.329
 6067SOL    HW219101   5.923   1.463   6.305
 6068SOL     OW19102   4.723   2.851   4.802
 6068SOL    HW119103   4.727   2.934   4.856
 6068SOL    HW219104   4.714   2.874   4.705
 6069SOL     OW19105   6.627   3.738   5.248
 6069SOL    HW119106   6.692   3.682   5.299
 6069SOL    HW219107   6.548   3.683   5.221
 6070SOL     OW19108   4.331   2.509   6.644
 6070SOL    HW119109   4.355   2.472   6.554
 6070SOL    HW219110   4.376   2.455   6.715
 6071SOL     OW19111   4.169   6.415   5.356
 6071SOL    HW119112   4.072   6.430   5.377
 6071SOL    HW219113   4.184   6.429   5.258
 6072SOL     OW19114   1.092   1.182   1.697
 6072SOL    HW119115   1.154   1.117   1.653
 6072SOL    HW219116   1.117   1.191   1.794
 6073SOL     OW19117   6.805   2.700   1.085
 6073SOL    HW119118   6.805   2.612   1.133
 6073SOL    HW219119   6.731   2.702   1.018
 6074SOL     OW19120   0.445   6.795   4.721
 6074SOL    HW119121   0.411   6.723   4.661
 6074SOL    HW219122   0.367   6.847   4.757
 6075SOL     OW19123   6.361   3.475   0.475
 6075SOL    HW119124   6.295   3.463   0.401
 6075SOL    HW219125   6.368   3.391   0.528
 6076SOL     OW19126   2.028   6.770   3.431
 6076SOL    HW119127   2.091   6.847   3.444
 6076SOL    HW219128   2.056   6.717   3.352
 6077SOL     OW19129   5.645   6.224   2.178
 6077SOL    HW119130   5.718   6.288   2.152
 6077SOL    HW219131   5.649   6.208   2.277
 6078SOL     OW19132   2.869   4.736   3.946
 6078SOL    HW119133   2.846   4.806   3.878
 6078SOL    HW219134   2.966   4.742   3.968
 6079SOL     OW19135   2.636   2.761   0.116
 6079SOL    HW119136   2.548   2.739   0.074
 6079SOL    HW219137   2.704   2.777   0.044
 6080SOL     OW19138   6.241   2.201   1.155
 6080SOL    HW119139   6.257   2.111   1.197
 6080SOL    HW219140   6.156   2.240   1.190
 6081SOL     OW19141   6.432   3.667   4.186
 6081SOL    HW119142   6.356   3.629   4.134
 6081SOL    HW219143   6.449   3.609   4.266
 6082SOL     OW19144   4.563   1.153   2.846
 6082SOL    HW119145   4.517   1.237   2.873
 6082SOL    HW219146   4.605   1.111   2.927
 6083SOL     OW19147   1.446   6.027   6.475
 6083SOL    HW119148   1.404   6.100   6.529
 6083SOL    HW219149   1.388   6.006   6.396
 6084SOL     OW19150   6.617   5.497   4.996
 6084SOL    HW119151   6.665   5.462   4.916
 6084SOL    HW219152   6.518   5.492   4.980
 6085SOL     OW19153   6.357   3.388   0.169
 6085SOL    HW119154   6.294   3.451   0.214
 6085SOL    HW219155   6.310   3.301   0.151
 6086SOL     OW19156   3.532   1.597   4.342
 6086SOL    HW119157   3.536   1.662   4.417
 6086SOL    HW219158   3.623   1.562   4.322
 6087SOL     OW19159   5.658   6.663   6.669
 6087SOL    HW119160   5.632   6.758   6.652
 6087SOL    HW219161   5.717   6.659   6.749
 6088SOL     OW19162   0.517   0.288   4.841
 6088SOL    HW119163   0.448   0.246   4.781
 6088SOL    HW219164   0.559   0.366   4.794
 6089SOL     OW19165   0.604   3.266   1.172
 6089SOL    HW119166   0.537   3.240   1.103
 6089SOL    HW219167   0.608   3.366   1.178
 6090SOL     OW19168   0.562   5.735   5.288
 6090SOL    HW119169   0.471   5.698   5.307
 6090SOL    HW219170   0.565   5.832   5.313
 6091SOL     OW19171   6.392   1.853   1.954
 6091SOL    HW119172   6.443   1.874   2.037
 6091SOL    HW219173   6.455   1.836   1.879
 6092SOL     OW19174   2.036   1.231   2.393
 6092SOL    HW119175   2.027   1.303   2.461
 6092SOL    HW219176   1.953   1.227   2.337
 6093SOL     OW19177   1.495   2.908   1.274
 6093SOL    HW119178   1.396   2.918   1.289
 6093SOL    HW219179   1.536   2.998   1.260
 6094SOL     OW19180   0.893   0.985   1.698
 6094SOL    HW119181   0.946   1.069   1.689
 6094SOL    HW219182   0.867   0.972   1.794
 6095SOL     OW19183   5.960   3.716   6.698
 6095SOL    HW119184   5.930   3.800   6.744
 6095SOL    HW219185   5.996   3.652   6.766
 6096SOL     OW19186   3.990   1.449   3.742
 6096SOL    HW119187   3.917   1.414   3.801
 6096SOL    HW219188   4.005   1.546   3.762
 6097SOL     OW19189   2.673   1.121   2.004
 6097SOL    HW119190   2.698   1.113   2.101
 6097SOL    HW219191   2.663   1.217   1.980
 6098SOL     OW19192   2.520   2.319   5.610
 6098SOL    HW119193   2.467   2.244   5.649
 6098SOL    HW219194   2.615   2.289   5.596
 6099SOL     OW19195   5.797   6.082   4.894
 6099SOL    HW119196   5.770   5.992   4.928
 6099SOL    HW219197   5.719   6.144   4.898
 6100SOL     OW19198   6.428   2.821   0.085
 6100SOL    HW119199   6.386   2.785   0.168
 6100SOL    HW219200   6.425   2.921   0.086
 6101SOL     OW19201   6.803   1.393   5.948
 6101SOL    HW119202   6.831   1.345   5.865
 6101SOL    HW219203   6.705   1.411   5.945
 6102SOL     OW19204   2.984   0.946   4.708
 6102SOL    HW119205   3.075   0.910   4.730
 6102SOL    HW219206   2.918   0.871   4.705
 6103SOL     OW19207   6.255   6.827   4.730
 6103SOL    HW119208   6.315   6.905   4.712
 6103SOL    HW219209   6.160   6.852   4.710
 6104SOL     OW19210   6.029   1.407   6.986
 6104SOL    HW119211   6.077   1.322   7.006
 6104SOL    HW219212   5.946   1.413   0.023
 6105SOL     OW19213   3.348   5.689   5.845
 6105SOL    HW119214   3.390   5.704   5.755
 6105SOL    HW219215   3.414   5.645   5.906
 6106SOL     OW19216   3.123   4.525   6.161
 6106SOL    HW119217   3.217   4.527   6.128
 6106SOL    HW219218   3.109   4.443   6.216
 6107SOL     OW19219   2.278   4.840   4.794
 6107SOL    HW119220   2.218   4.873   4.721
 6107SOL    HW219221   2.254   4.886   4.880
 6108SOL     OW19222   0.866   1.929   4.412
 6108SOL    HW119223   0.929   2.005   4.425
 6108SOL    HW219224   0.778   1.964   4.379
 6109SOL     OW19225   5.590   3.299   0.725
 6109SOL    HW119226   5.549   3.238   0.657
 6109SOL    HW219227   5.551   3.391   0.715
 6110SOL     OW19228   3.173   1.489   5.023
 6110SOL    HW119229   3.248   1.489   4.957
 6110SOL    HW219230   3.088   1.468   4.977
 6111SOL     OW19231   1.587   4.715   3.105
 6111SOL    HW119232   1.680   4.747   3.092
 6111SOL    HW219233   1.579   4.621   3.073
 6112SOL     OW19234   1.053   1.991   2.813
 6112SOL    HW119235   1.104   1.981   2.727
 6112SOL    HW219236   1.115   2.021   2.885
 6113SOL     OW19237   1.680   7.008   5.691
 6113SOL    HW119238   1.715   6.959   5.612
 6113SOL    HW219239   1.721   6.971   5.775
 6114SOL     OW19240   4.660   6.027   0.499
 6114SOL    HW119241   4.712   6.086   0.437
 6114SOL    HW219242   4.717   5.950   0.527
 6115SOL     OW19243   5.036   5.546   2.677
 6115SOL    HW119244   5.011   5.594   2.593
 6115SOL    HW219245   4.971   5.471   2.694
 6116SOL     OW19246   3.880   1.114   1.914
 6116SOL    HW119247   3.925   1.193   1.872
 6116SOL    HW219248   3.795   1.143   1.958
 6117SOL     OW19249   5.676   6.492   5.015
 6117SOL    HW119250   5.751   6.453   5.067
 6117SOL    HW219251   5.646   6.577   5.059
 6118SOL     OW19252   6.276   0.995   3.410
 6118SOL    HW119253   6.308   0.990   3.315
 6118SOL    HW219254   6.206   1.066   3.417
 6119SOL     OW19255   0.030   5.522   4.237
 6119SOL    HW119256   0.003   5.426   4.231
 6119SOL    HW219257   0.127   5.531   4.214
 6120SOL     OW19258   2.662   6.585   2.659
 6120SOL    HW119259   2.571   6.598   2.620
 6120SOL    HW219260   2.729   6.577   2.585
 6121SOL     OW19261   0.592   2.548   3.744
 6121SOL    HW119262   0.678   2.500   3.762
 6121SOL    HW219263   0.583   2.565   3.646
 6122SOL     OW19264   3.771   6.238   3.076
 6122SOL    HW119265   3.802   6.233   2.981
 6122SOL    HW219266   3.702   6.167   3.092
 6123SOL     OW19267   6.530   1.295   2.029
 6123SOL    HW119268   6.462   1.341   2.086
 6123SOL    HW219269   6.485   1.254   1.950
 6124SOL     OW19270   3.133   0.102   5.846
 6124SOL    HW119271   3.219   0.051   5.854
 6124SOL    HW219272   3.152   0.200   5.854
 6125SOL     OW19273   2.001   6.222   1.634
 6125SOL    HW119274   2.016   6.134   1.679
 6125SOL    HW219275   1.902   6.241   1.631
 6126SOL     OW19276   5.593   4.729   2.832
 6126SOL    HW119277   5.641   4.714   2.919
 6126SOL    HW219278   5.598   4.825   2.808
 6127SOL     OW19279   2.200   5.919   1.635
 6127SOL    HW119280   2.124   5.913   1.700
 6127SOL    HW219281   2.270   5.981   1.670
 6128SOL     OW19282   6.695   2.187   0.006
 6128SOL    HW119283   6.742   2.198   0.094
 6128SOL    HW219284   6.599   2.213   0.016
 6129SOL     OW19285   6.079   4.405   2.205
 6129SOL    HW119286   6.035   4.351   2.276
 6129SOL    HW219287   6.062   4.502   2.221
 6130SOL     OW19288   4.959   2.996   3.607
 6130SOL    HW119289   4.924   2.919   3.660
 6130SOL    HW219290   4.909   3.002   3.521
 6131SOL     OW19291   6.486   1.111   5.288
 6131SOL    HW119292   6.434   1.195   5.305
 6131SOL    HW219293   6.424   1.036   5.268
 6132SOL     OW19294   4.415   2.927   1.057
 6132SOL    HW119295   4.357   2.975   1.123
 6132SOL    HW219296   4.364   2.850   1.018
 6133SOL     OW19297   0.981   3.949   1.383
 6133SOL    HW119298   1.048   4.021   1.363
 6133SOL    HW219299   1.022   3.859   1.366
 6134SOL     OW19300   4.391   3.901   6.471
 6134SOL    HW119301   4.395   3.911   6.570
 6134SOL    HW219302   4.432   3.813   6.445
 6135SOL     OW19303   6.324   6.715   1.101
 6135SOL    HW119304   6.292   6.795   1.051
 6135SOL    HW219305   6.385   6.744   1.175
 6136SOL     OW19306   1.148   1.904   1.656
 6136SOL    HW119307   1.075   1.950   1.605
 6136SOL    HW219308   1.115   1.882   1.748
 6137SOL     OW19309   2.853   6.304   5.967
 6137SOL    HW119310   2.758   6.281   5.943
 6137SOL    HW219311   2.856   6.343   6.059
 6138SOL     OW19312   3.546   6.078   3.086
 6138SOL    HW119313   3.497   6.084   2.999
 6138SOL    HW219314   3.589   5.988   3.094
 6139SOL     OW19315   1.400   4.218   4.517
 6139SOL    HW119316   1.431   4.297   4.464
 6139SOL    HW219317   1.301   4.208   4.505
 6140SOL     OW19318   1.257   0.009   1.765
 6140SOL    HW119319   1.208   7.014   1.679
 6140SOL    HW219320   1.240   6.951   1.826
 6141SOL     OW19321   6.500   5.227   5.669
 6141SOL    HW119322   6.515   5.128   5.665
 6141SOL    HW219323   6.492   5.256   5.764
 6142SOL     OW19324   6.840   4.006   1.151
 6142SOL    HW119325   6.823   4.103   1.168
 6142SOL    HW219326   6.761   3.952   1.183
 6143SOL     OW19327   5.995   5.226   6.562
 6143SOL    HW119328   6.084   5.183   6.553
 6143SOL    HW219329   5.928   5.157   6.592
 6144SOL     OW19330   7.009   3.884   3.709
 6144SOL    HW119331   0.079   3.920   3.735
 6144SOL    HW219332   6.953   3.870   3.791
 6145SOL     OW19333   4.520   5.927   3.189
 6145SOL    HW119334   4.458   5.859   3.229
 6145SOL    HW219335   4.553   5.988   3.261
 6146SOL     OW19336   5.764   1.614   3.251
 6146SOL    HW119337   5.862   1.603   3.233
 6146SOL    HW219338   5.747   1.613   3.349
 6147SOL     OW19339   2.143   3.801   2.580
 6147SOL    HW119340   2.164   3.705   2.566
 6147SOL    HW219341   2.095   3.837   2.500
 6148SOL     OW19342   6.476   6.278   4.213
 6148SOL    HW119343   6.472   6.223   4.297
 6148SOL    HW219344   6.474   6.375   4.237
 6149SOL     OW19345   3.563   5.320   3.058
 6149SOL    HW119346   3.568   5.409   3.012
 6149SOL    HW219347   3.521   5.331   3.148
 6150SOL     OW19348   4.948   6.412   6.222
 6150SOL    HW119349   5.022   6.454   6.170
 6150SOL    HW219350   4.950   6.313   6.207
 6151SOL     OW19351   5.106   2.340   5.189
 6151SOL    HW119352   5.128   2.339   5.092
 6151SOL    HW219353   5.007   2.347   5.201
 6152SOL     OW19354   5.906   4.191   6.464
 6152SOL    HW119355   5.894   4.263   6.396
 6152SOL    HW219356   5.927   4.232   6.553
 6153SOL     OW19357   4.277   3.867   1.529
 6153SOL    HW119358   4.346   3.854   1.458
 6153SOL    HW219359   4.192   3.900   1.487
 6154SOL     OW19360   5.516   2.627   3.463
 6154SOL    HW119361   5.426   2.654   3.428
 6154SOL    HW219362   5.574   2.598   3.387
 6155SOL     OW19363   0.120   3.221   5.151
 6155SOL    HW119364   0.064   3.187   5.076
 6155SOL    HW219365   0.135   3.319   5.141
 6156SOL     OW19366   6.043   6.405   2.932
 6156SOL    HW119367   6.024   6.331   2.868
 6156SOL    HW219368   5.969   6.472   2.928
 6157SOL     OW19369   2.186   1.244   4.289
 6157SOL    HW119370   2.136   1.177   4.235
 6157SOL    HW219371   2.143   1.334   4.279
 6158SOL     OW19372   4.985   0.963   6.176
 6158SOL    HW119373   4.999   1.019   6.257
 6158SOL    HW219374   5.035   0.877   6.185
 6159SOL     OW19375   5.496   2.840   0.599
 6159SOL    HW119376   5.431   2.824   0.674
 6159SOL    HW219377   5.457   2.806   0.514
 6160SOL     OW19378   5.224   5.956   1.881
 6160SOL    HW119379   5.281   6.034   1.855
 6160SOL    HW219380   5.210   5.956   1.980
 6161SOL     OW19381   5.279   0.115   5.944
 6161SOL    HW119382   5.220   0.121   6.024
 6161SOL    HW219383   5.340   0.194   5.941
 6162SOL     OW19384   0.260   5.169   4.486
 6162SOL    HW119385   0.234   5.259   4.519
 6162SOL    HW219386   0.264   5.170   4.386
 6163SOL     OW19387   6.179   4.329   1.028
 6163SOL    HW119388   6.177   4.230   1.042
 6163SOL    HW219389   6.140   4.351   0.939
 6164SOL     OW19390   3.340   1.560   0.774
 6164SOL    HW119391   3.355   1.462   0.762
 6164SOL    HW219392   3.405   1.596   0.842
 6165SOL     OW19393   3.969   6.509   6.936
 6165SOL    HW119394   4.062   6.482   6.962
 6165SOL    HW219395   3.903   6.457   6.990
 6166SOL     OW19396   2.657   1.236   5.985
 6166SOL    HW119397   2.692   1.316   5.937
 6166SOL    HW219398   2.699   1.230   6.076
 6167SOL     OW19399   0.525   4.077   3.323
 6167SOL    HW119400   0.522   3.982   3.356
 6167SOL    HW219401   0.587   4.130   3.380
 6168SOL     OW19402   0.322   4.143   2.638
 6168SOL    HW119403   0.272   4.226   2.662
 6168SOL    HW219404   0.271   4.092   2.569
 6169SOL     OW19405   2.233   4.066   2.554
 6169SOL    HW119406   2.221   4.096   2.459
 6169SOL    HW219407   2.220   3.967   2.560
 6170SOL     OW19408   0.277   3.037   5.373
 6170SOL    HW119409   0.305   3.088   5.454
 6170SOL    HW219410   0.342   2.963   5.356
 6171SOL     OW19411   0.298   0.273   6.774
 6171SOL    HW119412   0.236   0.251   6.698
 6171SOL    HW219413   0.333   0.188   6.813
 6172SOL     OW19414   0.605   3.347   2.757
 6172SOL    HW119415   0.525   3.299   2.792
 6172SOL    HW219416   0.592   3.366   2.659
 6173SOL     OW19417   6.459   6.664   2.910
 6173SOL    HW119418   6.474   6.692   2.815
 6173SOL    HW219419   6.396   6.586   2.913
 6174SOL     OW19420   5.804   4.039   3.033
 6174SOL    HW119421   5.748   3.968   2.990
 6174SOL    HW219422   5.899   4.028   3.005
 6175SOL     OW19423   2.181   1.640   5.257
 6175SOL    HW119424   2.095   1.591   5.269
 6175SOL    HW219425   2.162   1.737   5.241
 6176SOL     OW19426   4.198   4.615   5.343
 6176SOL    HW119427   4.098   4.622   5.339
 6176SOL    HW219428   4.232   4.580   5.256
 6177SOL     OW19429   6.060   1.644   1.716
 6177SOL    HW119430   6.037   1.557   1.760
 6177SOL    HW219431   6.013   1.651   1.628
 6178SOL     OW19432   5.555   4.740   1.901
 6178SOL    HW119433   5.607   4.660   1.871
 6178SOL    HW219434   5.614   4.799   1.956
 6179SOL     OW19435   6.246   4.805   2.843
 6179SOL    HW119436   6.148   4.809   2.827
 6179SOL    HW219437   6.283   4.897   2.850
 6180SOL     OW19438   3.098   4.493   0.137
 6180SOL    HW119439   3.198   4.482   0.137
 6180SOL    HW219440   3.072   4.555   0.210
 6181SOL     OW19441   4.705   5.177   6.501
 6181SOL    HW119442   4.681   5.086   6.468
 6181SOL    HW219443   4.780   5.214   6.447
 6182SOL     OW19444   3.271   3.317   0.195
 6182SOL    HW119445   3.369   3.304   0.180
 6182SOL    HW219446   3.257   3.366   0.281
 6183SOL     OW19447   0.839   1.809   1.433
 6183SOL    HW119448   0.812   1.904   1.445
 6183SOL    HW219449   0.917   1.803   1.370
 6184SOL     OW19450   2.676   0.684   5.956
 6184SOL    HW119451   2.635   0.774   5.974
 6184SOL    HW219452   2.712   0.682   5.864
 6185SOL     OW19453   3.099   2.471   5.586
 6185SOL    HW119454   3.163   2.484   5.510
 6185SOL    HW219455   3.009   2.506   5.560
 6186SOL     OW19456   6.535   1.540   1.845
 6186SOL    HW119457   6.445   1.517   1.882
 6186SOL    HW219458   6.550   1.638   1.853
 6187SOL     OW19459   5.065   1.749   5.387
 6187SOL    HW119460   5.080   1.694   5.305
 6187SOL    HW219461   5.152   1.758   5.437
 6188SOL     OW19462   1.693   2.196   5.186
 6188SOL    HW119463   1.619   2.147   5.232
 6188SOL    HW219464   1.776   2.189   5.240
 6189SOL     OW19465   5.091   6.262   2.429
 6189SOL    HW119466   5.125   6.267   2.523
 6189SOL    HW219467   4.993   6.283   2.427
 6190SOL     OW19468   0.200   2.278   5.508
 6190SOL    HW119469   0.135   2.207   5.536
 6190SOL    HW219470   0.245   2.316   5.589
 6191SOL     OW19471   3.587   3.809   6.645
 6191SOL    HW119472   3.583   3.895   6.696
 6191SOL    HW219473   3.632   3.824   6.557
 6192SOL     OW19474   2.845   1.779   0.375
 6192SOL    HW119475   2.925   1.801   0.431
 6192SOL    HW219476   2.780   1.727   0.430
 6193SOL     OW19477   4.998   5.591   6.708
 6193SOL    HW119478   5.091   5.597   6.671
 6193SOL    HW219479   4.973   5.495   6.718
 6194SOL     OW19480   6.562   6.978   6.272
 6194SOL    HW119481   6.573   6.914   6.348
 6194SOL    HW219482   6.515   6.933   6.197
 6195SOL     OW19483   6.454   6.614   5.580
 6195SOL    HW119484   6.523   6.552   5.543
 6195SOL    HW219485   6.373   6.562   5.608
 6196SOL     OW19486   5.695   3.824   3.308
 6196SOL    HW119487   5.706   3.744   3.367
 6196SOL    HW219488   5.638   3.800   3.229
 6197SOL     OW19489   3.008   5.506   1.727
 6197SOL    HW119490   2.931   5.486   1.787
 6197SOL    HW219491   2.975   5.555   1.645
 6198SOL     OW19492   6.272   6.476   6.381
 6198SOL    HW119493   6.358   6.521   6.357
 6198SOL    HW219494   6.195   6.532   6.350
 6199SOL     OW19495   1.114   0.311   0.729
 6199SOL    HW119496   1.086   0.396   0.683
 6199SOL    HW219497   1.034   0.269   0.772
 6200SOL     OW19498   1.731   2.207   2.702
 6200SOL    HW119499   1.770   2.136   2.644
 6200SOL    HW219500   1.632   2.211   2.689
 6201SOL     OW19501   6.719   3.469   4.180
 6201SOL    HW119502   6.801   3.512   4.143
 6201SOL    HW219503   6.654   3.452   4.106
 6202SOL     OW19504   6.285   1.648   2.749
 6202SOL    HW119505   6.321   1.731   2.707
 6202SOL    HW219506   6.291   1.572   2.684
 6203SOL     OW19507   6.191   5.942   1.895
 6203SOL    HW119508   6.287   5.951   1.868
 6203SOL    HW219509   6.145   5.876   1.834
 6204SOL     OW19510   2.219   0.167   5.111
 6204SOL    HW119511   2.224   0.129   5.018
 6204SOL    HW219512   2.278   0.247   5.117
 6205SOL     OW19513   5.259   4.113   3.181
 6205SOL    HW119514   5.332   4.178   3.202
 6205SOL    HW219515   5.175   4.163   3.161
 6206SOL     OW19516   4.838   2.026   3.774
 6206SOL    HW119517   4.897   1.983   3.706
 6206SOL    HW219518   4.888   2.035   3.860
 6207SOL     OW19519   2.213   5.707   4.401
 6207SOL    HW119520   2.117   5.712   4.428
 6207SOL    HW219521   2.222   5.731   4.304
 6208SOL     OW19522   3.794   2.880   5.725
 6208SOL    HW119523   3.777   2.820   5.804
 6208SOL    HW219524   3.861   2.837   5.665
 6209SOL     OW19525   3.586   3.560   1.057
 6209SOL    HW119526   3.639   3.643   1.072
 6209SOL    HW219527   3.615   3.490   1.122
 6210SOL     OW19528   4.594   1.917   3.850
 6210SOL    HW119529   4.677   1.951   3.807
 6210SOL    HW219530   4.524   1.989   3.850
 6211SOL     OW19531   5.419   5.190   4.871
 6211SOL    HW119532   5.339   5.195   4.810
 6211SOL    HW219533   5.479   5.116   4.840
 6212SOL     OW19534   4.198   4.347   5.914
 6212SOL    HW119535   4.184   4.289   5.834
 6212SOL    HW219536   4.293   4.342   5.942
 6213SOL     OW19537   4.396   5.767   0.102
 6213SOL    HW119538   4.444   5.746   0.016
 6213SOL    HW219539   4.380   5.682   0.152
 6214SOL     OW19540   6.189   5.774   6.138
 6214SOL    HW119541   6.099   5.772   6.182
 6214SOL    HW219542   6.236   5.688   6.153
 6215SOL     OW19543   5.825   2.310   5.523
 6215SOL    HW119544   5.864   2.324   5.431
 6215SOL    HW219545   5.877   2.364   5.589
 6216SOL     OW19546   4.761   2.380   3.175
 6216SOL    HW119547   4.686   2.443   3.196
 6216SOL    HW219548   4.848   2.422   3.202
 6217SOL     OW19549   0.930   4.610   2.395
 6217SOL    HW119550   0.849   4.595   2.338
 6217SOL    HW219551   0.903   4.610   2.491
 6218SOL     OW19552   4.551   6.532   6.717
 6218SOL    HW119553   4.644   6.540   6.753
 6218SOL    HW219554   4.496   6.608   6.751
 6219SOL     OW19555   1.023   0.979   6.130
 6219SOL    HW119556   0.954   0.923   6.177
 6219SOL    HW219557   1.016   1.074   6.162
 6220SOL     OW19558   4.199   0.810   1.107
 6220SOL    HW119559   4.236   0.788   1.017
 6220SOL    HW219560   4.115   0.863   1.096
 6221SOL     OW19561   6.344   5.933   6.514
 6221SOL    HW119562   6.253   5.973   6.515
 6221SOL    HW219563   6.383   5.940   6.422
 6222SOL     OW19564   6.802   1.238   2.631
 6222SOL    HW119565   6.713   1.198   2.608
 6222SOL    HW219566   6.830   1.300   2.558
 6223SOL     OW19567   0.551   4.704   3.682
 6223SOL    HW119568   0.508   4.794   3.674
 6223SOL    HW219569   0.611   4.702   3.762
 6224SOL     OW19570   4.336   1.679   6.849
 6224SOL    HW119571   4.325   1.770   6.808
 6224SOL    HW219572   4.374   1.616   6.782
 6225SOL     OW19573   4.339   6.857   6.657
 6225SOL    HW119574   4.358   6.836   6.753
 6225SOL    HW219575   4.416   6.905   6.617
 6226SOL     OW19576   1.190   1.297   4.424
 6226SOL    HW119577   1.167   1.394   4.426
 6226SOL    HW219578   1.272   1.282   4.480
 6227SOL     OW19579   3.039   3.904   4.831
 6227SOL    HW119580   2.989   3.886   4.746
 6227SOL    HW219581   2.999   3.850   4.906
 6228SOL     OW19582   2.255   2.589   3.484
 6228SOL    HW119583   2.336   2.571   3.539
 6228SOL    HW219584   2.282   2.596   3.387
 6229SOL     OW19585   0.319   3.818   3.884
 6229SOL    HW119586   0.235   3.823   3.937
 6229SOL    HW219587   0.323   3.895   3.821
 6230SOL     OW19588   0.493   1.115   2.026
 6230SOL    HW119589   0.488   1.146   2.121
 6230SOL    HW219590   0.401   1.098   1.992
 6231SOL     OW19591   1.018   5.857   0.111
 6231SOL    HW119592   0.985   5.790   0.178
 6231SOL    HW219593   0.999   5.950   0.145
 6232SOL     OW19594   4.545   1.498   6.620
 6232SOL    HW119595   4.562   1.550   6.537
 6232SOL    HW219596   4.607   1.528   6.693
 6233SOL     OW19597   0.210   3.456   1.862
 6233SOL    HW119598   0.268   3.474   1.782
 6233SOL    HW219599   0.261   3.475   1.945
 6234SOL     OW19600   5.172   6.872   4.322
 6234SOL    HW119601   5.073   6.870   4.310
 6234SOL    HW219602   5.209   6.954   4.279
 6235SOL     OW19603   6.793   0.561   2.859
 6235SOL    HW119604   6.845   0.643   2.884
 6235SOL    HW219605   6.703   0.588   2.826
 6236SOL     OW19606   0.666   4.751   1.157
 6236SOL    HW119607   0.670   4.667   1.103
 6236SOL    HW219608   0.632   4.826   1.100
 6237SOL     OW19609   3.854   1.317   1.217
 6237SOL    HW119610   3.800   1.400   1.231
 6237SOL    HW219611   3.865   1.270   1.304
 6238SOL     OW19612   1.960   6.826   4.484
 6238SOL    HW119613   1.865   6.859   4.481
 6238SOL    HW219614   1.999   6.831   4.392
 6239SOL     OW19615   4.965   1.519   2.973
 6239SOL    HW119616   4.984   1.441   3.033
 6239SOL    HW219617   4.935   1.485   2.883
 6240SOL     OW19618   4.072   3.361   4.078
 6240SOL    HW119619   4.003   3.391   4.144
 6240SOL    HW219620   4.132   3.438   4.057
 6241SOL     OW19621   3.235   6.751   3.089
 6241SOL    HW119622   3.250   6.679   3.156
 6241SOL    HW219623   3.298   6.827   3.106
 6242SOL     OW19624   2.545   2.093   4.249
 6242SOL    HW119625   2.457   2.134   4.275
 6242SOL    HW219626   2.615   2.164   4.244
 6243SOL     OW19627   5.251   1.455   5.848
 6243SOL    HW119628   5.309   1.385   5.891
 6243SOL    HW219629   5.233   1.527   5.914
 6244SOL     OW19630   4.224   4.620   2.940
 6244SOL    HW119631   4.264   4.540   2.985
 6244SOL    HW219632   4.261   4.629   2.847
 6245SOL     OW19633   0.813   4.564   2.688
 6245SOL    HW119634   0.818   4.498   2.764
 6245SOL    HW219635   0.735   4.542   2.630
 6246SOL     OW19636   6.871   6.298   4.232
 6246SOL    HW119637   6.951   6.355   4.211
 6246SOL    HW219638   6.865   6.224   4.166
 6247SOL     OW19639   6.721   6.185   2.367
 6247SOL    HW119640   6.688   6.249   2.437
 6247SOL    HW219641   6.812   6.212   2.338
 6248SOL     OW19642   3.454   3.358   6.203
 6248SOL    HW119643   3.384   3.397   6.262
 6248SOL    HW219644   3.462   3.413   6.119
 6249SOL     OW19645   5.939   3.498   1.610
 6249SOL    HW119646   5.962   3.406   1.578
 6249SOL    HW219647   6.023   3.550   1.625
 6250SOL     OW19648   6.918   0.474   0.507
 6250SOL    HW119649   7.009   0.433   0.501
 6250SOL    HW219650   6.915   0.560   0.456
 6251SOL     OW19651   2.842   6.638   3.950
 6251SOL    HW119652   2.808   6.548   3.976
 6251SOL    HW219653   2.774   6.685   3.895
 6252SOL     OW19654   2.705   5.430   0.047
 6252SOL    HW119655   2.802   5.443   0.026
 6252SOL    HW219656   2.651   5.486   7.003
 6253SOL     OW19657   3.654   4.910   5.074
 6253SOL    HW119658   3.585   4.967   5.030
 6253SOL    HW219659   3.697   4.851   5.005
 6254SOL     OW19660   0.392   6.298   1.159
 6254SOL    HW119661   0.450   6.287   1.078
 6254SOL    HW219662   0.295   6.291   1.132
 6255SOL     OW19663   0.304   1.068   1.742
 6255SOL    HW119664   0.279   1.038   1.650
 6255SOL    HW219665   0.332   1.164   1.739
 6256SOL     OW19666   4.985   5.664   2.433
 6256SOL    HW119667   5.048   5.619   2.370
 6256SOL    HW219668   5.012   5.759   2.445
 6257SOL     OW19669   3.818   4.070   1.519
 6257SOL    HW119670   3.727   4.091   1.556
 6257SOL    HW219671   3.877   4.150   1.527
 6258SOL     OW19672   4.490   6.023   5.576
 6258SOL    HW119673   4.533   6.114   5.579
 6258SOL    HW219674   4.456   5.999   5.667
 6259SOL     OW19675   2.708   1.028   4.980
 6259SOL    HW119676   2.641   1.064   5.045
 6259SOL    HW219677   2.701   1.080   4.894
 6260SOL     OW19678   1.787   1.703   0.333
 6260SOL    HW119679   1.858   1.654   0.382
 6260SOL    HW219680   1.817   1.797   0.316
 6261SOL     OW19681   3.923   6.690   0.972
 6261SOL    HW119682   4.016   6.725   0.985
 6261SOL    HW219683   3.916   6.598   1.012
 6262SOL     OW19684   6.277   0.471   1.937
 6262SOL    HW119685   6.275   0.374   1.911
 6262SOL    HW219686   6.208   0.488   2.007
 6263SOL     OW19687   6.185   6.196   5.996
 6263SOL    HW119688   6.147   6.221   6.085
 6263SOL    HW219689   6.226   6.104   6.001
 6264SOL     OW19690   1.535   6.957   0.706
 6264SOL    HW119691   1.548   6.888   0.777
 6264SOL    HW219692   1.447   7.002   0.720
 6265SOL     OW19693   5.067   1.250   0.241
 6265SOL    HW119694   5.144   1.268   0.302
 6265SOL    HW219695   5.044   1.333   0.190
 6266SOL     OW19696   2.832   5.009   2.989
 6266SOL    HW119697   2.921   5.035   3.025
 6266SOL    HW219698   2.841   4.924   2.936
 6267SOL     OW19699   1.038   6.546   4.690
 6267SOL    HW119700   1.049   6.515   4.596
 6267SOL    HW219701   1.056   6.470   4.752
 6268SOL     OW19702   3.895   0.725   1.254
 6268SOL    HW119703   3.898   0.628   1.279
 6268SOL    HW219704   3.919   0.780   1.334
 6269SOL     OW19705   5.986   5.471   0.430
 6269SOL    HW119706   6.020   5.445   0.340
 6269SOL    HW219707   5.910   5.411   0.456
 6270SOL     OW19708   2.019   6.169   0.054
 6270SOL    HW119709   2.023   6.247   0.117
 6270SOL    HW219710   1.985   6.089   0.103
 6271SOL     OW19711   5.777   3.090   6.151
 6271SOL    HW119712   5.824   3.165   6.198
 6271SOL    HW219713   5.691   3.124   6.113
 6272SOL     OW19714   6.986   6.857   0.696
 6272SOL    HW119715   0.056   6.857   0.741
 6272SOL    HW219716   6.934   6.937   0.727
 6273SOL     OW19717   6.907   6.926   1.350
 6273SOL    HW119718   6.959   6.958   1.270
 6273SOL    HW219719   6.954   6.955   1.433
 6274SOL     OW19720   3.459   5.616   4.363
 6274SOL    HW119721   3.479   5.714   4.363
 6274SOL    HW219722   3.415   5.591   4.276
 6275SOL     OW19723   2.017   5.268   6.726
 6275SOL    HW119724   1.937   5.219   6.693
 6275SOL    HW219725   2.015   5.273   6.826
 6276SOL     OW19726   1.491   5.783   2.601
 6276SOL    HW119727   1.397   5.810   2.622
 6276SOL    HW219728   1.542   5.863   2.566
 6277SOL     OW19729   5.072   3.861   1.484
 6277SOL    HW119730   5.066   3.781   1.544
 6277SOL    HW219731   4.981   3.883   1.449
 6278SOL     OW19732   2.755   0.536   6.360
 6278SOL    HW119733   2.851   0.530   6.387
 6278SOL    HW219734   2.697   0.524   6.441
 6279SOL     OW19735   2.692   0.310   1.886
 6279SOL    HW119736   2.748   0.289   1.806
 6279SOL    HW219737   2.600   0.336   1.856
 6280SOL     OW19738   6.483   1.615   0.220
 6280SOL    HW119739   6.422   1.584   0.292
 6280SOL    HW219740   6.442   1.595   0.131
 6281SOL     OW19741   5.776   3.951   5.566
 6281SOL    HW119742   5.683   3.979   5.545
 6281SOL    HW219743   5.795   3.969   5.663
 6282SOL     OW19744   0.242   3.444   5.530
 6282SOL    HW119745   0.147   3.422   5.506
 6282SOL    HW219746   0.288   3.362   5.563
 6283SOL     OW19747   1.376   5.744   4.571
 6283SOL    HW119748   1.435   5.663   4.562
 6283SOL    HW219749   1.416   5.806   4.638
 6284SOL     OW19750   2.202   4.326   6.435
 6284SOL    HW119751   2.268   4.398   6.413
 6284SOL    HW219752   2.206   4.307   6.533
 6285SOL     OW19753   0.802   4.070   3.494
 6285SOL    HW119754   0.852   4.113   3.570
 6285SOL    HW219755   0.842   4.099   3.407
 6286SOL     OW19756   1.051   2.624   5.991
 6286SOL    HW119757   1.059   2.529   5.960
 6286SOL    HW219758   1.142   2.657   6.019
 6287SOL     OW19759   4.782   4.716   4.808
 6287SOL    HW119760   4.755   4.809   4.833
 6287SOL    HW219761   4.701   4.664   4.780
 6288SOL     OW19762   3.724   3.344   6.629
 6288SOL    HW119763   3.672   3.265   6.660
 6288SOL    HW219764   3.800   3.313   6.571
 6289SOL     OW19765   2.655   4.510   5.803
 6289SOL    HW119766   2.675   4.551   5.713
 6289SOL    HW219767   2.557   4.491   5.810
 6290SOL     OW19768   5.215   5.942   4.771
 6290SOL    HW119769   5.149   6.015   4.790
 6290SOL    HW219770   5.182   5.856   4.808
 6291SOL     OW19771   3.816   3.552   3.433
 6291SOL    HW119772   3.801   3.457   3.405
 6291SOL    HW219773   3.760   3.572   3.514
 6292SOL     OW19774   1.751   3.227   4.601
 6292SOL    HW119775   1.738   3.320   4.638
 6292SOL    HW219776   1.807   3.232   4.519
 6293SOL     OW19777   4.302   1.281   6.613
 6293SOL    HW119778   4.371   1.343   6.577
 6293SOL    HW219779   4.212   1.306   6.577
 6294SOL     OW19780   1.941   1.618   3.096
 6294SOL    HW119781   2.002   1.694   3.073
 6294SOL    HW219782   1.955   1.592   3.192
 6295SOL     OW19783   5.450   3.615   5.842
 6295SOL    HW119784   5.408   3.666   5.767
 6295SOL    HW219785   5.472   3.522   5.812
 6296SOL     OW19786   0.751   2.632   6.619
 6296SOL    HW119787   0.767   2.534   6.606
 6296SOL    HW219788   0.792   2.660   6.706
 6297SOL     OW19789   5.585   0.959   3.859
 6297SOL    HW119790   5.527   0.900   3.803
 6297SOL    HW219791   5.681   0.944   3.836
 6298SOL     OW19792   6.261   5.353   0.509
 6298SOL    HW119793   6.221   5.373   0.598
 6298SOL    HW219794   6.193   5.368   0.437
 6299SOL     OW19795   4.778   1.917   2.577
 6299SOL    HW119796   4.841   1.935   2.502
 6299SOL    HW219797   4.699   1.978   2.570
 6300SOL     OW19798   3.023   0.588   6.474
 6300SOL    HW119799   3.096   0.622   6.415
 6300SOL    HW219800   3.064   0.535   6.549
 6301SOL     OW19801   3.944   6.203   0.034
 6301SOL    HW119802   4.019   6.251   0.079
 6301SOL    HW219803   3.883   6.163   0.103
 6302SOL     OW19804   3.026   1.255   6.251
 6302SOL    HW119805   2.945   1.196   6.247
 6302SOL    HW219806   3.089   1.219   6.320
 6303SOL     OW19807   0.937   5.765   5.378
 6303SOL    HW119808   0.882   5.683   5.390
 6303SOL    HW219809   1.033   5.739   5.366
 6304SOL     OW19810   4.333   1.033   3.289
 6304SOL    HW119811   4.262   0.968   3.316
 6304SOL    HW219812   4.291   1.117   3.256
 6305SOL     OW19813   0.756   6.185   6.045
 6305SOL    HW119814   0.787   6.193   5.950
 6305SOL    HW219815   0.656   6.197   6.048
 6306SOL     OW19816   0.197   4.738   4.039
 6306SOL    HW119817   0.225   4.834   4.037
 6306SOL    HW219818   0.239   4.689   3.963
 6307SOL     OW19819   3.836   3.262   3.027
 6307SOL    HW119820   3.935   3.256   3.012
 6307SOL    HW219821   3.818   3.270   3.126
 6308SOL     OW19822   0.150   2.305   0.462
 6308SOL    HW119823   0.143   2.267   0.370
 6308SOL    HW219824   0.085   2.259   0.522
 6309SOL     OW19825   2.125   6.016   4.613
 6309SOL    HW119826   2.066   5.939   4.636
 6309SOL    HW219827   2.085   6.101   4.647
 6310SOL     OW19828   0.935   6.204   3.350
 6310SOL    HW119829   0.875   6.261   3.407
 6310SOL    HW219830   0.880   6.154   3.283
 6311SOL     OW19831   4.973   1.014   5.591
 6311SOL    HW119832   4.899   1.022   5.658
 6311SOL    HW219833   5.060   1.008   5.638
 6312SOL     OW19834   3.927   6.314   6.571
 6312SOL    HW119835   3.955   6.299   6.476
 6312SOL    HW219836   3.926   6.412   6.590
 6313SOL     OW19837   5.916   6.068   4.125
 6313SOL    HW119838   5.900   6.085   4.223
 6313SOL    HW219839   6.012   6.085   4.104
 6314SOL     OW19840   1.552   6.656   2.469
 6314SOL    HW119841   1.593   6.612   2.549
 6314SOL    HW219842   1.479   6.719   2.498
 6315SOL     OW19843   1.957   2.788   4.348
 6315SOL    HW119844   1.996   2.699   4.374
 6315SOL    HW219845   1.858   2.781   4.344
 6316SOL     OW19846   5.277   0.620   4.675
 6316SOL    HW119847   5.363   0.629   4.625
 6316SOL    HW219848   5.294   0.573   4.762
 6317SOL     OW19849   5.022   4.917   1.831
 6317SOL    HW119850   4.963   4.844   1.864
 6317SOL    HW219851   5.069   4.961   1.908
 6318SOL     OW19852   6.661   6.698   6.327
 6318SOL    HW119853   6.608   6.679   6.244
 6318SOL    HW219854   6.757   6.710   6.303
 6319SOL     OW19855   5.574   1.256   4.802
 6319SOL    HW119856   5.494   1.278   4.747
 6319SOL    HW219857   5.552   1.267   4.899
 6320SOL     OW19858   6.205   0.222   5.509
 6320SOL    HW119859   6.262   0.205   5.429
 6320SOL    HW219860   6.116   0.257   5.479
 6321SOL     OW19861   5.828   1.985   6.971
 6321SOL    HW119862   5.873   1.913   0.004
 6321SOL    HW219863   5.884   2.068   6.975
 6322SOL     OW19864   1.384   1.052   1.991
 6322SOL    HW119865   1.457   1.078   1.927
 6322SOL    HW219866   1.364   0.955   1.979
 6323SOL     OW19867   2.847   3.521   1.195
 6323SOL    HW119868   2.780   3.487   1.129
 6323SOL    HW219869   2.806   3.594   1.250
 6324SOL     OW19870   4.887   1.460   0.975
 6324SOL    HW119871   4.832   1.390   0.929
 6324SOL    HW219872   4.922   1.524   0.907
 6325SOL     OW19873   1.743   2.579   3.565
 6325SOL    HW119874   1.832   2.546   3.536
 6325SOL    HW219875   1.677   2.504   3.564
 6326SOL     OW19876   5.662   4.923   5.604
 6326SOL    HW119877   5.601   4.863   5.551
 6326SOL    HW219878   5.729   4.965   5.543
 6327SOL     OW19879   0.213   0.402   3.294
 6327SOL    HW119880   0.292   0.373   3.240
 6327SOL    HW219881   0.193   0.333   3.363
 6328SOL     OW19882   4.476   3.707   5.405
 6328SOL    HW119883   4.519   3.675   5.321
 6328SOL    HW219884   4.396   3.762   5.383
 6329SOL     OW19885   1.165   2.478   5.357
 6329SOL    HW119886   1.260   2.504   5.336
 6329SOL    HW219887   1.104   2.550   5.326
 6330SOL     OW19888   5.399   1.603   3.394
 6330SOL    HW119889   5.489   1.578   3.430
 6330SOL    HW219890   5.408   1.626   3.297
 6331SOL     OW19891   0.225   3.237   3.065
 6331SOL    HW119892   0.195   3.158   3.120
 6331SOL    HW219893   0.260   3.308   3.126
 6332SOL     OW19894   3.050   1.670   0.749
 6332SOL    HW119895   3.005   1.752   0.786
 6332SOL    HW219896   3.133   1.651   0.802
 6333SOL     OW19897   5.240   1.711   0.923
 6333SOL    HW119898   5.314   1.711   0.855
 6333SOL    HW219899   5.152   1.703   0.876
 6334SOL     OW19900   1.639   1.148   1.837
 6334SOL    HW119901   1.570   1.184   1.774
 6334SOL    HW219902   1.720   1.120   1.785
 6335SOL     OW19903   6.493   1.572   0.674
 6335SOL    HW119904   6.557   1.496   0.670
 6335SOL    HW219905   6.451   1.576   0.765
 6336SOL     OW19906   0.465   2.827   5.389
 6336SOL    HW119907   0.424   2.752   5.441
 6336SOL    HW219908   0.539   2.868   5.442
 6337SOL     OW19909   4.802   5.433   4.758
 6337SOL    HW119910   4.837   5.523   4.735
 6337SOL    HW219911   4.847   5.364   4.701
 6338SOL     OW19912   3.089   1.785   3.503
 6338SOL    HW119913   3.161   1.824   3.561
 6338SOL    HW219914   3.003   1.834   3.520
 6339SOL     OW19915   0.874   4.601   3.212
 6339SOL    HW119916   0.971   4.582   3.207
 6339SOL    HW219917   0.860   4.700   3.219
 6340SOL     OW19918   2.137   4.119   1.392
 6340SOL    HW119919   2.226   4.149   1.428
 6340SOL    HW219920   2.064   4.168   1.440
 6341SOL     OW19921   0.861   4.901   3.745
 6341SOL    HW119922   0.797   4.892   3.669
 6341SOL    HW219923   0.865   4.997   3.774
 6342SOL     OW19924   1.852   1.572   1.514
 6342SOL    HW119925   1.862   1.671   1.504
 6342SOL    HW219926   1.885   1.544   1.604
 6343SOL     OW19927   1.838   5.477   0.608
 6343SOL    HW119928   1.911   5.430   0.558
 6343SOL    HW219929   1.813   5.560   0.560
 6344SOL     OW19930   6.800   1.133   3.931
 6344SOL    HW119931   6.843   1.222   3.947
 6344SOL    HW219932   6.715   1.128   3.983
 6345SOL     OW19933   5.448   3.929   1.923
 6345SOL    HW119934   5.352   3.925   1.949
 6345SOL    HW219935   5.505   3.896   1.999
 6346SOL     OW19936   6.630   3.977   5.383
 6346SOL    HW119937   6.616   3.891   5.334
 6346SOL    HW219938   6.604   3.965   5.479
 6347SOL     OW19939   2.059   1.859   2.978
 6347SOL    HW119940   1.983   1.905   2.932
 6347SOL    HW219941   2.086   1.911   3.059
 6348SOL     OW19942   0.017   2.130   5.730
 6348SOL    HW119943   0.085   2.095   5.795
 6348SOL    HW219944   7.017   2.226   5.751
 6349SOL     OW19945   6.641   0.923   6.726
 6349SOL    HW119946   6.720   0.876   6.686
 6349SOL    HW219947   6.662   1.019   6.739
 6350SOL     OW19948   1.142   4.963   1.491
 6350SOL    HW119949   1.165   4.992   1.584
 6350SOL    HW219950   1.134   4.864   1.487
 6351SOL     OW19951   5.829   3.062   2.561
 6351SOL    HW119952   5.766   2.996   2.521
 6351SOL    HW219953   5.852   3.133   2.494
 6352SOL     OW19954   2.850   0.704   4.672
 6352SOL    HW119955   2.754   0.694   4.695
 6352SOL    HW219956   2.905   0.640   4.727
 6353SOL     OW19957   4.161   6.038   5.882
 6353SOL    HW119958   4.121   5.974   5.947
 6353SOL    HW219959   4.118   6.026   5.792
 6354SOL     OW19960   4.418   5.288   1.748
 6354SOL    HW119961   4.440   5.203   1.701
 6354SOL    HW219962   4.493   5.312   1.810
 6355SOL     OW19963   2.348   4.878   0.655
 6355SOL    HW119964   2.400   4.793   0.660
 6355SOL    HW219965   2.330   4.911   0.747
 6356SOL     OW19966   6.388   4.016   6.857
 6356SOL    HW119967   6.485   4.029   6.833
 6356SOL    HW219968   6.335   4.000   6.774
 6357SOL     OW19969   6.134   1.203   1.375
 6357SOL    HW119970   6.073   1.282   1.383
 6357SOL    HW219971   6.151   1.165   1.466
 6358SOL     OW19972   1.512   2.273   6.488
 6358SOL    HW119973   1.412   2.282   6.497
 6358SOL    HW219974   1.534   2.179   6.461
 6359SOL     OW19975   5.247   6.268   0.723
 6359SOL    HW119976   5.278   6.186   0.676
 6359SOL    HW219977   5.309   6.344   0.704
 6360SOL     OW19978   1.006   2.279   1.944
 6360SOL    HW119979   0.937   2.308   2.010
 6360SOL    HW219980   1.067   2.211   1.987
 6361SOL     OW19981   0.751   0.192   6.877
 6361SOL    HW119982   0.692   0.272   6.866
 6361SOL    HW219983   0.836   0.206   6.825
 6362SOL     OW19984   1.256   5.924   6.973
 6362SOL    HW119985   1.259   6.011   6.924
 6362SOL    HW219986   1.167   5.912   7.015
 6363SOL     OW19987   2.615   4.574   3.535
 6363SOL    HW119988   2.533   4.527   3.502
 6363SOL    HW219989   2.625   4.559   3.633
 6364SOL     OW19990   2.221   2.878   4.520
 6364SOL    HW119991   2.251   2.888   4.614
 6364SOL    HW219992   2.210   2.968   4.478
 6365SOL     OW19993   5.160   5.414   3.272
 6365SOL    HW119994   5.069   5.401   3.312
 6365SOL    HW219995   5.186   5.332   3.222
 6366SOL     OW19996   5.710   6.982   4.698
 6366SOL    HW119997   5.744   7.014   4.786
 6366SOL    HW219998   5.613   6.956   4.706
 6367SOL     OW19999   1.839   2.449   2.150
 6367SOL    HW120000   1.805   2.540   2.174
 6367SOL    HW220001   1.856   2.396   2.232
 6368SOL     OW20002   4.784   2.952   4.544
 6368SOL    HW120003   4.884   2.956   4.539
 6368SOL    HW220004   4.746   3.018   4.478
 6369SOL     OW20005   3.705   5.711   6.549
 6369SOL    HW120006   3.697   5.615   6.520
 6369SOL    HW220007   3.795   5.725   6.590
 6370SOL     OW20008   5.366   3.456   4.362
 6370SOL    HW120009   5.374   3.381   4.427
 6370SOL    HW220010   5.327   3.536   4.407
 6371SOL     OW20011   4.550   4.798   1.971
 6371SOL    HW120012   4.499   4.807   2.056
 6371SOL    HW220013   4.635   4.850   1.978
 6372SOL     OW20014   6.300   1.429   2.598
 6372SOL    HW120015   6.369   1.401   2.532
 6372SOL    HW220016   6.270   1.350   2.652
 6373SOL     OW20017   4.910   4.273   1.157
 6373SOL    HW120018   4.885   4.336   1.083
 6373SOL    HW220019   4.873   4.182   1.138
 6374SOL     OW20020   4.572   3.676   0.124
 6374SOL    HW120021   4.634   3.752   0.141
 6374SOL    HW220022   4.522   3.655   0.209
 6375SOL     OW20023   6.197   2.464   1.712
 6375SOL    HW120024   6.132   2.401   1.753
 6375SOL    HW220025   6.276   2.476   1.772
 6376SOL     OW20026   3.512   1.195   6.632
 6376SOL    HW120027   3.605   1.157   6.633
 6376SOL    HW220028   3.491   1.234   6.722
 6377SOL     OW20029   6.834   0.695   0.366
 6377SOL    HW120030   6.896   0.770   0.389
 6377SOL    HW220031   6.759   0.692   0.433
 6378SOL     OW20032   5.310   5.863   2.335
 6378SOL    HW120033   5.390   5.873   2.394
 6378SOL    HW220034   5.315   5.775   2.288
 6379SOL     OW20035   2.261   6.124   6.891
 6379SOL    HW120036   2.279   6.029   6.918
 6379SOL    HW220037   2.196   6.165   6.955
 6380SOL     OW20038   1.247   3.512   5.102
 6380SOL    HW120039   1.339   3.522   5.141
 6380SOL    HW220040   1.239   3.422   5.058
 6381SOL     OW20041   4.609   2.476   0.266
 6381SOL    HW120042   4.696   2.468   0.217
 6381SOL    HW220043   4.565   2.563   0.241
 6382SOL     OW20044   1.539   1.615   1.471
 6382SOL    HW120045   1.522   1.587   1.377
 6382SOL    HW220046   1.638   1.619   1.487
 6383SOL     OW20047   2.420   2.553   2.267
 6383SOL    HW120048   2.408   2.616   2.344
 6383SOL    HW220049   2.374   2.589   2.186
 6384SOL     OW20050   5.914   2.596   2.969
 6384SOL    HW120051   5.967   2.539   2.906
 6384SOL    HW220052   5.906   2.550   3.057
 6385SOL     OW20053   6.732   3.180   1.602
 6385SOL    HW120054   6.689   3.090   1.604
 6385SOL    HW220055   6.816   3.176   1.548
 6386SOL     OW20056   2.780   3.705   0.628
 6386SOL    HW120057   2.730   3.620   0.611
 6386SOL    HW220058   2.875   3.693   0.601
 6387SOL     OW20059   0.131   0.343   6.301
 6387SOL    HW120060   0.123   0.404   6.380
 6387SOL    HW220061   0.042   0.304   6.280
 6388SOL     OW20062   6.846   5.420   2.308
 6388SOL    HW120063   6.864   5.510   2.268
 6388SOL    HW220064   6.821   5.356   2.235
 6389SOL     OW20065   0.958   0.590   6.981
 6389SOL    HW120066   0.943   0.640   6.896
 6389SOL    HW220067   0.870   0.570   0.005
 6390SOL     OW20068   6.482   1.134   6.083
 6390SOL    HW120069   6.449   1.111   6.175
 6390SOL    HW220070   6.407   1.171   6.029
 6391SOL     OW20071   0.914   1.580   5.145
 6391SOL    HW120072   0.997   1.591   5.200
 6391SOL    HW220073   0.907   1.655   5.079
 6392SOL     OW20074   4.033   6.713   3.722
 6392SOL    HW120075   4.113   6.654   3.733
 6392SOL    HW220076   4.053   6.803   3.760
 6393SOL     OW20077   6.923   5.285   0.438
 6393SOL    HW120078   6.882   5.279   0.347
 6393SOL    HW220079   6.952   5.379   0.456
 6394SOL     OW20080   1.296   5.576   1.069
 6394SOL    HW120081   1.345   5.523   1.139
 6394SOL    HW220082   1.344   5.662   1.053
 6395SOL     OW20083   2.217   4.212   3.343
 6395SOL    HW120084   2.134   4.265   3.324
 6395SOL    HW220085   2.265   4.195   3.257
 6396SOL     OW20086   0.818   3.473   6.545
 6396SOL    HW120087   0.885   3.452   6.616
 6396SOL    HW220088   0.850   3.550   6.490
 6397SOL     OW20089   5.799   3.207   3.929
 6397SOL    HW120090   5.852   3.280   3.887
 6397SOL    HW220091   5.707   3.205   3.889
 6398SOL     OW20092   1.785   0.480   1.042
 6398SOL    HW120093   1.763   0.574   1.067
 6398SOL    HW220094   1.733   0.454   0.960
 6399SOL     OW20095   3.078   1.464   5.994
 6399SOL    HW120096   2.978   1.458   6.001
 6399SOL    HW220097   3.109   1.553   6.028
 6400SOL     OW20098   1.024   6.476   2.850
 6400SOL    HW120099   0.942   6.494   2.795
 6400SOL    HW220100   1.005   6.495   2.946
 6401SOL     OW20101   3.729   6.096   3.771
 6401SOL    HW120102   3.720   6.103   3.672
 6401SOL    HW220103   3.778   6.012   3.794
 6402SOL     OW20104   1.654   4.932   4.854
 6402SOL    HW120105   1.689   4.850   4.807
 6402SOL    HW220106   1.642   4.912   4.951
 6403SOL     OW20107   4.834   5.716   4.728
 6403SOL    HW120108   4.811   5.739   4.634
 6403SOL    HW220109   4.921   5.760   4.753
 6404SOL     OW20110   3.988   0.137   2.153
 6404SOL    HW120111   3.965   0.148   2.249
 6404SOL    HW220112   4.073   0.086   2.144
 6405SOL     OW20113   5.312   1.614   2.367
 6405SOL    HW120114   5.313   1.678   2.290
 6405SOL    HW220115   5.340   1.524   2.335
 6406SOL     OW20116   0.574   2.915   3.216
 6406SOL    HW120117   0.671   2.933   3.201
 6406SOL    HW220118   0.525   3.001   3.226
 6407SOL     OW20119   1.636   5.984   2.483
 6407SOL    HW120120   1.651   5.941   2.394
 6407SOL    HW220121   1.718   5.975   2.539
 6408SOL     OW20122   6.312   0.476   1.098
 6408SOL    HW120123   6.355   0.516   1.178
 6408SOL    HW220124   6.382   0.450   1.032
 6409SOL     OW20125   5.184   5.140   3.158
 6409SOL    HW120126   5.273   5.164   3.120
 6409SOL    HW220127   5.195   5.063   3.222
 6410SOL     OW20128   2.215   1.251   5.614
 6410SOL    HW120129   2.270   1.250   5.698
 6410SOL    HW220130   2.274   1.264   5.535
 6411SOL     OW20131   0.226   2.590   2.331
 6411SOL    HW120132   0.139   2.568   2.374
 6411SOL    HW220133   0.300   2.550   2.385
 6412SOL     OW20134   3.389   0.327   0.321
 6412SOL    HW120135   3.330   0.282   0.255
 6412SOL    HW220136   3.362   0.423   0.330
 6413SOL     OW20137   5.347   6.400   3.650
 6413SOL    HW120138   5.428   6.455   3.666
 6413SOL    HW220139   5.323   6.403   3.553
 6414SOL     OW20140   1.842   0.127   0.219
 6414SOL    HW120141   1.812   0.185   0.294
 6414SOL    HW220142   1.769   0.063   0.194
 6415SOL     OW20143   0.423   2.587   3.476
 6415SOL    HW120144   0.328   2.606   3.452
 6415SOL    HW220145   0.455   2.508   3.425
 6416SOL     OW20146   3.015   6.811   0.287
 6416SOL    HW120147   2.939   6.758   0.250
 6416SOL    HW220148   3.071   6.846   0.211
 6417SOL     OW20149   3.854   1.629   0.337
 6417SOL    HW120150   3.844   1.725   0.311
 6417SOL    HW220151   3.918   1.622   0.414
 6418SOL     OW20152   4.578   5.196   0.717
 6418SOL    HW120153   4.548   5.190   0.812
 6418SOL    HW220154   4.640   5.120   0.697
 6419SOL     OW20155   1.074   6.413   6.461
 6419SOL    HW120156   1.081   6.478   6.385
 6419SOL    HW220157   1.019   6.335   6.432
 6420SOL     OW20158   2.084   3.902   4.362
 6420SOL    HW120159   2.145   3.943   4.429
 6420SOL    HW220160   2.025   3.973   4.323
 6421SOL     OW20161   4.296   0.400   2.127
 6421SOL    HW120162   4.302   0.482   2.070
 6421SOL    HW220163   4.203   0.392   2.164
 6422SOL     OW20164   5.972   2.019   5.074
 6422SOL    HW120165   5.926   2.014   5.163
 6422SOL    HW220166   5.915   2.070   5.010
 6423SOL     OW20167   2.185   4.411   4.260
 6423SOL    HW120168   2.226   4.417   4.350
 6423SOL    HW220169   2.226   4.480   4.199
 6424SOL     OW20170   6.242   4.929   4.896
 6424SOL    HW120171   6.235   4.835   4.929
 6424SOL    HW220172   6.308   4.933   4.820
 6425SOL     OW20173   0.208   5.563   3.697
 6425SOL    HW120174   0.170   5.635   3.754
 6425SOL    HW220175   0.138   5.494   3.679
 6426SOL     OW20176   4.722   4.260   4.900
 6426SOL    HW120177   4.653   4.272   4.972
 6426SOL    HW220178   4.704   4.325   4.826
 6427SOL     OW20179   3.649   2.929   3.284
 6427SOL    HW120180   3.713   2.940   3.360
 6427SOL    HW220181   3.562   2.892   3.319
 6428SOL     OW20182   5.206   3.207   0.646
 6428SOL    HW120183   5.294   3.174   0.611
 6428SOL    HW220184   5.152   3.244   0.571
 6429SOL     OW20185   2.293   0.931   5.383
 6429SOL    HW120186   2.218   0.933   5.449
 6429SOL    HW220187   2.266   0.982   5.301
 6430SOL     OW20188   6.879   0.060   5.561
 6430SOL    HW120189   6.922   0.136   5.611
 6430SOL    HW220190   6.950   7.013   5.534
 6431SOL     OW20191   3.763   4.807   1.683
 6431SOL    HW120192   3.703   4.861   1.623
 6431SOL    HW220193   3.707   4.752   1.745
 6432SOL     OW20194   4.647   4.541   6.046
 6432SOL    HW120195   4.738   4.530   6.006
 6432SOL    HW220196   4.586   4.583   5.978
 6433SOL     OW20197   2.527   5.636   6.936
 6433SOL    HW120198   2.596   5.679   6.876
 6433SOL    HW220199   2.447   5.611   6.882
 6434SOL     OW20200   3.707   4.999   5.996
 6434SOL    HW120201   3.630   4.964   6.050
 6434SOL    HW220202   3.746   4.925   5.941
 6435SOL     OW20203   4.630   1.313   0.825
 6435SOL    HW120204   4.619   1.411   0.843
 6435SOL    HW220205   4.686   1.300   0.744
 6436SOL     OW20206   6.849   4.239   4.547
 6436SOL    HW120207   6.908   4.254   4.467
 6436SOL    HW220208   6.781   4.312   4.551
 6437SOL     OW20209   0.914   2.040   5.277
 6437SOL    HW120210   0.905   2.091   5.192
 6437SOL    HW220211   0.996   1.982   5.273
 6438SOL     OW20212   0.387   5.599   0.385
 6438SOL    HW120213   0.361   5.583   0.480
 6438SOL    HW220214   0.430   5.690   0.377
 6439SOL     OW20215   5.779   0.288   2.884
 6439SOL    HW120216   5.852   0.221   2.871
 6439SOL    HW220217   5.713   0.281   2.810
 6440SOL     OW20218   2.657   1.770   6.727
 6440SOL    HW120219   2.663   1.869   6.735
 6440SOL    HW220220   2.675   1.743   6.632
 6441SOL     OW20221   0.920   1.743   2.690
 6441SOL    HW120222   0.969   1.656   2.695
 6441SOL    HW220223   0.972   1.814   2.739
 6442SOL     OW20224   3.071   2.782   5.327
 6442SOL    HW120225   3.054   2.880   5.336
 6442SOL    HW220226   2.984   2.734   5.314
 6443SOL     OW20227   4.967   2.509   0.323
 6443SOL    HW120228   4.908   2.486   0.246
 6443SOL    HW220229   4.991   2.606   0.320
 6444SOL     OW20230   6.652   3.087   5.166
 6444SOL    HW120231   6.719   3.057   5.234
 6444SOL    HW220232   6.662   3.186   5.150
 6445SOL     OW20233   3.216   2.945   3.148
 6445SOL    HW120234   3.127   2.962   3.105
 6445SOL    HW220235   3.289   2.965   3.082
 6446SOL     OW20236   2.339   0.991   6.438
 6446SOL    HW120237   2.394   1.034   6.511
 6446SOL    HW220238   2.394   0.920   6.393
 6447SOL     OW20239   6.328   3.698   1.798
 6447SOL    HW120240   6.232   3.668   1.794
 6447SOL    HW220241   6.386   3.628   1.756
 6448SOL     OW20242   3.735   5.550   1.197
 6448SOL    HW120243   3.662   5.551   1.265
 6448SOL    HW220244   3.707   5.496   1.118
 6449SOL     OW20245   2.080   5.077   0.966
 6449SOL    HW120246   2.148   5.138   0.926
 6449SOL    HW220247   2.035   5.122   1.042
 6450SOL     OW20248   0.220   4.433   1.271
 6450SOL    HW120249   0.300   4.483   1.237
 6450SOL    HW220250   0.249   4.362   1.335
 6451SOL     OW20251   3.887   2.066   1.174
 6451SOL    HW120252   3.907   2.163   1.187
 6451SOL    HW220253   3.944   2.030   1.101
 6452SOL     OW20254   4.808   2.315   3.767
 6452SOL    HW120255   4.899   2.355   3.756
 6452SOL    HW220256   4.816   2.218   3.789
 6453SOL     OW20257   3.149   0.874   1.238
 6453SOL    HW120258   3.105   0.833   1.318
 6453SOL    HW220259   3.119   0.969   1.229
 6454SOL     OW20260   5.602   2.771   3.684
 6454SOL    HW120261   5.571   2.721   3.603
 6454SOL    HW220262   5.523   2.813   3.730
 6455SOL     OW20263   6.773   3.568   3.192
 6455SOL    HW120264   6.799   3.472   3.179
 6455SOL    HW220265   6.726   3.600   3.109
 6456SOL     OW20266   6.136   1.674   2.983
 6456SOL    HW120267   6.207   1.711   3.043
 6456SOL    HW220268   6.166   1.683   2.888
 6457SOL     OW20269   3.725   0.500   2.253
 6457SOL    HW120270   3.771   0.580   2.293
 6457SOL    HW220271   3.627   0.515   2.251
 6458SOL     OW20272   0.452   4.970   3.581
 6458SOL    HW120273   0.473   4.954   3.485
 6458SOL    HW220274   0.461   5.068   3.602
 6459SOL     OW20275   6.362   3.452   2.100
 6459SOL    HW120276   6.453   3.442   2.062
 6459SOL    HW220277   6.296   3.466   2.026
 6460SOL     OW20278   0.490   5.776   6.017
 6460SOL    HW120279   0.558   5.736   5.956
 6460SOL    HW220280   0.418   5.820   5.962
 6461SOL     OW20281   2.291   5.407   1.319
 6461SOL    HW120282   2.254   5.499   1.333
 6461SOL    HW220283   2.359   5.388   1.390
 6462SOL     OW20284   1.523   3.589   5.196
 6462SOL    HW120285   1.540   3.611   5.292
 6462SOL    HW220286   1.602   3.540   5.159
 6463SOL     OW20287   4.693   2.038   1.650
 6463SOL    HW120288   4.659   2.008   1.739
 6463SOL    HW220289   4.727   2.132   1.657
 6464SOL     OW20290   1.210   5.022   4.395
 6464SOL    HW120291   1.289   5.051   4.341
 6464SOL    HW220292   1.240   4.954   4.463
 6465SOL     OW20293   3.833   1.013   3.057
 6465SOL    HW120294   3.757   1.079   3.058
 6465SOL    HW220295   3.822   0.949   3.132
 6466SOL     OW20296   0.745   2.774   0.217
 6466SOL    HW120297   0.761   2.802   0.311
 6466SOL    HW220298   0.676   2.832   0.175
 6467SOL     OW20299   3.181   1.966   0.892
 6467SOL    HW120300   3.093   1.960   0.938
 6467SOL    HW220301   3.182   2.044   0.829
 6468SOL     OW20302   2.666   0.883   0.900
 6468SOL    HW120303   2.594   0.906   0.966
 6468SOL    HW220304   2.753   0.871   0.949
 6469SOL     OW20305   3.323   2.101   3.199
 6469SOL    HW120306   3.338   2.005   3.221
 6469SOL    HW220307   3.253   2.138   3.259
 6470SOL     OW20308   6.720   1.733   6.846
 6470SOL    HW120309   6.758   1.825   6.856
 6470SOL    HW220310   6.792   1.665   6.858
 6471SOL     OW20311   0.532   6.247   5.559
 6471SOL    HW120312   0.513   6.296   5.474
 6471SOL    HW220313   0.446   6.222   5.603
 6472SOL     OW20314   6.654   6.133   2.747
 6472SOL    HW120315   6.571   6.128   2.803
 6472SOL    HW220316   6.709   6.051   2.762
 6473SOL     OW20317   2.580   1.737   3.958
 6473SOL    HW120318   2.494   1.689   3.943
 6473SOL    HW220319   2.638   1.728   3.877
 6474SOL     OW20320   3.667   5.101   5.613
 6474SOL    HW120321   3.647   5.046   5.532
 6474SOL    HW220322   3.758   5.077   5.648
 6475SOL     OW20323   5.602   4.991   2.746
 6475SOL    HW120324   5.639   5.036   2.827
 6475SOL    HW220325   5.550   5.057   2.692
 6476SOL     OW20326   3.346   1.500   6.671
 6476SOL    HW120327   3.323   1.463   6.761
 6476SOL    HW220328   3.445   1.503   6.660
 6477SOL     OW20329   6.454   6.146   1.386
 6477SOL    HW120330   6.445   6.232   1.436
 6477SOL    HW220331   6.540   6.101   1.413
 6478SOL     OW20332   3.506   5.521   1.353
 6478SOL    HW120333   3.498   5.447   1.419
 6478SOL    HW220334   3.466   5.493   1.266
 6479SOL     OW20335   3.126   6.061   4.121
 6479SOL    HW120336   3.085   6.042   4.032
 6479SOL    HW220337   3.154   6.157   4.125
 6480SOL     OW20338   3.187   1.465   6.921
 6480SOL    HW120339   3.097   1.436   6.890
 6480SOL    HW220340   3.191   1.565   6.925
 6481SOL     OW20341   3.485   2.798   1.988
 6481SOL    HW120342   3.401   2.787   2.042
 6481SOL    HW220343   3.462   2.805   1.891
 6482SOL     OW20344   5.522   3.950   5.419
 6482SOL    HW120345   5.554   4.044   5.429
 6482SOL    HW220346   5.511   3.929   5.322
 6483SOL     OW20347   1.281   5.784   5.104
 6483SOL    HW120348   1.353   5.741   5.049
 6483SOL    HW220349   1.274   5.737   5.191
 6484SOL     OW20350   2.490   0.975   4.215
 6484SOL    HW120351   2.427   0.913   4.167
 6484SOL    HW220352   2.474   0.968   4.314
 6485SOL     OW20353   2.085   6.934   4.097
 6485SOL    HW120354   2.003   6.878   4.081
 6485SOL    HW220355   2.119   6.968   4.010
 6486SOL     OW20356   1.626   4.477   3.513
 6486SOL    HW120357   1.623   4.402   3.446
 6486SOL    HW220358   1.572   4.451   3.593
 6487SOL     OW20359   5.592   4.672   3.763
 6487SOL    HW120360   5.628   4.737   3.695
 6487SOL    HW220361   5.617   4.579   3.737
 6488SOL     OW20362   4.427   5.379   4.265
 6488SOL    HW120363   4.404   5.285   4.288
 6488SOL    HW220364   4.428   5.435   4.348
 6489SOL     OW20365   4.285   3.172   5.782
 6489SOL    HW120366   4.330   3.190   5.870
 6489SOL    HW220367   4.293   3.253   5.724
 6490SOL     OW20368   1.747   2.260   0.176
 6490SOL    HW120369   1.763   2.187   0.110
 6490SOL    HW220370   1.834   2.304   0.199
 6491SOL     OW20371   2.852   0.138   1.411
 6491SOL    HW120372   2.829   0.040   1.412
 6491SOL    HW220373   2.768   0.192   1.409
 6492SOL     OW20374   3.364   3.483   4.403
 6492SOL    HW120375   3.424   3.559   4.426
 6492SOL    HW220376   3.418   3.400   4.393
 6493SOL     OW20377   0.784   3.763   5.536
 6493SOL    HW120378   0.767   3.705   5.456
 6493SOL    HW220379   0.790   3.858   5.508
 6494SOL     OW20380   5.875   0.137   1.828
 6494SOL    HW120381   5.857   0.180   1.740
 6494SOL    HW220382   5.791   0.139   1.883
 6495SOL     OW20383   6.236   6.904   3.501
 6495SOL    HW120384   6.319   6.911   3.556
 6495SOL    HW220385   6.197   6.812   3.512
 6496SOL     OW20386   3.917   1.205   1.465
 6496SOL    HW120387   3.993   1.159   1.511
 6496SOL    HW220388   3.850   1.234   1.533
 6497SOL     OW20389   0.265   1.369   0.994
 6497SOL    HW120390   0.253   1.308   0.915
 6497SOL    HW220391   0.278   1.314   1.076
 6498SOL     OW20392   1.011   4.454   4.486
 6498SOL    HW120393   0.915   4.426   4.481
 6498SOL    HW220394   1.069   4.375   4.467
 6499SOL     OW20395   4.981   3.409   3.502
 6499SOL    HW120396   5.021   3.483   3.555
 6499SOL    HW220397   4.901   3.372   3.550
 6500SOL     OW20398   1.771   4.233   3.025
 6500SOL    HW120399   1.836   4.236   2.949
 6500SOL    HW220400   1.814   4.192   3.105
 6501SOL     OW20401   6.090   2.054   0.801
 6501SOL    HW120402   6.101   2.149   0.832
 6501SOL    HW220403   6.177   2.006   0.808
 6502SOL     OW20404   6.648   4.040   1.804
 6502SOL    HW120405   6.670   4.136   1.823
 6502SOL    HW220406   6.556   4.034   1.765
 6503SOL     OW20407   6.528   3.266   5.501
 6503SOL    HW120408   6.476   3.189   5.465
 6503SOL    HW220409   6.495   3.351   5.458
 6504SOL     OW20410   4.659   6.037   6.550
 6504SOL    HW120411   4.582   5.982   6.518
 6504SOL    HW220412   4.629   6.097   6.623
 6505SOL     OW20413   6.854   5.715   0.864
 6505SOL    HW120414   6.788   5.779   0.903
 6505SOL    HW220415   6.835   5.701   0.767
 6506SOL     OW20416   0.179   3.952   2.198
 6506SOL    HW120417   0.166   4.044   2.162
 6506SOL    HW220418   0.141   3.885   2.135
 6507SOL     OW20419   3.833   4.468   6.727
 6507SOL    HW120420   3.927   4.493   6.751
 6507SOL    HW220421   3.814   4.376   6.761
 6508SOL     OW20422   0.642   6.850   2.132
 6508SOL    HW120423   0.719   6.866   2.193
 6508SOL    HW220424   0.626   6.751   2.123
 6509SOL     OW20425   3.059   1.526   6.287
 6509SOL    HW120426   3.094   1.567   6.371
 6509SOL    HW220427   3.085   1.429   6.284
 6510SOL     OW20428   4.102   5.544   5.731
 6510SOL    HW120429   4.120   5.578   5.823
 6510SOL    HW220430   4.092   5.622   5.668
 6511SOL     OW20431   3.087   1.011   0.133
 6511SOL    HW120432   3.091   0.912   0.126
 6511SOL    HW220433   3.088   1.038   0.230
 6512SOL     OW20434   4.068   1.312   0.648
 6512SOL    HW120435   4.091   1.287   0.742
 6512SOL    HW220436   3.973   1.287   0.629
 6513SOL     OW20437   2.208   5.181   3.486
 6513SOL    HW120438   2.185   5.185   3.389
 6513SOL    HW220439   2.257   5.264   3.512
 6514SOL     OW20440   5.767   6.890   5.965
 6514SOL    HW120441   5.790   6.807   5.914
 6514SOL    HW220442   5.730   6.865   6.055
 6515SOL     OW20443   2.120   5.237   2.028
 6515SOL    HW120444   2.129   5.164   1.959
 6515SOL    HW220445   2.198   5.299   2.020
 6516SOL     OW20446   6.899   3.728   1.378
 6516SOL    HW120447   6.818   3.674   1.356
 6516SOL    HW220448   6.960   3.733   1.299
 6517SOL     OW20449   6.863   2.906   0.491
 6517SOL    HW120450   6.956   2.916   0.455
 6517SOL    HW220451   6.847   2.974   0.562
 6518SOL     OW20452   1.187   2.019   3.233
 6518SOL    HW120453   1.226   2.031   3.141
 6518SOL    HW220454   1.093   2.054   3.233
 6519SOL     OW20455   1.097   1.294   2.936
 6519SOL    HW120456   1.131   1.321   3.027
 6519SOL    HW220457   1.173   1.286   2.873
 6520SOL     OW20458   0.376   5.380   6.901
 6520SOL    HW120459   0.450   5.388   6.967
 6520SOL    HW220460   0.290   5.409   6.943
 6521SOL     OW20461   1.414   3.779   4.246
 6521SOL    HW120462   1.511   3.759   4.232
 6521SOL    HW220463   1.360   3.695   4.236
 6522SOL     OW20464   2.820   3.358   5.258
 6522SOL    HW120465   2.850   3.375   5.164
 6522SOL    HW220466   2.786   3.264   5.266
 6523SOL     OW20467   5.875   6.945   6.961
 6523SOL    HW120468   5.963   6.978   6.927
 6523SOL    HW220469   5.808   6.945   6.887
 6524SOL     OW20470   2.453   2.382   1.975
 6524SOL    HW120471   2.488   2.366   2.067
 6524SOL    HW220472   2.407   2.299   1.942
 6525SOL     OW20473   1.189   4.804   3.471
 6525SOL    HW120474   1.234   4.892   3.456
 6525SOL    HW220475   1.155   4.800   3.565
 6526SOL     OW20476   0.716   6.892   0.287
 6526SOL    HW120477   0.746   6.988   0.291
 6526SOL    HW220478   0.623   6.889   0.249
 6527SOL     OW20479   0.285   2.581   0.474
 6527SOL    HW120480   0.214   2.516   0.447
 6527SOL    HW220481   0.300   2.575   0.573
 6528SOL     OW20482   5.480   0.623   6.463
 6528SOL    HW120483   5.475   0.650   6.559
 6528SOL    HW220484   5.396   0.574   6.438
 6529SOL     OW20485   6.731   0.936   2.291
 6529SOL    HW120486   6.648   0.905   2.244
 6529SOL    HW220487   6.807   0.875   2.269
 6530SOL     OW20488   1.393   3.056   2.259
 6530SOL    HW120489   1.346   2.985   2.207
 6530SOL    HW220490   1.341   3.078   2.341
 6531SOL     OW20491   3.961   3.797   5.230
 6531SOL    HW120492   4.015   3.716   5.206
 6531SOL    HW220493   3.931   3.843   5.146
 6532SOL     OW20494   1.261   0.749   0.764
 6532SOL    HW120495   1.243   0.721   0.670
 6532SOL    HW220496   1.357   0.777   0.772
 6533SOL     OW20497   4.905   3.659   0.886
 6533SOL    HW120498   4.979   3.651   0.952
 6533SOL    HW220499   4.823   3.613   0.923
 6534SOL     OW20500   0.009   4.523   3.212
 6534SOL    HW120501   6.962   4.518   3.136
 6534SOL    HW220502   0.096   4.558   3.178
 6535SOL     OW20503   6.252   3.185   5.332
 6535SOL    HW120504   6.308   3.223   5.258
 6535SOL    HW220505   6.295   3.101   5.366
 6536SOL     OW20506   0.858   3.776   4.825
 6536SOL    HW120507   0.766   3.744   4.806
 6536SOL    HW220508   0.917   3.699   4.851
 6537SOL     OW20509   5.988   5.271   4.041
 6537SOL    HW120510   5.894   5.259   4.074
 6537SOL    HW220511   6.002   5.366   4.014
 6538SOL     OW20512   2.634   3.180   5.594
 6538SOL    HW120513   2.537   3.199   5.587
 6538SOL    HW220514   2.661   3.180   5.691
 6539SOL     OW20515   5.821   1.088   5.208
 6539SOL    HW120516   5.855   1.136   5.288
 6539SOL    HW220517   5.851   0.992   5.212
 6540SOL     OW20518   5.776   2.639   5.672
 6540SOL    HW120519   5.700   2.692   5.711
 6540SOL    HW220520   5.765   2.543   5.697
 6541SOL     OW20521   5.780   0.544   4.466
 6541SOL    HW120522   5.844   0.601   4.518
 6541SOL    HW220523   5.786   0.567   4.369
 6542SOL     OW20524   1.449   4.394   3.727
 6542SOL    HW120525   1.443   4.356   3.819
 6542SOL    HW220526   1.362   4.381   3.679
 6543SOL     OW20527   3.915   1.956   5.239
 6543SOL    HW120528   3.960   2.037   5.201
 6543SOL    HW220529   3.971   1.875   5.220
 6544SOL     OW20530   1.289   6.655   1.491
 6544SOL    HW120531   1.209   6.629   1.544
 6544SOL    HW220532   1.331   6.736   1.531
 6545SOL     OW20533   4.601   0.144   0.540
 6545SOL    HW120534   4.571   0.240   0.543
 6545SOL    HW220535   4.532   0.089   0.493
 6546SOL     OW20536   4.724   3.525   6.428
 6546SOL    HW120537   4.820   3.504   6.447
 6546SOL    HW220538   4.675   3.440   6.410
 6547SOL     OW20539   6.379   5.326   0.175
 6547SOL    HW120540   6.429   5.347   0.260
 6547SOL    HW220541   6.359   5.412   0.127
 6548SOL     OW20542   0.293   1.831   5.447
 6548SOL    HW120543   0.368   1.771   5.418
 6548SOL    HW220544   0.219   1.826   5.381
 6549SOL     OW20545   4.631   0.126   1.530
 6549SOL    HW120546   4.659   0.215   1.567
 6549SOL    HW220547   4.670   0.053   1.586
 6550SOL     OW20548   6.440   0.122   2.971
 6550SOL    HW120549   6.371   0.192   2.991
 6550SOL    HW220550   6.509   0.161   2.909
 6551SOL     OW20551   2.828   3.940   0.938
 6551SOL    HW120552   2.799   4.032   0.914
 6551SOL    HW220553   2.757   3.875   0.913
 6552SOL     OW20554   2.526   6.174   0.767
 6552SOL    HW120555   2.428   6.190   0.754
 6552SOL    HW220556   2.568   6.150   0.680
 6553SOL     OW20557   0.408   1.434   3.615
 6553SOL    HW120558   0.501   1.451   3.583
 6553SOL    HW220559   0.343   1.477   3.553
 6554SOL     OW20560   2.319   1.423   4.690
 6554SOL    HW120561   2.384   1.421   4.614
 6554SOL    HW220562   2.366   1.401   4.775
 6555SOL     OW20563   6.855   3.823   3.964
 6555SOL    HW120564   6.882   3.900   4.022
 6555SOL    HW220565   6.887   3.738   4.004
 6556SOL     OW20566   4.760   2.962   3.406
 6556SOL    HW120567   4.744   2.901   3.483
 6556SOL    HW220568   4.742   2.914   3.321
 6557SOL     OW20569   2.055   0.371   2.208
 6557SOL    HW120570   2.145   0.336   2.233
 6557SOL    HW220571   2.044   0.370   2.109
 6558SOL     OW20572   5.380   5.212   0.181
 6558SOL    HW120573   5.311   5.148   0.147
 6558SOL    HW220574   5.340   5.269   0.252
 6559SOL     OW20575   0.326   2.406   6.244
 6559SOL    HW120576   0.341   2.505   6.251
 6559SOL    HW220577   0.352   2.363   6.331
 6560SOL     OW20578   5.671   4.937   0.484
 6560SOL    HW120579   5.680   4.942   0.385
 6560SOL    HW220580   5.757   4.966   0.526
 6561SOL     OW20581   3.666   4.284   0.637
 6561SOL    HW120582   3.749   4.327   0.674
 6561SOL    HW220583   3.689   4.194   0.599
 6562SOL     OW20584   5.841   3.208   1.153
 6562SOL    HW120585   5.798   3.220   1.064
 6562SOL    HW220586   5.857   3.110   1.168
 6563SOL     OW20587   5.113   6.167   5.326
 6563SOL    HW120588   5.134   6.087   5.383
 6563SOL    HW220589   5.082   6.241   5.385
 6564SOL     OW20590   6.795   4.048   3.206
 6564SOL    HW120591   6.759   4.125   3.259
 6564SOL    HW220592   6.885   4.071   3.169
 6565SOL     OW20593   5.753   0.394   3.569
 6565SOL    HW120594   5.814   0.355   3.500
 6565SOL    HW220595   5.801   0.401   3.656
 6566SOL     OW20596   4.349   6.042   2.696
 6566SOL    HW120597   4.403   6.097   2.633
 6566SOL    HW220598   4.389   6.049   2.788
 6567SOL     OW20599   4.328   0.732   0.849
 6567SOL    HW120600   4.426   0.746   0.862
 6567SOL    HW220601   4.297   0.787   0.772
 6568SOL     OW20602   4.239   1.219   1.068
 6568SOL    HW120603   4.261   1.257   1.158
 6568SOL    HW220604   4.175   1.280   1.021
 6569SOL     OW20605   0.201   4.349   5.548
 6569SOL    HW120606   0.186   4.281   5.476
 6569SOL    HW220607   0.238   4.304   5.629
 6570SOL     OW20608   4.191   6.575   1.875
 6570SOL    HW120609   4.160   6.567   1.780
 6570SOL    HW220610   4.200   6.484   1.915
 6571SOL     OW20611   2.916   6.139   2.721
 6571SOL    HW120612   2.839   6.202   2.733
 6571SOL    HW220613   2.884   6.054   2.679
 6572SOL     OW20614   1.352   5.554   3.601
 6572SOL    HW120615   1.360   5.592   3.694
 6572SOL    HW220616   1.391   5.618   3.536
 6573SOL     OW20617   1.510   1.574   3.531
 6573SOL    HW120618   1.432   1.635   3.545
 6573SOL    HW220619   1.575   1.585   3.606
 6574SOL     OW20620   1.676   6.109   1.880
 6574SOL    HW120621   1.760   6.149   1.917
 6574SOL    HW220622   1.635   6.049   1.948
 6575SOL     OW20623   6.936   0.491   2.628
 6575SOL    HW120624   7.007   0.438   2.675
 6575SOL    HW220625   6.870   0.525   2.695
 6576SOL     OW20626   4.489   6.319   1.023
 6576SOL    HW120627   4.555   6.286   1.091
 6576SOL    HW220628   4.480   6.418   1.030
 6577SOL     OW20629   2.374   1.491   3.673
 6577SOL    HW120630   2.290   1.529   3.710
 6577SOL    HW220631   2.416   1.431   3.741
 6578SOL     OW20632   1.478   4.731   1.663
 6578SOL    HW120633   1.399   4.691   1.710
 6578SOL    HW220634   1.512   4.809   1.716
 6579SOL     OW20635   6.661   0.918   4.219
 6579SOL    HW120636   6.708   0.894   4.304
 6579SOL    HW220637   6.691   1.009   4.189
 6580SOL     OW20638   1.209   0.392   6.924
 6580SOL    HW120639   1.178   0.486   6.917
 6580SOL    HW220640   1.260   0.367   6.842
 6581SOL     OW20641   1.798   2.078   6.998
 6581SOL    HW120642   1.738   2.017   6.946
 6581SOL    HW220643   1.843   2.142   6.935
 6582SOL     OW20644   6.959   1.523   3.340
 6582SOL    HW120645   6.996   1.570   3.260
 6582SOL    HW220646   6.900   1.448   3.310
 6583SOL     OW20647   4.307   6.274   6.454
 6583SOL    HW120648   4.302   6.321   6.542
 6583SOL    HW220649   4.222   6.289   6.403
 6584SOL     OW20650   3.705   2.677   1.086
 6584SOL    HW120651   3.657   2.608   1.141
 6584SOL    HW220652   3.691   2.657   0.989
 6585SOL     OW20653   5.989   6.797   1.111
 6585SOL    HW120654   6.003   6.869   1.043
 6585SOL    HW220655   5.915   6.823   1.173
 6586SOL     OW20656   6.288   2.542   6.552
 6586SOL    HW120657   6.336   2.489   6.481
 6586SOL    HW220658   6.193   2.511   6.558
 6587SOL     OW20659   1.498   4.471   5.777
 6587SOL    HW120660   1.449   4.558   5.782
 6587SOL    HW220661   1.447   4.402   5.828
 6588SOL     OW20662   6.913   3.482   0.602
 6588SOL    HW120663   6.824   3.464   0.561
 6588SOL    HW220664   6.908   3.563   0.660
 6589SOL     OW20665   0.091   0.964   1.862
 6589SOL    HW120666   0.169   1.024   1.847
 6589SOL    HW220667   0.098   0.884   1.803
 6590SOL     OW20668   1.235   0.122   3.739
 6590SOL    HW120669   1.224   0.075   3.827
 6590SOL    HW220670   1.146   0.139   3.698
 6591SOL     OW20671   5.586   4.375   4.313
 6591SOL    HW120672   5.514   4.311   4.289
 6591SOL    HW220673   5.561   4.467   4.283
 6592SOL     OW20674   5.676   6.365   2.610
 6592SOL    HW120675   5.723   6.452   2.594
 6592SOL    HW220676   5.578   6.377   2.595
 6593SOL     OW20677   2.779   1.982   2.380
 6593SOL    HW120678   2.796   2.032   2.294
 6593SOL    HW220679   2.683   1.956   2.384
 6594SOL     OW20680   4.446   1.570   6.353
 6594SOL    HW120681   4.348   1.587   6.364
 6594SOL    HW220682   4.483   1.631   6.283
 6595SOL     OW20683   1.391   2.638   5.268
 6595SOL    HW120684   1.311   2.632   5.209
 6595SOL    HW220685   1.373   2.702   5.342
 6596SOL     OW20686   5.664   6.148   2.444
 6596SOL    HW120687   5.617   6.069   2.482
 6596SOL    HW220688   5.670   6.220   2.514
 6597SOL     OW20689   1.543   4.945   1.810
 6597SOL    HW120690   1.641   4.931   1.828
 6597SOL    HW220691   1.500   4.986   1.890
 6598SOL     OW20692   1.997   4.510   4.722
 6598SOL    HW120693   2.072   4.551   4.670
 6598SOL    HW220694   1.975   4.420   4.684
 6599SOL     OW20695   6.357   5.595   6.408
 6599SOL    HW120696   6.298   5.633   6.479
 6599SOL    HW220697   6.419   5.667   6.375
 6600SOL     OW20698   4.813   6.865   4.812
 6600SOL    HW120699   4.866   6.781   4.823
 6600SOL    HW220700   4.784   6.898   4.902
 6601SOL     OW20701   1.589   2.059   1.593
 6601SOL    HW120702   1.567   2.102   1.506
 6601SOL    HW220703   1.516   1.996   1.619
 6602SOL     OW20704   2.399   6.333   1.605
 6602SOL    HW120705   2.489   6.301   1.576
 6602SOL    HW220706   2.328   6.280   1.557
 6603SOL     OW20707   0.126   2.978   3.268
 6603SOL    HW120708   0.149   3.043   3.342
 6603SOL    HW220709   0.029   2.987   3.245
 6604SOL     OW20710   1.948   6.062   2.508
 6604SOL    HW120711   1.947   6.029   2.413
 6604SOL    HW220712   2.041   6.092   2.531
 6605SOL     OW20713   0.030   5.373   1.444
 6605SOL    HW120714   6.985   5.364   1.368
 6605SOL    HW220715   0.089   5.453   1.429
 6606SOL     OW20716   1.552   3.798   3.473
 6606SOL    HW120717   1.484   3.752   3.530
 6606SOL    HW220718   1.638   3.748   3.476
 6607SOL     OW20719   5.965   4.118   3.527
 6607SOL    HW120720   5.977   4.218   3.525
 6607SOL    HW220721   6.023   4.080   3.599
 6608SOL     OW20722   0.560   5.970   5.448
 6608SOL    HW120723   0.535   6.059   5.485
 6608SOL    HW220724   0.604   5.915   5.519
 6609SOL     OW20725   4.271   1.902   6.251
 6609SOL    HW120726   4.273   1.819   6.195
 6609SOL    HW220727   4.176   1.922   6.277
 6610SOL     OW20728   2.958   5.546   1.184
 6610SOL    HW120729   2.878   5.566   1.241
 6610SOL    HW220730   3.019   5.483   1.233
 6611SOL     OW20731   4.741   1.715   4.275
 6611SOL    HW120732   4.650   1.696   4.239
 6611SOL    HW220733   4.787   1.629   4.296
 6612SOL     OW20734   6.094   1.716   5.873
 6612SOL    HW120735   6.155   1.687   5.799
 6612SOL    HW220736   6.070   1.638   5.930
 6613SOL     OW20737   4.830   6.768   0.014
 6613SOL    HW120738   4.911   6.738   6.983
 6613SOL    HW220739   4.784   6.841   6.982
 6614SOL     OW20740   4.437   5.755   1.331
 6614SOL    HW120741   4.443   5.852   1.307
 6614SOL    HW220742   4.412   5.703   1.250
 6615SOL     OW20743   3.153   4.763   6.916
 6615SOL    HW120744   3.106   4.675   6.910
 6615SOL    HW220745   3.252   4.747   6.912
 6616SOL     OW20746   4.144   1.151   5.543
 6616SOL    HW120747   4.048   1.135   5.520
 6616SOL    HW220748   4.156   1.246   5.571
 6617SOL     OW20749   3.580   0.528   4.118
 6617SOL    HW120750   3.625   0.616   4.110
 6617SOL    HW220751   3.644   0.461   4.157
 6618SOL     OW20752   6.539   2.368   2.441
 6618SOL    HW120753   6.589   2.406   2.363
 6618SOL    HW220754   6.448   2.409   2.447
 6619SOL     OW20755   5.003   6.485   3.764
 6619SOL    HW120756   5.055   6.531   3.692
 6619SOL    HW220757   4.918   6.535   3.780
 6620SOL     OW20758   0.652   3.268   3.623
 6620SOL    HW120759   0.727   3.334   3.623
 6620SOL    HW220760   0.613   3.260   3.531
 6621SOL     OW20761   3.516   3.088   4.833
 6621SOL    HW120762   3.469   3.103   4.746
 6621SOL    HW220763   3.602   3.139   4.834
 6622SOL     OW20764   0.645   5.365   0.619
 6622SOL    HW120765   0.633   5.464   0.618
 6622SOL    HW220766   0.561   5.322   0.652
 6623SOL     OW20767   3.414   4.232   5.953
 6623SOL    HW120768   3.357   4.190   5.882
 6623SOL    HW220769   3.460   4.312   5.916
 6624SOL     OW20770   1.404   2.347   3.981
 6624SOL    HW120771   1.372   2.294   3.902
 6624SOL    HW220772   1.462   2.422   3.948
 6625SOL     OW20773   5.829   3.007   5.734
 6625SOL    HW120774   5.740   3.018   5.690
 6625SOL    HW220775   5.901   3.042   5.673
 6626SOL     OW20776   2.369   6.399   4.863
 6626SOL    HW120777   2.454   6.439   4.897
 6626SOL    HW220778   2.390   6.326   4.798
 6627SOL     OW20779   1.748   6.054   4.424
 6627SOL    HW120780   1.750   5.958   4.453
 6627SOL    HW220781   1.780   6.061   4.330
 6628SOL     OW20782   4.242   6.187   4.050
 6628SOL    HW120783   4.235   6.147   3.959
 6628SOL    HW220784   4.225   6.285   4.045
 6629SOL     OW20785   5.275   5.950   6.831
 6629SOL    HW120786   5.307   5.894   6.754
 6629SOL    HW220787   5.204   6.012   6.798
 6630SOL     OW20788   2.359   1.600   1.310
 6630SOL    HW120789   2.403   1.516   1.343
 6630SOL    HW220790   2.261   1.583   1.297
 6631SOL     OW20791   2.327   4.656   6.572
 6631SOL    HW120792   2.256   4.722   6.546
 6631SOL    HW220793   2.365   4.614   6.489
 6632SOL     OW20794   1.532   0.819   0.770
 6632SOL    HW120795   1.567   0.899   0.817
 6632SOL    HW220796   1.563   0.819   0.675
 6633SOL     OW20797   3.535   5.352   6.444
 6633SOL    HW120798   3.603   5.407   6.396
 6633SOL    HW220799   3.559   5.346   6.541
 6634SOL     OW20800   4.162   2.276   4.473
 6634SOL    HW120801   4.255   2.286   4.508
 6634SOL    HW220802   4.097   2.275   4.549
 6635SOL     OW20803   5.224   5.113   2.685
 6635SOL    HW120804   5.194   5.078   2.596
 6635SOL    HW220805   5.217   5.039   2.753
 6636SOL     OW20806   3.729   0.211   0.800
 6636SOL    HW120807   3.695   0.120   0.778
 6636SOL    HW220808   3.713   0.230   0.897
 6637SOL     OW20809   1.400   1.117   0.862
 6637SOL    HW120810   1.412   1.123   0.763
 6637SOL    HW220811   1.306   1.142   0.886
 6638SOL     OW20812   2.899   3.532   3.668
 6638SOL    HW120813   2.870   3.479   3.588
 6638SOL    HW220814   2.882   3.629   3.651
 6639SOL     OW20815   5.086   3.024   1.339
 6639SOL    HW120816   5.020   3.013   1.413
 6639SOL    HW220817   5.062   3.103   1.283
 6640SOL     OW20818   0.809   3.081   4.820
 6640SOL    HW120819   0.711   3.097   4.809
 6640SOL    HW220820   0.826   2.983   4.828
 6641SOL     OW20821   4.110   1.984   0.999
 6641SOL    HW120822   4.134   2.076   1.032
 6641SOL    HW220823   4.146   1.972   0.907
 6642SOL     OW20824   1.158   5.830   0.723
 6642SOL    HW120825   1.179   5.760   0.655
 6642SOL    HW220826   1.113   5.788   0.802
 6643SOL     OW20827   4.574   6.594   0.017
 6643SOL    HW120828   4.532   6.655   6.968
 6643SOL    HW220829   4.655   6.637   0.055
 6644SOL     OW20830   1.742   6.276   3.218
 6644SOL    HW120831   1.784   6.282   3.128
 6644SOL    HW220832   1.650   6.237   3.210
 6645SOL     OW20833   6.294   3.016   0.517
 6645SOL    HW120834   6.244   2.980   0.595
 6645SOL    HW220835   6.232   3.028   0.439
 6646SOL     OW20836   4.582   0.270   6.471
 6646SOL    HW120837   4.499   0.325   6.457
 6646SOL    HW220838   4.557   0.176   6.494
 6647SOL     OW20839   4.764   5.091   1.120
 6647SOL    HW120840   4.779   5.003   1.076
 6647SOL    HW220841   4.682   5.134   1.081
 6648SOL     OW20842   2.523   6.388   5.602
 6648SOL    HW120843   2.434   6.366   5.563
 6648SOL    HW220844   2.580   6.306   5.603
 6649SOL     OW20845   6.027   2.910   0.001
 6649SOL    HW120846   6.078   2.864   6.948
 6649SOL    HW220847   5.930   2.894   7.008
 6650SOL     OW20848   2.524   1.387   5.250
 6650SOL    HW120849   2.511   1.475   5.205
 6650SOL    HW220850   2.597   1.395   5.318
 6651SOL     OW20851   0.006   2.194   6.573
 6651SOL    HW120852   0.066   2.270   6.547
 6651SOL    HW220853   6.958   2.226   6.640
 6652SOL     OW20854   0.762   4.387   0.385
 6652SOL    HW120855   0.782   4.293   0.414
 6652SOL    HW220856   0.704   4.432   0.453
 6653SOL     OW20857   5.246   3.646   0.732
 6653SOL    HW120858   5.210   3.734   0.703
 6653SOL    HW220859   5.173   3.577   0.728
 6654SOL     OW20860   0.431   4.565   3.307
 6654SOL    HW120861   0.495   4.546   3.232
 6654SOL    HW220862   0.481   4.608   3.382
 6655SOL     OW20863   6.608   5.504   1.635
 6655SOL    HW120864   6.538   5.522   1.703
 6655SOL    HW220865   6.660   5.423   1.661
 6656SOL     OW20866   4.062   1.516   2.923
 6656SOL    HW120867   3.971   1.556   2.934
 6656SOL    HW220868   4.068   1.470   2.835
 6657SOL     OW20869   5.477   1.894   3.939
 6657SOL    HW120870   5.503   1.944   4.022
 6657SOL    HW220871   5.384   1.921   3.912
 6658SOL     OW20872   5.977   6.256   4.877
 6658SOL    HW120873   6.047   6.258   4.948
 6658SOL    HW220874   5.912   6.183   4.895
 6659SOL     OW20875   1.289   5.334   2.126
 6659SOL    HW120876   1.224   5.403   2.096
 6659SOL    HW220877   1.274   5.249   2.076
 6660SOL     OW20878   0.219   6.168   3.387
 6660SOL    HW120879   0.144   6.103   3.381
 6660SOL    HW220880   0.248   6.195   3.295
 6661SOL     OW20881   3.729   6.961   4.363
 6661SOL    HW120882   3.638   6.950   4.403
 6661SOL    HW220883   3.791   6.893   4.401
 6662SOL     OW20884   3.141   6.684   2.079
 6662SOL    HW120885   3.064   6.747   2.083
 6662SOL    HW220886   3.167   6.656   2.171
 6663SOL     OW20887   1.207   4.163   6.023
 6663SOL    HW120888   1.189   4.260   6.004
 6663SOL    HW220889   1.121   4.113   6.029
 6664SOL     OW20890   2.831   0.727   1.338
 6664SOL    HW120891   2.784   0.641   1.358
 6664SOL    HW220892   2.865   0.767   1.423
 6665SOL     OW20893   2.259   0.555   5.598
 6665SOL    HW120894   2.314   0.630   5.635
 6665SOL    HW220895   2.245   0.487   5.670
 6666SOL     OW20896   4.918   6.580   5.148
 6666SOL    HW120897   4.857   6.656   5.125
 6666SOL    HW220898   4.893   6.543   5.237
 6667SOL     OW20899   0.451   6.126   6.459
 6667SOL    HW120900   0.531   6.074   6.430
 6667SOL    HW220901   0.370   6.068   6.455
 6668SOL     OW20902   0.192   5.865   0.667
 6668SOL    HW120903   0.246   5.889   0.748
 6668SOL    HW220904   0.207   5.934   0.596
 6669SOL     OW20905   1.463   1.191   3.129
 6669SOL    HW120906   1.458   1.274   3.074
 6669SOL    HW220907   1.382   1.134   3.110
 6670SOL     OW20908   4.087   2.576   0.793
 6670SOL    HW120909   4.070   2.651   0.729
 6670SOL    HW220910   4.018   2.505   0.780
 6671SOL     OW20911   5.068   5.722   0.287
 6671SOL    HW120912   5.095   5.812   0.254
 6671SOL    HW220913   5.131   5.653   0.250
 6672SOL     OW20914   1.640   2.102   1.054
 6672SOL    HW120915   1.707   2.124   1.126
 6672SOL    HW220916   1.557   2.154   1.069
 6673SOL     OW20917   5.601   4.060   4.179
 6673SOL    HW120918   5.549   4.145   4.169
 6673SOL    HW220919   5.681   4.077   4.236
 6674SOL     OW20920   0.014   2.991   0.154
 6674SOL    HW120921   0.098   2.973   0.104
 6674SOL    HW220922   6.956   2.992   0.090
 6675SOL     OW20923   5.016   2.473   6.886
 6675SOL    HW120924   4.948   2.408   6.852
 6675SOL    HW220925   5.041   2.536   6.813
 6676SOL     OW20926   1.248   3.737   3.798
 6676SOL    HW120927   1.322   3.706   3.739
 6676SOL    HW220928   1.277   3.820   3.847
 6677SOL     OW20929   0.406   2.160   0.417
 6677SOL    HW120930   0.324   2.217   0.412
 6677SOL    HW220931   0.405   2.094   0.342
 6678SOL     OW20932   1.777   4.697   0.395
 6678SOL    HW120933   1.740   4.758   0.325
 6678SOL    HW220934   1.864   4.659   0.364
 6679SOL     OW20935   2.129   1.377   3.965
 6679SOL    HW120936   2.032   1.373   3.941
 6679SOL    HW220937   2.146   1.452   4.028
 6680SOL     OW20938   5.875   6.400   0.868
 6680SOL    HW120939   5.932   6.346   0.805
 6680SOL    HW220940   5.916   6.490   0.882
 6681SOL     OW20941   3.759   5.812   1.500
 6681SOL    HW120942   3.812   5.791   1.418
 6681SOL    HW220943   3.820   5.848   1.571
 6682SOL     OW20944   3.305   5.169   6.793
 6682SOL    HW120945   3.291   5.235   6.719
 6682SOL    HW220946   3.248   5.088   6.776
 6683SOL     OW20947   6.333   3.593   6.430
 6683SOL    HW120948   6.261   3.525   6.449
 6683SOL    HW220949   6.324   3.624   6.335
 6684SOL     OW20950   2.972   6.603   1.441
 6684SOL    HW120951   2.982   6.647   1.530
 6684SOL    HW220952   3.037   6.642   1.376
 6685SOL     OW20953   4.594   3.485   6.721
 6685SOL    HW120954   4.689   3.466   6.697
 6685SOL    HW220955   4.538   3.404   6.701
 6686SOL     OW20956   5.224   5.566   3.623
 6686SOL    HW120957   5.134   5.594   3.589
 6686SOL    HW220958   5.276   5.646   3.650
 6687SOL     OW20959   6.650   2.127   1.369
 6687SOL    HW120960   6.707   2.070   1.428
 6687SOL    HW220961   6.584   2.178   1.425
 6688SOL     OW20962   3.890   5.678   0.474
 6688SOL    HW120963   3.846   5.720   0.395
 6688SOL    HW220964   3.931   5.749   0.532
 6689SOL     OW20965   2.587   4.749   6.121
 6689SOL    HW120966   2.511   4.685   6.112
 6689SOL    HW220967   2.591   4.808   6.040
 6690SOL     OW20968   1.190   6.927   5.971
 6690SOL    HW120969   1.091   6.936   5.965
 6690SOL    HW220970   1.219   6.845   5.920
 6691SOL     OW20971   2.552   2.461   2.974
 6691SOL    HW120972   2.598   2.436   2.889
 6691SOL    HW220973   2.498   2.544   2.959
 6692SOL     OW20974   4.948   5.019   1.450
 6692SOL    HW120975   5.021   5.011   1.517
 6692SOL    HW220976   4.974   4.971   1.366
 6693SOL     OW20977   4.064   1.824   4.540
 6693SOL    HW120978   4.155   1.808   4.501
 6693SOL    HW220979   4.024   1.737   4.568
 6694SOL     OW20980   3.861   5.088   0.679
 6694SOL    HW120981   3.823   5.009   0.630
 6694SOL    HW220982   3.909   5.056   0.761
 6695SOL     OW20983   2.899   2.277   6.422
 6695SOL    HW120984   2.980   2.246   6.372
 6695SOL    HW220985   2.927   2.325   6.505
 6696SOL     OW20986   4.144   3.640   4.104
 6696SOL    HW120987   4.123   3.652   4.007
 6696SOL    HW220988   4.108   3.718   4.156
 6697SOL     OW20989   4.746   2.514   2.500
 6697SOL    HW120990   4.649   2.532   2.512
 6697SOL    HW220991   4.796   2.601   2.497
 6698SOL     OW20992   3.585   4.029   1.727
 6698SOL    HW120993   3.632   3.950   1.766
 6698SOL    HW220994   3.587   4.105   1.792
 6699SOL     OW20995   1.410   4.409   5.447
 6699SOL    HW120996   1.423   4.508   5.450
 6699SOL    HW220997   1.417   4.377   5.352
 6700SOL     OW20998   5.722   0.327   0.174
 6700SOL    HW120999   5.712   0.251   0.238
 6700SOL    HW221000   5.747   0.292   0.084
 6701SOL     OW21001   6.150   6.998   1.308
 6701SOL    HW121002   6.132   6.928   1.377
 6701SOL    HW221003   6.066   0.031   1.291
 6702SOL     OW21004   3.352   2.437   0.920
 6702SOL    HW121005   3.375   2.534   0.920
 6702SOL    HW221006   3.320   2.410   1.011
 6703SOL     OW21007   1.096   1.452   6.636
 6703SOL    HW121008   1.186   1.489   6.661
 6703SOL    HW221009   1.033   1.527   6.618
 6704SOL     OW21010   3.425   1.286   5.238
 6704SOL    HW121011   3.496   1.224   5.271
 6704SOL    HW221012   3.337   1.260   5.278
 6705SOL     OW21013   6.523   3.658   1.972
 6705SOL    HW121014   6.451   3.676   1.905
 6705SOL    HW221015   6.543   3.743   2.022
 6706SOL     OW21016   0.180   6.619   1.784
 6706SOL    HW121017   0.157   6.700   1.838
 6706SOL    HW221018   0.144   6.538   1.829
 6707SOL     OW21019   5.771   0.505   2.236
 6707SOL    HW121020   5.716   0.567   2.292
 6707SOL    HW221021   5.803   0.553   2.154
 6708SOL     OW21022   0.311   3.884   1.694
 6708SOL    HW121023   0.388   3.914   1.637
 6708SOL    HW221024   0.236   3.855   1.635
 6709SOL     OW21025   1.563   4.859   2.458
 6709SOL    HW121026   1.634   4.790   2.469
 6709SOL    HW221027   1.542   4.869   2.360
 6710SOL     OW21028   4.647   1.450   1.569
 6710SOL    HW121029   4.676   1.422   1.661
 6710SOL    HW221030   4.714   1.419   1.502
 6711SOL     OW21031   4.180   6.271   6.020
 6711SOL    HW121032   4.182   6.176   5.988
 6711SOL    HW221033   4.270   6.313   6.004
 6712SOL     OW21034   6.064   3.622   1.094
 6712SOL    HW121035   6.148   3.570   1.110
 6712SOL    HW221036   6.015   3.584   1.016
 6713SOL     OW21037   1.360   6.744   4.558
 6713SOL    HW121038   1.324   6.726   4.649
 6713SOL    HW221039   1.411   6.830   4.560
 6714SOL     OW21040   5.817   0.764   0.184
 6714SOL    HW121041   5.823   0.687   0.121
 6714SOL    HW221042   5.885   0.754   0.257
 6715SOL     OW21043   1.327   0.221   0.164
 6715SOL    HW121044   1.390   0.189   0.236
 6715SOL    HW221045   1.371   0.295   0.113
 6716SOL     OW21046   6.538   4.948   2.491
 6716SOL    HW121047   6.576   4.911   2.406
 6716SOL    HW221048   6.611   4.986   2.547
 6717SOL     OW21049   3.792   2.961   6.429
 6717SOL    HW121050   3.845   3.017   6.492
 6717SOL    HW221051   3.698   2.995   6.425
 6718SOL     OW21052   3.068   0.124   2.080
 6718SOL    HW121053   3.011   0.204   2.059
 6718SOL    HW221054   3.141   0.116   2.012
 6719SOL     OW21055   2.339   0.903   0.090
 6719SOL    HW121056   2.280   0.836   0.135
 6719SOL    HW221057   2.358   0.978   0.154
 6720SOL     OW21058   2.181   0.479   6.007
 6720SOL    HW121059   2.185   0.448   5.911
 6720SOL    HW221060   2.086   0.485   6.036
 6721SOL     OW21061   0.464   1.579   0.953
 6721SOL    HW121062   0.417   1.667   0.942
 6721SOL    HW221063   0.403   1.505   0.924
 6722SOL     OW21064   6.393   3.269   0.631
 6722SOL    HW121065   6.379   3.170   0.625
 6722SOL    HW221066   6.360   3.302   0.719
 6723SOL     OW21067   1.901   1.959   6.682
 6723SOL    HW121068   1.940   1.898   6.751
 6723SOL    HW221069   1.881   2.047   6.723
 6724SOL     OW21070   2.062   3.790   5.816
 6724SOL    HW121071   1.968   3.822   5.807
 6724SOL    HW221072   2.069   3.695   5.784
 6725SOL     OW21073   5.774   2.936   3.457
 6725SOL    HW121074   5.797   2.991   3.537
 6725SOL    HW221075   5.677   2.911   3.460
 6726SOL     OW21076   6.900   1.222   5.328
 6726SOL    HW121077   6.833   1.188   5.262
 6726SOL    HW221078   6.990   1.184   5.308
 6727SOL     OW21079   0.897   4.553   6.111
 6727SOL    HW121080   0.904   4.561   6.210
 6727SOL    HW221081   0.973   4.497   6.076
 6728SOL     OW21082   3.794   1.845   3.855
 6728SOL    HW121083   3.727   1.857   3.781
 6728SOL    HW221084   3.861   1.919   3.851
 6729SOL     OW21085   4.986   1.543   1.247
 6729SOL    HW121086   4.958   1.499   1.161
 6729SOL    HW221087   5.021   1.635   1.227
 6730SOL     OW21088   1.033   0.807   1.546
 6730SOL    HW121089   0.985   0.854   1.620
 6730SOL    HW221090   1.005   0.846   1.458
 6731SOL     OW21091   3.656   6.718   0.124
 6731SOL    HW121092   3.725   6.791   0.121
 6731SOL    HW221093   3.697   6.632   0.094
 6732SOL     OW21094   5.904   5.327   4.446
 6732SOL    HW121095   5.986   5.287   4.406
 6732SOL    HW221096   5.844   5.254   4.478
 6733SOL     OW21097   3.948   5.179   6.588
 6733SOL    HW121098   4.011   5.152   6.515
 6733SOL    HW221099   3.988   5.255   6.639
 6734SOL     OW21100   5.239   1.192   4.989
 6734SOL    HW121101   5.258   1.154   4.898
 6734SOL    HW221102   5.280   1.134   5.059
 6735SOL     OW21103   6.228   2.913   3.483
 6735SOL    HW121104   6.179   2.917   3.396
 6735SOL    HW221105   6.168   2.878   3.554
 6736SOL     OW21106   3.131   4.182   0.972
 6736SOL    HW121107   3.116   4.146   1.064
 6736SOL    HW221108   3.124   4.108   0.906
 6737SOL     OW21109   0.964   3.025   1.013
 6737SOL    HW121110   0.901   3.055   1.085
 6737SOL    HW221111   1.023   2.952   1.048
 6738SOL     OW21112   2.370   5.491   3.136
 6738SOL    HW121113   2.440   5.541   3.084
 6738SOL    HW221114   2.285   5.489   3.083
 6739SOL     OW21115   6.775   0.241   4.309
 6739SOL    HW121116   6.725   0.237   4.395
 6739SOL    HW221117   6.754   0.160   4.254
 6740SOL     OW21118   6.564   6.660   4.262
 6740SOL    HW121119   6.619   6.659   4.178
 6740SOL    HW221120   6.502   6.739   4.260
 6741SOL     OW21121   4.494   2.251   5.690
 6741SOL    HW121122   4.469   2.210   5.602
 6741SOL    HW221123   4.593   2.248   5.702
 6742SOL     OW21124   5.359   4.742   3.527
 6742SOL    HW121125   5.330   4.732   3.622
 6742SOL    HW221126   5.324   4.666   3.473
 6743SOL     OW21127   4.029   4.179   0.589
 6743SOL    HW121128   4.001   4.271   0.563
 6743SOL    HW221129   3.967   4.143   0.659
 6744SOL     OW21130   6.841   5.499   5.860
 6744SOL    HW121131   6.785   5.420   5.890
 6744SOL    HW221132   6.785   5.582   5.863
 6745SOL     OW21133   0.015   6.820   4.219
 6745SOL    HW121134   6.996   6.882   4.289
 6745SOL    HW221135   7.000   6.727   4.235
 6746SOL     OW21136   1.678   1.116   2.960
 6746SOL    HW121137   1.634   1.081   2.877
 6746SOL    HW221138   1.608   1.136   3.028
 6747SOL     OW21139   1.184   6.518   6.725
 6747SOL    HW121140   1.284   6.518   6.734
 6747SOL    HW221141   1.160   6.532   6.629
 6748SOL     OW21142   2.143   1.960   4.245
 6748SOL    HW121143   2.045   1.942   4.236
 6748SOL    HW221144   2.160   2.058   4.234
 6749SOL     OW21145   3.480   4.619   0.804
 6749SOL    HW121146   3.573   4.655   0.805
 6749SOL    HW221147   3.416   4.690   0.833
 6750SOL     OW21148   2.985   2.183   4.711
 6750SOL    HW121149   2.987   2.211   4.615
 6750SOL    HW221150   3.078   2.170   4.744
 6751SOL     OW21151   4.100   6.899   3.513
 6751SOL    HW121152   4.056   6.825   3.565
 6751SOL    HW221153   4.199   6.895   3.528
 6752SOL     OW21154   1.676   5.985   2.862
 6752SOL    HW121155   1.623   6.056   2.815
 6752SOL    HW221156   1.727   5.932   2.794
 6753SOL     OW21157   3.752   2.763   5.227
 6753SOL    HW121158   3.763   2.811   5.140
 6753SOL    HW221159   3.732   2.666   5.209
 6754SOL     OW21160   6.244   1.489   1.109
 6754SOL    HW121161   6.297   1.444   1.181
 6754SOL    HW221162   6.172   1.545   1.151
 6755SOL     OW21163   2.746   4.801   0.243
 6755SOL    HW121164   2.803   4.881   0.260
 6755SOL    HW221165   2.683   4.820   0.167
 6756SOL     OW21166   2.169   2.057   5.498
 6756SOL    HW121167   2.245   2.106   5.455
 6756SOL    HW221168   2.185   1.958   5.491
 6757SOL     OW21169   3.631   0.649   0.497
 6757SOL    HW121170   3.544   0.638   0.449
 6757SOL    HW221171   3.622   0.612   0.590
 6758SOL     OW21172   5.959   2.822   1.336
 6758SOL    HW121173   5.930   2.765   1.260
 6758SOL    HW221174   5.890   2.819   1.409
 6759SOL     OW21175   0.348   3.408   3.259
 6759SOL    HW121176   0.341   3.437   3.355
 6759SOL    HW221177   0.402   3.475   3.208
 6760SOL     OW21178   5.159   3.014   3.019
 6760SOL    HW121179   5.139   3.035   2.924
 6760SOL    HW221180   5.163   3.098   3.072
 6761SOL     OW21181   4.690   2.168   4.435
 6761SOL    HW121182   4.715   2.216   4.519
 6761SOL    HW221183   4.596   2.133   4.443
 6762SOL     OW21184   6.553   5.505   3.538
 6762SOL    HW121185   6.558   5.410   3.508
 6762SOL    HW221186   6.460   5.526   3.569
 6763SOL     OW21187   4.710   4.968   4.879
 6763SOL    HW121188   4.747   5.043   4.935
 6763SOL    HW221189   4.723   4.989   4.782
 6764SOL     OW21190   1.439   5.891   1.668
 6764SOL    HW121191   1.536   5.872   1.684
 6764SOL    HW221192   1.405   5.831   1.596
 6765SOL     OW21193   6.272   4.694   3.446
 6765SOL    HW121194   6.355   4.699   3.391
 6765SOL    HW221195   6.296   4.674   3.541
 6766SOL     OW21196   5.164   6.268   0.981
 6766SOL    HW121197   5.181   6.266   0.882
 6766SOL    HW221198   5.069   6.294   0.997
 6767SOL     OW21199   2.850   0.816   0.447
 6767SOL    HW121200   2.767   0.862   0.417
 6767SOL    HW221201   2.851   0.808   0.546
 6768SOL     OW21202   2.138   0.936   0.547
 6768SOL    HW121203   2.130   1.024   0.500
 6768SOL    HW221204   2.111   0.862   0.486
 6769SOL     OW21205   3.885   2.349   1.200
 6769SOL    HW121206   3.794   2.353   1.159
 6769SOL    HW221207   3.909   2.438   1.237
 6770SOL     OW21208   6.852   0.800   1.763
 6770SOL    HW121209   6.949   0.794   1.789
 6770SOL    HW221210   6.795   0.784   1.844
 6771SOL     OW21211   4.279   2.072   2.715
 6771SOL    HW121212   4.226   2.144   2.759
 6771SOL    HW221213   4.226   1.988   2.710
 6772SOL     OW21214   3.091   1.619   2.502
 6772SOL    HW121215   3.056   1.697   2.450
 6772SOL    HW221216   3.114   1.545   2.439
 6773SOL     OW21217   6.816   3.608   1.740
 6773SOL    HW121218   6.821   3.705   1.765
 6773SOL    HW221219   6.903   3.580   1.699
 6774SOL     OW21220   0.570   2.806   6.531
 6774SOL    HW121221   0.525   2.802   6.620
 6774SOL    HW221222   0.653   2.749   6.533
 6775SOL     OW21223   2.999   3.994   1.174
 6775SOL    HW121224   2.946   3.942   1.107
 6775SOL    HW221225   3.076   3.940   1.205
 6776SOL     OW21226   5.157   4.728   0.191
 6776SOL    HW121227   5.164   4.670   0.271
 6776SOL    HW221228   5.160   4.672   0.108
 6777SOL     OW21229   4.519   4.927   6.008
 6777SOL    HW121230   4.516   4.916   6.107
 6777SOL    HW221231   4.580   5.003   5.985
 6778SOL     OW21232   0.624   4.241   2.623
 6778SOL    HW121233   0.643   4.220   2.527
 6778SOL    HW221234   0.527   4.262   2.634
 6779SOL     OW21235   6.713   4.285   0.346
 6779SOL    HW121236   6.769   4.333   0.414
 6779SOL    HW221237   6.625   4.333   0.337
 6780SOL     OW21238   0.474   2.284   3.043
 6780SOL    HW121239   0.419   2.364   3.069
 6780SOL    HW221240   0.415   2.215   3.002
 6781SOL     OW21241   5.496   6.508   5.879
 6781SOL    HW121242   5.409   6.493   5.832
 6781SOL    HW221243   5.571   6.492   5.816
 6782SOL     OW21244   0.480   1.269   2.339
 6782SOL    HW121245   0.500   1.172   2.325
 6782SOL    HW221246   0.566   1.320   2.345
 6783SOL     OW21247   0.147   6.328   5.809
 6783SOL    HW121248   0.092   6.270   5.869
 6783SOL    HW221249   0.189   6.271   5.738
 6784SOL     OW21250   3.838   4.085   6.973
 6784SOL    HW121251   3.904   4.102   0.027
 6784SOL    HW221252   3.873   4.123   6.887
 6785SOL     OW21253   6.036   5.395   1.687
 6785SOL    HW121254   6.034   5.477   1.630
 6785SOL    HW221255   6.029   5.422   1.783
 6786SOL     OW21256   1.912   2.230   6.810
 6786SOL    HW121257   1.875   2.284   6.735
 6786SOL    HW221258   1.962   2.290   6.872
 6787SOL     OW21259   1.900   3.798   0.983
 6787SOL    HW121260   1.999   3.811   0.978
 6787SOL    HW221261   1.861   3.791   0.891
 6788SOL     OW21262   2.761   3.891   1.709
 6788SOL    HW121263   2.803   3.855   1.792
 6788SOL    HW221264   2.663   3.871   1.709
 6789SOL     OW21265   0.200   6.820   2.556
 6789SOL    HW121266   0.150   6.770   2.485
 6789SOL    HW221267   0.196   6.918   2.536
 6790SOL     OW21268   2.256   3.214   0.056
 6790SOL    HW121269   2.208   3.130   0.031
 6790SOL    HW221270   2.355   3.199   0.049
 6791SOL     OW21271   4.357   2.388   0.114
 6791SOL    HW121272   4.260   2.406   0.101
 6791SOL    HW221273   4.400   2.466   0.160
 6792SOL     OW21274   6.872   6.138   6.447
 6792SOL    HW121275   6.786   6.186   6.428
 6792SOL    HW221276   6.853   6.042   6.465
 6793SOL     OW21277   1.030   2.094   0.216
 6793SOL    HW121278   1.127   2.074   0.230
 6793SOL    HW221279   1.014   2.192   0.228
 6794SOL     OW21280   5.131   0.997   4.155
 6794SOL    HW121281   5.071   0.923   4.186
 6794SOL    HW221282   5.076   1.076   4.129
 6795SOL     OW21283   2.811   5.501   0.939
 6795SOL    HW121284   2.725   5.494   0.989
 6795SOL    HW221285   2.886   5.517   1.004
 6796SOL     OW21286   5.565   0.938   2.177
 6796SOL    HW121287   5.656   0.979   2.169
 6796SOL    HW221288   5.557   0.863   2.111
 6797SOL     OW21289   5.311   3.566   1.786
 6797SOL    HW121290   5.394   3.544   1.837
 6797SOL    HW221291   5.306   3.510   1.704
 6798SOL     OW21292   5.578   5.216   3.250
 6798SOL    HW121293   5.663   5.170   3.225
 6798SOL    HW221294   5.513   5.148   3.286
 6799SOL     OW21295   5.254   5.445   0.300
 6799SOL    HW121296   5.314   5.472   0.375
 6799SOL    HW221297   5.264   5.508   0.224
 6800SOL     OW21298   1.468   4.210   1.000
 6800SOL    HW121299   1.543   4.152   1.033
 6800SOL    HW221300   1.470   4.298   1.048
 6801SOL     OW21301   1.287   1.738   2.109
 6801SOL    HW121302   1.292   1.649   2.064
 6801SOL    HW221303   1.297   1.726   2.208
 6802SOL     OW21304   2.251   5.853   0.854
 6802SOL    HW121305   2.284   5.803   0.934
 6802SOL    HW221306   2.153   5.841   0.844
 6803SOL     OW21307   4.936   2.008   6.336
 6803SOL    HW121308   4.846   1.964   6.327
 6803SOL    HW221309   4.962   2.011   6.432
 6804SOL     OW21310   2.160   6.202   3.485
 6804SOL    HW121311   2.227   6.227   3.415
 6804SOL    HW221312   2.130   6.285   3.533
 6805SOL     OW21313   5.475   6.814   4.684
 6805SOL    HW121314   5.380   6.837   4.662
 6805SOL    HW221315   5.478   6.726   4.733
 6806SOL     OW21316   5.032   1.215   4.356
 6806SOL    HW121317   4.973   1.202   4.277
 6806SOL    HW221318   5.108   1.150   4.353
 6807SOL     OW21319   2.546   3.114   0.047
 6807SOL    HW121320   2.576   3.210   0.052
 6807SOL    HW221321   2.538   3.077   0.140
 6808SOL     OW21322   0.646   2.901   5.020
 6808SOL    HW121323   0.700   2.830   4.976
 6808SOL    HW221324   0.593   2.950   4.950
 6809SOL     OW21325   1.487   4.737   6.972
 6809SOL    HW121326   1.460   4.832   6.955
 6809SOL    HW221327   1.405   4.682   6.993
 6810SOL     OW21328   1.063   0.919   2.288
 6810SOL    HW121329   1.136   0.850   2.290
 6810SOL    HW221330   1.080   0.988   2.358
 6811SOL     OW21331   6.102   4.243   0.560
 6811SOL    HW121332   6.027   4.209   0.617
 6811SOL    HW221333   6.102   4.194   0.472
 6812SOL     OW21334   4.143   3.529   3.198
 6812SOL    HW121335   4.094   3.564   3.119
 6812SOL    HW221336   4.142   3.596   3.272
 6813SOL     OW21337   4.935   1.983   1.490
 6813SOL    HW121338   4.916   1.894   1.449
 6813SOL    HW221339   4.851   2.018   1.533
 6814SOL     OW21340   3.256   2.870   1.239
 6814SOL    HW121341   3.323   2.881   1.312
 6814SOL    HW221342   3.264   2.946   1.174
 6815SOL     OW21343   2.829   6.936   1.820
 6815SOL    HW121344   2.751   6.927   1.758
 6815SOL    HW221345   2.888   7.010   1.789
 6816SOL     OW21346   6.335   5.119   6.877
 6816SOL    HW121347   6.335   5.072   6.965
 6816SOL    HW221348   6.412   5.183   6.873
 6817SOL     OW21349   6.380   1.398   5.322
 6817SOL    HW121350   6.429   1.420   5.237
 6817SOL    HW221351   6.380   1.478   5.382
 6818SOL     OW21352   3.334   6.548   1.930
 6818SOL    HW121353   3.264   6.609   1.966
 6818SOL    HW221354   3.418   6.600   1.910
 6819SOL     OW21355   2.966   0.612   3.470
 6819SOL    HW121356   2.944   0.704   3.439
 6819SOL    HW221357   3.065   0.602   3.477
 6820SOL     OW21358   1.110   4.763   3.713
 6820SOL    HW121359   1.033   4.700   3.719
 6820SOL    HW221360   1.101   4.834   3.783
 6821SOL     OW21361   2.351   2.151   5.022
 6821SOL    HW121362   2.418   2.077   5.010
 6821SOL    HW221363   2.399   2.237   5.037
 6822SOL     OW21364   5.648   1.482   6.006
 6822SOL    HW121365   5.570   1.531   5.968
 6822SOL    HW221366   5.617   1.421   6.080
 6823SOL     OW21367   3.598   3.544   3.624
 6823SOL    HW121368   3.641   3.483   3.689
 6823SOL    HW221369   3.551   3.491   3.554
 6824SOL     OW21370   0.346   3.418   6.576
 6824SOL    HW121371   0.431   3.367   6.585
 6824SOL    HW221372   0.306   3.401   6.485
 6825SOL     OW21373   5.041   0.185   2.398
 6825SOL    HW121374   5.072   0.152   2.488
 6825SOL    HW221375   4.979   0.262   2.411
 6826SOL     OW21376   2.112   3.545   2.470
 6826SOL    HW121377   2.027   3.555   2.522
 6826SOL    HW221378   2.090   3.514   2.377
 6827SOL     OW21379   4.577   5.779   6.919
 6827SOL    HW121380   4.630   5.833   6.984
 6827SOL    HW221381   4.637   5.743   6.848
 6828SOL     OW21382   1.254   2.118   1.861
 6828SOL    HW121383   1.208   2.075   1.939
 6828SOL    HW221384   1.258   2.053   1.785
 6829SOL     OW21385   5.367   6.819   3.641
 6829SOL    HW121386   5.429   6.741   3.652
 6829SOL    HW221387   5.396   6.872   3.561
 6830SOL     OW21388   5.673   1.343   3.037
 6830SOL    HW121389   5.599   1.286   3.001
 6830SOL    HW221390   5.651   1.439   3.024
 6831SOL     OW21391   0.753   1.023   6.298
 6831SOL    HW121392   0.705   1.045   6.213
 6831SOL    HW221393   0.709   1.070   6.374
 6832SOL     OW21394   2.934   4.527   1.560
 6832SOL    HW121395   2.917   4.521   1.659
 6832SOL    HW221396   2.875   4.461   1.513
 6833SOL     OW21397   3.764   5.228   6.919
 6833SOL    HW121398   3.674   5.185   6.912
 6833SOL    HW221399   3.833   5.157   6.930
 6834SOL     OW21400   4.834   6.963   1.647
 6834SOL    HW121401   4.767   6.893   1.623
 6834SOL    HW221402   4.925   6.933   1.617
 6835SOL     OW21403   4.013   0.313   4.739
 6835SOL    HW121404   3.952   0.296   4.817
 6835SOL    HW221405   4.102   0.342   4.772
 6836SOL     OW21406   2.921   6.308   0.651
 6836SOL    HW121407   2.850   6.281   0.587
 6836SOL    HW221408   2.957   6.398   0.625
 6837SOL     OW21409   1.723   3.286   1.844
 6837SOL    HW121410   1.800   3.292   1.781
 6837SOL    HW221411   1.746   3.224   1.919
 6838SOL     OW21412   2.605   0.915   0.430
 6838SOL    HW121413   2.585   0.954   0.520
 6838SOL    HW221414   2.540   0.842   0.410
 6839SOL     OW21415   4.651   1.083   1.016
 6839SOL    HW121416   4.735   1.044   1.055
 6839SOL    HW221417   4.672   1.121   0.926
 6840SOL     OW21418   2.521   1.590   6.170
 6840SOL    HW121419   2.620   1.586   6.160
 6840SOL    HW221420   2.482   1.643   6.095
 6841SOL     OW21421   6.302   3.383   5.903
 6841SOL    HW121422   6.266   3.291   5.890
 6841SOL    HW221423   6.261   3.445   5.837
 6842SOL     OW21424   1.645   5.313   1.380
 6842SOL    HW121425   1.724   5.348   1.330
 6842SOL    HW221426   1.670   5.228   1.426
 6843SOL     OW21427   5.251   0.022   6.550
 6843SOL    HW121428   5.274   6.946   6.527
 6843SOL    HW221429   5.162   0.045   6.509
 6844SOL     OW21430   5.071   0.851   3.699
 6844SOL    HW121431   5.103   0.916   3.769
 6844SOL    HW221432   4.972   0.844   3.705
 6845SOL     OW21433   4.689   2.783   3.163
 6845SOL    HW121434   4.637   2.739   3.237
 6845SOL    HW221435   4.641   2.769   3.076
 6846SOL     OW21436   2.807   4.252   0.496
 6846SOL    HW121437   2.884   4.230   0.555
 6846SOL    HW221438   2.841   4.303   0.416
 6847SOL     OW21439   6.043   4.100   4.810
 6847SOL    HW121440   5.974   4.135   4.873
 6847SOL    HW221441   6.119   4.060   4.862
 6848SOL     OW21442   5.146   4.159   4.019
 6848SOL    HW121443   5.127   4.145   4.117
 6848SOL    HW221444   5.237   4.125   3.998
 6849SOL     OW21445   3.857   3.806   6.020
 6849SOL    HW121446   3.892   3.844   5.934
 6849SOL    HW221447   3.877   3.869   6.095
 6850SOL     OW21448   4.435   2.413   3.453
 6850SOL    HW121449   4.501   2.358   3.503
 6850SOL    HW221450   4.347   2.365   3.450
 6851SOL     OW21451   1.858   2.865   2.498
 6851SOL    HW121452   1.830   2.946   2.447
 6851SOL    HW221453   1.951   2.877   2.533
 6852SOL     OW21454   2.287   5.467   0.774
 6852SOL    HW121455   2.357   5.536   0.789
 6852SOL    HW221456   2.234   5.454   0.858
 6853SOL     OW21457   5.544   3.359   6.644
 6853SOL    HW121458   5.608   3.306   6.588
 6853SOL    HW221459   5.560   3.457   6.629
 6854SOL     OW21460   5.097   6.549   6.028
 6854SOL    HW121461   5.088   6.510   5.937
 6854SOL    HW221462   5.161   6.626   6.026
 6855SOL     OW21463   3.544   5.338   3.532
 6855SOL    HW121464   3.607   5.322   3.608
 6855SOL    HW221465   3.589   5.394   3.462
 6856SOL     OW21466   0.985   2.596   6.254
 6856SOL    HW121467   1.085   2.590   6.262
 6856SOL    HW221468   0.959   2.576   6.160
 6857SOL     OW21469   1.382   3.382   6.625
 6857SOL    HW121470   1.286   3.366   6.605
 6857SOL    HW221471   1.425   3.429   6.547
 6858SOL     OW21472   3.272   4.165   1.775
 6858SOL    HW121473   3.198   4.231   1.776
 6858SOL    HW221474   3.293   4.137   1.681
 6859SOL     OW21475   0.864   1.321   1.998
 6859SOL    HW121476   0.871   1.254   2.072
 6859SOL    HW221477   0.772   1.318   1.958
 6860SOL     OW21478   7.010   5.343   2.060
 6860SOL    HW121479   6.955   5.272   2.015
 6860SOL    HW221480   0.088   5.330   2.037
 6861SOL     OW21481   5.218   3.223   5.307
 6861SOL    HW121482   5.200   3.301   5.248
 6861SOL    HW221483   5.149   3.152   5.292
 6862SOL     OW21484   0.527   4.450   6.394
 6862SOL    HW121485   0.509   4.358   6.431
 6862SOL    HW221486   0.511   4.451   6.296
 6863SOL     OW21487   6.820   6.557   4.824
 6863SOL    HW121488   6.903   6.504   4.806
 6863SOL    HW221489   6.818   6.585   4.920
 6864SOL     OW21490   1.542   3.920   5.656
 6864SOL    HW121491   1.549   4.016   5.629
 6864SOL    HW221492   1.461   3.908   5.714
 6865SOL     OW21493   1.270   0.224   4.422
 6865SOL    HW121494   1.184   0.173   4.414
 6865SOL    HW221495   1.252   0.312   4.465
 6866SOL     OW21496   6.782   4.420   2.184
 6866SOL    HW121497   6.683   4.415   2.177
 6866SOL    HW221498   6.820   4.328   2.194
 6867SOL     OW21499   2.094   3.490   0.457
 6867SOL    HW121500   2.133   3.476   0.366
 6867SOL    HW221501   1.994   3.493   0.450
 6868SOL     OW21502   2.167   5.508   5.027
 6868SOL    HW121503   2.189   5.410   5.020
 6868SOL    HW221504   2.068   5.520   5.029
 6869SOL     OW21505   3.484   6.895   5.639
 6869SOL    HW121506   3.486   6.961   5.565
 6869SOL    HW221507   3.578   6.866   5.661
 6870SOL     OW21508   0.134   2.741   0.723
 6870SOL    HW121509   0.102   2.671   0.660
 6870SOL    HW221510   0.220   2.780   0.689
 6871SOL     OW21511   6.821   3.602   2.308
 6871SOL    HW121512   6.781   3.584   2.218
 6871SOL    HW221513   6.887   3.530   2.331
 6872SOL     OW21514   1.102   2.758   1.988
 6872SOL    HW121515   1.145   2.750   1.898
 6872SOL    HW221516   1.089   2.666   2.026
 6873SOL     OW21517   1.222   4.247   4.872
 6873SOL    HW121518   1.279   4.323   4.903
 6873SOL    HW221519   1.277   4.164   4.868
 6874SOL     OW21520   5.842   5.735   2.860
 6874SOL    HW121521   5.773   5.773   2.922
 6874SOL    HW221522   5.802   5.658   2.809
 6875SOL     OW21523   1.737   2.473   0.858
 6875SOL    HW121524   1.690   2.407   0.799
 6875SOL    HW221525   1.824   2.499   0.816
 6876SOL     OW21526   3.786   6.480   3.189
 6876SOL    HW121527   3.760   6.391   3.153
 6876SOL    HW221528   3.704   6.533   3.212
 6877SOL     OW21529   2.350   4.268   2.063
 6877SOL    HW121530   2.388   4.285   2.154
 6877SOL    HW221531   2.291   4.187   2.066
 6878SOL     OW21532   2.120   0.874   3.801
 6878SOL    HW121533   2.037   0.820   3.799
 6878SOL    HW221534   2.108   0.957   3.746
 6879SOL     OW21535   2.038   2.306   0.826
 6879SOL    HW121536   2.096   2.357   0.762
 6879SOL    HW221537   1.964   2.261   0.776
 6880SOL     OW21538   1.775   5.736   6.412
 6880SOL    HW121539   1.825   5.697   6.335
 6880SOL    HW221540   1.768   5.835   6.401
 6881SOL     OW21541   2.030   3.620   0.106
 6881SOL    HW121542   2.063   3.598   0.015
 6881SOL    HW221543   1.936   3.585   0.117
 6882SOL     OW21544   3.070   6.539   0.619
 6882SOL    HW121545   3.132   6.565   0.693
 6882SOL    HW221546   3.106   6.574   0.532
 6883SOL     OW21547   4.974   0.482   6.161
 6883SOL    HW121548   5.049   0.415   6.155
 6883SOL    HW221549   4.894   0.446   6.113
 6884SOL     OW21550   2.117   3.862   3.165
 6884SOL    HW121551   2.099   3.764   3.167
 6884SOL    HW221552   2.184   3.882   3.094
 6885SOL     OW21553   4.693   5.287   3.477
 6885SOL    HW121554   4.609   5.339   3.492
 6885SOL    HW221555   4.678   5.217   3.407
 6886SOL     OW21556   5.067   1.054   5.915
 6886SOL    HW121557   5.038   1.034   6.009
 6886SOL    HW221558   5.037   1.147   5.891
 6887SOL     OW21559   5.151   6.546   6.607
 6887SOL    HW121560   5.080   6.477   6.622
 6887SOL    HW221561   5.241   6.502   6.610
 6888SOL     OW21562   5.623   4.839   6.534
 6888SOL    HW121563   5.555   4.813   6.602
 6888SOL    HW221564   5.657   4.756   6.489
 6889SOL     OW21565   0.826   2.891   5.503
 6889SOL    HW121566   0.737   2.919   5.539
 6889SOL    HW221567   0.898   2.937   5.554
 6890SOL     OW21568   3.490   5.174   2.823
 6890SOL    HW121569   3.393   5.147   2.823
 6890SOL    HW221570   3.515   5.207   2.914
 6891SOL     OW21571   2.307   2.781   0.833
 6891SOL    HW121572   2.249   2.719   0.885
 6891SOL    HW221573   2.386   2.808   0.888
 6892SOL     OW21574   3.368   1.156   4.219
 6892SOL    HW121575   3.449   1.156   4.278
 6892SOL    HW221576   3.307   1.082   4.245
 6893SOL     OW21577   6.210   3.119   6.828
 6893SOL    HW121578   6.211   3.019   6.820
 6893SOL    HW221579   6.209   3.145   6.925
 6894SOL     OW21580   5.588   4.866   1.325
 6894SOL    HW121581   5.495   4.897   1.345
 6894SOL    HW221582   5.595   4.768   1.342
 6895SOL     OW21583   1.635   6.062   1.101
 6895SOL    HW121584   1.681   5.976   1.078
 6895SOL    HW221585   1.536   6.047   1.098
 6896SOL     OW21586   3.684   1.987   4.273
 6896SOL    HW121587   3.591   2.005   4.305
 6896SOL    HW221588   3.749   2.023   4.340
 6897SOL     OW21589   4.834   3.707   5.319
 6897SOL    HW121590   4.761   3.670   5.262
 6897SOL    HW221591   4.918   3.656   5.304
 6898SOL     OW21592   2.523   1.381   1.378
 6898SOL    HW121593   2.609   1.370   1.329
 6898SOL    HW221594   2.536   1.357   1.474
 6899SOL     OW21595   6.283   5.762   2.436
 6899SOL    HW121596   6.334   5.827   2.380
 6899SOL    HW221597   6.188   5.757   2.404
 6900SOL     OW21598   6.764   4.247   6.312
 6900SOL    HW121599   6.668   4.240   6.283
 6900SOL    HW221600   6.806   4.327   6.268
 6901SOL     OW21601   4.543   4.816   6.758
 6901SOL    HW121602   4.634   4.779   6.744
 6901SOL    HW221603   4.550   4.906   6.800
 6902SOL     OW21604   0.041   6.121   5.959
 6902SOL    HW121605   0.116   6.122   6.025
 6902SOL    HW221606   0.044   6.038   5.905
 6903SOL     OW21607   3.215   5.162   5.059
 6903SOL    HW121608   3.225   5.152   5.158
 6903SOL    HW221609   3.118   5.159   5.035
 6904SOL     OW21610   0.426   5.642   4.879
 6904SOL    HW121611   0.430   5.606   4.786
 6904SOL    HW221612   0.332   5.671   4.900
 6905SOL     OW21613   5.285   5.767   6.088
 6905SOL    HW121614   5.300   5.675   6.124
 6905SOL    HW221615   5.232   5.761   6.003
 6906SOL     OW21616   3.878   0.982   3.604
 6906SOL    HW121617   3.890   1.072   3.562
 6906SOL    HW221618   3.915   0.984   3.697
 6907SOL     OW21619   6.227   1.764   1.534
 6907SOL    HW121620   6.201   1.715   1.618
 6907SOL    HW221621   6.300   1.713   1.487
 6908SOL     OW21622   2.508   4.325   6.659
 6908SOL    HW121623   2.411   4.308   6.642
 6908SOL    HW221624   2.552   4.359   6.576
 6909SOL     OW21625   5.494   4.971   1.708
 6909SOL    HW121626   5.498   4.888   1.764
 6909SOL    HW221627   5.437   5.039   1.753
 6910SOL     OW21628   1.567   2.924   2.576
 6910SOL    HW121629   1.515   2.863   2.516
 6910SOL    HW221630   1.650   2.877   2.607
 6911SOL     OW21631   3.336   0.163   5.390
 6911SOL    HW121632   3.277   0.082   5.382
 6911SOL    HW221633   3.423   0.135   5.431
 6912SOL     OW21634   2.020   3.360   6.902
 6912SOL    HW121635   2.071   3.383   6.819
 6912SOL    HW221636   2.084   3.323   6.971
 6913SOL     OW21637   4.721   5.927   5.800
 6913SOL    HW121638   4.627   5.952   5.825
 6913SOL    HW221639   4.783   5.948   5.876
 6914SOL     OW21640   6.177   3.461   1.874
 6914SOL    HW121641   6.243   3.450   1.800
 6914SOL    HW221642   6.123   3.377   1.882
 6915SOL     OW21643   0.857   3.624   2.203
 6915SOL    HW121644   0.907   3.590   2.124
 6915SOL    HW221645   0.911   3.694   2.250
 6916SOL     OW21646   4.479   6.959   6.031
 6916SOL    HW121647   4.442   6.952   5.939
 6916SOL    HW221648   4.537   0.022   6.039
 6917SOL     OW21649   5.234   5.495   1.729
 6917SOL    HW121650   5.192   5.413   1.767
 6917SOL    HW221651   5.223   5.496   1.630
 6918SOL     OW21652   0.989   3.149   1.676
 6918SOL    HW121653   0.900   3.138   1.630
 6918SOL    HW221654   0.979   3.131   1.773
 6919SOL     OW21655   6.156   6.899   2.590
 6919SOL    HW121656   6.221   6.968   2.624
 6919SOL    HW221657   6.114   6.853   2.668
 6920SOL     OW21658   4.583   0.344   5.390
 6920SOL    HW121659   4.630   0.276   5.446
 6920SOL    HW221660   4.548   0.417   5.449
 6921SOL     OW21661   3.412   0.223   4.643
 6921SOL    HW121662   3.487   0.256   4.701
 6921SOL    HW221663   3.417   0.269   4.554
 6922SOL     OW21664   1.757   6.034   4.815
 6922SOL    HW121665   1.759   6.126   4.775
 6922SOL    HW221666   1.808   5.972   4.756
 6923SOL     OW21667   6.266   6.974   2.026
 6923SOL    HW121668   6.267   6.890   2.081
 6923SOL    HW221669   6.288   0.033   2.084
 6924SOL     OW21670   3.756   6.463   0.641
 6924SOL    HW121671   3.719   6.372   0.622
 6924SOL    HW221672   3.848   6.469   0.602
 6925SOL     OW21673   5.332   6.250   6.761
 6925SOL    HW121674   5.235   6.226   6.752
 6925SOL    HW221675   5.386   6.167   6.770
 6926SOL     OW21676   2.915   1.413   1.005
 6926SOL    HW121677   2.910   1.370   0.915
 6926SOL    HW221678   3.010   1.440   1.023
 6927SOL     OW21679   3.922   0.694   0.479
 6927SOL    HW121680   3.963   0.782   0.502
 6927SOL    HW221681   3.829   0.689   0.516
 6928SOL     OW21682   5.031   5.288   0.586
 6928SOL    HW121683   4.948   5.280   0.641
 6928SOL    HW221684   5.104   5.234   0.628
 6929SOL     OW21685   5.194   5.007   1.633
 6929SOL    HW121686   5.285   5.033   1.667
 6929SOL    HW221687   5.143   4.962   1.706
 6930SOL     OW21688   0.361   1.212   0.271
 6930SOL    HW121689   0.436   1.257   0.319
 6930SOL    HW221690   0.357   1.244   0.176
 6931SOL     OW21691   2.566   2.285   1.369
 6931SOL    HW121692   2.500   2.232   1.316
 6931SOL    HW221693   2.536   2.380   1.376
 6932SOL     OW21694   4.985   5.452   6.970
 6932SOL    HW121695   4.972   5.376   6.906
 6932SOL    HW221696   4.906   5.457   0.013
 6933SOL     OW21697   3.118   5.844   6.432
 6933SOL    HW121698   3.203   5.818   6.478
 6933SOL    HW221699   3.045   5.853   6.499
 6934SOL     OW21700   5.080   4.051   6.448
 6934SOL    HW121701   5.179   4.033   6.447
 6934SOL    HW221702   5.041   4.017   6.534
 6935SOL     OW21703   5.573   5.358   1.898
 6935SOL    HW121704   5.571   5.287   1.968
 6935SOL    HW221705   5.575   5.448   1.941
 6936SOL     OW21706   1.068   1.523   4.880
 6936SOL    HW121707   1.012   1.458   4.931
 6936SOL    HW221708   1.023   1.544   4.793
 6937SOL     OW21709   5.500   5.797   0.251
 6937SOL    HW121710   5.494   5.892   0.281
 6937SOL    HW221711   5.488   5.737   0.330
 6938SOL     OW21712   0.404   0.824   4.733
 6938SOL    HW121713   0.431   0.853   4.825
 6938SOL    HW221714   0.397   0.905   4.674
 6939SOL     OW21715   6.376   4.388   3.519
 6939SOL    HW121716   6.464   4.342   3.507
 6939SOL    HW221717   6.372   4.429   3.610
 6940SOL     OW21718   4.760   6.778   0.758
 6940SOL    HW121719   4.700   6.745   0.686
 6940SOL    HW221720   4.782   6.874   0.742
 6941SOL     OW21721   2.965   3.530   3.155
 6941SOL    HW121722   2.972   3.599   3.082
 6941SOL    HW221723   3.043   3.468   3.148
 6942SOL     OW21724   6.578   6.152   1.695
 6942SOL    HW121725   6.636   6.105   1.628
 6942SOL    HW221726   6.486   6.114   1.692
 6943SOL     OW21727   4.045   4.504   6.991
 6943SOL    HW121728   3.955   4.464   7.009
 6943SOL    HW221729   4.034   4.592   6.945
 6944SOL     OW21730   1.087   3.825   5.897
 6944SOL    HW121731   1.138   3.842   5.813
 6944SOL    HW221732   0.989   3.820   5.876
 6945SOL     OW21733   5.935   2.889   0.454
 6945SOL    HW121734   5.934   2.800   0.410
 6945SOL    HW221735   5.854   2.941   0.427
 6946SOL     OW21736   3.906   5.976   2.016
 6946SOL    HW121737   3.908   5.894   2.074
 6946SOL    HW221738   3.910   5.949   1.920
 6947SOL     OW21739   5.037   4.825   5.823
 6947SOL    HW121740   5.027   4.838   5.724
 6947SOL    HW221741   5.119   4.770   5.841
 6948SOL     OW21742   0.366   5.698   0.981
 6948SOL    HW121743   0.301   5.652   1.042
 6948SOL    HW221744   0.374   5.794   1.007
 6949SOL     OW21745   2.750   2.285   3.670
 6949SOL    HW121746   2.664   2.276   3.721
 6949SOL    HW221747   2.762   2.204   3.613
 6950SOL     OW21748   0.782   6.644   4.462
 6950SOL    HW121749   0.800   6.604   4.372
 6950SOL    HW221750   0.698   6.698   4.458
 6951SOL     OW21751   6.873   5.074   6.967
 6951SOL    HW121752   6.807   5.003   6.943
 6951SOL    HW221753   6.966   5.039   6.956
 6952SOL     OW21754   3.304   4.967   2.537
 6952SOL    HW121755   3.235   5.021   2.585
 6952SOL    HW221756   3.346   4.902   2.600
 6953SOL     OW21757   5.638   0.613   0.815
 6953SOL    HW121758   5.598   0.579   0.730
 6953SOL    HW221759   5.566   0.649   0.873
 6954SOL     OW21760   0.186   3.696   0.735
 6954SOL    HW121761   0.242   3.748   0.670
 6954SOL    HW221762   0.109   3.654   0.687
 6955SOL     OW21763   5.088   0.066   2.651
 6955SOL    HW121764   5.103   0.164   2.663
 6955SOL    HW221765   5.161   0.015   2.695
 6956SOL     OW21766   5.699   5.929   2.103
 6956SOL    HW121767   5.694   6.017   2.055
 6956SOL    HW221768   5.641   5.932   2.184
 6957SOL     OW21769   5.464   5.472   6.192
 6957SOL    HW121770   5.507   5.491   6.281
 6957SOL    HW221771   5.506   5.390   6.152
 6958SOL     OW21772   3.440   2.900   3.933
 6958SOL    HW121773   3.401   2.843   4.006
 6958SOL    HW221774   3.487   2.978   3.974
 6959SOL     OW21775   1.596   4.451   3.029
 6959SOL    HW121776   1.516   4.407   3.070
 6959SOL    HW221777   1.670   4.384   3.021
 6960SOL     OW21778   2.013   4.544   0.466
 6960SOL    HW121779   2.111   4.553   0.481
 6960SOL    HW221780   1.995   4.460   0.414
 6961SOL     OW21781   4.054   1.738   5.150
 6961SOL    HW121782   4.132   1.770   5.096
 6961SOL    HW221783   4.073   1.648   5.187
 6962SOL     OW21784   3.669   6.772   6.248
 6962SOL    HW121785   3.760   6.784   6.288
 6962SOL    HW221786   3.600   6.770   6.321
 6963SOL     OW21787   5.006   6.432   1.157
 6963SOL    HW121788   4.959   6.442   1.244
 6963SOL    HW221789   5.042   6.520   1.128
 6964SOL     OW21790   2.137   0.117   6.061
 6964SOL    HW121791   2.193   0.192   6.097
 6964SOL    HW221792   2.046   0.121   6.102
 6965SOL     OW21793   0.750   2.272   0.483
 6965SOL    HW121794   0.695   2.190   0.497
 6965SOL    HW221795   0.826   2.252   0.421
 6966SOL     OW21796   0.975   0.582   2.079
 6966SOL    HW121797   1.049   0.549   2.020
 6966SOL    HW221798   0.985   0.542   2.170
 6967SOL     OW21799   4.086   2.159   6.216
 6967SOL    HW121800   4.069   2.162   6.117
 6967SOL    HW221801   4.052   2.072   6.252
 6968SOL     OW21802   3.519   6.902   2.824
 6968SOL    HW121803   3.558   6.852   2.901
 6968SOL    HW221804   3.538   7.000   2.835
 6969SOL     OW21805   2.253   1.907   2.114
 6969SOL    HW121806   2.185   1.874   2.049
 6969SOL    HW221807   2.344   1.902   2.072
 6970SOL     OW21808   3.425   4.537   6.152
 6970SOL    HW121809   3.411   4.578   6.062
 6970SOL    HW221810   3.523   4.534   6.172
 6971SOL     OW21811   6.187   4.554   0.534
 6971SOL    HW121812   6.267   4.554   0.594
 6971SOL    HW221813   6.142   4.465   0.539
 6972SOL     OW21814   5.220   3.489   2.529
 6972SOL    HW121815   5.304   3.500   2.583
 6972SOL    HW221816   5.143   3.526   2.581
 6973SOL     OW21817   1.209   1.988   2.580
 6973SOL    HW121818   1.182   2.073   2.535
 6973SOL    HW221819   1.308   1.979   2.576
 6974SOL     OW21820   3.364   3.681   2.867
 6974SOL    HW121821   3.451   3.633   2.877
 6974SOL    HW221822   3.328   3.666   2.774
 6975SOL     OW21823   3.255   5.667   5.074
 6975SOL    HW121824   3.335   5.608   5.079
 6975SOL    HW221825   3.176   5.619   5.113
 6976SOL     OW21826   4.872   4.303   5.242
 6976SOL    HW121827   4.878   4.222   5.299
 6976SOL    HW221828   4.963   4.325   5.206
 6977SOL     OW21829   4.099   4.710   1.867
 6977SOL    HW121830   4.179   4.652   1.884
 6977SOL    HW221831   4.104   4.748   1.775
 6978SOL     OW21832   5.688   3.350   1.808
 6978SOL    HW121833   5.779   3.384   1.785
 6978SOL    HW221834   5.628   3.427   1.832
 6979SOL     OW21835   1.429   4.046   1.457
 6979SOL    HW121836   1.365   4.100   1.402
 6979SOL    HW221837   1.418   4.070   1.554
 6980SOL     OW21838   1.293   6.822   3.071
 6980SOL    HW121839   1.364   6.813   3.000
 6980SOL    HW221840   1.212   6.865   3.031
 6981SOL     OW21841   3.581   3.551   6.918
 6981SOL    HW121842   3.500   3.495   6.939
 6981SOL    HW221843   3.568   3.643   6.955
 6982SOL     OW21844   0.738   1.403   4.262
 6982SOL    HW121845   0.651   1.368   4.229
 6982SOL    HW221846   0.725   1.495   4.299
 6983SOL     OW21847   4.953   0.805   4.218
 6983SOL    HW121848   5.000   0.732   4.268
 6983SOL    HW221849   4.929   0.773   4.126
 6984SOL     OW21850   0.881   2.618   3.091
 6984SOL    HW121851   0.786   2.645   3.074
 6984SOL    HW221852   0.937   2.700   3.102
 6985SOL     OW21853   6.743   3.992   6.996
 6985SOL    HW121854   6.777   3.898   7.003
 6985SOL    HW221855   6.691   4.001   6.911
 6986SOL     OW21856   3.813   5.233   5.857
 6986SOL    HW121857   3.793   5.137   5.880
 6986SOL    HW221858   3.893   5.263   5.910
 6987SOL     OW21859   0.384   1.854   6.292
 6987SOL    HW121860   0.327   1.833   6.371
 6987SOL    HW221861   0.385   1.776   6.230
 6988SOL     OW21862   2.770   1.121   6.249
 6988SOL    HW121863   2.706   1.159   6.315
 6988SOL    HW221864   2.767   1.021   6.253
 6989SOL     OW21865   0.316   4.415   2.516
 6989SOL    HW121866   0.372   4.358   2.457
 6989SOL    HW221867   0.304   4.505   2.474
 6990SOL     OW21868   3.764   2.853   1.917
 6990SOL    HW121869   3.676   2.807   1.931
 6990SOL    HW221870   3.817   2.852   2.002
 6991SOL     OW21871   5.747   4.241   2.707
 6991SOL    HW121872   5.668   4.284   2.751
 6991SOL    HW221873   5.734   4.241   2.608
 6992SOL     OW21874   1.459   0.444   6.756
 6992SOL    HW121875   1.497   0.534   6.736
 6992SOL    HW221876   1.387   0.422   6.690
 6993SOL     OW21877   5.554   1.181   1.844
 6993SOL    HW121878   5.535   1.157   1.749
 6993SOL    HW221879   5.468   1.191   1.894
 6994SOL     OW21880   1.930   0.113   3.848
 6994SOL    HW121881   2.015   0.061   3.842
 6994SOL    HW221882   1.934   0.175   3.926
 6995SOL     OW21883   0.575   3.256   0.601
 6995SOL    HW121884   0.583   3.354   0.581
 6995SOL    HW221885   0.654   3.227   0.655
 6996SOL     OW21886   1.603   0.793   0.259
 6996SOL    HW121887   1.654   0.879   0.259
 6996SOL    HW221888   1.666   0.716   0.265
 6997SOL     OW21889   0.120   5.058   5.038
 6997SOL    HW121890   0.185   5.128   5.068
 6997SOL    HW221891   0.108   4.990   5.110
 6998SOL     OW21892   0.478   1.292   1.355
 6998SOL    HW121893   0.527   1.348   1.287
 6998SOL    HW221894   0.508   1.316   1.447
 6999SOL     OW21895   1.173   2.744   6.917
 6999SOL    HW121896   1.240   2.807   6.878
 6999SOL    HW221897   1.215   2.655   6.932
 7000SOL     OW21898   6.666   6.985   2.644
 7000SOL    HW121899   6.720   0.036   2.691
 7000SOL    HW221900   6.668   6.900   2.698
 7001SOL     OW21901   1.226   1.783   4.346
 7001SOL    HW121902   1.164   1.805   4.271
 7001SOL    HW221903   1.321   1.793   4.315
 7002SOL     OW21904   0.765   5.811   3.733
 7002SOL    HW121905   0.684   5.771   3.691
 7002SOL    HW221906   0.821   5.856   3.663
 7003SOL     OW21907   6.056   4.054   1.319
 7003SOL    HW121908   6.135   4.069   1.379
 7003SOL    HW221909   6.017   3.964   1.336
 7004SOL     OW21910   1.661   5.799   0.020
 7004SOL    HW121911   1.737   5.737   7.018
 7004SOL    HW221912   1.581   5.747   0.048
 7005SOL     OW21913   1.754   0.646   6.997
 7005SOL    HW121914   1.656   0.667   7.004
 7005SOL    HW221915   1.767   0.566   6.938
 7006SOL     OW21916   0.097   0.404   3.658
 7006SOL    HW121917   0.146   0.319   3.675
 7006SOL    HW221918   7.018   0.388   3.668
 7007SOL     OW21919   3.713   0.753   5.929
 7007SOL    HW121920   3.647   0.746   5.855
 7007SOL    HW221921   3.796   0.703   5.904
 7008SOL     OW21922   6.640   4.307   3.497
 7008SOL    HW121923   6.652   4.376   3.568
 7008SOL    HW221924   6.672   4.218   3.532
 7009SOL     OW21925   4.425   5.902   2.066
 7009SOL    HW121926   4.389   5.994   2.054
 7009SOL    HW221927   4.517   5.906   2.103
 7010SOL     OW21928   5.126   4.076   1.849
 7010SOL    HW121929   5.142   3.979   1.864
 7010SOL    HW221930   5.135   4.098   1.752
 7011SOL     OW21931   3.971   6.826   0.238
 7011SOL    HW121932   3.922   6.868   0.162
 7011SOL    HW221933   3.926   6.849   0.324
 7012SOL     OW21934   0.902   2.330   0.901
 7012SOL    HW121935   0.810   2.325   0.863
 7012SOL    HW221936   0.949   2.410   0.866
 7013SOL     OW21937   2.584   1.792   0.112
 7013SOL    HW121938   2.645   1.864   0.145
 7013SOL    HW221939   2.500   1.793   0.166
 7014SOL     OW21940   6.425   3.971   1.684
 7014SOL    HW121941   6.412   3.875   1.710
 7014SOL    HW221942   6.336   4.015   1.676
 7015SOL     OW21943   5.141   4.936   2.089
 7015SOL    HW121944   5.232   4.928   2.130
 7015SOL    HW221945   5.071   4.931   2.161
 7016SOL     OW21946   3.319   4.826   0.847
 7016SOL    HW121947   3.330   4.907   0.791
 7016SOL    HW221948   3.236   4.834   0.901
 7017SOL     OW21949   4.267   4.971   3.829
 7017SOL    HW121950   4.266   4.888   3.774
 7017SOL    HW221951   4.297   4.950   3.922
 7018SOL     OW21952   4.700   2.721   4.423
 7018SOL    HW121953   4.726   2.793   4.487
 7018SOL    HW221954   4.781   2.666   4.401
 7019SOL     OW21955   4.942   5.202   2.033
 7019SOL    HW121956   4.949   5.104   2.054
 7019SOL    HW221957   4.867   5.242   2.087
 7020SOL     OW21958   0.700   3.388   6.995
 7020SOL    HW121959   0.692   3.290   6.982
 7020SOL    HW221960   0.610   3.431   6.986
 7021SOL     OW21961   1.284   2.506   4.550
 7021SOL    HW121962   1.308   2.592   4.596
 7021SOL    HW221963   1.188   2.508   4.522
 7022SOL     OW21964   4.275   0.862   0.614
 7022SOL    HW121965   4.330   0.937   0.650
 7022SOL    HW221966   4.201   0.900   0.557
 7023SOL     OW21967   0.693   1.776   1.842
 7023SOL    HW121968   0.703   1.715   1.763
 7023SOL    HW221969   0.648   1.728   1.916
 7024SOL     OW21970   4.089   3.198   3.423
 7024SOL    HW121971   4.095   3.128   3.494
 7024SOL    HW221972   4.181   3.221   3.391
 7025SOL     OW21973   3.116   0.105   0.444
 7025SOL    HW121974   3.094   0.063   0.532
 7025SOL    HW221975   3.137   0.202   0.456
 7026SOL     OW21976   3.413   2.176   1.420
 7026SOL    HW121977   3.348   2.247   1.393
 7026SOL    HW221978   3.491   2.177   1.357
 7027SOL     OW21979   2.484   5.251   1.862
 7027SOL    HW121980   2.404   5.229   1.807
 7027SOL    HW221981   2.471   5.218   1.955
 7028SOL     OW21982   2.953   0.492   3.726
 7028SOL    HW121983   2.854   0.505   3.722
 7028SOL    HW221984   2.997   0.553   3.661
 7029SOL     OW21985   3.124   3.619   5.291
 7029SOL    HW121986   3.223   3.606   5.292
 7029SOL    HW221987   3.082   3.553   5.353
 7030SOL     OW21988   6.786   1.376   4.533
 7030SOL    HW121989   6.859   1.377   4.601
 7030SOL    HW221990   6.700   1.351   4.577
 7031SOL     OW21991   4.330   6.141   0.886
 7031SOL    HW121992   4.375   6.060   0.849
 7031SOL    HW221993   4.399   6.202   0.924
 7032SOL     OW21994   3.729   0.152   4.547
 7032SOL    HW121995   3.767   0.199   4.627
 7032SOL    HW221996   3.777   0.066   4.533
 7033SOL     OW21997   1.614   2.446   5.336
 7033SOL    HW121998   1.598   2.357   5.295
 7033SOL    HW221999   1.527   2.492   5.353
 7034SOL     OW22000   6.806   1.732   3.425
 7034SOL    HW122001   6.849   1.684   3.501
 7034SOL    HW222002   6.813   1.676   3.342
 7035SOL     OW22003   2.105   0.195   1.225
 7035SOL    HW122004   2.135   0.116   1.171
 7035SOL    HW222005   2.091   0.273   1.164
 7036SOL     OW22006   0.157   1.275   2.167
 7036SOL    HW122007   0.143   1.321   2.255
 7036SOL    HW222008   0.178   1.343   2.097
 7037SOL     OW22009   0.708   0.223   5.784
 7037SOL    HW122010   0.799   0.230   5.826
 7037SOL    HW222011   0.679   0.312   5.751
 7038SOL     OW22012   2.250   3.820   6.352
 7038SOL    HW122013   2.211   3.833   6.261
 7038SOL    HW222014   2.178   3.825   6.420
 7039SOL     OW22015   0.961   5.501   2.969
 7039SOL    HW122016   0.969   5.593   2.932
 7039SOL    HW222017   0.906   5.445   2.907
 7040SOL     OW22018   4.184   2.122   5.686
 7040SOL    HW122019   4.134   2.065   5.620
 7040SOL    HW222020   4.267   2.157   5.643
 7041SOL     OW22021   1.326   1.033   4.044
 7041SOL    HW122022   1.282   1.119   4.071
 7041SOL    HW222023   1.316   0.967   4.118
 7042SOL     OW22024   4.535   6.173   5.177
 7042SOL    HW122025   4.466   6.106   5.148
 7042SOL    HW222026   4.589   6.202   5.098
 7043SOL     OW22027   2.709   4.677   3.112
 7043SOL    HW122028   2.634   4.735   3.083
 7043SOL    HW222029   2.783   4.680   3.045
 7044SOL     OW22030   5.315   6.194   4.212
 7044SOL    HW122031   5.408   6.228   4.228
 7044SOL    HW222032   5.274   6.245   4.136
 7045SOL     OW22033   6.397   5.677   2.100
 7045SOL    HW122034   6.396   5.593   2.154
 7045SOL    HW222035   6.308   5.690   2.056
 7046SOL     OW22036   2.973   2.217   4.446
 7046SOL    HW122037   2.895   2.259   4.400
 7046SOL    HW222038   2.980   2.121   4.421
 7047SOL     OW22039   0.553   6.828   0.717
 7047SOL    HW122040   0.491   6.882   0.774
 7047SOL    HW222041   0.607   6.767   0.776
 7048SOL     OW22042   6.779   5.367   4.811
 7048SOL    HW122043   6.845   5.321   4.870
 7048SOL    HW222044   6.825   5.441   4.761
 7049SOL     OW22045   3.665   1.589   1.987
 7049SOL    HW122046   3.654   1.667   2.049
 7049SOL    HW222047   3.758   1.591   1.948
 7050SOL     OW22048   4.018   4.639   1.130
 7050SOL    HW122049   4.082   4.695   1.077
 7050SOL    HW222050   4.000   4.554   1.081
 7051SOL     OW22051   0.335   6.670   1.150
 7051SOL    HW122052   0.259   6.622   1.194
 7051SOL    HW222053   0.421   6.637   1.188
 7052SOL     OW22054   5.960   0.120   2.753
 7052SOL    HW122055   6.003   0.157   2.671
 7052SOL    HW222056   6.026   0.064   2.803
 7053SOL     OW22057   1.637   2.884   3.328
 7053SOL    HW122058   1.590   2.845   3.249
 7053SOL    HW222059   1.618   2.828   3.409
 7054SOL     OW22060   6.483   0.221   0.551
 7054SOL    HW122061   6.454   0.245   0.644
 7054SOL    HW222062   6.404   0.191   0.498
 7055SOL     OW22063   2.437   1.101   6.940
 7055SOL    HW122064   2.488   1.165   6.998
 7055SOL    HW222065   2.401   1.026   6.996
 7056SOL     OW22066   6.857   5.332   1.267
 7056SOL    HW122067   6.855   5.265   1.193
 7056SOL    HW222068   6.763   5.352   1.296
 7057SOL     OW22069   3.039   4.964   4.639
 7057SOL    HW122070   3.136   4.943   4.629
 7057SOL    HW222071   3.004   4.922   4.722
 7058SOL     OW22072   5.261   2.446   6.223
 7058SOL    HW122073   5.331   2.385   6.258
 7058SOL    HW222074   5.215   2.492   6.300
 7059SOL     OW22075   1.998   1.006   4.512
 7059SOL    HW122076   2.013   1.100   4.542
 7059SOL    HW222077   2.002   0.945   4.591
 7060SOL     OW22078   3.257   6.847   2.392
 7060SOL    HW122079   3.326   6.874   2.325
 7060SOL    HW222080   3.297   6.848   2.483
 7061SOL     OW22081   0.574   2.019   3.101
 7061SOL    HW122082   0.590   2.115   3.081
 7061SOL    HW222083   0.595   1.964   3.021
 7062SOL     OW22084   4.355   1.969   3.447
 7062SOL    HW122085   4.431   2.027   3.478
 7062SOL    HW222086   4.381   1.921   3.364
 7063SOL     OW22087   0.356   0.232   2.083
 7063SOL    HW122088   0.412   0.184   2.150
 7063SOL    HW222089   0.414   0.270   2.012
 7064SOL     OW22090   4.626   1.954   5.495
 7064SOL    HW122091   4.692   1.886   5.528
 7064SOL    HW222092   4.659   1.993   5.408
 7065SOL     OW22093   3.511   4.244   5.419
 7065SOL    HW122094   3.453   4.174   5.462
 7065SOL    HW222095   3.535   4.215   5.327
 7066SOL     OW22096   3.783   0.681   0.202
 7066SOL    HW122097   3.752   0.681   0.296
 7066SOL    HW222098   3.740   0.607   0.151
 7067SOL     OW22099   1.845   3.009   0.014
 7067SOL    HW122100   1.806   2.936   0.071
 7067SOL    HW222101   1.794   3.093   0.027
 7068SOL     OW22102   5.111   4.088   4.337
 7068SOL    HW122103   5.143   4.068   4.429
 7068SOL    HW222104   5.014   4.113   4.340
 7069SOL     OW22105   6.129   0.436   6.053
 7069SOL    HW122106   6.041   0.441   6.100
 7069SOL    HW222107   6.116   0.394   5.963
 7070SOL     OW22108   0.355   6.516   4.765
 7070SOL    HW122109   0.409   6.506   4.681
 7070SOL    HW222110   0.409   6.483   4.843
 7071SOL     OW22111   5.079   6.515   0.035
 7071SOL    HW122112   5.013   6.442   0.053
 7071SOL    HW222113   5.035   6.584   6.996
 7072SOL     OW22114   0.709   3.837   6.555
 7072SOL    HW122115   0.700   3.919   6.612
 7072SOL    HW222116   0.664   3.853   6.467
 7073SOL     OW22117   5.167   1.018   2.852
 7073SOL    HW122118   5.155   1.102   2.904
 7073SOL    HW222119   5.183   1.039   2.756
 7074SOL     OW22120   6.062   4.381   2.960
 7074SOL    HW122121   6.072   4.340   2.870
 7074SOL    HW222122   5.968   4.369   2.992
 7075SOL     OW22123   3.284   4.961   4.567
 7075SOL    HW122124   3.326   5.027   4.505
 7075SOL    HW222125   3.325   4.871   4.551
 7076SOL     OW22126   5.871   3.615   2.906
 7076SOL    HW122127   5.833   3.523   2.898
 7076SOL    HW222128   5.802   3.683   2.880
 7077SOL     OW22129   2.568   5.055   1.353
 7077SOL    HW122130   2.532   4.988   1.418
 7077SOL    HW222131   2.492   5.106   1.314
 7078SOL     OW22132   5.377   6.591   0.877
 7078SOL    HW122133   5.403   6.561   0.785
 7078SOL    HW222134   5.281   6.618   0.878
 7079SOL     OW22135   0.962   6.884   4.176
 7079SOL    HW122136   0.980   6.829   4.094
 7079SOL    HW222137   0.917   6.828   4.245
 7080SOL     OW22138   3.668   2.086   5.315
 7080SOL    HW122139   3.752   2.061   5.268
 7080SOL    HW222140   3.593   2.092   5.250
 7081SOL     OW22141   1.545   0.948   6.793
 7081SOL    HW122142   1.605   0.982   6.721
 7081SOL    HW222143   1.490   1.024   6.829
 7082SOL     OW22144   6.703   4.068   2.622
 7082SOL    HW122145   6.740   4.159   2.600
 7082SOL    HW222146   6.711   4.052   2.721
 7083SOL     OW22147   6.593   3.395   2.350
 7083SOL    HW122148   6.559   3.455   2.422
 7083SOL    HW222149   6.617   3.449   2.270
 7084SOL     OW22150   0.984   6.140   0.191
 7084SOL    HW122151   1.084   6.138   0.200
 7084SOL    HW222152   0.945   6.190   0.268
 7085SOL     OW22153   0.505   2.936   2.451
 7085SOL    HW122154   0.462   2.933   2.361
 7085SOL    HW222155   0.478   2.856   2.504
 7086SOL     OW22156   5.745   0.770   5.606
 7086SOL    HW122157   5.771   0.675   5.625
 7086SOL    HW222158   5.827   0.828   5.608
 7087SOL     OW22159   5.231   3.329   3.630
 7087SOL    HW122160   5.131   3.336   3.627
 7087SOL    HW222161   5.258   3.236   3.605
 7088SOL     OW22162   5.612   1.905   5.192
 7088SOL    HW122163   5.536   1.920   5.255
 7088SOL    HW222164   5.662   1.822   5.218
 7089SOL     OW22165   3.614   5.565   1.769
 7089SOL    HW122166   3.517   5.583   1.785
 7089SOL    HW222167   3.658   5.648   1.735
 7090SOL     OW22168   3.918   1.977   1.421
 7090SOL    HW122169   4.014   1.950   1.430
 7090SOL    HW222170   3.900   2.007   1.327
 7091SOL     OW22171   0.525   6.777   6.862
 7091SOL    HW122172   0.581   6.851   6.899
 7091SOL    HW222173   0.583   6.715   6.809
 7092SOL     OW22174   4.700   2.411   6.624
 7092SOL    HW122175   4.643   2.342   6.580
 7092SOL    HW222176   4.683   2.500   6.582
 7093SOL     OW22177   3.345   4.439   0.623
 7093SOL    HW122178   3.376   4.350   0.655
 7093SOL    HW222179   3.411   4.509   0.648
 7094SOL     OW22180   2.170   6.648   5.597
 7094SOL    HW122181   2.232   6.715   5.639
 7094SOL    HW222182   2.077   6.684   5.598
 7095SOL     OW22183   2.921   4.231   5.675
 7095SOL    HW122184   2.855   4.243   5.602
 7095SOL    HW222185   2.969   4.144   5.662
 7096SOL     OW22186   0.052   0.555   1.001
 7096SOL    HW122187   0.129   0.504   0.962
 7096SOL    HW222188   0.028   0.630   0.940
 7097SOL     OW22189   5.023   0.692   1.554
 7097SOL    HW122190   4.979   0.722   1.639
 7097SOL    HW222191   5.048   0.772   1.499
 7098SOL     OW22192   0.687   6.896   4.654
 7098SOL    HW122193   0.712   6.988   4.686
 7098SOL    HW222194   0.599   6.869   4.693
 7099SOL     OW22195   2.806   2.275   4.083
 7099SOL    HW122196   2.756   2.357   4.110
 7099SOL    HW222197   2.877   2.299   4.016
 7100SOL     OW22198   6.993   3.487   1.021
 7100SOL    HW122199   0.046   3.474   1.089
 7100SOL    HW222200   0.014   3.485   0.929
 7101SOL     OW22201   2.195   6.478   5.204
 7101SOL    HW122202   2.148   6.470   5.115
 7101SOL    HW222203   2.225   6.387   5.233
 7102SOL     OW22204   5.470   0.680   1.015
 7102SOL    HW122205   5.419   0.647   1.094
 7102SOL    HW222206   5.442   0.773   0.993
 7103SOL     OW22207   4.849   5.011   2.794
 7103SOL    HW122208   4.922   4.955   2.833
 7103SOL    HW222209   4.764   4.993   2.842
 7104SOL     OW22210   5.069   3.634   3.645
 7104SOL    HW122211   5.160   3.677   3.640
 7104SOL    HW222212   4.999   3.705   3.640
 7105SOL     OW22213   3.196   4.017   3.646
 7105SOL    HW122214   3.171   4.092   3.707
 7105SOL    HW222215   3.269   3.963   3.688
 7106SOL     OW22216   3.332   3.198   1.214
 7106SOL    HW122217   3.364   3.141   1.290
 7106SOL    HW222218   3.283   3.277   1.251
 7107SOL     OW22219   4.043   0.602   6.997
 7107SOL    HW122220   4.042   0.533   0.050
 7107SOL    HW222221   4.076   0.689   0.015
 7108SOL     OW22222   3.100   6.959   2.732
 7108SOL    HW122223   3.031   6.972   2.660
 7108SOL    HW222224   3.085   6.870   2.776
 7109SOL     OW22225   1.860   6.858   5.845
 7109SOL    HW122226   1.907   6.840   5.931
 7109SOL    HW222227   1.875   6.782   5.782
 7110SOL     OW22228   3.546   5.993   4.967
 7110SOL    HW122229   3.545   5.931   5.046
 7110SOL    HW222230   3.468   6.055   4.972
 7111SOL     OW22231   0.314   0.608   3.865
 7111SOL    HW122232   0.362   0.582   3.780
 7111SOL    HW222233   0.343   0.700   3.891
 7112SOL     OW22234   2.032   5.200   4.438
 7112SOL    HW122235   2.060   5.294   4.420
 7112SOL    HW222236   1.959   5.175   4.375
 7113SOL     OW22237   3.286   4.801   5.134
 7113SOL    HW122238   3.297   4.756   5.046
 7113SOL    HW222239   3.201   4.854   5.133
 7114SOL     OW22240   4.488   5.144   0.012
 7114SOL    HW122241   4.434   5.226   0.032
 7114SOL    HW222242   4.547   5.162   6.952
 7115SOL     OW22243   6.146   4.576   0.120
 7115SOL    HW122244   6.151   4.493   0.176
 7115SOL    HW222245   6.220   4.639   0.147
 7116SOL     OW22246   6.611   3.387   4.594
 7116SOL    HW122247   6.670   3.431   4.661
 7116SOL    HW222248   6.667   3.346   4.522
 7117SOL     OW22249   6.196   6.947   3.231
 7117SOL    HW122250   6.209   6.910   3.323
 7117SOL    HW222251   6.278   6.931   3.176
 7118SOL     OW22252   4.319   4.447   5.551
 7118SOL    HW122253   4.298   4.513   5.623
 7118SOL    HW222254   4.288   4.484   5.463
 7119SOL     OW22255   4.517   0.203   4.899
 7119SOL    HW122256   4.449   0.235   4.964
 7119SOL    HW222257   4.487   0.224   4.806
 7120SOL     OW22258   5.071   1.228   1.059
 7120SOL    HW122259   5.045   1.311   1.009
 7120SOL    HW222260   5.117   1.254   1.144
 7121SOL     OW22261   0.805   6.090   3.158
 7121SOL    HW122262   0.764   6.110   3.069
 7121SOL    HW222263   0.791   5.993   3.180
 7122SOL     OW22264   2.592   0.113   6.072
 7122SOL    HW122265   2.648   0.058   6.010
 7122SOL    HW222266   2.632   0.204   6.081
 7123SOL     OW22267   5.277   5.239   5.804
 7123SOL    HW122268   5.238   5.279   5.722
 7123SOL    HW222269   5.370   5.274   5.818
 7124SOL     OW22270   0.959   2.099   1.491
 7124SOL    HW122271   0.981   2.160   1.568
 7124SOL    HW222272   0.899   2.147   1.427
 7125SOL     OW22273   1.015   0.283   1.167
 7125SOL    HW122274   1.067   0.323   1.091
 7125SOL    HW222275   1.000   0.186   1.150
 7126SOL     OW22276   4.319   6.067   1.529
 7126SOL    HW122277   4.282   6.103   1.443
 7126SOL    HW222278   4.410   6.029   1.513
 7127SOL     OW22279   3.266   6.247   5.450
 7127SOL    HW122280   3.223   6.326   5.494
 7127SOL    HW222281   3.218   6.226   5.365
 7128SOL     OW22282   3.779   4.266   6.190
 7128SOL    HW122283   3.726   4.190   6.153
 7128SOL    HW222284   3.834   4.308   6.118
 7129SOL     OW22285   0.442   0.048   0.827
 7129SOL    HW122286   0.411   0.112   0.756
 7129SOL    HW222287   0.505   0.095   0.888
 7130SOL     OW22288   3.557   6.298   4.212
 7130SOL    HW122289   3.580   6.300   4.115
 7130SOL    HW222290   3.497   6.376   4.233
 7131SOL     OW22291   3.893   1.143   2.309
 7131SOL    HW122292   3.895   1.225   2.252
 7131SOL    HW222293   3.866   1.064   2.254
 7132SOL     OW22294   5.351   4.105   0.360
 7132SOL    HW122295   5.259   4.067   0.365
 7132SOL    HW222296   5.411   4.057   0.424
 7133SOL     OW22297   3.547   5.889   3.411
 7133SOL    HW122298   3.449   5.877   3.393
 7133SOL    HW222299   3.580   5.811   3.464
 7134SOL     OW22300   5.622   5.416   1.190
 7134SOL    HW122301   5.693   5.465   1.139
 7134SOL    HW222302   5.623   5.320   1.164
 7135SOL     OW22303   2.360   3.012   1.741
 7135SOL    HW122304   2.394   3.104   1.764
 7135SOL    HW222305   2.269   3.019   1.700
 7136SOL     OW22306   2.865   1.377   1.861
 7136SOL    HW122307   2.833   1.437   1.788
 7136SOL    HW222308   2.790   1.357   1.924
 7137SOL     OW22309   2.657   1.805   1.668
 7137SOL    HW122310   2.656   1.905   1.676
 7137SOL    HW222311   2.624   1.779   1.578
 7138SOL     OW22312   1.413   2.367   0.355
 7138SOL    HW122313   1.432   2.453   0.404
 7138SOL    HW222314   1.457   2.291   0.402
 7139SOL     OW22315   6.141   5.896   1.440
 7139SOL    HW122316   6.087   5.829   1.491
 7139SOL    HW222317   6.238   5.876   1.451
 7140SOL     OW22318   6.716   3.256   0.770
 7140SOL    HW122319   6.731   3.312   0.851
 7140SOL    HW222320   6.652   3.182   0.792
 7141SOL     OW22321   3.949   6.968   1.825
 7141SOL    HW122322   3.996   0.030   1.790
 7141SOL    HW222323   3.871   6.947   1.766
 7142SOL     OW22324   2.915   0.448   5.168
 7142SOL    HW122325   2.890   0.354   5.190
 7142SOL    HW222326   3.000   0.449   5.117
 7143SOL     OW22327   2.264   4.542   6.804
 7143SOL    HW122328   2.286   4.571   6.710
 7143SOL    HW222329   2.342   4.494   6.843
 7144SOL     OW22330   6.495   0.406   5.067
 7144SOL    HW122331   6.533   0.479   5.123
 7144SOL    HW222332   6.465   0.443   4.979
 7145SOL     OW22333   4.861   2.288   6.797
 7145SOL    HW122334   4.807   2.338   6.730
 7145SOL    HW222335   4.846   2.190   6.786
 7146SOL     OW22336   1.943   1.158   5.325
 7146SOL    HW122337   1.922   1.077   5.381
 7146SOL    HW222338   1.894   1.152   5.238
 7147SOL     OW22339   5.764   5.311   1.664
 7147SOL    HW122340   5.696   5.343   1.730
 7147SOL    HW222341   5.855   5.341   1.693
 7148SOL     OW22342   0.124   6.285   1.061
 7148SOL    HW122343   0.093   6.296   1.156
 7148SOL    HW222344   0.111   6.372   1.012
 7149SOL     OW22345   6.451   5.064   4.133
 7149SOL    HW122346   6.457   5.125   4.212
 7149SOL    HW222347   6.447   5.119   4.049
 7150SOL     OW22348   4.259   3.501   0.003
 7150SOL    HW122349   4.254   3.584   0.059
 7150SOL    HW222350   4.338   3.447   0.030
 7151SOL     OW22351   3.940   0.765   0.995
 7151SOL    HW122352   3.908   0.751   1.089
 7151SOL    HW222353   3.879   0.830   0.949
 7152SOL     OW22354   6.795   1.530   6.250
 7152SOL    HW122355   6.782   1.459   6.181
 7152SOL    HW222356   6.862   1.500   6.318
 7153SOL     OW22357   3.760   6.396   1.162
 7153SOL    HW122358   3.833   6.365   1.101
 7153SOL    HW222359   3.678   6.341   1.146
 7154SOL     OW22360   4.129   1.616   1.896
 7154SOL    HW122361   4.119   1.558   1.815
 7154SOL    HW222362   4.054   1.683   1.899
 7155SOL     OW22363   2.522   1.421   2.219
 7155SOL    HW122364   2.549   1.363   2.296
 7155SOL    HW222365   2.498   1.512   2.253
 7156SOL     OW22366   6.325   4.054   0.108
 7156SOL    HW122367   6.419   4.045   0.143
 7156SOL    HW222368   6.323   4.024   0.012
 7157SOL     OW22369   6.112   4.560   6.735
 7157SOL    HW122370   6.019   4.596   6.739
 7157SOL    HW222371   6.175   4.623   6.781
 7158SOL     OW22372   4.832   6.962   3.788
 7158SOL    HW122373   4.743   6.960   3.835
 7158SOL    HW222374   4.869   0.036   3.792
 7159SOL     OW22375   0.568   5.892   3.447
 7159SOL    HW122376   0.550   5.982   3.484
 7159SOL    HW222377   0.541   5.822   3.513
 7160SOL     OW22378   6.309   6.448   2.963
 7160SOL    HW122379   6.213   6.427   2.945
 7160SOL    HW222380   6.323   6.463   3.060
 7161SOL     OW22381   4.106   3.444   3.608
 7161SOL    HW122382   4.100   3.358   3.557
 7161SOL    HW222383   4.134   3.518   3.546
 7162SOL     OW22384   6.767   5.115   2.145
 7162SOL    HW122385   6.697   5.046   2.128
 7162SOL    HW222386   6.829   5.119   2.066
 7163SOL     OW22387   1.192   1.306   2.214
 7163SOL    HW122388   1.281   1.318   2.258
 7163SOL    HW222389   1.122   1.355   2.267
 7164SOL     OW22390   1.853   0.965   6.458
 7164SOL    HW122391   1.900   0.878   6.449
 7164SOL    HW222392   1.895   1.032   6.397
 7165SOL     OW22393   6.442   0.640   0.242
 7165SOL    HW122394   6.422   0.578   0.166
 7165SOL    HW222395   6.465   0.587   0.323
 7166SOL     OW22396   5.863   6.321   5.914
 7166SOL    HW122397   5.946   6.342   5.965
 7166SOL    HW222398   5.787   6.307   5.978
 7167SOL     OW22399   5.617   2.335   4.858
 7167SOL    HW122400   5.568   2.322   4.944
 7167SOL    HW222401   5.588   2.421   4.816
 7168SOL     OW22402   2.737   0.849   1.954
 7168SOL    HW122403   2.796   0.837   1.874
 7168SOL    HW222404   2.707   0.944   1.959
 7169SOL     OW22405   1.682   4.343   6.458
 7169SOL    HW122406   1.693   4.359   6.556
 7169SOL    HW222407   1.719   4.421   6.407
 7170SOL     OW22408   4.008   1.326   1.813
 7170SOL    HW122409   4.088   1.295   1.762
 7170SOL    HW222410   3.968   1.407   1.769
 7171SOL     OW22411   6.466   4.432   0.317
 7171SOL    HW122412   6.438   4.370   0.390
 7171SOL    HW222413   6.435   4.525   0.338
 7172SOL     OW22414   0.954   1.372   4.070
 7172SOL    HW122415   0.901   1.384   4.154
 7172SOL    HW222416   0.981   1.461   4.035
 7173SOL     OW22417   4.800   6.092   6.125
 7173SOL    HW122418   4.732   6.149   6.079
 7173SOL    HW222419   4.880   6.082   6.066
 7174SOL     OW22420   6.055   4.821   1.999
 7174SOL    HW122421   6.036   4.908   2.043
 7174SOL    HW222422   5.994   4.809   1.921
 7175SOL     OW22423   5.455   3.813   6.046
 7175SOL    HW122424   5.355   3.822   6.045
 7175SOL    HW222425   5.482   3.733   5.993
 7176SOL     OW22426   0.620   0.708   5.666
 7176SOL    HW122427   0.710   0.690   5.627
 7176SOL    HW222428   0.583   0.624   5.705
 7177SOL     OW22429   1.592   4.791   4.092
 7177SOL    HW122430   1.540   4.770   4.010
 7177SOL    HW222431   1.686   4.758   4.082
 7178SOL     OW22432   1.382   0.951   5.531
 7178SOL    HW122433   1.456   1.005   5.572
 7178SOL    HW222434   1.409   0.855   5.528
 7179SOL     OW22435   3.520   6.092   6.516
 7179SOL    HW122436   3.583   6.015   6.510
 7179SOL    HW222437   3.555   6.159   6.580
 7180SOL     OW22438   1.175   3.892   1.045
 7180SOL    HW122439   1.201   3.843   0.962
 7180SOL    HW222440   1.076   3.906   1.046
 7181SOL     OW22441   2.161   1.358   6.113
 7181SOL    HW122442   2.163   1.276   6.055
 7181SOL    HW222443   2.091   1.421   6.079
 7182SOL     OW22444   1.241   2.935   4.187
 7182SOL    HW122445   1.185   2.981   4.118
 7182SOL    HW222446   1.290   2.859   4.145
 7183SOL     OW22447   0.712   6.393   1.866
 7183SOL    HW122448   0.622   6.428   1.841
 7183SOL    HW222449   0.728   6.306   1.819
 7184SOL     OW22450   6.515   0.103   3.257
 7184SOL    HW122451   6.511   0.020   3.202
 7184SOL    HW222452   6.425   0.146   3.258
 7185SOL     OW22453   4.917   0.750   4.890
 7185SOL    HW122454   4.961   0.840   4.880
 7185SOL    HW222455   4.829   0.751   4.843
 7186SOL     OW22456   0.224   0.039   6.462
 7186SOL    HW122457   0.277   0.123   6.456
 7186SOL    HW222458   0.285   6.981   6.479
 7187SOL     OW22459   3.120   3.071   4.388
 7187SOL    HW122460   3.133   3.025   4.476
 7187SOL    HW222461   3.208   3.107   4.357
 7188SOL     OW22462   4.151   4.373   0.206
 7188SOL    HW122463   4.238   4.326   0.193
 7188SOL    HW222464   4.135   4.436   0.129
 7189SOL     OW22465   6.145   2.461   5.703
 7189SOL    HW122466   6.057   2.450   5.749
 7189SOL    HW222467   6.178   2.372   5.672
 7190SOL     OW22468   5.814   5.497   0.987
 7190SOL    HW122469   5.737   5.474   0.929
 7190SOL    HW222470   5.787   5.567   1.053
 7191SOL     OW22471   0.559   4.322   3.497
 7191SOL    HW122472   0.462   4.345   3.499
 7191SOL    HW222473   0.586   4.281   3.584
 7192SOL     OW22474   1.584   4.671   6.640
 7192SOL    HW122475   1.624   4.588   6.681
 7192SOL    HW222476   1.541   4.726   6.712
 7193SOL     OW22477   2.214   2.484   2.486
 7193SOL    HW122478   2.199   2.437   2.400
 7193SOL    HW222479   2.261   2.571   2.469
 7194SOL     OW22480   2.767   2.572   5.645
 7194SOL    HW122481   2.800   2.661   5.675
 7194SOL    HW222482   2.744   2.516   5.725
 7195SOL     OW22483   0.007   3.392   6.395
 7195SOL    HW122484   0.100   3.357   6.379
 7195SOL    HW222485   6.971   3.379   6.313
 7196SOL     OW22486   2.944   3.708   2.170
 7196SOL    HW122487   2.911   3.750   2.086
 7196SOL    HW222488   3.043   3.696   2.165
 7197SOL     OW22489   2.307   3.613   5.677
 7197SOL    HW122490   2.376   3.541   5.666
 7197SOL    HW222491   2.351   3.696   5.713
 7198SOL     OW22492   6.831   1.036   1.573
 7198SOL    HW122493   6.906   1.092   1.538
 7198SOL    HW222494   6.869   0.962   1.630
 7199SOL     OW22495   0.956   1.094   2.119
 7199SOL    HW122496   0.982   1.022   2.183
 7199SOL    HW222497   1.036   1.120   2.064
 7200SOL     OW22498   1.171   2.457   0.563
 7200SOL    HW122499   1.198   2.365   0.535
 7200SOL    HW222500   1.079   2.477   0.529
 7201SOL     OW22501   5.939   5.608   4.225
 7201SOL    HW122502   6.026   5.598   4.273
 7201SOL    HW222503   5.870   5.641   4.289
 7202SOL     OW22504   4.790   0.446   5.657
 7202SOL    HW122505   4.843   0.444   5.742
 7202SOL    HW222506   4.797   0.537   5.616
 7203SOL     OW22507   0.406   1.761   2.031
 7203SOL    HW122508   0.392   1.780   1.934
 7203SOL    HW222509   0.483   1.698   2.043
 7204SOL     OW22510   6.828   0.727   1.452
 7204SOL    HW122511   6.863   0.800   1.511
 7204SOL    HW222512   6.874   0.641   1.475
 7205SOL     OW22513   2.237   2.177   4.781
 7205SOL    HW122514   2.138   2.182   4.792
 7205SOL    HW222515   2.282   2.189   4.870
 7206SOL     OW22516   2.123   2.621   1.000
 7206SOL    HW122517   2.135   2.627   1.099
 7206SOL    HW222518   2.038   2.669   0.974
 7207SOL     OW22519   1.671   1.828   3.930
 7207SOL    HW122520   1.718   1.750   3.972
 7207SOL    HW222521   1.692   1.830   3.832
 7208SOL     OW22522   2.885   0.637   4.199
 7208SOL    HW122523   2.865   0.711   4.264
 7208SOL    HW222524   2.976   0.650   4.161
 7209SOL     OW22525   3.182   1.510   2.247
 7209SOL    HW122526   3.263   1.547   2.201
 7209SOL    HW222527   3.108   1.501   2.181
 7210SOL     OW22528   2.675   1.279   3.134
 7210SOL    HW122529   2.623   1.228   3.066
 7210SOL    HW222530   2.633   1.266   3.224
 7211SOL     OW22531   3.333   5.416   5.386
 7211SOL    HW122532   3.418   5.467   5.371
 7211SOL    HW222533   3.354   5.320   5.400
 7212SOL     OW22534   5.906   4.592   6.051
 7212SOL    HW122535   5.847   4.660   6.007
 7212SOL    HW222536   5.998   4.596   6.013
 7213SOL     OW22537   3.733   1.135   1.034
 7213SOL    HW122538   3.801   1.174   1.096
 7213SOL    HW222539   3.648   1.188   1.040
 7214SOL     OW22540   6.895   1.524   6.854
 7214SOL    HW122541   6.882   1.460   6.779
 7214SOL    HW222542   6.992   1.533   6.874
 7215SOL     OW22543   6.462   2.645   2.847
 7215SOL    HW122544   6.446   2.680   2.939
 7215SOL    HW222545   6.444   2.547   2.844
 7216SOL     OW22546   2.726   6.342   2.825
 7216SOL    HW122547   2.694   6.411   2.890
 7216SOL    HW222548   2.706   6.372   2.732
 7217SOL     OW22549   1.225   4.188   3.300
 7217SOL    HW122550   1.226   4.251   3.222
 7217SOL    HW222551   1.279   4.107   3.279
 7218SOL     OW22552   6.049   3.918   4.580
 7218SOL    HW122553   6.080   3.950   4.491
 7218SOL    HW222554   6.013   3.995   4.633
 7219SOL     OW22555   3.662   6.124   1.661
 7219SOL    HW122556   3.596   6.164   1.724
 7219SOL    HW222557   3.618   6.105   1.573
 7220SOL     OW22558   6.275   4.833   4.046
 7220SOL    HW122559   6.285   4.774   4.126
 7220SOL    HW222560   6.331   4.916   4.058
 7221SOL     OW22561   3.540   5.631   5.387
 7221SOL    HW122562   3.551   5.713   5.330
 7221SOL    HW222563   3.598   5.638   5.467
 7222SOL     OW22564   6.703   6.965   4.123
 7222SOL    HW122565   6.747   6.977   4.034
 7222SOL    HW222566   6.606   6.991   4.116
 7223SOL     OW22567   1.440   2.227   0.671
 7223SOL    HW122568   1.388   2.204   0.589
 7223SOL    HW222569   1.385   2.284   0.731
 7224SOL     OW22570   4.202   2.258   3.401
 7224SOL    HW122571   4.245   2.172   3.429
 7224SOL    HW222572   4.111   2.265   3.442
 7225SOL     OW22573   1.594   6.946   1.080
 7225SOL    HW122574   1.501   6.913   1.067
 7225SOL    HW222575   1.618   7.009   1.006
 7226SOL     OW22576   6.191   0.286   6.986
 7226SOL    HW122577   6.267   0.321   6.930
 7226SOL    HW222578   6.120   0.251   6.926
 7227SOL     OW22579   3.172   1.082   2.248
 7227SOL    HW122580   3.135   1.138   2.322
 7227SOL    HW222581   3.141   1.118   2.160
 7228SOL     OW22582   0.730   3.055   2.383
 7228SOL    HW122583   0.645   3.029   2.429
 7228SOL    HW222584   0.726   3.028   2.287
 7229SOL     OW22585   6.909   0.300   4.635
 7229SOL    HW122586   6.814   0.273   4.616
 7229SOL    HW222587   6.970   0.250   4.573
 7230SOL     OW22588   2.180   5.207   4.177
 7230SOL    HW122589   2.142   5.264   4.103
 7230SOL    HW222590   2.218   5.266   4.248
 7231SOL     OW22591   4.873   1.358   6.637
 7231SOL    HW122592   4.787   1.388   6.677
 7231SOL    HW222593   4.856   1.284   6.571
 7232SOL     OW22594   5.838   6.579   2.959
 7232SOL    HW122595   5.743   6.549   2.949
 7232SOL    HW222596   5.857   6.597   3.055
 7233SOL     OW22597   6.239   1.020   5.231
 7233SOL    HW122598   6.197   0.949   5.175
 7233SOL    HW222599   6.205   1.110   5.202
 7234SOL     OW22600   5.201   3.804   2.673
 7234SOL    HW122601   5.200   3.870   2.598
 7234SOL    HW222602   5.108   3.792   2.709
 7235SOL     OW22603   6.925   5.825   1.456
 7235SOL    HW122604   6.918   5.854   1.361
 7235SOL    HW222605   7.016   5.788   1.474
 7236SOL     OW22606   2.598   2.442   3.472
 7236SOL    HW122607   2.675   2.420   3.531
 7236SOL    HW222608   2.614   2.403   3.381
 7237SOL     OW22609   5.140   0.425   6.951
 7237SOL    HW122610   5.146   0.519   6.984
 7237SOL    HW222611   5.194   0.365   7.010
 7238SOL     OW22612   4.453   3.221   6.922
 7238SOL    HW122613   4.527   3.202   6.857
 7238SOL    HW222614   4.487   3.282   6.994
 7239SOL     OW22615   0.634   3.766   2.237
 7239SOL    HW122616   0.709   3.702   2.222
 7239SOL    HW222617   0.553   3.717   2.269
 7240SOL     OW22618   6.477   1.446   5.928
 7240SOL    HW122619   6.387   1.436   5.885
 7240SOL    HW222620   6.467   1.495   6.014
 7241SOL     OW22621   2.740   1.149   1.468
 7241SOL    HW122622   2.728   1.112   1.560
 7241SOL    HW222623   2.688   1.093   1.403
 7242SOL     OW22624   0.567   5.113   3.933
 7242SOL    HW122625   0.615   5.190   3.975
 7242SOL    HW222626   0.633   5.052   3.890
 7243SOL     OW22627   6.363   3.919   6.040
 7243SOL    HW122628   6.291   3.987   6.030
 7243SOL    HW222629   6.401   3.924   6.132
 7244SOL     OW22630   0.404   6.319   7.007
 7244SOL    HW122631   0.436   6.413   7.013
 7244SOL    HW222632   0.345   6.308   6.927
 7245SOL     OW22633   1.816   2.629   6.429
 7245SOL    HW122634   1.841   2.668   6.518
 7245SOL    HW222635   1.721   2.653   6.409
 7246SOL     OW22636   2.733   0.114   4.028
 7246SOL    HW122637   2.776   0.193   4.071
 7246SOL    HW222638   2.712   0.135   3.933
 7247SOL     OW22639   2.824   2.680   5.343
 7247SOL    HW122640   2.753   2.728   5.395
 7247SOL    HW222641   2.805   2.582   5.345
 7248SOL     OW22642   3.280   0.478   4.766
 7248SOL    HW122643   3.290   0.383   4.735
 7248SOL    HW222644   3.289   0.539   4.687
 7249SOL     OW22645   3.959   5.160   1.735
 7249SOL    HW122646   3.928   5.238   1.681
 7249SOL    HW222647   3.947   5.181   1.832
 7250SOL     OW22648   5.293   5.764   5.634
 7250SOL    HW122649   5.361   5.794   5.701
 7250SOL    HW222650   5.339   5.716   5.559
 7251SOL     OW22651   0.561   6.060   5.037
 7251SOL    HW122652   0.638   5.999   5.049
 7251SOL    HW222653   0.593   6.155   5.036
 7252SOL     OW22654   3.043   3.980   2.274
 7252SOL    HW122655   3.049   3.974   2.373
 7252SOL    HW222656   3.012   3.892   2.237
 7253SOL     OW22657   1.223   5.751   5.400
 7253SOL    HW122658   1.273   5.836   5.384
 7253SOL    HW222659   1.288   5.677   5.417
 7254SOL     OW22660   5.218   4.700   3.769
 7254SOL    HW122661   5.205   4.724   3.866
 7254SOL    HW222662   5.242   4.603   3.762
 7255SOL     OW22663   5.351   2.958   6.760
 7255SOL    HW122664   5.314   3.047   6.786
 7255SOL    HW222665   5.284   2.908   6.705
 7256SOL     OW22666   3.596   0.020   6.175
 7256SOL    HW122667   3.516   0.053   6.225
 7256SOL    HW222668   3.616   6.945   6.202
 7257SOL     OW22669   0.277   1.640   4.495
 7257SOL    HW122670   0.215   1.636   4.574
 7257SOL    HW222671   0.360   1.588   4.515
 7258SOL     OW22672   5.866   2.241   2.474
 7258SOL    HW122673   5.772   2.270   2.453
 7258SOL    HW222674   5.918   2.319   2.507
 7259SOL     OW22675   0.928   3.695   3.292
 7259SOL    HW122676   0.872   3.771   3.257
 7259SOL    HW222677   0.917   3.688   3.391
 7260SOL     OW22678   5.688   2.561   0.880
 7260SOL    HW122679   5.715   2.465   0.882
 7260SOL    HW222680   5.602   2.572   0.930
 7261SOL     OW22681   0.392   4.066   0.829
 7261SOL    HW122682   0.470   4.111   0.786
 7261SOL    HW222683   0.322   4.134   0.851
 7262SOL     OW22684   5.444   1.812   5.929
 7262SOL    HW122685   5.441   1.884   5.860
 7262SOL    HW222686   5.527   1.757   5.916
 7263SOL     OW22687   0.101   6.742   0.420
 7263SOL    HW122688   0.192   6.738   0.462
 7263SOL    HW222689   0.038   6.685   0.471
 7264SOL     OW22690   5.570   1.655   0.300
 7264SOL    HW122691   5.634   1.626   0.371
 7264SOL    HW222692   5.484   1.603   0.310
 7265SOL     OW22693   5.052   6.221   4.697
 7265SOL    HW122694   5.049   6.316   4.666
 7265SOL    HW222695   4.961   6.192   4.726
 7266SOL     OW22696   6.978   0.715   4.081
 7266SOL    HW122697   6.964   0.678   4.173
 7266SOL    HW222698   7.004   0.641   4.019
 7267SOL     OW22699   6.692   6.251   5.089
 7267SOL    HW122700   6.628   6.297   5.150
 7267SOL    HW222701   6.676   6.281   4.995
 7268SOL     OW22702   6.168   5.881   4.336
 7268SOL    HW122703   6.124   5.950   4.395
 7268SOL    HW222704   6.264   5.907   4.322
 7269SOL     OW22705   2.050   4.988   5.710
 7269SOL    HW122706   2.055   4.950   5.802
 7269SOL    HW222707   2.142   4.995   5.671
 7270SOL     OW22708   0.503   1.487   4.466
 7270SOL    HW122709   0.473   1.392   4.458
 7270SOL    HW222710   0.576   1.493   4.535
 7271SOL     OW22711   0.969   5.102   4.355
 7271SOL    HW122712   0.900   5.081   4.425
 7271SOL    HW222713   1.060   5.075   4.389
 7272SOL     OW22714   5.970   6.268   2.094
 7272SOL    HW122715   5.940   6.360   2.119
 7272SOL    HW222716   6.017   6.227   2.172
 7273SOL     OW22717   6.297   2.707   5.769
 7273SOL    HW122718   6.267   2.613   5.751
 7273SOL    HW222719   6.359   2.708   5.847
 7274SOL     OW22720   0.931   4.200   7.000
 7274SOL    HW122721   0.897   4.249   0.061
 7274SOL    HW222722   0.953   4.265   6.927
 7275SOL     OW22723   6.786   7.007   3.062
 7275SOL    HW122724   6.822   0.034   3.143
 7275SOL    HW222725   6.760   0.055   2.993
 7276SOL     OW22726   5.556   6.843   3.362
 7276SOL    HW122727   5.544   6.783   3.283
 7276SOL    HW222728   5.517   6.933   3.341
 7277SOL     OW22729   4.025   0.931   5.727
 7277SOL    HW122730   3.951   0.985   5.767
 7277SOL    HW222731   4.064   0.980   5.650
 7278SOL     OW22732   3.048   3.998   1.987
 7278SOL    HW122733   3.020   4.078   1.934
 7278SOL    HW222734   3.038   4.018   2.084
 7279SOL     OW22735   3.955   5.958   0.339
 7279SOL    HW122736   3.884   6.027   0.325
 7279SOL    HW222737   4.043   6.003   0.354
 7280SOL     OW22738   5.030   6.518   4.630
 7280SOL    HW122739   5.120   6.536   4.669
 7280SOL    HW222740   5.036   6.519   4.530
 7281SOL     OW22741   3.601   2.234   6.698
 7281SOL    HW122742   3.501   2.234   6.706
 7281SOL    HW222743   3.630   2.156   6.643
 7282SOL     OW22744   5.486   5.199   2.616
 7282SOL    HW122745   5.394   5.182   2.650
 7282SOL    HW222746   5.526   5.277   2.665
 7283SOL     OW22747   2.755   1.231   2.745
 7283SOL    HW122748   2.682   1.164   2.757
 7283SOL    HW222749   2.844   1.186   2.758
 7284SOL     OW22750   6.888   3.982   5.499
 7284SOL    HW122751   6.948   4.028   5.434
 7284SOL    HW222752   6.796   3.976   5.462
 7285SOL     OW22753   4.820   5.213   2.459
 7285SOL    HW122754   4.893   5.222   2.527
 7285SOL    HW222755   4.734   5.192   2.506
 7286SOL     OW22756   2.375   2.158   1.213
 7286SOL    HW122757   2.349   2.171   1.117
 7286SOL    HW222758   2.298   2.182   1.272
 7287SOL     OW22759   6.729   1.185   6.792
 7287SOL    HW122760   6.829   1.182   6.778
 7287SOL    HW222761   6.709   1.228   6.880
 7288SOL     OW22762   3.734   0.767   6.213
 7288SOL    HW122763   3.680   0.693   6.254
 7288SOL    HW222764   3.732   0.757   6.114
 7289SOL     OW22765   6.182   1.340   3.183
 7289SOL    HW122766   6.263   1.354   3.127
 7289SOL    HW222767   6.105   1.317   3.124
 7290SOL     OW22768   2.640   5.618   5.716
 7290SOL    HW122769   2.670   5.680   5.644
 7290SOL    HW222770   2.541   5.625   5.727
 7291SOL     OW22771   2.193   0.084   1.454
 7291SOL    HW122772   2.140   0.121   1.378
 7291SOL    HW222773   2.242   0.002   1.424
 7292SOL     OW22774   3.167   6.643   3.383
 7292SOL    HW122775   3.158   6.620   3.480
 7292SOL    HW222776   3.095   6.599   3.331
 7293SOL     OW22777   1.960   1.437   5.002
 7293SOL    HW122778   1.920   1.520   5.040
 7293SOL    HW222779   1.978   1.450   4.904
 7294SOL     OW22780   2.730   5.139   0.090
 7294SOL    HW122781   2.795   5.068   0.062
 7294SOL    HW222782   2.745   5.222   0.036
 7295SOL     OW22783   0.675   1.935   0.585
 7295SOL    HW122784   0.658   1.930   0.487
 7295SOL    HW222785   0.597   1.898   0.635
 7296SOL     OW22786   2.997   5.093   1.052
 7296SOL    HW122787   3.028   5.170   0.996
 7296SOL    HW222788   3.040   5.098   1.142
 7297SOL     OW22789   3.881   5.920   0.750
 7297SOL    HW122790   3.791   5.942   0.714
 7297SOL    HW222791   3.908   5.988   0.818
 7298SOL     OW22792   5.641   4.599   5.148
 7298SOL    HW122793   5.694   4.517   5.171
 7298SOL    HW222794   5.688   4.680   5.185
 7299SOL     OW22795   0.253   2.356   6.854
 7299SOL    HW122796   0.317   2.350   6.931
 7299SOL    HW222797   0.180   2.289   6.866
 7300SOL     OW22798   5.151   5.463   1.018
 7300SOL    HW122799   5.218   5.484   1.089
 7300SOL    HW222800   5.101   5.546   0.993
 7301SOL     OW22801   6.732   0.273   5.415
 7301SOL    HW122802   6.760   0.192   5.468
 7301SOL    HW222803   6.640   0.300   5.443
 7302SOL     OW22804   0.148   1.558   6.920
 7302SOL    HW122805   0.167   1.514   7.008
 7302SOL    HW222806   0.223   1.620   6.897
 7303SOL     OW22807   4.782   0.550   6.797
 7303SOL    HW122808   4.865   0.596   6.765
 7303SOL    HW222809   4.725   0.614   6.848
 7304SOL     OW22810   3.925   4.164   6.752
 7304SOL    HW122811   3.931   4.100   6.676
 7304SOL    HW222812   4.014   4.207   6.767
 7305SOL     OW22813   5.232   1.830   0.375
 7305SOL    HW122814   5.293   1.755   0.348
 7305SOL    HW222815   5.281   1.916   0.372
 7306SOL     OW22816   5.031   3.545   1.694
 7306SOL    HW122817   4.989   3.515   1.779
 7306SOL    HW222818   5.130   3.551   1.705
 7307SOL     OW22819   2.979   6.708   1.708
 7307SOL    HW122820   2.975   6.627   1.767
 7307SOL    HW222821   2.949   6.788   1.759
 7308SOL     OW22822   6.863   3.621   5.348
 7308SOL    HW122823   6.932   3.593   5.281
 7308SOL    HW222824   6.907   3.653   5.431
 7309SOL     OW22825   4.798   5.656   0.243
 7309SOL    HW122826   4.894   5.681   0.255
 7309SOL    HW222827   4.792   5.569   0.195
 7310SOL     OW22828   2.063   4.857   1.165
 7310SOL    HW122829   2.019   4.911   1.093
 7310SOL    HW222830   2.162   4.869   1.160
 7311SOL     OW22831   3.048   1.912   2.424
 7311SOL    HW122832   3.113   1.920   2.348
 7311SOL    HW222833   2.958   1.942   2.393
 7312SOL     OW22834   6.932   2.288   5.297
 7312SOL    HW122835   6.845   2.238   5.289
 7312SOL    HW222836   6.919   2.367   5.357
 7313SOL     OW22837   4.458   2.656   6.175
 7313SOL    HW122838   4.417   2.629   6.088
 7313SOL    HW222839   4.544   2.702   6.159
 7314SOL     OW22840   6.387   3.826   5.023
 7314SOL    HW122841   6.433   3.869   5.101
 7314SOL    HW222842   6.297   3.793   5.052
 7315SOL     OW22843   6.330   0.257   3.737
 7315SOL    HW122844   6.359   0.352   3.742
 7315SOL    HW222845   6.296   0.228   3.826
 7316SOL     OW22846   3.039   3.417   5.527
 7316SOL    HW122847   2.940   3.403   5.538
 7316SOL    HW222848   3.070   3.486   5.592
 7317SOL     OW22849   4.029   0.702   2.027
 7317SOL    HW122850   4.001   0.607   2.018
 7317SOL    HW222851   3.965   0.761   1.978
 7318SOL     OW22852   1.122   1.361   0.979
 7318SOL    HW122853   1.116   1.262   0.969
 7318SOL    HW222854   1.049   1.405   0.926
 7319SOL     OW22855   6.761   4.651   6.907
 7319SOL    HW122856   6.810   4.644   6.820
 7319SOL    HW222857   6.761   4.561   6.951
 7320SOL     OW22858   6.704   3.486   2.099
 7320SOL    HW122859   6.785   3.440   2.062
 7320SOL    HW222860   6.667   3.550   2.031
 7321SOL     OW22861   2.531   0.792   5.002
 7321SOL    HW122862   2.578   0.874   4.970
 7321SOL    HW222863   2.502   0.805   5.097
 7322SOL     OW22864   1.349   3.453   2.452
 7322SOL    HW122865   1.251   3.464   2.470
 7322SOL    HW222866   1.398   3.537   2.476
 7323SOL     OW22867   1.899   1.833   2.587
 7323SOL    HW122868   1.947   1.887   2.656
 7323SOL    HW222869   1.837   1.893   2.535
 7324SOL     OW22870   5.779   6.922   3.036
 7324SOL    HW122871   5.706   6.945   2.973
 7324SOL    HW222872   5.831   6.845   3.001
 7325SOL     OW22873   3.991   0.493   6.100
 7325SOL    HW122874   3.901   0.449   6.094
 7325SOL    HW222875   4.033   0.495   6.009
 7326SOL     OW22876   2.524   5.917   5.310
 7326SOL    HW122877   2.575   6.002   5.299
 7326SOL    HW222878   2.513   5.873   5.221
 7327SOL     OW22879   6.878   2.671   5.509
 7327SOL    HW122880   6.797   2.730   5.513
 7327SOL    HW222881   6.941   2.707   5.441
 7328SOL     OW22882   3.672   0.254   6.885
 7328SOL    HW122883   3.751   0.262   6.945
 7328SOL    HW222884   3.597   0.310   6.920
 7329SOL     OW22885   4.334   4.331   1.396
 7329SOL    HW122886   4.406   4.372   1.452
 7329SOL    HW222887   4.353   4.234   1.383
 7330SOL     OW22888   3.117   1.738   0.456
 7330SOL    HW122889   3.127   1.691   0.544
 7330SOL    HW222890   3.144   1.676   0.382
 7331SOL     OW22891   5.623   0.914   1.769
 7331SOL    HW122892   5.600   0.918   1.672
 7331SOL    HW222893   5.609   1.005   1.810
 7332SOL     OW22894   2.696   5.710   0.306
 7332SOL    HW122895   2.678   5.648   0.229
 7332SOL    HW222896   2.610   5.752   0.335
 7333SOL     OW22897   0.434   3.593   3.749
 7333SOL    HW122898   0.528   3.580   3.782
 7333SOL    HW222899   0.385   3.653   3.811
 7334SOL     OW22900   4.444   5.961   5.832
 7334SOL    HW122901   4.447   5.863   5.852
 7334SOL    HW222902   4.355   5.997   5.860
 7335SOL     OW22903   1.705   2.682   2.219
 7335SOL    HW122904   1.681   2.777   2.200
 7335SOL    HW222905   1.729   2.672   2.316
 7336SOL     OW22906   1.280   6.585   3.217
 7336SOL    HW122907   1.302   6.675   3.177
 7336SOL    HW222908   1.323   6.577   3.307
 7337SOL     OW22909   1.050   3.051   2.171
 7337SOL    HW122910   1.055   3.098   2.259
 7337SOL    HW222911   1.060   2.952   2.186
 7338SOL     OW22912   6.437   2.526   1.057
 7338SOL    HW122913   6.511   2.459   1.067
 7338SOL    HW222914   6.401   2.549   1.147
 7339SOL     OW22915   5.902   6.380   3.847
 7339SOL    HW122916   5.932   6.394   3.941
 7339SOL    HW222917   5.820   6.322   3.846
 7340SOL     OW22918   2.020   0.353   0.713
 7340SOL    HW122919   1.995   0.261   0.745
 7340SOL    HW222920   1.939   0.398   0.677
 7341SOL     OW22921   6.869   2.301   6.821
 7341SOL    HW122922   6.788   2.267   6.869
 7341SOL    HW222923   6.881   2.398   6.841
 7342SOL     OW22924   6.370   0.132   2.208
 7342SOL    HW122925   6.322   0.216   2.234
 7342SOL    HW222926   6.430   0.103   2.282
 7343SOL     OW22927   4.525   2.952   0.131
 7343SOL    HW122928   4.435   2.988   0.108
 7343SOL    HW222929   4.522   2.852   0.128
 7344SOL     OW22930   1.187   6.673   5.817
 7344SOL    HW122931   1.241   6.657   5.899
 7344SOL    HW222932   1.156   6.586   5.779
 7345SOL     OW22933   3.502   3.454   5.374
 7345SOL    HW122934   3.585   3.504   5.353
 7345SOL    HW222935   3.495   3.373   5.317
 7346SOL     OW22936   3.679   6.459   2.598
 7346SOL    HW122937   3.592   6.499   2.573
 7346SOL    HW222938   3.707   6.493   2.688
 7347SOL     OW22939   0.175   2.213   0.192
 7347SOL    HW122940   0.240   2.137   0.197
 7347SOL    HW222941   0.120   2.204   0.109
 7348SOL     OW22942   1.470   3.621   3.672
 7348SOL    HW122943   1.502   3.611   3.766
 7348SOL    HW222944   1.514   3.552   3.614
 7349SOL     OW22945   4.265   0.169   1.133
 7349SOL    HW122946   4.256   0.188   1.035
 7349SOL    HW222947   4.341   0.223   1.170
 7350SOL     OW22948   2.642   0.604   5.685
 7350SOL    HW122949   2.626   0.514   5.645
 7350SOL    HW222950   2.661   0.670   5.612
 7351SOL     OW22951   4.935   4.884   4.006
 7351SOL    HW122952   4.844   4.891   4.046
 7351SOL    HW222953   4.954   4.965   3.950
 7352SOL     OW22954   0.413   1.884   3.306
 7352SOL    HW122955   0.444   1.793   3.276
 7352SOL    HW222956   0.455   1.954   3.247
 7353SOL     OW22957   6.493   0.611   6.599
 7353SOL    HW122958   6.540   0.524   6.584
 7353SOL    HW222959   6.500   0.637   6.695
 7354SOL     OW22960   1.702   0.503   3.867
 7354SOL    HW122961   1.663   0.541   3.784
 7354SOL    HW222962   1.797   0.476   3.851
 7355SOL     OW22963   0.055   2.132   6.152
 7355SOL    HW122964   0.122   2.058   6.163
 7355SOL    HW222965   6.982   2.096   6.168
 7356SOL     OW22966   3.786   3.539   5.991
 7356SOL    HW122967   3.687   3.546   5.976
 7356SOL    HW222968   3.826   3.631   5.990
 7357SOL     OW22969   4.108   6.044   1.297
 7357SOL    HW122970   4.014   6.015   1.315
 7357SOL    HW222971   4.162   5.965   1.268
 7358SOL     OW22972   6.106   2.621   2.069
 7358SOL    HW122973   6.079   2.666   1.984
 7358SOL    HW222974   6.040   2.548   2.090
 7359SOL     OW22975   4.139   1.558   6.077
 7359SOL    HW122976   4.139   1.476   6.020
 7359SOL    HW222977   4.227   1.605   6.069
 7360SOL     OW22978   2.494   3.412   5.576
 7360SOL    HW122979   2.478   3.368   5.488
 7360SOL    HW222980   2.592   3.432   5.586
 7361SOL     OW22981   5.393   0.469   2.301
 7361SOL    HW122982   5.388   0.380   2.255
 7361SOL    HW222983   5.304   0.514   2.297
 7362SOL     OW22984   4.319   4.869   5.815
 7362SOL    HW122985   4.282   4.960   5.798
 7362SOL    HW222986   4.398   4.875   5.876
 7363SOL     OW22987   4.307   1.207   1.722
 7363SOL    HW122988   4.303   1.289   1.665
 7363SOL    HW222989   4.377   1.218   1.792
 7364SOL     OW22990   4.417   0.026   1.890
 7364SOL    HW122991   4.383   0.074   1.810
 7364SOL    HW222992   4.438   6.950   1.866
 7365SOL     OW22993   6.551   5.545   3.017
 7365SOL    HW122994   6.465   5.495   3.016
 7365SOL    HW222995   6.535   5.640   2.990
 7366SOL     OW22996   2.402   0.275   4.440
 7366SOL    HW122997   2.469   0.200   4.433
 7366SOL    HW222998   2.417   0.324   4.526
 7367SOL     OW22999   4.638   1.460   0.347
 7367SOL    HW123000   4.643   1.549   0.302
 7367SOL    HW223001   4.679   1.390   0.289
 7368SOL     OW23002   3.619   3.508   2.773
 7368SOL    HW123003   3.605   3.410   2.786
 7368SOL    HW223004   3.698   3.521   2.712
 7369SOL     OW23005   4.286   2.690   0.974
 7369SOL    HW123006   4.375   2.647   0.957
 7369SOL    HW223007   4.218   2.648   0.914
 7370SOL     OW23008   2.418   1.870   4.897
 7370SOL    HW123009   2.331   1.871   4.847
 7370SOL    HW223010   2.399   1.862   4.995
 7371SOL     OW23011   3.404   6.970   3.683
 7371SOL    HW123012   3.445   7.016   3.761
 7371SOL    HW223013   3.476   6.932   3.625
 7372SOL     OW23014   3.703   6.653   4.630
 7372SOL    HW123015   3.708   6.731   4.692
 7372SOL    HW223016   3.623   6.598   4.653
 7373SOL     OW23017   4.339   2.107   4.853
 7373SOL    HW123018   4.423   2.083   4.901
 7373SOL    HW223019   4.334   2.206   4.841
 7374SOL     OW23020   1.541   1.856   5.117
 7374SOL    HW123021   1.541   1.764   5.156
 7374SOL    HW223022   1.543   1.923   5.191
 7375SOL     OW23023   2.117   3.174   2.212
 7375SOL    HW123024   2.133   3.157   2.115
 7375SOL    HW223025   2.108   3.272   2.228
 7376SOL     OW23026   1.155   3.589   0.771
 7376SOL    HW123027   1.099   3.669   0.750
 7376SOL    HW223028   1.241   3.618   0.812
 7377SOL     OW23029   3.401   4.977   0.159
 7377SOL    HW123030   3.443   4.887   0.171
 7377SOL    HW223031   3.435   5.039   0.230
 7378SOL     OW23032   1.864   6.765   4.114
 7378SOL    HW123033   1.826   6.729   4.029
 7378SOL    HW223034   1.798   6.827   4.157
 7379SOL     OW23035   3.527   0.236   1.335
 7379SOL    HW123036   3.514   0.303   1.261
 7379SOL    HW223037   3.506   0.280   1.422
 7380SOL     OW23038   6.227   4.234   3.276
 7380SOL    HW123039   6.223   4.283   3.364
 7380SOL    HW223040   6.185   4.144   3.287
 7381SOL     OW23041   4.438   1.803   0.862
 7381SOL    HW123042   4.490   1.845   0.937
 7381SOL    HW223043   4.344   1.835   0.864
 7382SOL     OW23044   6.684   1.632   5.471
 7382SOL    HW123045   6.748   1.556   5.459
 7382SOL    HW223046   6.660   1.640   5.567
 7383SOL     OW23047   1.711   6.511   1.452
 7383SOL    HW123048   1.802   6.491   1.416
 7383SOL    HW223049   1.681   6.600   1.419
 7384SOL     OW23050   0.572   6.650   1.279
 7384SOL    HW123051   0.590   6.728   1.339
 7384SOL    HW223052   0.650   6.587   1.282
 7385SOL     OW23053   3.543   5.229   2.286
 7385SOL    HW123054   3.551   5.137   2.324
 7385SOL    HW223055   3.490   5.286   2.349
 7386SOL     OW23056   6.906   3.436   0.235
 7386SOL    HW123057   6.885   3.381   0.316
 7386SOL    HW223058   6.940   3.376   0.162
 7387SOL     OW23059   6.247   4.688   5.620
 7387SOL    HW123060   6.263   4.651   5.528
 7387SOL    HW223061   6.314   4.649   5.683
 7388SOL     OW23062   1.415   6.333   2.316
 7388SOL    HW123063   1.457   6.423   2.321
 7388SOL    HW223064   1.345   6.333   2.245
 7389SOL     OW23065   0.138   3.173   0.555
 7389SOL    HW123066   0.166   3.083   0.521
 7389SOL    HW223067   0.045   3.167   0.593
 7390SOL     OW23068   2.776   1.798   3.057
 7390SOL    HW123069   2.728   1.721   3.100
 7390SOL    HW223070   2.794   1.777   2.961
 7391SOL     OW23071   4.092   3.136   2.458
 7391SOL    HW123072   4.120   3.116   2.365
 7391SOL    HW223073   4.005   3.184   2.457
 7392SOL     OW23074   4.019   5.853   6.420
 7392SOL    HW123075   3.938   5.878   6.367
 7392SOL    HW223076   4.014   5.895   6.511
 7393SOL     OW23077   6.357   4.629   3.698
 7393SOL    HW123078   6.273   4.670   3.733
 7393SOL    HW223079   6.397   4.571   3.769
 7394SOL     OW23080   2.135   2.415   6.164
 7394SOL    HW123081   2.121   2.377   6.255
 7394SOL    HW223082   2.186   2.501   6.171
 7395SOL     OW23083   2.151   3.545   1.441
 7395SOL    HW123084   2.171   3.623   1.501
 7395SOL    HW223085   2.121   3.579   1.352
 7396SOL     OW23086   2.805   5.317   1.556
 7396SOL    HW123087   2.833   5.231   1.513
 7396SOL    HW223088   2.765   5.297   1.646
 7397SOL     OW23089   5.179   4.369   4.650
 7397SOL    HW123090   5.121   4.293   4.677
 7397SOL    HW223091   5.274   4.338   4.647
 7398SOL     OW23092   1.541   4.300   3.324
 7398SOL    HW123093   1.460   4.298   3.265
 7398SOL    HW223094   1.580   4.208   3.330
 7399SOL     OW23095   5.836   2.815   4.780
 7399SOL    HW123096   5.881   2.734   4.819
 7399SOL    HW223097   5.840   2.889   4.847
 7400SOL     OW23098   5.447   2.323   5.331
 7400SOL    HW123099   5.432   2.290   5.238
 7400SOL    HW223100   5.371   2.382   5.359
 7401SOL     OW23101   1.623   3.230   2.931
 7401SOL    HW123102   1.712   3.193   2.958
 7401SOL    HW223103   1.605   3.206   2.836
 7402SOL     OW23104   2.980   5.253   4.962
 7402SOL    HW123105   3.026   5.261   4.874
 7402SOL    HW223106   2.890   5.296   4.957
 7403SOL     OW23107   1.829   3.061   3.592
 7403SOL    HW123108   1.775   3.137   3.558
 7403SOL    HW223109   1.875   3.015   3.515
 7404SOL     OW23110   2.999   3.792   1.540
 7404SOL    HW123111   2.955   3.746   1.617
 7404SOL    HW223112   2.960   3.883   1.529
 7405SOL     OW23113   3.106   5.505   5.302
 7405SOL    HW123114   3.049   5.423   5.290
 7405SOL    HW223115   3.195   5.478   5.340
 7406SOL     OW23116   0.477   1.307   5.310
 7406SOL    HW123117   0.471   1.405   5.333
 7406SOL    HW223118   0.494   1.255   5.394
 7407SOL     OW23119   0.519   5.963   6.808
 7407SOL    HW123120   0.585   5.910   6.754
 7407SOL    HW223121   0.560   6.049   6.837
 7408SOL     OW23122   3.392   4.098   5.086
 7408SOL    HW123123   3.312   4.147   5.054
 7408SOL    HW223124   3.409   4.019   5.028
 7409SOL     OW23125   5.914   4.009   0.494
 7409SOL    HW123126   5.950   3.944   0.562
 7409SOL    HW223127   5.981   4.021   0.421
 7410SOL     OW23128   0.051   0.224   0.936
 7410SOL    HW123129   0.120   0.260   0.999
 7410SOL    HW223130   7.005   0.297   0.913
 7411SOL     OW23131   1.145   1.949   5.639
 7411SOL    HW123132   1.139   1.941   5.539
 7411SOL    HW223133   1.101   2.034   5.668
 7412SOL     OW23134   3.522   0.057   0.119
 7412SOL    HW123135   3.548   0.152   0.136
 7412SOL    HW223136   3.436   0.037   0.166
 7413SOL     OW23137   4.140   5.356   3.601
 7413SOL    HW123138   4.166   5.262   3.579
 7413SOL    HW223139   4.212   5.399   3.655
 7414SOL     OW23140   2.174   1.968   4.593
 7414SOL    HW123141   2.167   2.008   4.685
 7414SOL    HW223142   2.238   1.891   4.596
 7415SOL     OW23143   3.560   0.065   6.500
 7415SOL    HW123144   3.549   0.068   6.599
 7415SOL    HW223145   3.645   0.112   6.475
 7416SOL     OW23146   0.924   1.797   2.380
 7416SOL    HW123147   0.982   1.874   2.351
 7416SOL    HW223148   0.933   1.784   2.479
 7417SOL     OW23149   0.907   2.353   3.067
 7417SOL    HW123150   0.869   2.341   2.975
 7417SOL    HW223151   0.906   2.449   3.092
 7418SOL     OW23152   1.964   4.613   6.474
 7418SOL    HW123153   1.990   4.563   6.557
 7418SOL    HW223154   1.906   4.691   6.500
 7419SOL     OW23155   6.425   3.983   3.633
 7419SOL    HW123156   6.337   4.012   3.669
 7419SOL    HW223157   6.444   3.889   3.662
 7420SOL     OW23158   7.006   6.509   1.955
 7420SOL    HW123159   6.991   6.423   1.907
 7420SOL    HW223160   6.934   6.574   1.930
 7421SOL     OW23161   4.694   3.486   1.726
 7421SOL    HW123162   4.676   3.388   1.732
 7421SOL    HW223163   4.609   3.535   1.705
 7422SOL     OW23164   5.913   2.850   2.216
 7422SOL    HW123165   5.841   2.919   2.208
 7422SOL    HW223166   5.874   2.765   2.252
 7423SOL     OW23167   5.997   1.893   5.621
 7423SOL    HW123168   5.929   1.841   5.570
 7423SOL    HW223169   6.015   1.848   5.708
 7424SOL     OW23170   0.077   1.067   5.195
 7424SOL    HW123171   0.060   1.032   5.103
 7424SOL    HW223172   0.138   1.004   5.244
 7425SOL     OW23173   5.422   6.960   0.654
 7425SOL    HW123174   5.384   0.018   0.705
 7425SOL    HW223175   5.353   6.889   0.645
 7426SOL     OW23176   3.538   2.655   6.075
 7426SOL    HW123177   3.632   2.671   6.044
 7426SOL    HW223178   3.505   2.736   6.124
 7427SOL     OW23179   3.488   1.247   3.854
 7427SOL    HW123180   3.451   1.326   3.805
 7427SOL    HW223181   3.480   1.263   3.953
 7428SOL     OW23182   4.040   6.803   5.797
 7428SOL    HW123183   3.941   6.817   5.797
 7428SOL    HW223184   4.064   6.733   5.864
 7429SOL     OW23185   1.316   0.027   2.391
 7429SOL    HW123186   1.305   0.097   2.462
 7429SOL    HW223187   1.336   6.958   2.434
 7430SOL     OW23188   0.084   4.861   3.233
 7430SOL    HW123189   0.055   4.766   3.239
 7430SOL    HW223190   0.143   4.883   3.311
 7431SOL     OW23191   1.943   2.413   4.611
 7431SOL    HW123192   2.013   2.342   4.596
 7431SOL    HW223193   1.988   2.502   4.618
 7432SOL     OW23194   2.008   0.236   3.455
 7432SOL    HW123195   2.032   0.205   3.364
 7432SOL    HW223196   2.085   0.286   3.495
 7433SOL     OW23197   3.148   6.561   6.379
 7433SOL    HW123198   3.110   6.590   6.291
 7433SOL    HW223199   3.129   6.464   6.393
 7434SOL     OW23200   4.637   6.222   5.964
 7434SOL    HW123201   4.682   6.311   5.975
 7434SOL    HW223202   4.562   6.230   5.898
 7435SOL     OW23203   4.617   6.637   2.153
 7435SOL    HW123204   4.549   6.702   2.186
 7435SOL    HW223205   4.690   6.686   2.105
 7436SOL     OW23206   4.966   3.461   6.500
 7436SOL    HW123207   4.934   3.429   6.588
 7436SOL    HW223208   5.040   3.528   6.513
 7437SOL     OW23209   3.349   6.064   1.215
 7437SOL    HW123210   3.309   6.153   1.238
 7437SOL    HW223211   3.288   5.991   1.244
 7438SOL     OW23212   2.503   0.972   0.681
 7438SOL    HW123213   2.411   0.995   0.713
 7438SOL    HW223214   2.564   0.962   0.759
 7439SOL     OW23215   1.886   5.214   6.310
 7439SOL    HW123216   1.899   5.277   6.387
 7439SOL    HW223217   1.793   5.224   6.275
 7440SOL     OW23218   4.810   3.014   4.222
 7440SOL    HW123219   4.882   2.995   4.288
 7440SOL    HW223220   4.828   3.102   4.177
 7441SOL     OW23221   5.788   6.104   1.927
 7441SOL    HW123222   5.858   6.139   1.989
 7441SOL    HW223223   5.729   6.180   1.898
 7442SOL     OW23224   5.503   0.839   5.750
 7442SOL    HW123225   5.590   0.825   5.703
 7442SOL    HW223226   5.447   0.757   5.743
 7443SOL     OW23227   0.527   6.199   2.094
 7443SOL    HW123228   0.509   6.173   1.999
 7443SOL    HW223229   0.614   6.159   2.124
 7444SOL     OW23230   0.717   0.427   6.025
 7444SOL    HW123231   0.627   0.393   6.000
 7444SOL    HW223232   0.785   0.355   6.011
 7445SOL     OW23233   4.335   6.239   2.322
 7445SOL    HW123234   4.319   6.209   2.228
 7445SOL    HW223235   4.348   6.339   2.323
 7446SOL     OW23236   4.824   3.441   0.478
 7446SOL    HW123237   4.854   3.451   0.383
 7446SOL    HW223238   4.815   3.344   0.500
 7447SOL     OW23239   1.004   3.928   0.545
 7447SOL    HW123240   0.965   3.912   0.454
 7447SOL    HW223241   1.104   3.918   0.540
 7448SOL     OW23242   4.920   5.704   6.083
 7448SOL    HW123243   4.912   5.648   6.001
 7448SOL    HW223244   5.015   5.706   6.113
 7449SOL     OW23245   0.428   4.223   0.223
 7449SOL    HW123246   0.349   4.252   0.169
 7449SOL    HW223247   0.496   4.296   0.223
 7450SOL     OW23248   5.304   1.874   5.582
 7450SOL    HW123249   5.396   1.890   5.617
 7450SOL    HW223250   5.238   1.878   5.658
 7451SOL     OW23251   5.701   5.265   2.309
 7451SOL    HW123252   5.767   5.304   2.245
 7451SOL    HW223253   5.738   5.182   2.349
 7452SOL     OW23254   5.288   6.434   5.210
 7452SOL    HW123255   5.236   6.468   5.132
 7452SOL    HW223256   5.234   6.444   5.294
 7453SOL     OW23257   4.547   5.421   6.451
 7453SOL    HW123258   4.605   5.352   6.494
 7453SOL    HW223259   4.516   5.389   6.362
 7454SOL     OW23260   3.867   2.009   0.609
 7454SOL    HW123261   3.782   1.984   0.562
 7454SOL    HW223262   3.853   2.003   0.708
 7455SOL     OW23263   5.937   2.870   2.961
 7455SOL    HW123264   5.887   2.904   3.040
 7455SOL    HW223265   5.942   2.770   2.964
 7456SOL     OW23266   2.467   2.429   5.334
 7456SOL    HW123267   2.481   2.498   5.263
 7456SOL    HW223268   2.547   2.425   5.394
 7457SOL     OW23269   2.520   0.207   3.194
 7457SOL    HW123270   2.502   0.136   3.263
 7457SOL    HW223271   2.617   0.234   3.199
 7458SOL     OW23272   0.768   6.563   4.970
 7458SOL    HW123273   0.740   6.649   5.013
 7458SOL    HW223274   0.867   6.553   4.976
 7459SOL     OW23275   6.488   1.025   2.733
 7459SOL    HW123276   6.566   0.981   2.777
 7459SOL    HW223277   6.514   1.058   2.643
 7460SOL     OW23278   1.009   6.844   0.621
 7460SOL    HW123279   0.933   6.799   0.574
 7460SOL    HW223280   1.057   6.778   0.678
 7461SOL     OW23281   0.700   5.660   5.845
 7461SOL    HW123282   0.679   5.563   5.861
 7461SOL    HW223283   0.692   5.680   5.747
 7462SOL     OW23284   1.070   5.438   1.327
 7462SOL    HW123285   1.103   5.382   1.251
 7462SOL    HW223286   1.036   5.377   1.400
 7463SOL     OW23287   4.299   4.583   6.983
 7463SOL    HW123288   4.207   4.543   6.988
 7463SOL    HW223289   4.349   4.544   6.906
 7464SOL     OW23290   6.612   5.153   4.730
 7464SOL    HW123291   6.642   5.105   4.647
 7464SOL    HW223292   6.674   5.228   4.750
 7465SOL     OW23293   2.462   5.056   0.093
 7465SOL    HW123294   2.549   5.105   0.100
 7465SOL    HW223295   2.454   5.015   0.002
 7466SOL     OW23296   1.088   0.118   5.079
 7466SOL    HW123297   1.090   0.192   5.012
 7466SOL    HW223298   1.007   0.062   5.065
 7467SOL     OW23299   0.249   3.137   6.125
 7467SOL    HW123300   0.193   3.215   6.155
 7467SOL    HW223301   0.252   3.068   6.198
 7468SOL     OW23302   5.457   2.720   5.258
 7468SOL    HW123303   5.506   2.664   5.325
 7468SOL    HW223304   5.359   2.714   5.275
 7469SOL     OW23305   6.843   2.377   0.252
 7469SOL    HW123306   6.745   2.391   0.261
 7469SOL    HW223307   6.871   2.300   0.309
 7470SOL     OW23308   5.859   4.021   4.294
 7470SOL    HW123309   5.849   4.062   4.384
 7470SOL    HW223310   5.952   4.034   4.261
 7471SOL     OW23311   5.605   5.638   6.633
 7471SOL    HW123312   5.636   5.564   6.694
 7471SOL    HW223313   5.639   5.622   6.541
 7472SOL     OW23314   6.247   0.066   5.180
 7472SOL    HW123315   6.320   0.122   5.141
 7472SOL    HW223316   6.281   6.991   5.192
 7473SOL     OW23317   4.141   0.181   3.769
 7473SOL    HW123318   4.112   0.198   3.675
 7473SOL    HW223319   4.226   0.231   3.787
 7474SOL     OW23320   5.789   2.088   6.181
 7474SOL    HW123321   5.807   2.082   6.280
 7474SOL    HW223322   5.693   2.070   6.163
 7475SOL     OW23323   4.566   1.950   1.431
 7475SOL    HW123324   4.615   1.956   1.518
 7475SOL    HW223325   4.562   1.854   1.401
 7476SOL     OW23326   2.038   1.390   3.000
 7476SOL    HW123327   2.136   1.402   2.984
 7476SOL    HW223328   2.000   1.473   3.040
 7477SOL     OW23329   0.374   3.639   4.975
 7477SOL    HW123330   0.442   3.692   5.026
 7477SOL    HW223331   0.343   3.693   4.896
 7478SOL     OW23332   6.833   2.106   4.911
 7478SOL    HW123333   6.913   2.155   4.876
 7478SOL    HW223334   6.798   2.045   4.841
 7479SOL     OW23335   5.705   3.629   6.874
 7479SOL    HW123336   5.741   3.673   6.956
 7479SOL    HW223337   5.748   3.539   6.863
 7480SOL     OW23338   3.158   5.075   2.206
 7480SOL    HW123339   3.218   5.029   2.141
 7480SOL    HW223340   3.112   5.008   2.263
 7481SOL     OW23341   6.587   4.336   6.840
 7481SOL    HW123342   6.516   4.326   6.770
 7481SOL    HW223343   6.544   4.367   6.925
 7482SOL     OW23344   3.876   2.148   2.450
 7482SOL    HW123345   3.965   2.187   2.473
 7482SOL    HW223346   3.876   2.121   2.353
 7483SOL     OW23347   4.384   2.462   5.548
 7483SOL    HW123348   4.410   2.388   5.611
 7483SOL    HW223349   4.465   2.516   5.526
 7484SOL     OW23350   2.738   6.598   4.658
 7484SOL    HW123351   2.649   6.581   4.698
 7484SOL    HW223352   2.761   6.695   4.668
 7485SOL     OW23353   3.084   6.771   3.985
 7485SOL    HW123354   2.988   6.745   3.978
 7485SOL    HW223355   3.095   6.840   4.057
 7486SOL     OW23356   0.828   6.222   6.998
 7486SOL    HW123357   0.905   6.259   6.947
 7486SOL    HW223358   0.859   6.192   0.069
 7487SOL     OW23359   4.461   0.063   3.400
 7487SOL    HW123360   4.524   0.028   3.331
 7487SOL    HW223361   4.394   0.123   3.357
 7488SOL     OW23362   0.763   5.902   4.105
 7488SOL    HW123363   0.777   5.895   4.204
 7488SOL    HW223364   0.843   5.866   4.058
 7489SOL     OW23365   6.111   4.307   6.766
 7489SOL    HW123366   6.193   4.250   6.759
 7489SOL    HW223367   6.135   4.402   6.747
 7490SOL     OW23368   0.701   2.083   2.851
 7490SOL    HW123369   0.678   2.049   2.759
 7490SOL    HW223370   0.794   2.119   2.850
 7491SOL     OW23371   4.399   3.189   0.304
 7491SOL    HW123372   4.462   3.149   0.371
 7491SOL    HW223373   4.325   3.235   0.353
 7492SOL     OW23374   1.237   0.501   4.041
 7492SOL    HW123375   1.335   0.482   4.040
 7492SOL    HW223376   1.215   0.572   3.975
 7493SOL     OW23377   6.048   3.767   5.666
 7493SOL    HW123378   6.027   3.826   5.588
 7493SOL    HW223379   5.963   3.729   5.703
 7494SOL     OW23380   6.395   1.250   3.001
 7494SOL    HW123381   6.416   1.184   3.073
 7494SOL    HW223382   6.350   1.204   2.925
 7495SOL     OW23383   2.162   3.169   4.818
 7495SOL    HW123384   2.086   3.110   4.846
 7495SOL    HW223385   2.220   3.119   4.755
 7496SOL     OW23386   6.354   3.680   2.978
 7496SOL    HW123387   6.403   3.767   2.975
 7496SOL    HW223388   6.255   3.697   2.982
 7497SOL     OW23389   0.561   6.317   0.464
 7497SOL    HW123390   0.640   6.256   0.467
 7497SOL    HW223391   0.482   6.268   0.426
 7498SOL     OW23392   3.175   0.557   2.920
 7498SOL    HW123393   3.095   0.570   2.979
 7498SOL    HW223394   3.247   0.511   2.972
 7499SOL     OW23395   3.874   2.118   3.829
 7499SOL    HW123396   3.789   2.164   3.858
 7499SOL    HW223397   3.936   2.111   3.908
 7500SOL     OW23398   4.046   0.241   3.527
 7500SOL    HW123399   4.041   0.329   3.478
 7500SOL    HW223400   3.974   0.180   3.493
 7501SOL     OW23401   6.234   2.586   4.759
 7501SOL    HW123402   6.260   2.652   4.688
 7501SOL    HW223403   6.284   2.606   4.843
 7502SOL     OW23404   3.124   6.863   4.476
 7502SOL    HW123405   3.147   6.931   4.545
 7502SOL    HW223406   3.032   6.828   4.492
 7503SOL     OW23407   2.113   6.041   1.220
 7503SOL    HW123408   2.022   6.005   1.240
 7503SOL    HW223409   2.104   6.123   1.163
 7504SOL     OW23410   6.794   6.374   3.206
 7504SOL    HW123411   6.787   6.279   3.236
 7504SOL    HW223412   6.846   6.426   3.274
 7505SOL     OW23413   6.981   0.420   4.900
 7505SOL    HW123414   6.970   0.327   4.934
 7505SOL    HW223415   6.970   0.421   4.801
 7506SOL     OW23416   3.585   1.874   3.421
 7506SOL    HW123417   3.531   1.957   3.437
 7506SOL    HW223418   3.548   1.825   3.342
 7507SOL     OW23419   6.204   3.452   4.436
 7507SOL    HW123420   6.152   3.502   4.505
 7507SOL    HW223421   6.301   3.471   4.447
 7508SOL     OW23422   1.863   6.193   0.435
 7508SOL    HW123423   1.776   6.236   0.457
 7508SOL    HW223424   1.893   6.222   0.344
 7509SOL     OW23425   5.120   3.977   0.400
 7509SOL    HW123426   5.124   3.969   0.500
 7509SOL    HW223427   5.031   3.947   0.368
 7510SOL     OW23428   3.688   3.838   3.922
 7510SOL    HW123429   3.733   3.903   3.983
 7510SOL    HW223430   3.591   3.862   3.912
 7511SOL     OW23431   3.230   5.718   2.726
 7511SOL    HW123432   3.183   5.730   2.814
 7511SOL    HW223433   3.308   5.657   2.738
 7512SOL     OW23434   3.405   6.645   6.443
 7512SOL    HW123435   3.320   6.613   6.400
 7512SOL    HW223436   3.469   6.568   6.451
 7513SOL     OW23437   1.723   2.112   3.608
 7513SOL    HW123438   1.710   2.045   3.681
 7513SOL    HW223439   1.801   2.085   3.552
 7514SOL     OW23440   2.487   4.465   3.218
 7514SOL    HW123441   2.483   4.422   3.308
 7514SOL    HW223442   2.572   4.518   3.210
 7515SOL     OW23443   6.844   3.804   5.077
 7515SOL    HW123444   6.757   3.796   5.126
 7515SOL    HW223445   6.891   3.716   5.078
 7516SOL     OW23446   1.158   4.902   5.360
 7516SOL    HW123447   1.220   4.845   5.305
 7516SOL    HW223448   1.068   4.903   5.318
 7517SOL     OW23449   0.757   1.785   0.026
 7517SOL    HW123450   0.848   1.812   7.014
 7517SOL    HW223451   0.693   1.861   0.012
 7518SOL     OW23452   4.661   2.787   4.160
 7518SOL    HW123453   4.632   2.746   4.246
 7518SOL    HW223454   4.684   2.884   4.175
 7519SOL     OW23455   4.305   6.860   5.025
 7519SOL    HW123456   4.216   6.905   5.036
 7519SOL    HW223457   4.351   6.897   4.943
 7520SOL     OW23458   1.902   2.025   2.242
 7520SOL    HW123459   1.989   2.037   2.289
 7520SOL    HW223460   1.888   2.101   2.179
 7521SOL     OW23461   4.940   1.067   4.575
 7521SOL    HW123462   5.005   0.991   4.573
 7521SOL    HW223463   4.961   1.131   4.501
 7522SOL     OW23464   1.353   5.857   3.089
 7522SOL    HW123465   1.416   5.803   3.033
 7522SOL    HW223466   1.349   5.819   3.181
 7523SOL     OW23467   5.592   1.353   6.533
 7523SOL    HW123468   5.598   1.269   6.480
 7523SOL    HW223469   5.670   1.360   6.595
 7524SOL     OW23470   0.184   2.446   4.429
 7524SOL    HW123471   0.132   2.370   4.467
 7524SOL    HW223472   0.252   2.412   4.365
 7525SOL     OW23473   4.780   6.531   6.413
 7525SOL    HW123474   4.686   6.497   6.417
 7525SOL    HW223475   4.826   6.493   6.333
 7526SOL     OW23476   2.129   3.735   2.075
 7526SOL    HW123477   2.029   3.724   2.078
 7526SOL    HW223478   2.169   3.654   2.031
 7527SOL     OW23479   4.145   6.120   3.503
 7527SOL    HW123480   4.057   6.161   3.476
 7527SOL    HW223481   4.172   6.051   3.436
 7528SOL     OW23482   6.095   2.940   6.443
 7528SOL    HW123483   6.077   2.920   6.347
 7528SOL    HW223484   6.190   2.966   6.456
 7529SOL     OW23485   5.875   2.122   4.078
 7529SOL    HW123486   5.921   2.049   4.027
 7529SOL    HW223487   5.932   2.149   4.156
 7530SOL     OW23488   6.790   1.491   2.024
 7530SOL    HW123489   6.703   1.501   1.976
 7530SOL    HW223490   6.827   1.399   2.008
 7531SOL     OW23491   4.445   2.146   3.834
 7531SOL    HW123492   4.350   2.149   3.802
 7531SOL    HW223493   4.447   2.166   3.932
 7532SOL     OW23494   4.292   6.081   6.824
 7532SOL    HW123495   4.198   6.111   6.809
 7532SOL    HW223496   4.305   6.060   6.921
 7533SOL     OW23497   4.570   3.199   1.672
 7533SOL    HW123498   4.574   3.152   1.760
 7533SOL    HW223499   4.476   3.198   1.638
 7534SOL     OW23500   4.658   0.242   3.980
 7534SOL    HW123501   4.753   0.252   3.952
 7534SOL    HW223502   4.628   0.148   3.963
 7535SOL     OW23503   1.088   6.017   4.360
 7535SOL    HW123504   1.136   6.061   4.436
 7535SOL    HW223505   1.145   5.945   4.321
 7536SOL     OW23506   4.722   5.923   4.190
 7536SOL    HW123507   4.740   5.966   4.101
 7536SOL    HW223508   4.685   5.991   4.253
 7537SOL     OW23509   2.616   5.830   2.081
 7537SOL    HW123510   2.650   5.916   2.043
 7537SOL    HW223511   2.681   5.757   2.062
 7538SOL     OW23512   0.659   3.354   1.682
 7538SOL    HW123513   0.749   3.367   1.640
 7538SOL    HW223514   0.661   3.385   1.777
 7539SOL     OW23515   0.343   5.615   3.448
 7539SOL    HW123516   0.405   5.575   3.380
 7539SOL    HW223517   0.305   5.542   3.505
 7540SOL     OW23518   5.679   5.870   4.159
 7540SOL    HW123519   5.580   5.880   4.170
 7540SOL    HW223520   5.709   5.923   4.080
 7541SOL     OW23521   0.989   3.588   6.367
 7541SOL    HW123522   1.002   3.683   6.395
 7541SOL    HW223523   1.066   3.533   6.399
 7542SOL     OW23524   6.336   5.944   5.986
 7542SOL    HW123525   6.368   5.896   5.904
 7542SOL    HW223526   6.271   5.886   6.035
 7543SOL     OW23527   2.636   0.297   5.301
 7543SOL    HW123528   2.723   0.253   5.322
 7543SOL    HW223529   2.650   0.368   5.232
 7544SOL     OW23530   6.784   3.215   3.972
 7544SOL    HW123531   6.787   3.245   4.068
 7544SOL    HW223532   6.755   3.291   3.914
 7545SOL     OW23533   0.701   5.606   6.941
 7545SOL    HW123534   0.736   5.531   6.885
 7545SOL    HW223535   0.657   5.570   0.003
 7546SOL     OW23536   3.230   2.984   1.882
 7546SOL    HW123537   3.317   2.946   1.913
 7546SOL    HW223538   3.198   2.933   1.802
 7547SOL     OW23539   4.472   0.570   1.590
 7547SOL    HW123540   4.566   0.587   1.560
 7547SOL    HW223541   4.434   0.494   1.538
 7548SOL     OW23542   4.616   2.301   6.039
 7548SOL    HW123543   4.538   2.268   6.093
 7548SOL    HW223544   4.588   2.380   5.985
 7549SOL     OW23545   4.542   2.743   5.621
 7549SOL    HW123546   4.587   2.832   5.628
 7549SOL    HW223547   4.457   2.753   5.570
 7550SOL     OW23548   1.634   3.946   3.738
 7550SOL    HW123549   1.679   3.992   3.661
 7550SOL    HW223550   1.675   3.856   3.752
 7551SOL     OW23551   5.397   1.946   5.354
 7551SOL    HW123552   5.379   1.924   5.450
 7551SOL    HW223553   5.309   1.960   5.307
 7552SOL     OW23554   2.001   6.275   4.664
 7552SOL    HW123555   2.073   6.294   4.598
 7552SOL    HW223556   1.916   6.319   4.634
 7553SOL     OW23557   5.420   6.458   6.587
 7553SOL    HW123558   5.451   6.526   6.654
 7553SOL    HW223559   5.404   6.370   6.633
 7554SOL     OW23560   5.319   1.553   0.406
 7554SOL    HW123561   5.366   1.468   0.430
 7554SOL    HW223562   5.279   1.593   0.489
 7555SOL     OW23563   3.000   6.057   6.736
 7555SOL    HW123564   3.094   6.049   6.770
 7555SOL    HW223565   2.980   6.152   6.716
 7556SOL     OW23566   0.634   0.702   0.787
 7556SOL    HW123567   0.611   0.691   0.690
 7556SOL    HW223568   0.719   0.654   0.807
 7557SOL     OW23569   4.922   0.428   0.345
 7557SOL    HW123570   4.957   0.371   0.271
 7557SOL    HW223571   4.997   0.485   0.380
 7558SOL     OW23572   1.389   2.708   4.083
 7558SOL    HW123573   1.419   2.727   3.989
 7558SOL    HW223574   1.443   2.632   4.119
 7559SOL     OW23575   3.701   2.030   4.799
 7559SOL    HW123576   3.651   2.045   4.884
 7559SOL    HW223577   3.777   1.967   4.815
 7560SOL     OW23578   0.016   0.498   6.574
 7560SOL    HW123579   0.012   0.583   6.521
 7560SOL    HW223580   7.008   0.516   6.668
 7561SOL     OW23581   4.984   1.997   5.518
 7561SOL    HW123582   4.981   2.081   5.573
 7561SOL    HW223583   5.033   1.926   5.568
 7562SOL     OW23584   1.302   5.157   4.737
 7562SOL    HW123585   1.262   5.235   4.688
 7562SOL    HW223586   1.259   5.150   4.827
 7563SOL     OW23587   3.512   6.281   1.824
 7563SOL    HW123588   3.445   6.354   1.834
 7563SOL    HW223589   3.598   6.309   1.866
 7564SOL     OW23590   4.264   1.218   4.142
 7564SOL    HW123591   4.261   1.311   4.180
 7564SOL    HW223592   4.353   1.203   4.098
 7565SOL     OW23593   5.325   3.673   6.247
 7565SOL    HW123594   5.421   3.645   6.243
 7565SOL    HW223595   5.275   3.632   6.171
 7566SOL     OW23596   4.848   4.698   1.651
 7566SOL    HW123597   4.763   4.700   1.599
 7566SOL    HW223598   4.828   4.704   1.748
 7567SOL     OW23599   0.481   0.625   4.535
 7567SOL    HW123600   0.410   0.679   4.579
 7567SOL    HW223601   0.439   0.564   4.467
 7568SOL     OW23602   6.211   5.653   1.035
 7568SOL    HW123603   6.155   5.584   1.081
 7568SOL    HW223604   6.225   5.626   0.940
 7569SOL     OW23605   4.128   3.998   6.483
 7569SOL    HW123606   4.068   3.929   6.524
 7569SOL    HW223607   4.220   3.961   6.474
 7570SOL     OW23608   6.558   2.896   3.184
 7570SOL    HW123609   6.502   2.830   3.133
 7570SOL    HW223610   6.529   2.989   3.162
 7571SOL     OW23611   5.300   3.415   2.281
 7571SOL    HW123612   5.382   3.358   2.286
 7571SOL    HW223613   5.267   3.434   2.374
 7572SOL     OW23614   5.035   6.531   2.826
 7572SOL    HW123615   5.055   6.551   2.730
 7572SOL    HW223616   4.991   6.611   2.868
 7573SOL     OW23617   5.693   6.400   5.719
 7573SOL    HW123618   5.684   6.356   5.630
 7573SOL    HW223619   5.779   6.372   5.762
 7574SOL     OW23620   6.568   1.075   4.472
 7574SOL    HW123621   6.663   1.071   4.443
 7574SOL    HW223622   6.554   1.013   4.550
 7575SOL     OW23623   6.667   6.437   1.018
 7575SOL    HW123624   6.701   6.531   1.023
 7575SOL    HW223625   6.660   6.399   1.111
 7576SOL     OW23626   5.709   2.826   0.817
 7576SOL    HW123627   5.676   2.840   0.724
 7576SOL    HW223628   5.681   2.735   0.849
 7577SOL     OW23629   0.697   6.978   6.998
 7577SOL    HW123630   0.700   0.038   6.936
 7577SOL    HW223631   0.776   6.980   0.040
 7578SOL     OW23632   7.012   5.982   3.390
 7578SOL    HW123633   0.061   5.910   3.375
 7578SOL    HW223634   6.936   5.970   3.327
 7579SOL     OW23635   6.668   1.367   0.659
 7579SOL    HW123636   6.697   1.300   0.728
 7579SOL    HW223637   6.666   1.324   0.569
 7580SOL     OW23638   1.894   4.386   3.555
 7580SOL    HW123639   1.899   4.330   3.637
 7580SOL    HW223640   1.805   4.432   3.551
 7581SOL     OW23641   0.182   0.923   1.516
 7581SOL    HW123642   0.184   0.846   1.452
 7581SOL    HW223643   0.193   0.888   1.610
 7582SOL     OW23644   3.355   1.829   4.084
 7582SOL    HW123645   3.448   1.793   4.082
 7582SOL    HW223646   3.330   1.854   4.177
 7583SOL     OW23647   4.891   3.428   3.798
 7583SOL    HW123648   4.976   3.479   3.805
 7583SOL    HW223649   4.822   3.471   3.856
 7584SOL     OW23650   0.943   1.356   3.179
 7584SOL    HW123651   0.954   1.278   3.118
 7584SOL    HW223652   0.917   1.437   3.125
 7585SOL     OW23653   1.245   2.297   6.601
 7585SOL    HW123654   1.185   2.218   6.614
 7585SOL    HW223655   1.253   2.347   6.687
 7586SOL     OW23656   1.405   1.278   2.374
 7586SOL    HW123657   1.471   1.231   2.316
 7586SOL    HW223658   1.451   1.319   2.452
 7587SOL     OW23659   3.501   0.584   0.882
 7587SOL    HW123660   3.439   0.508   0.903
 7587SOL    HW223661   3.496   0.652   0.955
 7588SOL     OW23662   1.375   2.465   4.229
 7588SOL    HW123663   1.298   2.433   4.285
 7588SOL    HW223664   1.380   2.411   4.145
 7589SOL     OW23665   0.418   1.297   2.926
 7589SOL    HW123666   0.390   1.260   3.014
 7589SOL    HW223667   0.349   1.362   2.893
 7590SOL     OW23668   6.857   1.891   0.235
 7590SOL    HW123669   6.797   1.954   0.285
 7590SOL    HW223670   6.816   1.799   0.235
 7591SOL     OW23671   4.242   3.511   6.470
 7591SOL    HW123672   4.320   3.535   6.412
 7591SOL    HW223673   4.269   3.440   6.535
 7592SOL     OW23674   6.671   6.328   4.817
 7592SOL    HW123675   6.579   6.364   4.798
 7592SOL    HW223676   6.737   6.402   4.813
 7593SOL     OW23677   0.405   1.250   6.018
 7593SOL    HW123678   0.461   1.323   5.978
 7593SOL    HW223679   0.317   1.245   5.970
 7594SOL     OW23680   0.294   4.236   1.438
 7594SOL    HW123681   0.293   4.249   1.537
 7594SOL    HW223682   0.248   4.151   1.415
 7595SOL     OW23683   6.025   2.930   6.159
 7595SOL    HW123684   5.962   3.008   6.159
 7595SOL    HW223685   6.049   2.907   6.065
 7596SOL     OW23686   3.099   0.801   5.075
 7596SOL    HW123687   3.105   0.834   4.981
 7596SOL    HW223688   3.028   0.852   5.124
 7597SOL     OW23689   1.843   5.168   2.047
 7597SOL    HW123690   1.942   5.182   2.058
 7597SOL    HW223691   1.826   5.086   1.993
 7598SOL     OW23692   6.196   0.749   2.961
 7598SOL    HW123693   6.105   0.719   2.932
 7598SOL    HW223694   6.206   0.732   3.059
 7599SOL     OW23695   4.216   3.616   0.836
 7599SOL    HW123696   4.208   3.527   0.881
 7599SOL    HW223697   4.125   3.648   0.810
 7600SOL     OW23698   1.050   1.602   3.981
 7600SOL    HW123699   1.063   1.671   4.052
 7600SOL    HW223700   1.127   1.604   3.917
 7601SOL     OW23701   3.897   5.783   1.803
 7601SOL    HW123702   3.879   5.685   1.795
 7601SOL    HW223703   3.994   5.801   1.789
 7602SOL     OW23704   0.134   1.692   0.613
 7602SOL    HW123705   0.121   1.774   0.558
 7602SOL    HW223706   0.058   1.683   0.678
 7603SOL     OW23707   2.347   0.365   6.183
 7603SOL    HW123708   2.295   0.426   6.124
 7603SOL    HW223709   2.445   0.381   6.170
 7604SOL     OW23710   1.139   2.336   4.926
 7604SOL    HW123711   1.209   2.277   4.967
 7604SOL    HW223712   1.084   2.378   4.998
 7605SOL     OW23713   3.062   0.091   6.981
 7605SOL    HW123714   3.068   0.161   6.910
 7605SOL    HW223715   3.005   0.015   6.948
 7606SOL     OW23716   6.270   1.277   3.847
 7606SOL    HW123717   6.270   1.333   3.930
 7606SOL    HW223718   6.189   1.299   3.792
 7607SOL     OW23719   3.287   6.224   6.033
 7607SOL    HW123720   3.223   6.211   5.957
 7607SOL    HW223721   3.336   6.311   6.021
 7608SOL     OW23722   5.891   2.632   6.018
 7608SOL    HW123723   5.925   2.608   6.109
 7608SOL    HW223724   5.864   2.728   6.017
 7609SOL     OW23725   0.521   2.514   4.399
 7609SOL    HW123726   0.480   2.541   4.486
 7609SOL    HW223727   0.451   2.476   4.339
 7610SOL     OW23728   3.329   4.667   6.390
 7610SOL    HW123729   3.243   4.668   6.440
 7610SOL    HW223730   3.325   4.599   6.317
 7611SOL     OW23731   4.769   3.189   1.464
 7611SOL    HW123732   4.731   3.200   1.556
 7611SOL    HW223733   4.787   3.092   1.447
 7612SOL     OW23734   3.006   1.909   3.182
 7612SOL    HW123735   3.097   1.875   3.158
 7612SOL    HW223736   2.936   1.844   3.150
 7613SOL     OW23737   1.213   1.760   2.407
 7613SOL    HW123738   1.173   1.850   2.424
 7613SOL    HW223739   1.238   1.719   2.494
 7614SOL     OW23740   4.804   3.205   0.694
 7614SOL    HW123741   4.819   3.130   0.630
 7614SOL    HW223742   4.847   3.183   0.782
 7615SOL     OW23743   5.238   3.083   4.706
 7615SOL    HW123744   5.313   3.039   4.756
 7615SOL    HW223745   5.158   3.090   4.766
 7616SOL     OW23746   6.057   6.691   3.588
 7616SOL    HW123747   5.995   6.748   3.642
 7616SOL    HW223748   6.056   6.597   3.624
 7617SOL     OW23749   4.802   5.418   3.149
 7617SOL    HW123750   4.857   5.501   3.145
 7617SOL    HW223751   4.855   5.340   3.115
 7618SOL     OW23752   2.930   2.438   0.134
 7618SOL    HW123753   2.842   2.477   0.160
 7618SOL    HW223754   2.997   2.457   0.206
 7619SOL     OW23755   0.887   2.289   4.108
 7619SOL    HW123756   0.892   2.361   4.176
 7619SOL    HW223757   0.792   2.260   4.095
 7620SOL     OW23758   3.788   4.076   1.165
 7620SOL    HW123759   3.826   4.091   1.256
 7620SOL    HW223760   3.729   3.996   1.166
 7621SOL     OW23761   0.625   5.594   1.015
 7621SOL    HW123762   0.534   5.623   0.986
 7621SOL    HW223763   0.616   5.516   1.078
 7622SOL     OW23764   4.016   4.749   0.724
 7622SOL    HW123765   4.079   4.675   0.748
 7622SOL    HW223766   4.041   4.787   0.636
 7623SOL     OW23767   4.704   5.118   1.418
 7623SOL    HW123768   4.803   5.106   1.422
 7623SOL    HW223769   4.661   5.033   1.390
 7624SOL     OW23770   0.468   2.797   1.959
 7624SOL    HW123771   0.530   2.721   1.944
 7624SOL    HW223772   0.394   2.794   1.893
 7625SOL     OW23773   5.247   2.449   0.155
 7625SOL    HW123774   5.190   2.491   0.225
 7625SOL    HW223775   5.338   2.429   0.193
 7626SOL     OW23776   5.411   0.240   5.092
 7626SOL    HW123777   5.388   0.252   4.995
 7626SOL    HW223778   5.356   0.303   5.147
 7627SOL     OW23779   2.838   1.623   0.141
 7627SOL    HW123780   2.814   1.655   0.050
 7627SOL    HW223781   2.843   1.701   0.204
 7628SOL     OW23782   3.733   2.652   0.540
 7628SOL    HW123783   3.663   2.616   0.478
 7628SOL    HW223784   3.820   2.607   0.520
 7629SOL     OW23785   5.815   3.201   4.188
 7629SOL    HW123786   5.909   3.230   4.203
 7629SOL    HW223787   5.798   3.192   4.090
 7630SOL     OW23788   1.734   0.385   4.969
 7630SOL    HW123789   1.721   0.342   5.058
 7630SOL    HW223790   1.765   0.317   4.903
 7631SOL     OW23791   1.973   0.147   5.251
 7631SOL    HW123792   2.046   0.190   5.197
 7631SOL    HW223793   1.897   0.211   5.261
 7632SOL     OW23794   4.601   5.679   0.868
 7632SOL    HW123795   4.554   5.646   0.950
 7632SOL    HW223796   4.674   5.615   0.842
 7633SOL     OW23797   6.220   0.850   1.195
 7633SOL    HW123798   6.175   0.792   1.126
 7633SOL    HW223799   6.180   0.942   1.191
 7634SOL     OW23800   1.190   2.154   0.520
 7634SOL    HW123801   1.222   2.115   0.433
 7634SOL    HW223802   1.094   2.131   0.533
 7635SOL     OW23803   2.825   5.235   5.900
 7635SOL    HW123804   2.847   5.148   5.856
 7635SOL    HW223805   2.790   5.299   5.832
 7636SOL     OW23806   0.711   4.156   4.948
 7636SOL    HW123807   0.658   4.121   5.026
 7636SOL    HW223808   0.792   4.099   4.935
 7637SOL     OW23809   0.378   6.184   4.535
 7637SOL    HW123810   0.303   6.220   4.590
 7637SOL    HW223811   0.464   6.223   4.567
 7638SOL     OW23812   1.119   5.594   1.709
 7638SOL    HW123813   1.048   5.662   1.691
 7638SOL    HW223814   1.205   5.624   1.667
 7639SOL     OW23815   1.039   1.315   0.354
 7639SOL    HW123816   0.977   1.268   0.291
 7639SOL    HW223817   1.126   1.333   0.308
 7640SOL     OW23818   3.184   1.168   6.652
 7640SOL    HW123819   3.091   1.197   6.630
 7640SOL    HW223820   3.196   1.165   6.751
 7641SOL     OW23821   7.009   4.115   3.043
 7641SOL    HW123822   0.022   4.158   3.127
 7641SOL    HW223823   0.054   4.043   3.016
 7642SOL     OW23824   6.025   1.553   3.311
 7642SOL    HW123825   6.078   1.635   3.330
 7642SOL    HW223826   6.085   1.482   3.273
 7643SOL     OW23827   4.885   2.942   2.979
 7643SOL    HW123828   4.932   3.020   3.022
 7643SOL    HW223829   4.851   2.881   3.050
 7644SOL     OW23830   5.045   3.249   1.564
 7644SOL    HW123831   5.065   3.340   1.600
 7644SOL    HW223832   4.956   3.249   1.519
 7645SOL     OW23833   3.407   3.731   6.356
 7645SOL    HW123834   3.384   3.760   6.263
 7645SOL    HW223835   3.420   3.811   6.413
 7646SOL     OW23836   0.856   2.333   2.806
 7646SOL    HW123837   0.903   2.291   2.728
 7646SOL    HW223838   0.763   2.357   2.779
 7647SOL     OW23839   0.043   2.937   5.217
 7647SOL    HW123840   6.991   2.985   5.269
 7647SOL    HW223841   0.132   2.976   5.239
 7648SOL     OW23842   2.505   2.118   2.928
 7648SOL    HW123843   2.577   2.102   2.995
 7648SOL    HW223844   2.539   2.178   2.856
 7649SOL     OW23845   6.514   0.673   5.169
 7649SOL    HW123846   6.502   0.735   5.092
 7649SOL    HW223847   6.555   0.722   5.246
 7650SOL     OW23848   4.179   0.984   1.710
 7650SOL    HW123849   4.161   0.958   1.615
 7650SOL    HW223850   4.224   1.073   1.712
 7651SOL     OW23851   2.551   4.967   4.895
 7651SOL    HW123852   2.637   4.934   4.935
 7651SOL    HW223853   2.484   4.893   4.893
 7652SOL     OW23854   5.816   1.402   4.661
 7652SOL    HW123855   5.726   1.362   4.675
 7652SOL    HW223856   5.830   1.476   4.727
 7653SOL     OW23857   0.574   2.010   6.987
 7653SOL    HW123858   0.536   1.946   6.920
 7653SOL    HW223859   0.578   2.101   6.947
 7654SOL     OW23860   6.002   3.246   5.577
 7654SOL    HW123861   5.987   3.219   5.482
 7654SOL    HW223862   6.092   3.214   5.607
 7655SOL     OW23863   2.755   0.452   3.361
 7655SOL    HW123864   2.683   0.506   3.317
 7655SOL    HW223865   2.829   0.512   3.391
 7656SOL     OW23866   6.849   3.723   6.923
 7656SOL    HW123867   6.920   3.709   6.992
 7656SOL    HW223868   6.875   3.677   6.839
 7657SOL     OW23869   1.639   3.441   4.784
 7657SOL    HW123870   1.707   3.390   4.836
 7657SOL    HW223871   1.614   3.524   4.834
 7658SOL     OW23872   2.176   0.558   0.800
 7658SOL    HW123873   2.111   0.505   0.746
 7658SOL    HW223874   2.211   0.635   0.745
 7659SOL     OW23875   4.264   3.956   5.347
 7659SOL    HW123876   4.318   4.028   5.303
 7659SOL    HW223877   4.253   3.977   5.444
 7660SOL     OW23878   6.510   4.803   4.304
 7660SOL    HW123879   6.453   4.750   4.367
 7660SOL    HW223880   6.469   4.894   4.291
 7661SOL     OW23881   4.795   2.622   5.582
 7661SOL    HW123882   4.696   2.633   5.595
 7661SOL    HW223883   4.843   2.655   5.663
 7662SOL     OW23884   1.024   2.037   2.295
 7662SOL    HW123885   1.002   2.133   2.280
 7662SOL    HW223886   1.081   2.003   2.220
 7663SOL     OW23887   6.177   5.183   5.700
 7663SOL    HW123888   6.154   5.233   5.616
 7663SOL    HW223889   6.271   5.148   5.693
 7664SOL     OW23890   4.012   1.926   3.235
 7664SOL    HW123891   3.951   2.002   3.256
 7664SOL    HW223892   4.021   1.867   3.315
 7665SOL     OW23893   4.333   1.777   4.445
 7665SOL    HW123894   4.358   1.800   4.351
 7665SOL    HW223895   4.391   1.828   4.508
 7666SOL     OW23896   6.053   5.612   3.420
 7666SOL    HW123897   6.000   5.694   3.440
 7666SOL    HW223898   6.009   5.532   3.461
 7667SOL     OW23899   4.800   6.038   2.451
 7667SOL    HW123900   4.890   6.002   2.475
 7667SOL    HW223901   4.730   5.970   2.472
 7668SOL     OW23902   1.865   5.390   1.236
 7668SOL    HW123903   1.888   5.438   1.151
 7668SOL    HW223904   1.921   5.427   1.310
 7669SOL     OW23905   2.746   6.576   6.131
 7669SOL    HW123906   2.828   6.629   6.112
 7669SOL    HW223907   2.674   6.600   6.065
 7670SOL     OW23908   0.118   6.740   6.984
 7670SOL    HW123909   0.142   6.790   0.048
 7670SOL    HW223910   0.141   6.643   6.996
 7671SOL     OW23911   5.025   0.951   1.444
 7671SOL    HW123912   4.947   1.008   1.470
 7671SOL    HW223913   5.099   1.010   1.409
 7672SOL     OW23914   5.096   4.606   2.744
 7672SOL    HW123915   5.080   4.511   2.716
 7672SOL    HW223916   5.186   4.635   2.713
 7673SOL     OW23917   0.868   5.152   3.827
 7673SOL    HW123918   0.893   5.248   3.810
 7673SOL    HW223919   0.923   5.116   3.901
 7674SOL     OW23920   4.174   6.967   4.638
 7674SOL    HW123921   4.261   6.958   4.686
 7674SOL    HW223922   4.170   0.039   4.595
 7675SOL     OW23923   3.423   6.564   2.531
 7675SOL    HW123924   3.372   6.482   2.559
 7675SOL    HW223925   3.384   6.644   2.575
 7676SOL     OW23926   2.951   3.064   5.697
 7676SOL    HW123927   3.040   3.061   5.742
 7676SOL    HW223928   2.886   3.114   5.754
 7677SOL     OW23929   5.924   4.816   1.768
 7677SOL    HW123930   5.973   4.742   1.722
 7677SOL    HW223931   5.862   4.860   1.704
 7678SOL     OW23932   1.283   1.396   5.592
 7678SOL    HW123933   1.233   1.336   5.529
 7678SOL    HW223934   1.219   1.435   5.658
 7679SOL     OW23935   1.945   5.338   5.119
 7679SOL    HW123936   1.912   5.432   5.111
 7679SOL    HW223937   1.945   5.311   5.215
 7680SOL     OW23938   1.626   0.700   5.307
 7680SOL    HW123939   1.542   0.645   5.307
 7680SOL    HW223940   1.684   0.671   5.231
 7681SOL     OW23941   2.670   3.195   6.444
 7681SOL    HW123942   2.602   3.184   6.517
 7681SOL    HW223943   2.633   3.255   6.373
 7682SOL     OW23944   2.742   2.120   3.440
 7682SOL    HW123945   2.811   2.181   3.400
 7682SOL    HW223946   2.698   2.067   3.367
 7683SOL     OW23947   0.542   1.067   4.705
 7683SOL    HW123948   0.621   1.115   4.741
 7683SOL    HW223949   0.463   1.082   4.765
 7684SOL     OW23950   4.083   2.223   1.503
 7684SOL    HW123951   3.983   2.223   1.511
 7684SOL    HW223952   4.123   2.171   1.579
 7685SOL     OW23953   3.076   0.969   0.393
 7685SOL    HW123954   3.092   1.023   0.475
 7685SOL    HW223955   2.995   0.911   0.405
 7686SOL     OW23956   5.537   0.927   4.133
 7686SOL    HW123957   5.608   0.975   4.184
 7686SOL    HW223958   5.547   0.947   4.035
 7687SOL     OW23959   5.841   5.451   4.856
 7687SOL    HW123960   5.862   5.488   4.766
 7687SOL    HW223961   5.811   5.356   4.847
 7688SOL     OW23962   1.080   5.145   6.349
 7688SOL    HW123963   1.058   5.167   6.444
 7688SOL    HW223964   1.135   5.062   6.345
 7689SOL     OW23965   4.521   0.330   2.261
 7689SOL    HW123966   4.547   0.247   2.213
 7689SOL    HW223967   4.434   0.364   2.225
 7690SOL     OW23968   6.445   4.943   0.769
 7690SOL    HW123969   6.469   4.996   0.688
 7690SOL    HW223970   6.526   4.929   0.826
 7691SOL     OW23971   4.549   4.667   3.319
 7691SOL    HW123972   4.551   4.641   3.222
 7691SOL    HW223973   4.528   4.586   3.374
 7692SOL     OW23974   1.195   6.605   2.289
 7692SOL    HW123975   1.125   6.622   2.219
 7692SOL    HW223976   1.284   6.592   2.245
 7693SOL     OW23977   2.709   1.116   1.146
 7693SOL    HW123978   2.624   1.156   1.110
 7693SOL    HW223979   2.762   1.187   1.192
 7694SOL     OW23980   6.089   2.350   5.007
 7694SOL    HW123981   6.161   2.281   5.017
 7694SOL    HW223982   6.014   2.313   4.954
 7695SOL     OW23983   6.175   0.545   2.492
 7695SOL    HW123984   6.121   0.574   2.571
 7695SOL    HW223985   6.241   0.617   2.469
 7696SOL     OW23986   0.408   2.790   6.786
 7696SOL    HW123987   0.430   2.728   6.861
 7696SOL    HW223988   0.456   2.876   6.798
 7697SOL     OW23989   4.007   0.492   2.790
 7697SOL    HW123990   4.046   0.530   2.873
 7697SOL    HW223991   3.913   0.461   2.807
 7698SOL     OW23992   6.484   1.607   6.929
 7698SOL    HW123993   6.405   1.660   6.902
 7698SOL    HW223994   6.565   1.640   6.880
 7699SOL     OW23995   3.361   5.283   5.980
 7699SOL    HW123996   3.378   5.191   6.016
 7699SOL    HW223997   3.324   5.277   5.888
 7700SOL     OW23998   4.942   5.793   2.807
 7700SOL    HW123999   4.851   5.752   2.805
 7700SOL    HW224000   5.010   5.724   2.782
 7701SOL     OW24001   7.017   2.389   5.804
 7701SOL    HW124002   0.064   2.365   5.875
 7701SOL    HW224003   0.033   2.466   5.750
 7702SOL     OW24004   4.542   0.045   4.287
 7702SOL    HW124005   4.577   7.004   4.359
 7702SOL    HW224006   4.496   7.008   4.218
 7703SOL     OW24007   6.759   6.493   4.446
 7703SOL    HW124008   6.732   6.568   4.387
 7703SOL    HW224009   6.787   6.415   4.390
 7704SOL     OW24010   6.077   1.319   4.266
 7704SOL    HW124011   6.162   1.372   4.258
 7704SOL    HW224012   6.004   1.380   4.296
 7705SOL     OW24013   2.148   4.838   0.498
 7705SOL    HW124014   2.079   4.865   0.565
 7705SOL    HW224015   2.238   4.840   0.540
 7706SOL     OW24016   3.572   3.271   2.355
 7706SOL    HW124017   3.576   3.194   2.291
 7706SOL    HW224018   3.481   3.312   2.352
 7707SOL     OW24019   6.884   5.900   6.724
 7707SOL    HW124020   6.965   5.941   6.767
 7707SOL    HW224021   6.814   5.884   6.794
 7708SOL     OW24022   2.225   6.889   4.938
 7708SOL    HW124023   2.146   6.869   4.880
 7708SOL    HW224024   2.226   6.825   5.015
 7709SOL     OW24025   0.176   4.923   1.196
 7709SOL    HW124026   0.087   4.880   1.179
 7709SOL    HW224027   0.166   4.993   1.267
 7710SOL     OW24028   1.765   3.234   0.734
 7710SOL    HW124029   1.769   3.280   0.645
 7710SOL    HW224030   1.792   3.138   0.723
 7711SOL     OW24031   6.282   4.503   5.400
 7711SOL    HW124032   6.330   4.415   5.412
 7711SOL    HW224033   6.346   4.571   5.363
 7712SOL     OW24034   6.563   4.526   6.147
 7712SOL    HW124035   6.550   4.565   6.056
 7712SOL    HW224036   6.659   4.537   6.175
 7713SOL     OW24037   1.737   5.074   0.421
 7713SOL    HW124038   1.645   5.034   0.424
 7713SOL    HW224039   1.804   5.005   0.449
 7714SOL     OW24040   6.671   0.585   4.704
 7714SOL    HW124041   6.769   0.605   4.692
 7714SOL    HW224042   6.660   0.491   4.736
 7715SOL     OW24043   2.171   2.574   5.789
 7715SOL    HW124044   2.097   2.599   5.726
 7715SOL    HW224045   2.183   2.647   5.856
 7716SOL     OW24046   1.035   5.388   5.844
 7716SOL    HW124047   1.124   5.435   5.840
 7716SOL    HW224048   1.005   5.380   5.939
 7717SOL     OW24049   1.640   1.704   6.815
 7717SOL    HW124050   1.675   1.669   6.728
 7717SOL    HW224051   1.550   1.664   6.834
 7718SOL     OW24052   1.462   4.321   2.593
 7718SOL    HW124053   1.477   4.275   2.680
 7718SOL    HW224054   1.374   4.370   2.596
 7719SOL     OW24055   1.806   3.773   4.845
 7719SOL    HW124056   1.837   3.794   4.752
 7719SOL    HW224057   1.873   3.809   4.910
 7720SOL     OW24058   6.200   1.440   6.526
 7720SOL    HW124059   6.223   1.361   6.469
 7720SOL    HW224060   6.127   1.414   6.590
 7721SOL     OW24061   0.904   0.708   2.789
 7721SOL    HW124062   0.823   0.652   2.807
 7721SOL    HW224063   0.931   0.699   2.694
 7722SOL     OW24064   2.130   5.855   3.978
 7722SOL    HW124065   2.153   5.888   3.886
 7722SOL    HW224066   2.034   5.828   3.981
 7723SOL     OW24067   4.827   3.911   0.423
 7723SOL    HW124068   4.795   3.878   0.512
 7723SOL    HW224069   4.844   3.834   0.362
 7724SOL     OW24070   2.710   4.179   1.634
 7724SOL    HW124071   2.713   4.237   1.553
 7724SOL    HW224072   2.735   4.085   1.609
 7725SOL     OW24073   5.534   3.162   3.314
 7725SOL    HW124074   5.481   3.245   3.295
 7725SOL    HW224075   5.571   3.126   3.228
 7726SOL     OW24076   0.293   3.357   6.324
 7726SOL    HW124077   0.378   3.306   6.313
 7726SOL    HW224078   0.305   3.450   6.290
 7727SOL     OW24079   4.685   2.374   2.251
 7727SOL    HW124080   4.696   2.433   2.330
 7727SOL    HW224081   4.604   2.317   2.263
 7728SOL     OW24082   2.166   3.359   5.009
 7728SOL    HW124083   2.250   3.378   5.059
 7728SOL    HW224084   2.181   3.281   4.948
 7729SOL     OW24085   5.633   2.193   3.683
 7729SOL    HW124086   5.699   2.231   3.747
 7729SOL    HW224087   5.675   2.118   3.632
 7730SOL     OW24088   6.556   4.266   5.098
 7730SOL    HW124089   6.505   4.186   5.130
 7730SOL    HW224090   6.576   4.326   5.176
 7731SOL     OW24091   5.671   6.795   0.651
 7731SOL    HW124092   5.752   6.812   0.595
 7731SOL    HW224093   5.589   6.805   0.595
 7732SOL     OW24094   4.352   0.391   6.410
 7732SOL    HW124095   4.305   0.374   6.497
 7732SOL    HW224096   4.288   0.378   6.334
 7733SOL     OW24097   6.640   6.118   2.117
 7733SOL    HW124098   6.668   6.126   2.213
 7733SOL    HW224099   6.590   6.200   2.089
 7734SOL     OW24100   3.270   4.101   5.411
 7734SOL    HW124101   3.232   4.016   5.373
 7734SOL    HW224102   3.222   4.179   5.370
 7735SOL     OW24103   6.776   6.370   0.358
 7735SOL    HW124104   6.768   6.297   0.426
 7735SOL    HW224105   6.837   6.339   0.284
 7736SOL     OW24106   3.316   2.857   0.594
 7736SOL    HW124107   3.311   2.896   0.686
 7736SOL    HW224108   3.292   2.760   0.597
 7737SOL     OW24109   4.040   4.794   1.601
 7737SOL    HW124110   3.944   4.798   1.627
 7737SOL    HW224111   4.051   4.733   1.523
 7738SOL     OW24112   2.661   6.490   6.887
 7738SOL    HW124113   2.696   6.507   6.795
 7738SOL    HW224114   2.587   6.423   6.884
 7739SOL     OW24115   1.444   2.289   1.100
 7739SOL    HW124116   1.479   2.344   1.175
 7739SOL    HW224117   1.414   2.349   1.026
 7740SOL     OW24118   1.201   1.273   4.154
 7740SOL    HW124119   1.119   1.311   4.111
 7740SOL    HW224120   1.181   1.248   4.248
 7741SOL     OW24121   1.780   4.493   6.247
 7741SOL    HW124122   1.852   4.546   6.291
 7741SOL    HW224123   1.713   4.555   6.206
 7742SOL     OW24124   3.657   1.485   4.082
 7742SOL    HW124125   3.659   1.581   4.054
 7742SOL    HW224126   3.570   1.444   4.057
 7743SOL     OW24127   5.166   1.248   6.213
 7743SOL    HW124128   5.218   1.330   6.237
 7743SOL    HW224129   5.166   1.185   6.291
 7744SOL     OW24130   0.793   5.752   4.601
 7744SOL    HW124131   0.841   5.827   4.647
 7744SOL    HW224132   0.751   5.692   4.669
 7745SOL     OW24133   1.769   6.394   6.969
 7745SOL    HW124134   1.846   6.428   6.915
 7745SOL    HW224135   1.721   6.471   7.011
 7746SOL     OW24136   1.412   6.389   0.856
 7746SOL    HW124137   1.321   6.390   0.814
 7746SOL    HW224138   1.466   6.466   0.821
 7747SOL     OW24139   0.629   5.878   0.855
 7747SOL    HW124140   0.620   5.793   0.803
 7747SOL    HW224141   0.563   5.878   0.930
 7748SOL     OW24142   4.277   2.807   5.502
 7748SOL    HW124143   4.231   2.890   5.533
 7748SOL    HW224144   4.225   2.727   5.532
 7749SOL     OW24145   3.582   3.381   4.056
 7749SOL    HW124146   3.609   3.288   4.032
 7749SOL    HW224147   3.569   3.435   3.973
 7750SOL     OW24148   5.841   4.991   5.417
 7750SOL    HW124149   5.912   4.923   5.440
 7750SOL    HW224150   5.807   4.973   5.325
 7751SOL     OW24151   0.075   0.971   4.941
 7751SOL    HW124152   0.052   1.011   4.853
 7751SOL    HW224153   0.034   0.881   4.949
 7752SOL     OW24154   5.972   5.537   5.334
 7752SOL    HW124155   5.973   5.492   5.245
 7752SOL    HW224156   6.039   5.611   5.336
 7753SOL     OW24157   1.889   0.895   4.279
 7753SOL    HW124158   1.945   0.934   4.352
 7753SOL    HW224159   1.801   0.944   4.275
 7754SOL     OW24160   5.738   0.267   0.803
 7754SOL    HW124161   5.759   0.175   0.836
 7754SOL    HW224162   5.648   0.295   0.838
 7755SOL     OW24163   0.311   5.986   5.057
 7755SOL    HW124164   0.269   6.057   5.113
 7755SOL    HW224165   0.409   6.006   5.046
 7756SOL     OW24166   2.831   4.933   2.117
 7756SOL    HW124167   2.860   4.884   2.035
 7756SOL    HW224168   2.908   4.940   2.181
 7757SOL     OW24169   4.615   6.305   5.562
 7757SOL    HW124170   4.672   6.361   5.622
 7757SOL    HW224171   4.594   6.357   5.479
 7758SOL     OW24172   2.364   2.231   6.053
 7758SOL    HW124173   2.435   2.291   6.018
 7758SOL    HW224174   2.361   2.147   5.999
 7759SOL     OW24175   2.265   0.291   4.186
 7759SOL    HW124176   2.215   0.377   4.174
 7759SOL    HW224177   2.306   0.288   4.276
 7760SOL     OW24178   5.175   3.056   1.961
 7760SOL    HW124179   5.099   2.992   1.972
 7760SOL    HW224180   5.193   3.071   1.864
 7761SOL     OW24181   2.882   6.968   6.668
 7761SOL    HW124182   2.871   6.886   6.613
 7761SOL    HW224183   2.812   0.017   6.642
 7762SOL     OW24184   4.224   1.631   0.197
 7762SOL    HW124185   4.299   1.594   0.142
 7762SOL    HW224186   4.237   1.729   0.211
 7763SOL     OW24187   1.874   2.023   0.954
 7763SOL    HW124188   1.790   2.061   0.993
 7763SOL    HW224189   1.934   2.098   0.926
 7764SOL     OW24190   3.865   2.955   2.165
 7764SOL    HW124191   3.907   3.044   2.145
 7764SOL    HW224192   3.890   2.928   2.258
 7765SOL     OW24193   6.232   3.345   2.913
 7765SOL    HW124194   6.330   3.362   2.902
 7765SOL    HW224195   6.181   3.406   2.852
 7766SOL     OW24196   6.076   1.661   6.903
 7766SOL    HW124197   6.080   1.564   6.928
 7766SOL    HW224198   6.167   1.693   6.877
 7767SOL     OW24199   3.736   6.197   4.039
 7767SOL    HW124200   3.680   6.119   4.069
 7767SOL    HW224201   3.761   6.185   3.942
 7768SOL     OW24202   3.792   4.907   2.252
 7768SOL    HW124203   3.784   4.979   2.183
 7768SOL    HW224204   3.703   4.889   2.292
 7769SOL     OW24205   5.236   1.964   0.678
 7769SOL    HW124206   5.152   1.928   0.637
 7769SOL    HW224207   5.306   1.894   0.678
 7770SOL     OW24208   2.963   4.790   1.459
 7770SOL    HW124209   2.954   4.699   1.500
 7770SOL    HW224210   3.060   4.810   1.446
 7771SOL     OW24211   2.803   1.985   5.358
 7771SOL    HW124212   2.819   2.039   5.440
 7771SOL    HW224213   2.814   2.044   5.277
 7772SOL     OW24214   4.857   0.728   3.960
 7772SOL    HW124215   4.840   0.818   3.922
 7772SOL    HW224216   4.772   0.675   3.961
 7773SOL     OW24217   4.394   3.973   5.680
 7773SOL    HW124218   4.468   3.995   5.743
 7773SOL    HW224219   4.416   3.890   5.629
 7774SOL     OW24220   5.513   1.601   6.454
 7774SOL    HW124221   5.494   1.674   6.519
 7774SOL    HW224222   5.498   1.513   6.497
 7775SOL     OW24223   3.557   6.897   2.544
 7775SOL    HW124224   3.587   6.813   2.499
 7775SOL    HW224225   3.550   6.880   2.643
 7776SOL     OW24226   3.719   3.419   6.246
 7776SOL    HW124227   3.627   3.381   6.234
 7776SOL    HW224228   3.753   3.453   6.159
 7777SOL     OW24229   2.374   1.367   6.678
 7777SOL    HW124230   2.421   1.423   6.610
 7777SOL    HW224231   2.324   1.426   6.741
 7778SOL     OW24232   5.770   0.035   6.710
 7778SOL    HW124233   5.852   7.012   6.671
 7778SOL    HW224234   5.758   0.127   6.673
 7779SOL     OW24235   3.596   2.243   0.603
 7779SOL    HW124236   3.651   2.289   0.673
 7779SOL    HW224237   3.656   2.209   0.531
 7780SOL     OW24238   1.371   6.378   4.262
 7780SOL    HW124239   1.276   6.360   4.235
 7780SOL    HW224240   1.432   6.314   4.216
 7781SOL     OW24241   1.442   3.733   5.852
 7781SOL    HW124242   1.460   3.657   5.790
 7781SOL    HW224243   1.503   3.727   5.932
 7782SOL     OW24244   2.563   3.920   6.750
 7782SOL    HW124245   2.509   3.862   6.690
 7782SOL    HW224246   2.612   3.989   6.696
 7783SOL     OW24247   2.433   6.336   6.807
 7783SOL    HW124248   2.373   6.276   6.860
 7783SOL    HW224249   2.384   6.419   6.783
 7784SOL     OW24250   0.910   2.725   6.847
 7784SOL    HW124251   0.856   2.808   6.863
 7784SOL    HW224252   1.006   2.743   6.870
 7785SOL     OW24253   2.280   6.539   4.350
 7785SOL    HW124254   2.309   6.460   4.296
 7785SOL    HW224255   2.300   6.623   4.301
 7786SOL     OW24256   3.005   4.840   5.184
 7786SOL    HW124257   3.038   4.829   5.278
 7786SOL    HW224258   2.955   4.758   5.156
 7787SOL     OW24259   2.299   2.907   4.779
 7787SOL    HW124260   2.349   2.946   4.857
 7787SOL    HW224261   2.280   2.811   4.797
 7788SOL     OW24262   1.127   1.618   1.629
 7788SOL    HW124263   1.109   1.716   1.618
 7788SOL    HW224264   1.064   1.581   1.698
 7789SOL     OW24265   2.647   0.236   1.271
 7789SOL    HW124266   2.686   0.305   1.209
 7789SOL    HW224267   2.558   0.269   1.304
 7790SOL     OW24268   6.489   3.926   2.985
 7790SOL    HW124269   6.490   3.932   3.085
 7790SOL    HW224270   6.435   4.001   2.947
 7791SOL     OW24271   2.798   5.203   4.545
 7791SOL    HW124272   2.791   5.112   4.503
 7791SOL    HW224273   2.752   5.202   4.634
 7792SOL     OW24274   2.310   6.147   6.341
 7792SOL    HW124275   2.356   6.187   6.262
 7792SOL    HW224276   2.310   6.047   6.332
 7793SOL     OW24277   1.424   1.046   6.018
 7793SOL    HW124278   1.372   1.110   5.962
 7793SOL    HW224279   1.361   0.983   6.063
 7794SOL     OW24280   5.294   5.475   4.541
 7794SOL    HW124281   5.277   5.571   4.561
 7794SOL    HW224282   5.294   5.461   4.442
 7795SOL     OW24283   2.187   4.001   5.690
 7795SOL    HW124284   2.101   4.030   5.648
 7795SOL    HW224285   2.176   3.909   5.728
 7796SOL     OW24286   3.746   3.929   3.417
 7796SOL    HW124287   3.687   3.870   3.472
 7796SOL    HW224288   3.842   3.907   3.435
 7797SOL     OW24289   0.288   6.435   2.652
 7797SOL    HW124290   0.334   6.517   2.616
 7797SOL    HW224291   0.227   6.462   2.727
 7798SOL     OW24292   3.632   5.377   0.093
 7798SOL    HW124293   3.663   5.337   0.007
 7798SOL    HW224294   3.609   5.474   0.078
 7799SOL     OW24295   0.104   5.639   1.107
 7799SOL    HW124296   0.068   5.729   1.131
 7799SOL    HW224297   0.029   5.579   1.081
 7800SOL     OW24298   0.268   4.746   1.838
 7800SOL    HW124299   0.228   4.664   1.799
 7800SOL    HW224300   0.366   4.750   1.816
 7801SOL     OW24301   2.384   1.547   0.319
 7801SOL    HW124302   2.381   1.645   0.339
 7801SOL    HW224303   2.479   1.516   0.321
 7802SOL     OW24304   5.818   2.513   1.800
 7802SOL    HW124305   5.873   2.588   1.764
 7802SOL    HW224306   5.878   2.436   1.821
 7803SOL     OW24307   3.977   3.954   5.831
 7803SOL    HW124308   3.951   3.910   5.745
 7803SOL    HW224309   3.968   4.053   5.822
 7804SOL     OW24310   5.147   1.456   4.998
 7804SOL    HW124311   5.238   1.497   4.999
 7804SOL    HW224312   5.155   1.357   5.005
 7805SOL     OW24313   5.422   2.418   2.062
 7805SOL    HW124314   5.492   2.482   2.033
 7805SOL    HW224315   5.440   2.388   2.156
 7806SOL     OW24316   5.211   2.886   6.156
 7806SOL    HW124317   5.284   2.833   6.198
 7806SOL    HW224318   5.201   2.859   6.060
 7807SOL     OW24319   6.975   4.516   6.400
 7807SOL    HW124320   6.906   4.539   6.331
 7807SOL    HW224321   0.047   4.519   6.360
 7808SOL     OW24322   0.384   1.367   4.686
 7808SOL    HW124323   0.470   1.410   4.657
 7808SOL    HW224324   0.401   1.270   4.706
 7809SOL     OW24325   2.169   5.438   4.333
 7809SOL    HW124326   2.228   5.500   4.385
 7809SOL    HW224327   2.112   5.492   4.271
 7810SOL     OW24328   3.136   0.658   5.503
 7810SOL    HW124329   3.057   0.657   5.441
 7810SOL    HW224330   3.104   0.656   5.598
 7811SOL     OW24331   5.135   4.722   3.245
 7811SOL    HW124332   5.204   4.650   3.251
 7811SOL    HW224333   5.045   4.680   3.234
 7812SOL     OW24334   1.591   1.729   4.559
 7812SOL    HW124335   1.667   1.671   4.530
 7812SOL    HW224336   1.621   1.824   4.563
 7813SOL     OW24337   5.950   3.053   6.659
 7813SOL    HW124338   5.993   3.014   6.577
 7813SOL    HW224339   6.021   3.068   6.728
 7814SOL     OW24340   6.678   3.124   3.564
 7814SOL    HW124341   6.723   3.130   3.653
 7814SOL    HW224342   6.643   3.031   3.552
 7815SOL     OW24343   5.868   1.715   6.701
 7815SOL    HW124344   5.801   1.787   6.721
 7815SOL    HW224345   5.940   1.717   6.770
 7816SOL     OW24346   0.510   3.676   5.651
 7816SOL    HW124347   0.572   3.627   5.590
 7816SOL    HW224348   0.486   3.617   5.728
 7817SOL     OW24349   5.626   4.301   4.571
 7817SOL    HW124350   5.611   4.348   4.484
 7817SOL    HW224351   5.705   4.240   4.562
 7818SOL     OW24352   6.394   6.420   1.497
 7818SOL    HW124353   6.369   6.422   1.400
 7818SOL    HW224354   6.341   6.488   1.547
 7819SOL     OW24355   6.752   2.457   1.236
 7819SOL    HW124356   6.705   2.523   1.295
 7819SOL    HW224357   6.808   2.396   1.292
 7820SOL     OW24358   1.661   1.714   6.097
 7820SOL    HW124359   1.657   1.745   6.192
 7820SOL    HW224360   1.695   1.788   6.039
 7821SOL     OW24361   3.889   5.773   1.272
 7821SOL    HW124362   3.825   5.700   1.248
 7821SOL    HW224363   3.961   5.778   1.203
 7822SOL     OW24364   1.023   5.681   5.021
 7822SOL    HW124365   1.066   5.748   5.082
 7822SOL    HW224366   0.926   5.674   5.043
 7823SOL     OW24367   2.187   4.289   5.007
 7823SOL    HW124368   2.237   4.209   5.041
 7823SOL    HW224369   2.142   4.335   5.084
 7824SOL     OW24370   0.223   2.476   5.271
 7824SOL    HW124371   0.231   2.435   5.180
 7824SOL    HW224372   0.215   2.404   5.339
 7825SOL     OW24373   2.121   2.102   6.551
 7825SOL    HW124374   2.199   2.040   6.547
 7825SOL    HW224375   2.043   2.055   6.592
 7826SOL     OW24376   6.590   2.447   6.798
 7826SOL    HW124377   6.564   2.467   6.893
 7826SOL    HW224378   6.668   2.504   6.772
 7827SOL     OW24379   6.830   6.297   2.604
 7827SOL    HW124380   6.866   6.388   2.627
 7827SOL    HW224381   6.757   6.272   2.667
 7828SOL     OW24382   0.058   3.566   6.784
 7828SOL    HW124383   0.072   3.600   6.877
 7828SOL    HW224384   0.080   3.469   6.780
 7829SOL     OW24385   3.420   3.002   1.414
 7829SOL    HW124386   3.507   2.958   1.432
 7829SOL    HW224387   3.401   3.070   1.485
 7830SOL     OW24388   3.206   5.486   4.712
 7830SOL    HW124389   3.186   5.391   4.688
 7830SOL    HW224390   3.194   5.544   4.631
 7831SOL     OW24391   1.838   1.721   1.106
 7831SOL    HW124392   1.864   1.735   1.201
 7831SOL    HW224393   1.827   1.810   1.062
 7832SOL     OW24394   5.791   0.425   5.229
 7832SOL    HW124395   5.701   0.465   5.244
 7832SOL    HW224396   5.784   0.325   5.231
 7833SOL     OW24397   1.900   0.324   4.064
 7833SOL    HW124398   1.811   0.363   4.040
 7833SOL    HW224399   1.945   0.384   4.130
 7834SOL     OW24400   6.568   2.603   4.396
 7834SOL    HW124401   6.597   2.631   4.305
 7834SOL    HW224402   6.616   2.657   4.465
 7835SOL     OW24403   4.260   1.971   5.274
 7835SOL    HW124404   4.219   2.028   5.202
 7835SOL    HW224405   4.288   1.883   5.235
 7836SOL     OW24406   3.614   4.237   5.148
 7836SOL    HW124407   3.699   4.222   5.097
 7836SOL    HW224408   3.541   4.181   5.109
 7837SOL     OW24409   6.253   6.336   0.261
 7837SOL    HW124410   6.195   6.346   0.180
 7837SOL    HW224411   6.342   6.299   0.234
 7838SOL     OW24412   5.322   5.552   1.199
 7838SOL    HW124413   5.350   5.636   1.153
 7838SOL    HW224414   5.398   5.515   1.252
 7839SOL     OW24415   6.228   4.327   4.707
 7839SOL    HW124416   6.209   4.296   4.614
 7839SOL    HW224417   6.262   4.251   4.762
 7840SOL     OW24418   1.924   4.094   3.177
 7840SOL    HW124419   1.940   4.150   3.258
 7840SOL    HW224420   1.991   4.019   3.174
 7841SOL     OW24421   5.252   2.096   5.908
 7841SOL    HW124422   5.260   2.194   5.890
 7841SOL    HW224423   5.218   2.082   6.001
 7842SOL     OW24424   1.772   1.406   2.722
 7842SOL    HW124425   1.849   1.345   2.704
 7842SOL    HW224426   1.806   1.494   2.757
 7843SOL     OW24427   0.520   6.666   4.176
 7843SOL    HW124428   0.518   6.626   4.084
 7843SOL    HW224429   0.536   6.764   4.169
 7844SOL     OW24430   3.572   1.108   2.484
 7844SOL    HW124431   3.543   1.125   2.578
 7844SOL    HW224432   3.663   1.067   2.484
 7845SOL     OW24433   6.006   1.524   1.408
 7845SOL    HW124434   6.017   1.586   1.330
 7845SOL    HW224435   5.915   1.484   1.407
 7846SOL     OW24436   1.287   2.433   6.872
 7846SOL    HW124437   1.191   2.427   6.897
 7846SOL    HW224438   1.342   2.447   6.955
 7847SOL     OW24439   5.996   2.272   4.268
 7847SOL    HW124440   5.998   2.227   4.358
 7847SOL    HW224441   6.089   2.296   4.241
 7848SOL     OW24442   2.595   5.049   0.640
 7848SOL    HW124443   2.556   5.099   0.717
 7848SOL    HW224444   2.542   4.966   0.624
 7849SOL     OW24445   5.031   3.703   5.700
 7849SOL    HW124446   5.035   3.629   5.767
 7849SOL    HW224447   4.939   3.710   5.663
 7850SOL     OW24448   6.425   1.324   3.561
 7850SOL    HW124449   6.505   1.364   3.605
 7850SOL    HW224450   6.343   1.348   3.613
 7851SOL     OW24451   0.999   4.303   1.494
 7851SOL    HW124452   1.025   4.368   1.566
 7851SOL    HW224453   0.977   4.353   1.410
 7852SOL     OW24454   2.045   1.700   0.453
 7852SOL    HW124455   2.083   1.775   0.399
 7852SOL    HW224456   2.111   1.673   0.524
 7853SOL     OW24457   4.138   2.956   1.364
 7853SOL    HW124458   4.089   3.015   1.429
 7853SOL    HW224459   4.144   3.002   1.275
 7854SOL     OW24460   4.331   1.833   5.821
 7854SOL    HW124461   4.418   1.874   5.794
 7854SOL    HW224462   4.256   1.877   5.772
 7855SOL     OW24463   5.343   0.099   4.259
 7855SOL    HW124464   5.367   0.115   4.164
 7855SOL    HW224465   5.361   0.181   4.313
 7856SOL     OW24466   2.015   5.419   4.754
 7856SOL    HW124467   2.113   5.432   4.742
 7856SOL    HW224468   1.971   5.411   4.665
 7857SOL     OW24469   5.518   3.840   6.964
 7857SOL    HW124470   5.589   3.775   6.937
 7857SOL    HW224471   5.559   3.930   6.981
 7858SOL     OW24472   0.440   4.991   5.844
 7858SOL    HW124473   0.515   5.054   5.867
 7858SOL    HW224474   0.466   4.898   5.870
 7859SOL     OW24475   5.191   2.662   6.424
 7859SOL    HW124476   5.103   2.674   6.379
 7859SOL    HW224477   5.264   2.690   6.362
 7860SOL     OW24478   2.899   0.931   5.175
 7860SOL    HW124479   2.841   0.950   5.097
 7860SOL    HW224480   2.908   1.013   5.231
 7861SOL     OW24481   2.521   6.138   1.242
 7861SOL    HW124482   2.466   6.055   1.237
 7861SOL    HW224483   2.565   6.143   1.332
 7862SOL     OW24484   2.869   6.369   1.301
 7862SOL    HW124485   2.814   6.411   1.229
 7862SOL    HW224486   2.885   6.437   1.373
 7863SOL     OW24487   0.055   4.686   3.681
 7863SOL    HW124488   0.123   4.617   3.708
 7863SOL    HW224489   0.021   4.665   3.589
 7864SOL     OW24490   2.588   6.267   5.890
 7864SOL    HW124491   2.522   6.338   5.864
 7864SOL    HW224492   2.595   6.200   5.817
 7865SOL     OW24493   6.409   6.298   3.937
 7865SOL    HW124494   6.408   6.396   3.916
 7865SOL    HW224495   6.415   6.286   4.037
 7866SOL     OW24496   1.840   0.604   6.274
 7866SOL    HW124497   1.740   0.609   6.280
 7866SOL    HW224498   1.875   0.558   6.356
 7867SOL     OW24499   5.524   0.475   3.641
 7867SOL    HW124500   5.452   0.438   3.582
 7867SOL    HW224501   5.612   0.436   3.614
 7868SOL     OW24502   3.993   6.356   1.001
 7868SOL    HW124503   4.067   6.409   1.043
 7868SOL    HW224504   3.987   6.379   0.904
 7869SOL     OW24505   5.297   3.782   5.651
 7869SOL    HW124506   5.200   3.759   5.667
 7869SOL    HW224507   5.324   3.752   5.560
 7870SOL     OW24508   4.713   6.315   4.967
 7870SOL    HW124509   4.661   6.400   4.961
 7870SOL    HW224510   4.770   6.317   5.049
 7871SOL     OW24511   5.352   1.372   2.209
 7871SOL    HW124512   5.252   1.379   2.214
 7871SOL    HW224513   5.380   1.278   2.228
 7872SOL     OW24514   1.829   5.646   2.495
 7872SOL    HW124515   1.742   5.633   2.544
 7872SOL    HW224516   1.900   5.592   2.540
 7873SOL     OW24517   0.134   1.337   0.528
 7873SOL    HW124518   0.055   1.384   0.489
 7873SOL    HW224519   0.218   1.377   0.493
 7874SOL     OW24520   5.845   2.649   1.164
 7874SOL    HW124521   5.827   2.717   1.094
 7874SOL    HW224522   5.758   2.609   1.195
 7875SOL     OW24523   4.182   4.271   6.464
 7875SOL    HW124524   4.138   4.182   6.465
 7875SOL    HW224525   4.119   4.340   6.428
 7876SOL     OW24526   0.600   0.212   2.773
 7876SOL    HW124527   0.574   0.255   2.687
 7876SOL    HW224528   0.543   0.132   2.789
 7877SOL     OW24529   6.680   1.527   2.694
 7877SOL    HW124530   6.742   1.557   2.766
 7877SOL    HW224531   6.686   1.590   2.616
 7878SOL     OW24532   4.774   4.726   3.475
 7878SOL    HW124533   4.843   4.785   3.432
 7878SOL    HW224534   4.690   4.728   3.420
 7879SOL     OW24535   2.805   4.722   3.373
 7879SOL    HW124536   2.743   4.679   3.438
 7879SOL    HW224537   2.775   4.701   3.279
 7880SOL     OW24538   1.825   3.785   1.575
 7880SOL    HW124539   1.883   3.798   1.495
 7880SOL    HW224540   1.845   3.856   1.643
 7881SOL     OW24541   4.872   3.656   4.356
 7881SOL    HW124542   4.885   3.683   4.451
 7881SOL    HW224543   4.921   3.571   4.338
 7882SOL     OW24544   1.966   3.205   1.204
 7882SOL    HW124545   2.046   3.250   1.244
 7882SOL    HW224546   1.937   3.130   1.263
 7883SOL     OW24547   0.864   1.356   4.969
 7883SOL    HW124548   0.796   1.429   4.967
 7883SOL    HW224549   0.824   1.274   5.008
 7884SOL     OW24550   0.498   3.042   4.804
 7884SOL    HW124551   0.406   3.034   4.842
 7884SOL    HW224552   0.494   3.030   4.705
 7885SOL     OW24553   6.108   5.300   0.211
 7885SOL    HW124554   6.203   5.331   0.205
 7885SOL    HW224555   6.106   5.201   0.225
 7886SOL     OW24556   4.723   5.659   6.695
 7886SOL    HW124557   4.687   5.677   6.603
 7886SOL    HW224558   4.819   5.633   6.688
 7887SOL     OW24559   4.810   2.169   0.241
 7887SOL    HW124560   4.717   2.134   0.227
 7887SOL    HW224561   4.818   2.205   0.334
 7888SOL     OW24562   4.702   0.699   4.722
 7888SOL    HW124563   4.693   0.611   4.769
 7888SOL    HW224564   4.619   0.752   4.735
 7889SOL     OW24565   0.193   5.831   2.129
 7889SOL    HW124566   0.155   5.741   2.150
 7889SOL    HW224567   0.215   5.836   2.031
 7890SOL     OW24568   1.820   4.081   2.520
 7890SOL    HW124569   1.895   4.078   2.454
 7890SOL    HW224570   1.838   4.150   2.589
 7891SOL     OW24571   2.545   4.669   1.999
 7891SOL    HW124572   2.525   4.750   1.943
 7891SOL    HW224573   2.638   4.638   1.979
 7892SOL     OW24574   2.042   2.292   5.532
 7892SOL    HW124575   2.090   2.204   5.523
 7892SOL    HW224576   2.109   2.365   5.545
 7893SOL     OW24577   6.180   6.371   1.009
 7893SOL    HW124578   6.110   6.347   1.077
 7893SOL    HW224579   6.174   6.469   0.989
 7894SOL     OW24580   2.415   6.342   1.875
 7894SOL    HW124581   2.403   6.327   1.777
 7894SOL    HW224582   2.491   6.405   1.891
 7895SOL     OW24583   6.191   1.047   4.602
 7895SOL    HW124584   6.218   1.050   4.698
 7895SOL    HW224585   6.093   1.065   4.595
 7896SOL     OW24586   5.163   4.220   5.463
 7896SOL    HW124587   5.141   4.173   5.549
 7896SOL    HW224588   5.176   4.317   5.480
 7897SOL     OW24589   2.499   3.696   6.603
 7897SOL    HW124590   2.564   3.622   6.583
 7897SOL    HW224591   2.452   3.722   6.519
 7898SOL     OW24592   4.175   2.232   3.758
 7898SOL    HW124593   4.201   2.326   3.782
 7898SOL    HW224594   4.092   2.235   3.703
 7899SOL     OW24595   5.612   2.603   2.784
 7899SOL    HW124596   5.601   2.503   2.788
 7899SOL    HW224597   5.627   2.639   2.876
 7900SOL     OW24598   1.725   5.820   1.025
 7900SOL    HW124599   1.786   5.746   1.055
 7900SOL    HW224600   1.697   5.803   0.930
 7901SOL     OW24601   6.716   6.469   6.463
 7901SOL    HW124602   6.703   6.557   6.418
 7901SOL    HW224603   6.709   6.395   6.396
 7902SOL     OW24604   4.423   4.434   0.866
 7902SOL    HW124605   4.459   4.399   0.780
 7902SOL    HW224606   4.429   4.363   0.936
 7903SOL     OW24607   6.620   1.271   0.014
 7903SOL    HW124608   6.612   1.324   0.099
 7903SOL    HW224609   6.565   1.188   0.022
 7904SOL     OW24610   0.124   1.199   2.488
 7904SOL    HW124611   0.222   1.211   2.470
 7904SOL    HW224612   0.073   1.273   2.445
 7905SOL     OW24613   4.239   0.595   1.251
 7905SOL    HW124614   4.296   0.551   1.181
 7905SOL    HW224615   4.217   0.688   1.223
 7906SOL     OW24616   5.165   5.907   0.065
 7906SOL    HW124617   5.204   5.890   6.993
 7906SOL    HW224618   5.158   6.005   0.080
 7907SOL     OW24619   6.916   2.785   3.761
 7907SOL    HW124620   7.002   2.769   3.809
 7907SOL    HW224621   6.880   2.875   3.786
 7908SOL     OW24622   6.630   1.797   3.824
 7908SOL    HW124623   6.724   1.825   3.846
 7908SOL    HW224624   6.594   1.856   3.752
 7909SOL     OW24625   4.898   4.069   5.011
 7909SOL    HW124626   4.853   4.146   4.966
 7909SOL    HW224627   4.982   4.100   5.055
 7910SOL     OW24628   4.797   3.247   5.679
 7910SOL    HW124629   4.750   3.329   5.713
 7910SOL    HW224630   4.873   3.275   5.620
 7911SOL     OW24631   6.688   4.650   0.385
 7911SOL    HW124632   6.734   4.639   0.473
 7911SOL    HW224633   6.610   4.711   0.395
 7912SOL     OW24634   5.905   4.432   6.286
 7912SOL    HW124635   5.960   4.477   6.356
 7912SOL    HW224636   5.935   4.463   6.195
 7913SOL     OW24637   6.578   5.221   6.960
 7913SOL    HW124638   6.541   5.267   0.021
 7913SOL    HW224639   6.646   5.154   6.989
 7914SOL     OW24640   5.954   3.772   1.387
 7914SOL    HW124641   5.972   3.705   1.315
 7914SOL    HW224642   5.855   3.784   1.396
 7915SOL     OW24643   4.276   1.746   3.626
 7915SOL    HW124644   4.188   1.769   3.666
 7915SOL    HW224645   4.305   1.820   3.565
 7916SOL     OW24646   5.608   3.044   5.599
 7916SOL    HW124647   5.531   3.064   5.659
 7916SOL    HW224648   5.574   3.002   5.515
 7917SOL     OW24649   3.617   3.615   4.445
 7917SOL    HW124650   3.628   3.712   4.469
 7917SOL    HW224651   3.608   3.607   4.346
 7918SOL     OW24652   6.232   1.211   2.752
 7918SOL    HW124653   6.317   1.165   2.727
 7918SOL    HW224654   6.177   1.150   2.810
 7919SOL     OW24655   5.132   5.298   2.197
 7919SOL    HW124656   5.074   5.260   2.125
 7919SOL    HW224657   5.107   5.393   2.214
 7920SOL     OW24658   0.355   5.207   1.601
 7920SOL    HW124659   0.301   5.131   1.637
 7920SOL    HW224660   0.453   5.188   1.616
 7921SOL     OW24661   2.094   6.706   1.662
 7921SOL    HW124662   2.067   6.752   1.578
 7921SOL    HW224663   2.191   6.683   1.658
 7922SOL     OW24664   0.935   5.588   6.140
 7922SOL    HW124665   0.904   5.613   6.232
 7922SOL    HW224666   1.003   5.655   6.109
 7923SOL     OW24667   1.142   1.285   3.402
 7923SOL    HW124668   1.233   1.324   3.388
 7923SOL    HW224669   1.099   1.270   3.313
 7924SOL     OW24670   3.007   0.015   3.711
 7924SOL    HW124671   3.061   6.950   3.719
 7924SOL    HW224672   3.021   0.072   3.792
 7925SOL     OW24673   6.269   1.208   6.345
 7925SOL    HW124674   6.253   1.234   6.249
 7925SOL    HW224675   6.182   1.192   6.390
 7926SOL     OW24676   3.201   0.658   2.340
 7926SOL    HW124677   3.169   0.690   2.429
 7926SOL    HW224678   3.132   0.599   2.299
 7927SOL     OW24679   4.024   4.857   5.111
 7927SOL    HW124680   3.981   4.850   5.021
 7927SOL    HW224681   4.123   4.853   5.101
 7928SOL     OW24682   1.640   5.288   2.453
 7928SOL    HW124683   1.635   5.381   2.487
 7928SOL    HW224684   1.640   5.224   2.530
 7929SOL     OW24685   4.085   3.684   4.442
 7929SOL    HW124686   4.079   3.636   4.530
 7929SOL    HW224687   4.121   3.623   4.372
 7930SOL     OW24688   4.623   5.596   3.916
 7930SOL    HW124689   4.708   5.591   3.863
 7930SOL    HW224690   4.554   5.646   3.863
 7931SOL     OW24691   2.396   2.081   0.568
 7931SOL    HW124692   2.385   2.003   0.630
 7931SOL    HW224693   2.308   2.125   0.553
 7932SOL     OW24694   2.083   6.934   7.016
 7932SOL    HW124695   2.162   6.941   0.059
 7932SOL    HW224696   2.112   6.891   6.930
 7933SOL     OW24697   1.122   6.842   6.711
 7933SOL    HW124698   1.060   6.902   6.762
 7933SOL    HW224699   1.200   6.817   6.769
 7934SOL     OW24700   3.199   3.896   0.260
 7934SOL    HW124701   3.162   3.970   0.315
 7934SOL    HW224702   3.274   3.930   0.203
 7935SOL     OW24703   4.735   6.522   1.062
 7935SOL    HW124704   4.822   6.475   1.080
 7935SOL    HW224705   4.679   6.520   1.145
 7936SOL     OW24706   4.090   6.315   3.173
 7936SOL    HW124707   4.128   6.294   3.083
 7936SOL    HW224708   4.001   6.360   3.163
 7937SOL     OW24709   6.285   6.287   5.654
 7937SOL    HW124710   6.334   6.335   5.728
 7937SOL    HW224711   6.351   6.237   5.598
 7938SOL     OW24712   4.538   5.397   4.762
 7938SOL    HW124713   4.484   5.426   4.841
 7938SOL    HW224714   4.634   5.417   4.779
 7939SOL     OW24715   1.129   1.013   5.635
 7939SOL    HW124716   1.213   0.989   5.586
 7939SOL    HW224717   1.105   0.939   5.698
 7940SOL     OW24718   1.982   5.814   1.493
 7940SOL    HW124719   2.026   5.887   1.546
 7940SOL    HW224720   1.965   5.847   1.400
 7941SOL     OW24721   0.369   0.898   0.571
 7941SOL    HW124722   0.313   0.973   0.535
 7941SOL    HW224723   0.364   0.898   0.671
 7942SOL     OW24724   0.366   6.978   1.664
 7942SOL    HW124725   0.355   0.049   1.707
 7942SOL    HW224726   0.441   6.981   1.598
 7943SOL     OW24727   5.736   2.269   0.830
 7943SOL    HW124728   5.641   2.252   0.805
 7943SOL    HW224729   5.796   2.231   0.760
 7944SOL     OW24730   0.690   4.120   1.121
 7944SOL    HW124731   0.629   4.059   1.170
 7944SOL    HW224732   0.640   4.200   1.090
 7945SOL     OW24733   5.424   6.262   2.987
 7945SOL    HW124734   5.338   6.261   2.937
 7945SOL    HW224735   5.455   6.168   3.001
 7946SOL     OW24736   1.785   2.434   5.817
 7946SOL    HW124737   1.841   2.495   5.761
 7946SOL    HW224738   1.821   2.431   5.910
 7947SOL     OW24739   4.140   2.680   6.516
 7947SOL    HW124740   4.189   2.621   6.579
 7947SOL    HW224741   4.205   2.725   6.454
 7948SOL     OW24742   6.923   6.961   0.338
 7948SOL    HW124743   6.962   0.034   0.346
 7948SOL    HW224744   6.987   6.894   0.375
 7949SOL     OW24745   5.030   5.101   3.520
 7949SOL    HW124746   4.989   5.185   3.487
 7949SOL    HW224747   5.101   5.123   3.587
 7950SOL     OW24748   4.359   4.914   4.095
 7950SOL    HW124749   4.293   4.839   4.090
 7950SOL    HW224750   4.344   4.966   4.179
 7951SOL     OW24751   3.713   3.379   0.719
 7951SOL    HW124752   3.655   3.298   0.728
 7951SOL    HW224753   3.664   3.450   0.670
 7952SOL     OW24754   6.258   3.341   0.858
 7952SOL    HW124755   6.292   3.326   0.951
 7952SOL    HW224756   6.170   3.389   0.862
 7953SOL     OW24757   2.412   2.634   3.256
 7953SOL    HW124758   2.480   2.600   3.321
 7953SOL    HW224759   2.449   2.626   3.163
 7954SOL     OW24760   4.361   5.431   4.525
 7954SOL    HW124761   4.418   5.438   4.606
 7954SOL    HW224762   4.273   5.390   4.549
 7955SOL     OW24763   0.392   6.585   6.495
 7955SOL    HW124764   0.485   6.619   6.480
 7955SOL    HW224765   0.363   6.608   6.588
 7956SOL     OW24766   6.668   6.210   4.028
 7956SOL    HW124767   6.633   6.213   4.121
 7956SOL    HW224768   6.599   6.168   3.968
 7957SOL     OW24769   1.336   1.519   0.916
 7957SOL    HW124770   1.265   1.456   0.948
 7957SOL    HW224771   1.373   1.569   0.993
 7958SOL     OW24772   3.197   4.927   3.601
 7958SOL    HW124773   3.294   4.951   3.609
 7958SOL    HW224774   3.161   4.906   3.692
 7959SOL     OW24775   6.321   4.686   0.320
 7959SOL    HW124776   6.354   4.770   0.362
 7959SOL    HW224777   6.245   4.650   0.373
 7960SOL     OW24778   2.806   1.352   1.233
 7960SOL    HW124779   2.852   1.362   1.145
 7960SOL    HW224780   2.819   1.435   1.287
 7961SOL     OW24781   1.444   5.717   6.187
 7961SOL    HW124782   1.395   5.710   6.100
 7961SOL    HW224783   1.528   5.768   6.174
 7962SOL     OW24784   2.093   0.809   2.067
 7962SOL    HW124785   2.096   0.881   2.135
 7962SOL    HW224786   2.185   0.794   2.030
 7963SOL     OW24787   1.028   0.845   5.848
 7963SOL    HW124788   1.021   0.745   5.848
 7963SOL    HW224789   1.012   0.878   5.941
 7964SOL     OW24790   5.488   5.376   3.646
 7964SOL    HW124791   5.520   5.462   3.607
 7964SOL    HW224792   5.430   5.395   3.725
 7965SOL     OW24793   4.844   2.491   0.099
 7965SOL    HW124794   4.872   2.427   0.028
 7965SOL    HW224795   4.828   2.581   0.059
 7966SOL     OW24796   6.881   5.150   4.009
 7966SOL    HW124797   6.867   5.080   3.939
 7966SOL    HW224798   6.933   5.226   3.969
 7967SOL     OW24799   3.306   6.317   2.563
 7967SOL    HW124800   3.208   6.307   2.544
 7967SOL    HW224801   3.354   6.235   2.531
 7968SOL     OW24802   2.164   2.095   3.709
 7968SOL    HW124803   2.256   2.098   3.669
 7968SOL    HW224804   2.136   2.187   3.735
 7969SOL     OW24805   3.842   1.515   3.365
 7969SOL    HW124806   3.785   1.492   3.286
 7969SOL    HW224807   3.787   1.562   3.434
 7970SOL     OW24808   0.393   4.045   2.886
 7970SOL    HW124809   0.420   4.119   2.947
 7970SOL    HW224810   0.358   4.083   2.801
 7971SOL     OW24811   3.674   0.032   1.174
 7971SOL    HW124812   3.630   0.117   1.143
 7971SOL    HW224813   3.749   0.054   1.235
 7972SOL     OW24814   6.941   4.583   1.570
 7972SOL    HW124815   6.980   4.496   1.598
 7972SOL    HW224816   6.959   4.653   1.639
 7973SOL     OW24817   4.874   3.145   3.848
 7973SOL    HW124818   4.857   3.238   3.814
 7973SOL    HW224819   4.901   3.086   3.772
 7974SOL     OW24820   5.144   0.557   4.232
 7974SOL    HW124821   5.133   0.540   4.134
 7974SOL    HW224822   5.239   0.581   4.250
 7975SOL     OW24823   3.087   0.966   4.292
 7975SOL    HW124824   3.079   0.986   4.195
 7975SOL    HW224825   2.997   0.971   4.335
 7976SOL     OW24826   1.218   6.106   5.368
 7976SOL    HW124827   1.264   6.092   5.456
 7976SOL    HW224828   1.248   6.193   5.329
 7977SOL     OW24829   4.962   5.983   1.769
 7977SOL    HW124830   4.956   5.969   1.867
 7977SOL    HW224831   5.059   5.989   1.742
 7978SOL     OW24832   4.627   3.445   5.763
 7978SOL    HW124833   4.558   3.452   5.691
 7978SOL    HW224834   4.629   3.530   5.816
 7979SOL     OW24835   2.791   0.270   4.424
 7979SOL    HW124836   2.738   0.314   4.351
 7979SOL    HW224837   2.746   0.185   4.451
 7980SOL     OW24838   3.302   6.137   0.224
 7980SOL    HW124839   3.374   6.076   0.258
 7980SOL    HW224840   3.227   6.082   0.188
 7981SOL     OW24841   1.320   5.104   1.959
 7981SOL    HW124842   1.411   5.102   2.000
 7981SOL    HW224843   1.306   5.193   1.915
 7982SOL     OW24844   6.718   2.073   0.387
 7982SOL    HW124845   6.770   2.071   0.472
 7982SOL    HW224846   6.625   2.107   0.405
 7983SOL     OW24847   5.389   1.804   2.158
 7983SOL    HW124848   5.474   1.821   2.108
 7983SOL    HW224849   5.315   1.784   2.093
 7984SOL     OW24850   0.109   2.839   2.314
 7984SOL    HW124851   0.153   2.752   2.335
 7984SOL    HW224852   0.037   2.825   2.246
 7985SOL     OW24853   0.885   0.773   2.475
 7985SOL    HW124854   0.812   0.716   2.439
 7985SOL    HW224855   0.930   0.822   2.400
 7986SOL     OW24856   3.758   1.081   6.578
 7986SOL    HW124857   3.824   1.104   6.650
 7986SOL    HW224858   3.737   0.984   6.582
 7987SOL     OW24859   0.406   2.587   5.475
 7987SOL    HW124860   0.482   2.522   5.483
 7987SOL    HW224861   0.346   2.559   5.400
 7988SOL     OW24862   2.751   1.895   4.526
 7988SOL    HW124863   2.677   1.945   4.572
 7988SOL    HW224864   2.739   1.797   4.539
 7989SOL     OW24865   3.176   2.210   5.624
 7989SOL    HW124866   3.159   2.151   5.545
 7989SOL    HW224867   3.138   2.301   5.607
 7990SOL     OW24868   1.075   2.805   4.403
 7990SOL    HW124869   1.141   2.863   4.356
 7990SOL    HW224870   1.000   2.861   4.439
 7991SOL     OW24871   0.261   2.748   5.952
 7991SOL    HW124872   0.335   2.712   5.896
 7991SOL    HW224873   0.294   2.764   6.045
 7992SOL     OW24874   1.776   0.094   0.645
 7992SOL    HW124875   1.797   0.125   0.738
 7992SOL    HW224876   1.690   0.044   0.646
 7993SOL     OW24877   2.143   5.547   6.863
 7993SOL    HW124878   2.211   5.546   6.790
 7993SOL    HW224879   2.130   5.455   6.898
 7994SOL     OW24880   4.742   1.400   3.176
 7994SOL    HW124881   4.647   1.433   3.174
 7994SOL    HW224882   4.802   1.474   3.208
 7995SOL     OW24883   3.207   5.246   3.870
 7995SOL    HW124884   3.238   5.340   3.876
 7995SOL    HW224885   3.107   5.243   3.871
 7996SOL     OW24886   3.617   6.925   5.190
 7996SOL    HW124887   3.677   7.005   5.186
 7996SOL    HW224888   3.546   6.934   5.119
 7997SOL     OW24889   6.043   2.491   1.125
 7997SOL    HW124890   5.962   2.548   1.139
 7997SOL    HW224891   6.101   2.531   1.054
 7998SOL     OW24892   5.684   3.999   0.198
 7998SOL    HW124893   5.675   4.068   0.126
 7998SOL    HW224894   5.777   3.963   0.198
 7999SOL     OW24895   1.761   6.888   5.448
 7999SOL    HW124896   1.822   6.965   5.428
 7999SOL    HW224897   1.691   6.882   5.377
 8000SOL     OW24898   6.398   6.796   5.794
 8000SOL    HW124899   6.437   6.715   5.753
 8000SOL    HW224900   6.455   6.876   5.772
 8001SOL     OW24901   1.956   6.817   1.447
 8001SOL    HW124902   1.878   6.758   1.430
 8001SOL    HW224903   2.002   6.838   1.360
 8002SOL     OW24904   6.022   3.262   4.957
 8002SOL    HW124905   6.071   3.195   5.013
 8002SOL    HW224906   5.963   3.318   5.015
 8003SOL     OW24907   3.658   4.880   3.322
 8003SOL    HW124908   3.709   4.826   3.388
 8003SOL    HW224909   3.560   4.877   3.343
 8004SOL     OW24910   2.346   4.398   2.984
 8004SOL    HW124911   2.268   4.461   2.992
 8004SOL    HW224912   2.404   4.407   3.065
 8005SOL     OW24913   3.388   0.571   1.507
 8005SOL    HW124914   3.418   0.489   1.555
 8005SOL    HW224915   3.456   0.644   1.519
 8006SOL     OW24916   2.868   5.666   0.531
 8006SOL    HW124917   2.790   5.707   0.484
 8006SOL    HW224918   2.837   5.588   0.585
 8007SOL     OW24919   0.356   0.482   4.355
 8007SOL    HW124920   0.304   0.396   4.359
 8007SOL    HW224921   0.421   0.478   4.279
 8008SOL     OW24922   6.288   6.617   0.252
 8008SOL    HW124923   6.299   6.517   0.255
 8008SOL    HW224924   6.216   6.640   0.186
 8009SOL     OW24925   6.766   0.444   3.406
 8009SOL    HW124926   6.774   0.367   3.343
 8009SOL    HW224927   6.855   0.489   3.414
 8010SOL     OW24928   2.137   2.192   0.538
 8010SOL    HW124929   2.142   2.287   0.506
 8010SOL    HW224930   2.042   2.169   0.557
 8011SOL     OW24931   3.210   2.351   1.142
 8011SOL    HW124932   3.185   2.444   1.169
 8011SOL    HW224933   3.161   2.285   1.199
 8012SOL     OW24934   2.391   6.654   1.624
 8012SOL    HW124935   2.403   6.560   1.656
 8012SOL    HW224936   2.462   6.676   1.558
 8013SOL     OW24937   5.525   5.123   4.426
 8013SOL    HW124938   5.534   5.218   4.456
 8013SOL    HW224939   5.461   5.118   4.349
 8014SOL     OW24940   1.800   6.578   6.618
 8014SOL    HW124941   1.746   6.494   6.621
 8014SOL    HW224942   1.816   6.604   6.523
 8015SOL     OW24943   2.883   2.496   0.789
 8015SOL    HW124944   2.791   2.464   0.814
 8015SOL    HW224945   2.913   2.565   0.855
 8016SOL     OW24946   4.419   6.847   0.386
 8016SOL    HW124947   4.377   6.920   0.440
 8016SOL    HW224948   4.348   6.795   0.339
 8017SOL     OW24949   6.793   4.040   4.824
 8017SOL    HW124950   6.728   4.109   4.793
 8017SOL    HW224951   6.847   4.077   4.900
 8018SOL     OW24952   4.407   1.585   5.685
 8018SOL    HW124953   4.479   1.526   5.722
 8018SOL    HW224954   4.372   1.644   5.757
 8019SOL     OW24955   1.789   5.705   0.464
 8019SOL    HW124956   1.834   5.791   0.443
 8019SOL    HW224957   1.694   5.708   0.431
 8020SOL     OW24958   5.418   5.353   6.539
 8020SOL    HW124959   5.514   5.345   6.566
 8020SOL    HW224960   5.382   5.441   6.570
 8021SOL     OW24961   0.962   1.106   1.188
 8021SOL    HW124962   1.032   1.097   1.118
 8021SOL    HW224963   0.912   1.192   1.175
 8022SOL     OW24964   4.083   6.922   3.087
 8022SOL    HW124965   4.091   6.872   3.001
 8022SOL    HW224966   4.115   6.864   3.162
 8023SOL     OW24967   6.111   6.041   2.169
 8023SOL    HW124968   6.116   6.060   2.071
 8023SOL    HW224969   6.203   6.035   2.207
 8024SOL     OW24970   4.493   5.540   5.795
 8024SOL    HW124971   4.480   5.526   5.893
 8024SOL    HW224972   4.446   5.467   5.745
 8025SOL     OW24973   3.738   5.887   6.352
 8025SOL    HW124974   3.720   5.808   6.410
 8025SOL    HW224975   3.682   5.882   6.269
 8026SOL     OW24976   1.848   3.302   6.395
 8026SOL    HW124977   1.912   3.378   6.401
 8026SOL    HW224978   1.779   3.323   6.326
 8027SOL     OW24979   4.530   2.136   5.045
 8027SOL    HW124980   4.472   2.204   5.090
 8027SOL    HW224981   4.583   2.086   5.113
 8028SOL     OW24982   4.915   5.271   6.378
 8028SOL    HW124983   4.889   5.355   6.332
 8028SOL    HW224984   4.991   5.228   6.329
 8029SOL     OW24985   3.899   4.452   0.609
 8029SOL    HW124986   3.991   4.475   0.641
 8029SOL    HW224987   3.855   4.535   0.574
 8030SOL     OW24988   6.096   4.341   6.048
 8030SOL    HW124989   6.008   4.306   6.014
 8030SOL    HW224990   6.101   4.440   6.031
 8031SOL     OW24991   3.891   5.268   1.356
 8031SOL    HW124992   3.793   5.252   1.364
 8031SOL    HW224993   3.923   5.231   1.269
 8032SOL     OW24994   5.392   4.308   5.303
 8032SOL    HW124995   5.312   4.250   5.286
 8032SOL    HW224996   5.413   4.360   5.220
 8033SOL     OW24997   5.580   2.249   6.864
 8033SOL    HW124998   5.587   2.349   6.872
 8033SOL    HW224999   5.506   2.216   6.921
 8034SOL     OW25000   5.001   0.035   4.689
 8034SOL    HW125001   4.957   0.102   4.629
 8034SOL    HW225002   4.932   6.995   4.730
 8035SOL     OW25003   5.333   6.383   0.130
 8035SOL    HW125004   5.354   6.429   0.044
 8035SOL    HW225005   5.284   6.446   0.191
 8036SOL     OW25006   2.172   3.858   1.815
 8036SOL    HW125007   2.109   3.933   1.798
 8036SOL    HW225008   2.194   3.853   1.912
 8037SOL     OW25009   1.519   2.616   0.471
 8037SOL    HW125010   1.446   2.629   0.538
 8037SOL    HW225011   1.516   2.689   0.403
 8038SOL     OW25012   0.309   2.300   3.438
 8038SOL    HW125013   0.311   2.366   3.514
 8038SOL    HW225014   0.269   2.214   3.470
 8039SOL     OW25015   2.172   0.224   2.939
 8039SOL    HW125016   2.162   0.269   2.850
 8039SOL    HW225017   2.267   0.194   2.950
 8040SOL     OW25018   0.561   5.349   1.128
 8040SOL    HW125019   0.478   5.295   1.114
 8040SOL    HW225020   0.641   5.290   1.120
 8041SOL     OW25021   3.947   1.429   0.860
 8041SOL    HW125022   3.946   1.462   0.765
 8041SOL    HW225023   4.025   1.468   0.908
 8042SOL     OW25024   3.331   2.960   2.558
 8042SOL    HW125025   3.259   2.984   2.493
 8042SOL    HW225026   3.292   2.909   2.634
 8043SOL     OW25027   3.032   0.382   1.576
 8043SOL    HW125028   3.088   0.373   1.494
 8043SOL    HW225029   2.974   0.464   1.569
 8044SOL     OW25030   2.981   3.325   1.468
 8044SOL    HW125031   3.019   3.268   1.541
 8044SOL    HW225032   3.029   3.412   1.465
 8045SOL     OW25033   5.869   2.692   3.393
 8045SOL    HW125034   5.799   2.658   3.330
 8045SOL    HW225035   5.842   2.781   3.429
 8046SOL     OW25036   5.775   4.473   5.805
 8046SOL    HW125037   5.786   4.472   5.706
 8046SOL    HW225038   5.762   4.566   5.837
 8047SOL     OW25039   3.786   5.837   4.351
 8047SOL    HW125040   3.788   5.913   4.416
 8047SOL    HW225041   3.863   5.845   4.288
 8048SOL     OW25042   6.494   0.215   5.639
 8048SOL    HW125043   6.406   0.241   5.678
 8048SOL    HW225044   6.561   0.287   5.658
 8049SOL     OW25045   1.336   6.681   1.185
 8049SOL    HW125046   1.325   6.660   1.283
 8049SOL    HW225047   1.419   6.638   1.151
 8050SOL     OW25048   1.869   3.386   0.942
 8050SOL    HW125049   1.836   3.335   0.863
 8050SOL    HW225050   1.842   3.340   1.026
 8051SOL     OW25051   4.783   0.904   2.983
 8051SOL    HW125052   4.767   0.867   3.074
 8051SOL    HW225053   4.806   1.001   2.990
 8052SOL     OW25054   2.935   1.381   3.123
 8052SOL    HW125055   2.849   1.329   3.119
 8052SOL    HW225056   2.936   1.436   3.206
 8053SOL     OW25057   3.890   4.006   2.673
 8053SOL    HW125058   3.970   3.954   2.643
 8053SOL    HW225059   3.906   4.041   2.765
 8054SOL     OW25060   4.952   0.054   4.137
 8054SOL    HW125061   4.922   0.069   4.043
 8054SOL    HW225062   4.969   0.142   4.181
 8055SOL     OW25063   1.451   6.957   6.032
 8055SOL    HW125064   1.510   6.887   5.990
 8055SOL    HW225065   1.359   6.948   5.995
 8056SOL     OW25066   4.693   1.770   3.276
 8056SOL    HW125067   4.595   1.792   3.271
 8056SOL    HW225068   4.738   1.832   3.339
 8057SOL     OW25069   2.776   6.994   3.059
 8057SOL    HW125070   2.770   0.039   3.135
 8057SOL    HW225071   2.811   0.023   2.978
 8058SOL     OW25072   3.010   0.884   2.430
 8058SOL    HW125073   3.081   0.945   2.394
 8058SOL    HW225074   2.927   0.894   2.376
 8059SOL     OW25075   3.247   2.116   4.769
 8059SOL    HW125076   3.261   2.033   4.822
 8059SOL    HW225077   3.246   2.196   4.830
 8060SOL     OW25078   6.458   0.848   4.953
 8060SOL    HW125079   6.460   0.946   4.935
 8060SOL    HW225080   6.363   0.815   4.952
 8061SOL     OW25081   6.658   5.490   2.722
 8061SOL    HW125082   6.668   5.566   2.786
 8061SOL    HW225083   6.701   5.514   2.635
 8062SOL     OW25084   1.264   4.124   3.830
 8062SOL    HW125085   1.239   4.178   3.750
 8062SOL    HW225086   1.286   4.031   3.802
 8063SOL     OW25087   3.027   3.389   6.763
 8063SOL    HW125088   2.989   3.479   6.742
 8063SOL    HW225089   3.011   3.327   6.686
 8064SOL     OW25090   0.540   3.524   0.548
 8064SOL    HW125091   0.456   3.524   0.603
 8064SOL    HW225092   0.576   3.617   0.542
 8065SOL     OW25093   4.561   0.291   4.219
 8065SOL    HW125094   4.550   0.198   4.253
 8065SOL    HW225095   4.583   0.289   4.122
 8066SOL     OW25096   1.544   0.800   1.331
 8066SOL    HW125097   1.551   0.880   1.391
 8066SOL    HW225098   1.548   0.716   1.385
 8067SOL     OW25099   4.520   2.643   1.564
 8067SOL    HW125100   4.491   2.705   1.490
 8067SOL    HW225101   4.600   2.592   1.535
 8068SOL     OW25102   1.041   4.139   4.698
 8068SOL    HW125103   1.117   4.199   4.720
 8068SOL    HW225104   1.001   4.103   4.783
 8069SOL     OW25105   1.337   6.079   1.242
 8069SOL    HW125106   1.380   6.083   1.332
 8069SOL    HW225107   1.337   6.170   1.201
 8070SOL     OW25108   3.816   6.387   1.623
 8070SOL    HW125109   3.803   6.467   1.564
 8070SOL    HW225110   3.747   6.317   1.601
 8071SOL     OW25111   3.380   6.989   5.901
 8071SOL    HW125112   3.399   0.006   5.810
 8071SOL    HW225113   3.440   6.911   5.919
 8072SOL     OW25114   4.792   1.383   0.565
 8072SOL    HW125115   4.852   1.313   0.527
 8072SOL    HW225116   4.739   1.426   0.492
 8073SOL     OW25117   4.430   6.296   5.809
 8073SOL    HW125118   4.481   6.277   5.725
 8073SOL    HW225119   4.336   6.321   5.785
 8074SOL     OW25120   3.479   3.581   0.248
 8074SOL    HW125121   3.554   3.646   0.238
 8074SOL    HW225122   3.512   3.488   0.235
 8075SOL     OW25123   0.022   1.318   2.817
 8075SOL    HW125124   7.001   1.299   2.727
 8075SOL    HW225125   7.015   1.244   2.880
 8076SOL     OW25126   5.592   2.538   5.414
 8076SOL    HW125127   5.566   2.446   5.388
 8076SOL    HW225128   5.662   2.534   5.486
 8077SOL     OW25129   0.776   0.381   1.073
 8077SOL    HW125130   0.711   0.439   1.122
 8077SOL    HW225131   0.851   0.356   1.133
 8078SOL     OW25132   6.204   2.587   0.930
 8078SOL    HW125133   6.182   2.681   0.902
 8078SOL    HW225134   6.298   2.583   0.962
 8079SOL     OW25135   6.654   2.155   2.793
 8079SOL    HW125136   6.699   2.124   2.709
 8079SOL    HW225137   6.582   2.089   2.818
 8080SOL     OW25138   3.030   4.180   0.678
 8080SOL    HW125139   3.002   4.253   0.739
 8080SOL    HW225140   3.048   4.097   0.731
 8081SOL     OW25141   5.967   0.654   4.948
 8081SOL    HW125142   5.880   0.694   4.976
 8081SOL    HW225143   5.980   0.566   4.994
 8082SOL     OW25144   0.030   2.462   3.582
 8082SOL    HW125145   0.088   2.381   3.593
 8082SOL    HW225146   6.953   2.434   3.574
 8083SOL     OW25147   4.631   2.620   3.392
 8083SOL    HW125148   4.658   2.669   3.475
 8083SOL    HW225149   4.563   2.551   3.415
 8084SOL     OW25150   0.006   6.665   1.560
 8084SOL    HW125151   6.989   6.573   1.575
 8084SOL    HW225152   0.078   6.683   1.627
 8085SOL     OW25153   6.149   0.671   0.988
 8085SOL    HW125154   6.218   0.611   1.030
 8085SOL    HW225155   6.059   0.628   0.997
 8086SOL     OW25156   3.880   1.059   4.958
 8086SOL    HW125157   3.909   0.976   4.909
 8086SOL    HW225158   3.809   1.035   5.025
 8087SOL     OW25159   2.817   2.280   1.268
 8087SOL    HW125160   2.722   2.277   1.297
 8087SOL    HW225161   2.852   2.373   1.276
 8088SOL     OW25162   5.306   1.110   1.970
 8088SOL    HW125163   5.325   1.050   2.047
 8088SOL    HW225164   5.243   1.183   1.999
 8089SOL     OW25165   5.433   3.107   0.532
 8089SOL    HW125166   5.459   3.109   0.436
 8089SOL    HW225167   5.461   3.020   0.573
 8090SOL     OW25168   5.121   1.898   5.772
 8090SOL    HW125169   5.061   1.855   5.840
 8090SOL    HW225170   5.176   1.969   5.817
 8091SOL     OW25171   3.097   4.727   6.532
 8091SOL    HW125172   3.015   4.737   6.588
 8091SOL    HW225173   3.085   4.776   6.446
 8092SOL     OW25174   1.521   1.461   4.938
 8092SOL    HW125175   1.586   1.524   4.897
 8092SOL    HW225176   1.512   1.481   5.036
 8093SOL     OW25177   5.573   5.492   0.859
 8093SOL    HW125178   5.595   5.414   0.800
 8093SOL    HW225179   5.480   5.481   0.895
 8094SOL     OW25180   1.292   4.028   6.420
 8094SOL    HW125181   1.287   4.126   6.438
 8094SOL    HW225182   1.374   4.008   6.365
 8095SOL     OW25183   5.606   3.602   4.671
 8095SOL    HW125184   5.671   3.677   4.683
 8095SOL    HW225185   5.560   3.612   4.582
 8096SOL     OW25186   3.317   6.108   1.722
 8096SOL    HW125187   3.243   6.154   1.770
 8096SOL    HW225188   3.399   6.166   1.724
 8097SOL     OW25189   5.146   1.211   3.318
 8097SOL    HW125190   5.138   1.311   3.322
 8097SOL    HW225191   5.243   1.186   3.312
 8098SOL     OW25192   2.718   6.000   4.228
 8098SOL    HW125193   2.788   6.055   4.274
 8098SOL    HW225194   2.727   5.905   4.258
 8099SOL     OW25195   4.907   6.583   4.873
 8099SOL    HW125196   4.975   6.539   4.814
 8099SOL    HW225197   4.926   6.560   4.968
 8100SOL     OW25198   6.869   6.648   0.584
 8100SOL    HW125199   6.835   6.594   0.661
 8100SOL    HW225200   6.889   6.741   0.615
 8101SOL     OW25201   1.327   6.010   3.468
 8101SOL    HW125202   1.277   6.093   3.443
 8101SOL    HW225203   1.419   6.035   3.499
 8102SOL     OW25204   7.014   5.658   5.740
 8102SOL    HW125205   6.959   5.598   5.798
 8102SOL    HW225206   6.990   5.643   5.644
 8103SOL     OW25207   3.645   1.791   2.706
 8103SOL    HW125208   3.611   1.878   2.743
 8103SOL    HW225209   3.599   1.715   2.752
 8104SOL     OW25210   2.591   6.734   6.363
 8104SOL    HW125211   2.655   6.747   6.288
 8104SOL    HW225212   2.638   6.749   6.450
 8105SOL     OW25213   2.426   2.106   3.557
 8105SOL    HW125214   2.425   2.192   3.607
 8105SOL    HW225215   2.520   2.080   3.537
 8106SOL     OW25216   0.879   4.142   3.998
 8106SOL    HW125217   0.951   4.212   4.000
 8106SOL    HW225218   0.810   4.162   4.067
 8107SOL     OW25219   2.074   6.222   5.750
 8107SOL    HW125220   2.113   6.130   5.741
 8107SOL    HW225221   2.049   6.238   5.845
 8108SOL     OW25222   0.966   3.650   4.225
 8108SOL    HW125223   0.959   3.749   4.236
 8108SOL    HW225224   0.901   3.618   4.157
 8109SOL     OW25225   1.271   4.664   4.800
 8109SOL    HW125226   1.332   4.592   4.836
 8109SOL    HW225227   1.296   4.752   4.841
 8110SOL     OW25228   2.020   6.243   0.635
 8110SOL    HW125229   1.969   6.270   0.717
 8110SOL    HW225230   1.958   6.236   0.557
 8111SOL     OW25231   3.102   5.216   4.689
 8111SOL    HW125232   3.102   5.118   4.671
 8111SOL    HW225233   3.035   5.261   4.630
 8112SOL     OW25234   2.459   0.756   5.280
 8112SOL    HW125235   2.397   0.824   5.319
 8112SOL    HW225236   2.535   0.741   5.343
 8113SOL     OW25237   3.440   2.690   6.470
 8113SOL    HW125238   3.340   2.684   6.477
 8113SOL    HW225239   3.466   2.711   6.376
 8114SOL     OW25240   2.290   2.800   2.104
 8114SOL    HW125241   2.265   2.838   2.193
 8114SOL    HW225242   2.216   2.816   2.039
 8115SOL     OW25243   3.206   1.108   1.000
 8115SOL    HW125244   3.189   1.120   1.097
 8115SOL    HW225245   3.171   1.019   0.970
 8116SOL     OW25246   6.025   0.200   5.270
 8116SOL    HW125247   5.997   0.144   5.348
 8116SOL    HW225248   6.110   0.164   5.232
 8117SOL     OW25249   1.886   1.933   5.042
 8117SOL    HW125250   1.886   2.010   5.106
 8117SOL    HW225251   1.801   1.932   4.990
 8118SOL     OW25252   0.714   3.567   5.078
 8118SOL    HW125253   0.654   3.496   5.041
 8118SOL    HW225254   0.801   3.566   5.028
 8119SOL     OW25255   0.712   6.066   2.759
 8119SOL    HW125256   0.691   5.985   2.813
 8119SOL    HW225257   0.753   6.040   2.672
 8120SOL     OW25258   4.320   4.459   1.139
 8120SOL    HW125259   4.327   4.399   1.219
 8120SOL    HW225260   4.226   4.458   1.104
 8121SOL     OW25261   6.632   0.614   2.507
 8121SOL    HW125262   6.696   0.685   2.536
 8121SOL    HW225263   6.678   0.552   2.442
 8122SOL     OW25264   6.500   6.362   1.934
 8122SOL    HW125265   6.473   6.322   1.847
 8122SOL    HW225266   6.508   6.461   1.924
 8123SOL     OW25267   1.456   6.502   6.741
 8123SOL    HW125268   1.517   6.570   6.702
 8123SOL    HW225269   1.508   6.421   6.767
 8124SOL     OW25270   1.248   6.090   1.738
 8124SOL    HW125271   1.201   6.106   1.652
 8124SOL    HW225272   1.290   5.999   1.738
 8125SOL     OW25273   5.973   4.821   3.065
 8125SOL    HW125274   5.923   4.809   3.150
 8125SOL    HW225275   6.051   4.882   3.079
 8126SOL     OW25276   5.714   4.235   2.450
 8126SOL    HW125277   5.650   4.167   2.415
 8126SOL    HW225278   5.703   4.321   2.401
 8127SOL     OW25279   2.127   4.939   0.257
 8127SOL    HW125280   2.097   4.911   0.166
 8127SOL    HW225281   2.081   4.883   0.326
 8128SOL     OW25282   3.367   2.701   5.533
 8128SOL    HW125283   3.297   2.651   5.482
 8128SOL    HW225284   3.418   2.760   5.471
 8129SOL     OW25285   5.665   0.789   6.058
 8129SOL    HW125286   5.591   0.843   6.019
 8129SOL    HW225287   5.733   0.850   6.100
 8130SOL     OW25288   1.524   6.091   6.725
 8130SOL    HW125289   1.581   6.056   6.799
 8130SOL    HW225290   1.543   6.039   6.641
 8131SOL     OW25291   2.828   0.765   0.702
 8131SOL    HW125292   2.766   0.802   0.771
 8131SOL    HW225293   2.804   0.670   0.684
 8132SOL     OW25294   6.036   5.527   3.970
 8132SOL    HW125295   6.000   5.559   4.058
 8132SOL    HW225296   6.131   5.556   3.961
 8133SOL     OW25297   2.275   5.242   2.416
 8133SOL    HW125298   2.218   5.253   2.498
 8133SOL    HW225299   2.243   5.163   2.365
 8134SOL     OW25300   1.999   2.141   3.977
 8134SOL    HW125301   2.075   2.087   4.012
 8134SOL    HW225302   2.032   2.205   3.908
 8135SOL     OW25303   4.118   5.318   1.936
 8135SOL    HW125304   4.065   5.270   2.005
 8135SOL    HW225305   4.211   5.331   1.969
 8136SOL     OW25306   3.909   5.710   2.143
 8136SOL    HW125307   3.812   5.730   2.156
 8136SOL    HW225308   3.919   5.641   2.071
 8137SOL     OW25309   1.982   4.192   4.687
 8137SOL    HW125310   1.996   4.181   4.785
 8137SOL    HW225311   1.926   4.117   4.653
 8138SOL     OW25312   5.199   1.112   2.592
 8138SOL    HW125313   5.171   1.047   2.521
 8138SOL    HW225314   5.155   1.201   2.574
 8139SOL     OW25315   2.012   2.187   3.233
 8139SOL    HW125316   1.920   2.221   3.211
 8139SOL    HW225317   2.021   2.179   3.333
 8140SOL     OW25318   4.894   0.654   0.732
 8140SOL    HW125319   4.947   0.569   0.741
 8140SOL    HW225320   4.869   0.687   0.823
 8141SOL     OW25321   4.979   1.709   5.878
 8141SOL    HW125322   4.892   1.750   5.906
 8141SOL    HW225323   4.972   1.677   5.783
 8142SOL     OW25324   2.029   5.623   0.149
 8142SOL    HW125325   2.001   5.557   0.219
 8142SOL    HW225326   1.952   5.644   0.090
 8143SOL     OW25327   5.713   4.558   0.815
 8143SOL    HW125328   5.787   4.601   0.867
 8143SOL    HW225329   5.631   4.550   0.872
 8144SOL     OW25330   0.175   4.922   5.982
 8144SOL    HW125331   0.256   4.947   5.927
 8144SOL    HW225332   0.184   4.960   6.074
 8145SOL     OW25333   5.284   5.417   6.868
 8145SOL    HW125334   5.203   5.457   6.912
 8145SOL    HW225335   5.307   5.469   6.786
 8146SOL     OW25336   5.961   0.308   4.369
 8146SOL    HW125337   5.885   0.264   4.417
 8146SOL    HW225338   5.924   0.368   4.298
 8147SOL     OW25339   1.596   0.729   5.863
 8147SOL    HW125340   1.502   0.728   5.898
 8147SOL    HW225341   1.655   0.776   5.929
 8148SOL     OW25342   3.977   4.866   0.458
 8148SOL    HW125343   3.971   4.947   0.400
 8148SOL    HW225344   3.886   4.825   0.466
 8149SOL     OW25345   1.339   6.039   4.208
 8149SOL    HW125346   1.263   6.104   4.207
 8149SOL    HW225347   1.426   6.089   4.203
 8150SOL     OW25348   0.983   3.075   0.751
 8150SOL    HW125349   0.908   3.139   0.737
 8150SOL    HW225350   0.987   3.046   0.847
 8151SOL     OW25351   5.937   4.478   3.874
 8151SOL    HW125352   5.931   4.562   3.928
 8151SOL    HW225353   6.032   4.464   3.845
 8152SOL     OW25354   4.622   2.144   3.301
 8152SOL    HW125355   4.660   2.231   3.268
 8152SOL    HW225356   4.690   2.097   3.357
 8153SOL     OW25357   0.074   2.274   3.894
 8153SOL    HW125358   0.148   2.314   3.840
 8153SOL    HW225359   0.071   2.319   3.984
 8154SOL     OW25360   2.087   1.473   3.374
 8154SOL    HW125361   2.156   1.541   3.349
 8154SOL    HW225362   2.009   1.517   3.417
 8155SOL     OW25363   1.278   5.284   1.714
 8155SOL    HW125364   1.227   5.198   1.710
 8155SOL    HW225365   1.265   5.335   1.629
 8156SOL     OW25366   6.049   5.262   1.385
 8156SOL    HW125367   5.978   5.226   1.447
 8156SOL    HW225368   6.137   5.261   1.432
 8157SOL     OW25369   6.714   2.847   6.020
 8157SOL    HW125370   6.797   2.873   5.973
 8157SOL    HW225371   6.737   2.798   6.105
 8158SOL     OW25372   5.892   4.758   6.294
 8158SOL    HW125373   5.799   4.787   6.318
 8158SOL    HW225374   5.888   4.690   6.220
 8159SOL     OW25375   3.308   6.187   5.711
 8159SOL    HW125376   3.297   6.228   5.620
 8159SOL    HW225377   3.387   6.127   5.711
 8160SOL     OW25378   5.431   1.193   3.364
 8160SOL    HW125379   5.524   1.227   3.354
 8160SOL    HW225380   5.432   1.105   3.413
 8161SOL     OW25381   5.738   3.164   0.897
 8161SOL    HW125382   5.660   3.210   0.855
 8161SOL    HW225383   5.785   3.108   0.829
 8162SOL     OW25384   0.335   4.885   6.464
 8162SOL    HW125385   0.358   4.805   6.520
 8162SOL    HW225386   0.235   4.890   6.452
 8163SOL     OW25387   4.719   4.668   5.079
 8163SOL    HW125388   4.745   4.705   4.989
 8163SOL    HW225389   4.787   4.695   5.147
 8164SOL     OW25390   6.064   0.928   0.069
 8164SOL    HW125391   6.103   0.848   0.024
 8164SOL    HW225392   6.071   0.918   0.168
 8165SOL     OW25393   0.551   2.050   6.450
 8165SOL    HW125394   0.495   2.106   6.511
 8165SOL    HW225395   0.492   1.992   6.394
 8166SOL     OW25396   1.437   2.304   4.617
 8166SOL    HW125397   1.388   2.378   4.571
 8166SOL    HW225398   1.535   2.319   4.609
 8167SOL     OW25399   0.091   2.796   4.047
 8167SOL    HW125400   0.009   2.843   4.079
 8167SOL    HW225401   0.064   2.717   3.991
 8168SOL     OW25402   2.635   0.757   1.633
 8168SOL    HW125403   2.628   0.670   1.585
 8168SOL    HW225404   2.729   0.771   1.664
 8169SOL     OW25405   5.283   2.449   1.435
 8169SOL    HW125406   5.311   2.489   1.523
 8169SOL    HW225407   5.305   2.351   1.435
 8170SOL     OW25408   6.433   4.692   2.586
 8170SOL    HW125409   6.366   4.673   2.658
 8170SOL    HW225410   6.475   4.782   2.602
 8171SOL     OW25411   2.056   1.371   0.687
 8171SOL    HW125412   1.962   1.342   0.674
 8171SOL    HW225413   2.059   1.471   0.695
 8172SOL     OW25414   0.800   2.841   1.942
 8172SOL    HW125415   0.756   2.883   2.022
 8172SOL    HW225416   0.898   2.859   1.944
 8173SOL     OW25417   5.711   1.397   1.860
 8173SOL    HW125418   5.660   1.437   1.936
 8173SOL    HW225419   5.653   1.330   1.812
 8174SOL     OW25420   2.508   5.281   2.681
 8174SOL    HW125421   2.580   5.251   2.744
 8174SOL    HW225422   2.419   5.251   2.716
 8175SOL     OW25423   0.646   2.063   4.290
 8175SOL    HW125424   0.619   2.095   4.199
 8175SOL    HW225425   0.599   2.117   4.360
 8176SOL     OW25426   2.131   4.388   1.121
 8176SOL    HW125427   2.204   4.442   1.162
 8176SOL    HW225428   2.154   4.291   1.127
 8177SOL     OW25429   3.510   1.515   2.793
 8177SOL    HW125430   3.439   1.476   2.735
 8177SOL    HW225431   3.577   1.444   2.816
 8178SOL     OW25432   2.124   6.530   1.140
 8178SOL    HW125433   2.213   6.527   1.186
 8178SOL    HW225434   2.134   6.572   1.050
 8179SOL     OW25435   5.566   0.811   3.315
 8179SOL    HW125436   5.481   0.818   3.368
 8179SOL    HW225437   5.644   0.820   3.376
 8180SOL     OW25438   4.794   6.021   6.889
 8180SOL    HW125439   4.855   5.948   6.923
 8180SOL    HW225440   4.819   6.108   6.932
 8181SOL     OW25441   0.748   0.882   1.183
 8181SOL    HW125442   0.822   0.946   1.164
 8181SOL    HW225443   0.737   0.872   1.281
 8182SOL     OW25444   2.910   3.342   4.418
 8182SOL    HW125445   2.966   3.263   4.393
 8182SOL    HW225446   2.962   3.426   4.402
 8183SOL     OW25447   6.913   0.247   5.218
 8183SOL    HW125448   6.842   0.271   5.284
 8183SOL    HW225449   6.996   0.300   5.238
 8184SOL     OW25450   0.609   6.199   6.858
 8184SOL    HW125451   0.691   6.225   6.909
 8184SOL    HW225452   0.528   6.235   6.906
 8185SOL     OW25453   0.784   0.147   0.254
 8185SOL    HW125454   0.847   0.167   0.179
 8185SOL    HW225455   0.690   0.158   0.221
 8186SOL     OW25456   1.489   5.649   6.705
 8186SOL    HW125457   1.486   5.651   6.605
 8186SOL    HW225458   1.541   5.570   6.735
 8187SOL     OW25459   1.373   0.609   6.035
 8187SOL    HW125460   1.413   0.539   6.095
 8187SOL    HW225461   1.319   0.673   6.090
 8188SOL     OW25462   2.853   1.980   4.126
 8188SOL    HW125463   2.829   2.070   4.090
 8188SOL    HW225464   2.770   1.928   4.144
 8189SOL     OW25465   4.723   4.799   3.798
 8189SOL    HW125466   4.694   4.892   3.824
 8189SOL    HW225467   4.804   4.805   3.740
 8190SOL     OW25468   6.070   3.755   2.997
 8190SOL    HW125469   6.068   3.844   2.950
 8190SOL    HW225470   5.997   3.697   2.961
 8191SOL     OW25471   4.245   5.190   1.438
 8191SOL    HW125472   4.285   5.160   1.524
 8191SOL    HW225473   4.316   5.194   1.367
 8192SOL     OW25474   1.832   4.705   3.498
 8192SOL    HW125475   1.756   4.643   3.480
 8192SOL    HW225476   1.828   4.737   3.593
 8193SOL     OW25477   0.228   4.033   5.013
 8193SOL    HW125478   0.235   4.115   4.956
 8193SOL    HW225479   0.308   4.026   5.072
 8194SOL     OW25480   4.717   6.774   1.939
 8194SOL    HW125481   4.753   6.688   1.904
 8194SOL    HW225482   4.622   6.786   1.910
 8195SOL     OW25483   5.554   6.405   3.202
 8195SOL    HW125484   5.503   6.360   3.128
 8195SOL    HW225485   5.638   6.354   3.219
 8196SOL     OW25486   4.660   0.328   0.185
 8196SOL    HW125487   4.755   0.298   0.174
 8196SOL    HW225488   4.658   0.428   0.194
 8197SOL     OW25489   5.157   2.097   1.616
 8197SOL    HW125490   5.067   2.060   1.590
 8197SOL    HW225491   5.145   2.182   1.666
 8198SOL     OW25492   2.048   0.591   2.551
 8198SOL    HW125493   2.148   0.595   2.545
 8198SOL    HW225494   2.008   0.656   2.486
 8199SOL     OW25495   5.559   2.795   5.818
 8199SOL    HW125496   5.488   2.857   5.783
 8199SOL    HW225497   5.625   2.848   5.871
 8200SOL     OW25498   4.327   3.430   1.137
 8200SOL    HW125499   4.399   3.498   1.150
 8200SOL    HW225500   4.349   3.371   1.060
 8201SOL     OW25501   0.240   6.880   5.060
 8201SOL    HW125502   0.160   6.853   5.006
 8201SOL    HW225503   0.247   6.980   5.061
 8202SOL     OW25504   0.516   6.289   2.491
 8202SOL    HW125505   0.422   6.257   2.491
 8202SOL    HW225506   0.577   6.212   2.470
 8203SOL     OW25507   1.690   2.893   1.020
 8203SOL    HW125508   1.732   2.897   1.111
 8203SOL    HW225509   1.607   2.836   1.024
 8204SOL     OW25510   4.406   3.367   1.410
 8204SOL    HW125511   4.359   3.339   1.326
 8204SOL    HW225512   4.353   3.337   1.490
 8205SOL     OW25513   1.153   3.474   0.527
 8205SOL    HW125514   1.138   3.524   0.612
 8205SOL    HW225515   1.161   3.376   0.546
 8206SOL     OW25516   4.347   1.202   6.908
 8206SOL    HW125517   4.405   1.141   6.853
 8206SOL    HW225518   4.339   1.291   6.862
 8207SOL     OW25519   4.079   3.187   4.360
 8207SOL    HW125520   4.157   3.192   4.421
 8207SOL    HW225521   4.093   3.251   4.283
 8208SOL     OW25522   1.116   1.225   7.008
 8208SOL    HW125523   1.164   1.156   0.044
 8208SOL    HW225524   1.147   1.220   6.913
 8209SOL     OW25525   6.643   0.844   5.334
 8209SOL    HW125526   6.699   0.823   5.414
 8209SOL    HW225527   6.594   0.930   5.349
 8210SOL     OW25528   1.894   2.963   0.640
 8210SOL    HW125529   1.971   2.921   0.688
 8210SOL    HW225530   1.930   3.033   0.578
 8211SOL     OW25531   2.880   4.285   1.138
 8211SOL    HW125532   2.895   4.189   1.159
 8211SOL    HW225533   2.893   4.300   1.040
 8212SOL     OW25534   2.051   2.205   2.943
 8212SOL    HW125535   2.066   2.201   3.042
 8212SOL    HW225536   2.132   2.245   2.899
 8213SOL     OW25537   0.179   4.982   1.654
 8213SOL    HW125538   0.241   4.951   1.582
 8213SOL    HW225539   0.103   4.917   1.663
 8214SOL     OW25540   5.783   4.395   3.412
 8214SOL    HW125541   5.795   4.373   3.509
 8214SOL    HW225542   5.788   4.493   3.399
 8215SOL     OW25543   3.894   4.939   4.839
 8215SOL    HW125544   3.925   5.023   4.883
 8215SOL    HW225545   3.972   4.893   4.797
 8216SOL     OW25546   5.239   4.467   4.162
 8216SOL    HW125547   5.192   4.414   4.092
 8216SOL    HW225548   5.172   4.512   4.221
 8217SOL     OW25549   1.949   5.983   0.737
 8217SOL    HW125550   1.915   6.027   0.820
 8217SOL    HW225551   1.968   6.052   0.668
 8218SOL     OW25552   0.288   1.768   0.242
 8218SOL    HW125553   0.279   1.669   0.245
 8218SOL    HW225554   0.361   1.797   0.305
 8219SOL     OW25555   5.660   2.153   6.591
 8219SOL    HW125556   5.645   2.121   6.684
 8219SOL    HW225557   5.640   2.079   6.526
 8220SOL     OW25558   3.700   3.715   2.495
 8220SOL    HW125559   3.676   3.770   2.575
 8220SOL    HW225560   3.742   3.630   2.525
 8221SOL     OW25561   5.055   5.922   3.939
 8221SOL    HW125562   4.989   5.997   3.936
 8221SOL    HW225563   5.147   5.958   3.925
 8222SOL     OW25564   6.112   1.819   1.911
 8222SOL    HW125565   6.082   1.752   1.844
 8222SOL    HW225566   6.210   1.808   1.928
 8223SOL     OW25567   0.650   4.217   6.226
 8223SOL    HW125568   0.588   4.189   6.300
 8223SOL    HW225569   0.597   4.231   6.142
 8224SOL     OW25570   0.840   2.839   2.621
 8224SOL    HW125571   0.839   2.892   2.536
 8224SOL    HW225572   0.812   2.898   2.697
 8225SOL     OW25573   4.773   1.104   6.051
 8225SOL    HW125574   4.851   1.056   6.091
 8225SOL    HW225575   4.794   1.202   6.047
 8226SOL     OW25576   5.104   0.811   1.189
 8226SOL    HW125577   5.079   0.853   1.276
 8226SOL    HW225578   5.195   0.843   1.161
 8227SOL     OW25579   6.482   3.175   3.176
 8227SOL    HW125580   6.509   3.212   3.265
 8227SOL    HW225581   6.386   3.195   3.158
 8228SOL     OW25582   0.521   1.733   4.833
 8228SOL    HW125583   0.568   1.726   4.745
 8228SOL    HW225584   0.536   1.823   4.872
 8229SOL     OW25585   2.988   5.754   6.966
 8229SOL    HW125586   2.957   5.708   0.030
 8229SOL    HW225587   2.910   5.801   6.924
 8230SOL     OW25588   4.666   7.001   5.007
 8230SOL    HW125589   4.580   0.006   4.961
 8230SOL    HW225590   4.711   0.065   5.039
 8231SOL     OW25591   5.220   5.471   1.456
 8231SOL    HW125592   5.211   5.533   1.378
 8231SOL    HW225593   5.295   5.407   1.439
 8232SOL     OW25594   4.118   1.320   0.147
 8232SOL    HW125595   4.160   1.250   0.204
 8232SOL    HW225596   4.176   1.401   0.146
 8233SOL     OW25597   0.658   5.201   5.915
 8233SOL    HW125598   0.585   5.239   5.858
 8233SOL    HW225599   0.701   5.274   5.967
 8234SOL     OW25600   2.611   2.371   0.117
 8234SOL    HW125601   2.564   2.426   0.048
 8234SOL    HW225602   2.620   2.424   0.201
 8235SOL     OW25603   3.847   3.376   0.956
 8235SOL    HW125604   3.797   3.312   1.013
 8235SOL    HW225605   3.798   3.389   0.870
 8236SOL     OW25606   6.667   2.979   0.237
 8236SOL    HW125607   6.742   2.918   0.214
 8236SOL    HW225608   6.701   3.053   0.295
 8237SOL     OW25609   4.312   5.489   5.450
 8237SOL    HW125610   4.213   5.490   5.466
 8237SOL    HW225611   4.348   5.581   5.461
 8238SOL     OW25612   2.118   3.804   0.307
 8238SOL    HW125613   2.069   3.733   0.256
 8238SOL    HW225614   2.197   3.765   0.352
 8239SOL     OW25615   6.379   2.083   5.306
 8239SOL    HW125616   6.403   2.175   5.336
 8239SOL    HW225617   6.343   2.031   5.384
 8240SOL     OW25618   3.037   3.994   2.549
 8240SOL    HW125619   3.028   4.080   2.601
 8240SOL    HW225620   3.001   3.919   2.604
 8241SOL     OW25621   3.193   0.055   0.776
 8241SOL    HW125622   3.143   6.997   0.737
 8241SOL    HW225623   3.285   0.058   0.737
 8242SOL     OW25624   0.702   4.454   5.952
 8242SOL    HW125625   0.719   4.473   5.855
 8242SOL    HW225626   0.773   4.495   6.008
 8243SOL     OW25627   0.093   2.892   5.813
 8243SOL    HW125628   0.138   2.815   5.857
 8243SOL    HW225629   0.030   2.936   5.877
 8244SOL     OW25630   0.344   0.027   3.995
 8244SOL    HW125631   0.315   0.117   4.027
 8244SOL    HW225632   0.296   0.005   3.910
 8245SOL     OW25633   4.540   1.943   1.095
 8245SOL    HW125634   4.640   1.939   1.101
 8245SOL    HW225635   4.512   2.034   1.065
 8246SOL     OW25636   6.144   4.081   6.089
 8246SOL    HW125637   6.151   4.177   6.115
 8246SOL    HW225638   6.089   4.073   6.006
 8247SOL     OW25639   0.808   0.532   1.403
 8247SOL    HW125640   0.801   0.554   1.500
 8247SOL    HW225641   0.905   0.528   1.377
 8248SOL     OW25642   5.514   4.793   3.977
 8248SOL    HW125643   5.559   4.748   3.900
 8248SOL    HW225644   5.564   4.876   4.001
 8249SOL     OW25645   2.049   4.752   4.409
 8249SOL    HW125646   2.128   4.715   4.360
 8249SOL    HW225647   2.080   4.803   4.490
 8250SOL     OW25648   3.756   4.068   3.161
 8250SOL    HW125649   3.665   4.058   3.120
 8250SOL    HW225650   3.751   4.042   3.258
 8251SOL     OW25651   5.049   2.080   4.896
 8251SOL    HW125652   5.052   2.166   4.846
 8251SOL    HW225653   5.112   2.085   4.975
 8252SOL     OW25654   2.756   3.163   5.875
 8252SOL    HW125655   2.769   3.111   5.960
 8252SOL    HW225656   2.775   3.260   5.892
 8253SOL     OW25657   3.306   2.952   5.221
 8253SOL    HW125658   3.240   2.881   5.246
 8253SOL    HW225659   3.298   3.029   5.284
 8254SOL     OW25660   4.200   4.775   4.335
 8254SOL    HW125661   4.206   4.768   4.434
 8254SOL    HW225662   4.286   4.745   4.293
 8255SOL     OW25663   4.226   5.747   4.214
 8255SOL    HW125664   4.291   5.703   4.152
 8255SOL    HW225665   4.271   5.822   4.262
 8256SOL     OW25666   5.667   1.161   3.644
 8256SOL    HW125667   5.682   1.135   3.739
 8256SOL    HW225668   5.601   1.236   3.640
 8257SOL     OW25669   5.863   5.182   3.154
 8257SOL    HW125670   5.911   5.095   3.140
 8257SOL    HW225671   5.909   5.236   3.224
 8258SOL     OW25672   4.873   1.141   0.457
 8258SOL    HW125673   4.970   1.122   0.442
 8258SOL    HW225674   4.843   1.094   0.540
 8259SOL     OW25675   3.603   1.564   3.793
 8259SOL    HW125676   3.578   1.644   3.849
 8259SOL    HW225677   3.520   1.518   3.762
 8260SOL     OW25678   2.583   6.659   2.052
 8260SOL    HW125679   2.516   6.729   2.027
 8260SOL    HW225680   2.605   6.604   1.972
 8261SOL     OW25681   5.614   1.407   0.871
 8261SOL    HW125682   5.597   1.411   0.970
 8261SOL    HW225683   5.713   1.413   0.854
 8262SOL     OW25684   1.041   2.421   1.419
 8262SOL    HW125685   1.096   2.345   1.453
 8262SOL    HW225686   1.034   2.491   1.490
 8263SOL     OW25687   0.055   1.138   1.443
 8263SOL    HW125688   0.114   1.069   1.485
 8263SOL    HW225689   0.106   1.223   1.430
 8264SOL     OW25690   1.184   6.289   2.077
 8264SOL    HW125691   1.265   6.244   2.040
 8264SOL    HW225692   1.113   6.293   2.007
 8265SOL     OW25693   1.959   0.379   1.926
 8265SOL    HW125694   1.977   0.298   1.871
 8265SOL    HW225695   1.861   0.399   1.925
 8266SOL     OW25696   2.066   6.445   3.036
 8266SOL    HW125697   2.098   6.526   3.084
 8266SOL    HW225698   2.029   6.472   2.947
 8267SOL     OW25699   1.828   3.420   1.295
 8267SOL    HW125700   1.855   3.325   1.277
 8267SOL    HW225701   1.826   3.436   1.393
 8268SOL     OW25702   2.245   6.693   6.223
 8268SOL    HW125703   2.267   6.767   6.287
 8268SOL    HW225704   2.282   6.715   6.133
 8269SOL     OW25705   5.833   1.741   0.822
 8269SOL    HW125706   5.917   1.762   0.772
 8269SOL    HW225707   5.779   1.824   0.835
 8270SOL     OW25708   3.302   6.585   4.019
 8270SOL    HW125709   3.233   6.534   3.969
 8270SOL    HW225710   3.260   6.630   4.098
 8271SOL     OW25711   6.763   1.556   3.115
 8271SOL    HW125712   6.846   1.558   3.059
 8271SOL    HW225713   6.694   1.501   3.070
 8272SOL     OW25714   4.386   0.751   2.356
 8272SOL    HW125715   4.356   0.684   2.425
 8272SOL    HW225716   4.483   0.770   2.369
 8273SOL     OW25717   2.069   6.841   1.198
 8273SOL    HW125718   2.037   6.830   1.104
 8273SOL    HW225719   2.167   6.820   1.202
 8274SOL     OW25720   4.279   4.946   2.880
 8274SOL    HW125721   4.206   4.894   2.923
 8274SOL    HW225722   4.283   5.038   2.920
 8275SOL     OW25723   4.197   2.283   5.934
 8275SOL    HW125724   4.257   2.238   6.000
 8275SOL    HW225725   4.198   2.233   5.848
 8276SOL     OW25726   0.532   2.138   4.064
 8276SOL    HW125727   0.547   2.233   4.036
 8276SOL    HW225728   0.434   2.121   4.073
 8277SOL     OW25729   6.747   0.785   6.350
 8277SOL    HW125730   6.680   0.717   6.320
 8277SOL    HW225731   6.798   0.749   6.429
 8278SOL     OW25732   2.585   2.092   0.116
 8278SOL    HW125733   2.584   2.192   0.124
 8278SOL    HW225734   2.589   2.052   0.208
 8279SOL     OW25735   0.697   6.161   4.679
 8279SOL    HW125736   0.716   6.258   4.694
 8279SOL    HW225737   0.758   6.125   4.608
 8280SOL     OW25738   3.029   2.505   6.899
 8280SOL    HW125739   2.982   2.478   6.984
 8280SOL    HW225740   2.963   2.544   6.836
 8281SOL     OW25741   1.190   5.729   1.325
 8281SOL    HW125742   1.129   5.664   1.280
 8281SOL    HW225743   1.145   5.818   1.329
 8282SOL     OW25744   5.529   2.981   6.395
 8282SOL    HW125745   5.505   3.069   6.353
 8282SOL    HW225746   5.573   2.997   6.483
 8283SOL     OW25747   1.208   4.616   6.311
 8283SOL    HW125748   1.137   4.550   6.338
 8283SOL    HW225749   1.298   4.571   6.317
 8284SOL     OW25750   0.474   4.428   2.145
 8284SOL    HW125751   0.439   4.470   2.061
 8284SOL    HW225752   0.566   4.462   2.164
 8285SOL     OW25753   3.948   3.154   5.028
 8285SOL    HW125754   3.991   3.159   5.119
 8285SOL    HW225755   3.914   3.061   5.013
 8286SOL     OW25756   6.357   2.539   5.501
 8286SOL    HW125757   6.427   2.572   5.564
 8286SOL    HW225758   6.267   2.569   5.532
 8287SOL     OW25759   1.145   5.335   4.596
 8287SOL    HW125760   1.094   5.420   4.604
 8287SOL    HW225761   1.141   5.302   4.501
 8288SOL     OW25762   2.647   2.340   3.215
 8288SOL    HW125763   2.677   2.248   3.188
 8288SOL    HW225764   2.623   2.392   3.133
 8289SOL     OW25765   0.717   0.216   0.510
 8289SOL    HW125766   0.737   0.200   0.413
 8289SOL    HW225767   0.731   0.131   0.560
 8290SOL     OW25768   6.861   1.721   0.536
 8290SOL    HW125769   6.768   1.729   0.500
 8290SOL    HW225770   6.860   1.741   0.634
 8291SOL     OW25771   4.652   0.234   6.860
 8291SOL    HW125772   4.569   0.211   6.911
 8291SOL    HW225773   4.664   0.333   6.859
 8292SOL     OW25774   2.800   6.496   0.470
 8292SOL    HW125775   2.785   6.582   0.519
 8292SOL    HW225776   2.726   6.482   0.405
 8293SOL     OW25777   4.175   0.030   6.499
 8293SOL    HW125778   4.204   0.114   6.545
 8293SOL    HW225779   4.223   6.971   6.539
 8294SOL     OW25780   5.949   3.218   6.331
 8294SOL    HW125781   6.011   3.238   6.255
 8294SOL    HW225782   5.995   3.157   6.395
 8295SOL     OW25783   5.376   4.936   2.191
 8295SOL    HW125784   5.355   4.848   2.233
 8295SOL    HW225785   5.407   5.001   2.260
 8296SOL     OW25786   1.347   6.291   6.532
 8296SOL    HW125787   1.403   6.338   6.601
 8296SOL    HW225788   1.274   6.351   6.501
 8297SOL     OW25789   6.239   2.531   3.446
 8297SOL    HW125790   6.335   2.504   3.440
 8297SOL    HW225791   6.202   2.542   3.354
 8298SOL     OW25792   5.098   1.346   1.743
 8298SOL    HW125793   5.081   1.247   1.738
 8298SOL    HW225794   5.159   1.373   1.669
 8299SOL     OW25795   0.379   3.140   1.913
 8299SOL    HW125796   0.382   3.041   1.928
 8299SOL    HW225797   0.451   3.166   1.850
 8300SOL     OW25798   0.512   4.530   5.458
 8300SOL    HW125799   0.441   4.489   5.401
 8300SOL    HW225800   0.473   4.557   5.546
 8301SOL     OW25801   4.176   2.343   1.055
 8301SOL    HW125802   4.183   2.272   1.125
 8301SOL    HW225803   4.175   2.433   1.099
 8302SOL     OW25804   5.908   6.625   6.846
 8302SOL    HW125805   5.941   6.662   6.932
 8302SOL    HW225806   5.981   6.626   6.778
 8303SOL     OW25807   0.218   0.061   4.805
 8303SOL    HW125808   0.241   0.092   4.713
 8303SOL    HW225809   0.118   0.062   4.817
 8304SOL     OW25810   1.209   3.460   6.200
 8304SOL    HW125811   1.202   3.559   6.209
 8304SOL    HW225812   1.170   3.432   6.112
 8305SOL     OW25813   3.561   5.595   3.816
 8305SOL    HW125814   3.623   5.561   3.888
 8305SOL    HW225815   3.597   5.569   3.727
 8306SOL     OW25816   0.627   2.430   5.524
 8306SOL    HW125817   0.618   2.419   5.623
 8306SOL    HW225818   0.652   2.342   5.484
 8307SOL     OW25819   3.657   5.293   1.032
 8307SOL    HW125820   3.617   5.373   0.987
 8307SOL    HW225821   3.713   5.242   0.966
 8308SOL     OW25822   4.340   6.702   1.610
 8308SOL    HW125823   4.344   6.622   1.551
 8308SOL    HW225824   4.248   6.710   1.650
 8309SOL     OW25825   5.580   5.464   3.074
 8309SOL    HW125826   5.513   5.514   3.129
 8309SOL    HW225827   5.619   5.390   3.128
 8310SOL     OW25828   1.038   4.278   0.585
 8310SOL    HW125829   1.097   4.325   0.651
 8310SOL    HW225830   1.004   4.193   0.626
 8311SOL     OW25831   0.329   0.682   6.479
 8311SOL    HW125832   0.319   0.605   6.416
 8311SOL    HW225833   0.423   0.716   6.475
 8312SOL     OW25834   4.849   6.254   1.424
 8312SOL    HW125835   4.833   6.236   1.521
 8312SOL    HW225836   4.879   6.349   1.412
 8313SOL     OW25837   4.102   1.981   2.983
 8313SOL    HW125838   4.085   1.920   3.061
 8313SOL    HW225839   4.116   1.926   2.901
 8314SOL     OW25840   5.117   6.640   1.009
 8314SOL    HW125841   5.103   6.604   0.917
 8314SOL    HW225842   5.055   6.716   1.026
 8315SOL     OW25843   4.311   3.270   0.742
 8315SOL    HW125844   4.246   3.334   0.784
 8315SOL    HW225845   4.307   3.280   0.642
 8316SOL     OW25846   0.484   3.987   1.274
 8316SOL    HW125847   0.399   4.038   1.285
 8316SOL    HW225848   0.466   3.901   1.227
 8317SOL     OW25849   2.127   3.325   2.647
 8317SOL    HW125850   2.029   3.308   2.653
 8317SOL    HW225851   2.145   3.391   2.573
 8318SOL     OW25852   4.261   1.802   4.985
 8318SOL    HW125853   4.356   1.771   4.985
 8318SOL    HW225854   4.253   1.886   4.931
 8319SOL     OW25855   3.345   1.385   5.553
 8319SOL    HW125856   3.334   1.449   5.629
 8319SOL    HW225857   3.309   1.427   5.469
 8320SOL     OW25858   3.279   4.917   1.248
 8320SOL    HW125859   3.251   4.848   1.315
 8320SOL    HW225860   3.276   5.008   1.290
 8321SOL     OW25861   0.312   1.484   6.633
 8321SOL    HW125862   0.369   1.494   6.714
 8321SOL    HW225863   0.370   1.467   6.553
 8322SOL     OW25864   6.690   7.004   6.905
 8322SOL    HW125865   6.612   0.012   6.962
 8322SOL    HW225866   6.746   6.939   6.955
 8323SOL     OW25867   0.515   0.261   2.500
 8323SOL    HW125868   0.580   0.330   2.467
 8323SOL    HW225869   0.422   0.292   2.485
 8324SOL     OW25870   6.416   0.500   2.245
 8324SOL    HW125871   6.438   0.583   2.296
 8324SOL    HW225872   6.348   0.521   2.175
 8325SOL     OW25873   4.106   3.480   4.660
 8325SOL    HW125874   4.106   3.524   4.750
 8325SOL    HW225875   4.094   3.381   4.672
 8326SOL     OW25876   4.477   3.465   5.552
 8326SOL    HW125877   4.478   3.547   5.494
 8326SOL    HW225878   4.383   3.441   5.574
 8327SOL     OW25879   4.972   2.236   5.655
 8327SOL    HW125880   4.978   2.292   5.737
 8327SOL    HW225881   4.899   2.272   5.596
 8328SOL     OW25882   2.649   3.760   6.183
 8328SOL    HW125883   2.583   3.827   6.148
 8328SOL    HW225884   2.717   3.807   6.239
 8329SOL     OW25885   0.017   2.652   5.280
 8329SOL    HW125886   0.104   2.602   5.280
 8329SOL    HW225887   0.036   2.751   5.278
 8330SOL     OW25888   1.652   6.526   0.662
 8330SOL    HW125889   1.658   6.447   0.722
 8330SOL    HW225890   1.703   6.508   0.578
 8331SOL     OW25891   2.930   6.973   1.128
 8331SOL    HW125892   2.928   0.053   1.140
 8331SOL    HW225893   2.902   6.929   1.214
 8332SOL     OW25894   4.769   5.309   2.206
 8332SOL    HW125895   4.780   5.265   2.295
 8332SOL    HW225896   4.673   5.305   2.179
 8333SOL     OW25897   7.000   5.800   0.141
 8333SOL    HW125898   6.966   5.707   0.126
 8333SOL    HW225899   0.081   5.799   0.143
 8334SOL     OW25900   5.511   1.378   3.953
 8334SOL    HW125901   5.467   1.464   3.980
 8334SOL    HW225902   5.454   1.332   3.884
 8335SOL     OW25903   6.446   5.279   5.919
 8335SOL    HW125904   6.349   5.295   5.934
 8335SOL    HW225905   6.500   5.336   5.980
 8336SOL     OW25906   6.744   1.197   2.895
 8336SOL    HW125907   6.797   1.228   2.816
 8336SOL    HW225908   6.689   1.273   2.930
 8337SOL     OW25909   0.698   6.301   4.022
 8337SOL    HW125910   0.640   6.220   4.009
 8337SOL    HW225911   0.734   6.330   3.934
 8338SOL     OW25912   1.827   4.841   1.598
 8338SOL    HW125913   1.755   4.909   1.614
 8338SOL    HW225914   1.915   4.888   1.588
 8339SOL     OW25915   6.773   0.934   2.846
 8339SOL    HW125916   6.859   0.900   2.883
 8339SOL    HW225917   6.769   1.033   2.857
 8340SOL     OW25918   4.713   3.876   1.053
 8340SOL    HW125919   4.686   3.956   1.000
 8340SOL    HW225920   4.794   3.834   1.011
 8341SOL     OW25921   1.646   6.874   0.437
 8341SOL    HW125922   1.714   6.803   0.452
 8341SOL    HW225923   1.620   6.914   0.525
 8342SOL     OW25924   3.639   0.295   1.085
 8342SOL    HW125925   3.732   0.319   1.057
 8342SOL    HW225926   3.591   0.377   1.117
 8343SOL     OW25927   1.881   5.212   5.919
 8343SOL    HW125928   1.893   5.113   5.927
 8343SOL    HW225929   1.841   5.248   6.004
 8344SOL     OW25930   4.755   6.464   5.998
 8344SOL    HW125931   4.700   6.541   6.030
 8344SOL    HW225932   4.850   6.477   6.025
 8345SOL     OW25933   5.720   1.957   3.559
 8345SOL    HW125934   5.695   1.936   3.464
 8345SOL    HW225935   5.688   1.883   3.618
 8346SOL     OW25936   2.482   4.764   0.376
 8346SOL    HW125937   2.464   4.743   0.472
 8346SOL    HW225938   2.572   4.728   0.350
 8347SOL     OW25939   2.728   6.942   5.208
 8347SOL    HW125940   2.680   6.901   5.286
 8347SOL    HW225941   2.670   7.011   5.166
 8348SOL     OW25942   1.336   0.447   1.584
 8348SOL    HW125943   1.386   0.441   1.670
 8348SOL    HW225944   1.386   0.398   1.513
 8349SOL     OW25945   5.447   3.758   1.213
 8349SOL    HW125946   5.360   3.774   1.167
 8349SOL    HW225947   5.521   3.800   1.160
 8350SOL     OW25948   5.750   0.764   5.052
 8350SOL    HW125949   5.740   0.839   4.988
 8350SOL    HW225950   5.667   0.709   5.054
 8351SOL     OW25951   3.707   5.522   4.079
 8351SOL    HW125952   3.612   5.507   4.109
 8351SOL    HW225953   3.767   5.461   4.130
 8352SOL     OW25954   6.628   0.216   2.051
 8352SOL    HW125955   6.551   0.215   2.115
 8352SOL    HW225956   6.643   0.123   2.016
 8353SOL     OW25957   5.984   3.842   2.221
 8353SOL    HW125958   6.073   3.800   2.208
 8353SOL    HW225959   5.995   3.939   2.244
 8354SOL     OW25960   3.014   1.329   6.533
 8354SOL    HW125961   3.104   1.315   6.491
 8354SOL    HW225962   2.957   1.382   6.470
 8355SOL     OW25963   3.073   0.751   0.039
 8355SOL    HW125964   3.090   0.770   6.961
 8355SOL    HW225965   3.002   0.682   0.048
 8356SOL     OW25966   0.728   6.485   0.250
 8356SOL    HW125967   0.802   6.469   0.316
 8356SOL    HW225968   0.647   6.435   0.278
 8357SOL     OW25969   4.046   5.539   5.155
 8357SOL    HW125970   4.004   5.457   5.193
 8357SOL    HW225971   4.087   5.517   5.066
 8358SOL     OW25972   1.877   2.476   5.385
 8358SOL    HW125973   1.912   2.402   5.442
 8358SOL    HW225974   1.790   2.449   5.345
 8359SOL     OW25975   4.064   5.887   4.715
 8359SOL    HW125976   4.108   5.964   4.669
 8359SOL    HW225977   3.965   5.895   4.705
 8360SOL     OW25978   3.727   0.363   2.769
 8360SOL    HW125979   3.771   0.287   2.722
 8360SOL    HW225980   3.690   0.427   2.701
 8361SOL     OW25981   1.768   1.529   2.436
 8361SOL    HW125982   1.783   1.492   2.527
 8361SOL    HW225983   1.769   1.629   2.439
 8362SOL     OW25984   2.970   2.360   0.563
 8362SOL    HW125985   2.996   2.278   0.615
 8362SOL    HW225986   2.927   2.426   0.625
 8363SOL     OW25987   1.027   2.570   0.853
 8363SOL    HW125988   1.027   2.645   0.920
 8363SOL    HW225989   1.030   2.609   0.761
 8364SOL     OW25990   6.742   3.386   2.802
 8364SOL    HW125991   6.740   3.315   2.873
 8364SOL    HW225992   6.756   3.343   2.713
 8365SOL     OW25993   2.244   3.435   0.674
 8365SOL    HW125994   2.269   3.338   0.668
 8365SOL    HW225995   2.193   3.460   0.592
 8366SOL     OW25996   4.604   6.122   2.250
 8366SOL    HW125997   4.660   6.132   2.333
 8366SOL    HW225998   4.513   6.159   2.267
 8367SOL     OW25999   4.689   6.488   3.807
 8367SOL    HW126000   4.652   6.448   3.891
 8367SOL    HW226001   4.701   6.416   3.738
 8368SOL     OW26002   2.922   5.639   6.268
 8368SOL    HW126003   2.955   5.722   6.224
 8368SOL    HW226004   2.827   5.622   6.241
 8369SOL     OW26005   1.943   0.680   0.391
 8369SOL    HW126006   1.884   0.620   0.338
 8369SOL    HW226007   1.913   0.775   0.380
 8370SOL     OW26008   2.616   2.000   5.823
 8370SOL    HW126009   2.638   2.023   5.917
 8370SOL    HW226010   2.653   1.910   5.800
 8371SOL     OW26011   1.305   3.493   0.082
 8371SOL    HW126012   1.287   3.429   0.157
 8371SOL    HW226013   1.220   3.539   0.057
 8372SOL     OW26014   0.498   6.992   2.836
 8372SOL    HW126015   0.460   6.941   2.913
 8372SOL    HW226016   0.559   6.931   2.784
 8373SOL     OW26017   0.817   6.262   5.472
 8373SOL    HW126018   0.718   6.263   5.455
 8373SOL    HW226019   0.854   6.172   5.447
 8374SOL     OW26020   0.142   1.075   6.939
 8374SOL    HW126021   0.087   1.090   6.857
 8374SOL    HW226022   0.093   1.110   7.019
 8375SOL     OW26023   3.314   5.937   5.965
 8375SOL    HW126024   3.331   6.030   5.931
 8375SOL    HW226025   3.324   5.872   5.889
 8376SOL     OW26026   2.516   0.507   4.307
 8376SOL    HW126027   2.528   0.558   4.392
 8376SOL    HW226028   2.444   0.438   4.319
 8377SOL     OW26029   5.766   5.725   1.130
 8377SOL    HW126030   5.763   5.791   1.054
 8377SOL    HW226031   5.754   5.773   1.216
 8378SOL     OW26032   5.596   3.669   3.031
 8378SOL    HW126033   5.502   3.647   3.005
 8378SOL    HW226034   5.640   3.588   3.070
 8379SOL     OW26035   6.613   3.936   2.057
 8379SOL    HW126036   6.691   3.925   2.119
 8379SOL    HW226037   6.645   3.963   1.967
 8380SOL     OW26038   5.856   1.402   2.306
 8380SOL    HW126039   5.879   1.306   2.293
 8380SOL    HW226040   5.832   1.418   2.402
 8381SOL     OW26041   0.940   5.205   4.736
 8381SOL    HW126042   0.869   5.273   4.757
 8381SOL    HW226043   1.018   5.251   4.693
 8382SOL     OW26044   1.607   1.793   2.382
 8382SOL    HW126045   1.657   1.728   2.325
 8382SOL    HW226046   1.590   1.753   2.472
 8383SOL     OW26047   2.702   2.041   6.693
 8383SOL    HW126048   2.715   2.130   6.735
 8383SOL    HW226049   2.662   2.053   6.602
 8384SOL     OW26050   7.002   6.514   1.057
 8384SOL    HW126051   0.019   6.535   1.148
 8384SOL    HW226052   6.919   6.569   1.041
 8385SOL     OW26053   5.628   2.577   1.979
 8385SOL    HW126054   5.697   2.621   2.038
 8385SOL    HW226055   5.673   2.520   1.911
 8386SOL     OW26056   1.099   4.195   2.679
 8386SOL    HW126057   1.012   4.147   2.674
 8386SOL    HW226058   1.157   4.152   2.748
 8387SOL     OW26059   1.634   1.059   1.059
 8387SOL    HW126060   1.574   1.108   0.995
 8387SOL    HW226061   1.594   1.061   1.150
 8388SOL     OW26062   2.914   6.255   1.541
 8388SOL    HW126063   2.949   6.162   1.540
 8388SOL    HW226064   2.914   6.292   1.449
 8389SOL     OW26065   5.689   2.998   2.134
 8389SOL    HW126066   5.726   3.090   2.122
 8389SOL    HW226067   5.658   2.963   2.045
 8390SOL     OW26068   3.633   2.373   6.138
 8390SOL    HW126069   3.585   2.459   6.125
 8390SOL    HW226070   3.568   2.297   6.134
 8391SOL     OW26071   6.172   0.124   0.740
 8391SOL    HW126072   6.181   0.102   0.642
 8391SOL    HW226073   6.133   0.215   0.750
 8392SOL     OW26074   6.278   3.607   4.719
 8392SOL    HW126075   6.190   3.586   4.761
 8392SOL    HW226076   6.349   3.613   4.790
 8393SOL     OW26077   4.717   0.495   2.131
 8393SOL    HW126078   4.645   0.430   2.156
 8393SOL    HW226079   4.722   0.503   2.032
 8394SOL     OW26080   6.418   3.946   2.229
 8394SOL    HW126081   6.485   3.976   2.161
 8394SOL    HW226082   6.464   3.928   2.316
 8395SOL     OW26083   2.258   0.580   5.319
 8395SOL    HW126084   2.227   0.568   5.414
 8395SOL    HW226085   2.321   0.658   5.314
 8396SOL     OW26086   4.252   5.321   4.042
 8396SOL    HW126087   4.333   5.339   4.097
 8396SOL    HW226088   4.197   5.250   4.086
 8397SOL     OW26089   6.219   1.552   3.978
 8397SOL    HW126090   6.308   1.570   3.937
 8397SOL    HW226091   6.231   1.498   4.062
 8398SOL     OW26092   5.199   1.792   6.357
 8398SOL    HW126093   5.190   1.741   6.443
 8398SOL    HW226094   5.153   1.881   6.366
 8399SOL     OW26095   6.694   6.193   6.726
 8399SOL    HW126096   6.782   6.209   6.680
 8399SOL    HW226097   6.668   6.097   6.716
 8400SOL     OW26098   1.326   2.149   4.160
 8400SOL    HW126099   1.382   2.208   4.101
 8400SOL    HW226100   1.330   2.055   4.126
 8401SOL     OW26101   2.412   0.195   5.409
 8401SOL    HW126102   2.343   0.195   5.337
 8401SOL    HW226103   2.490   0.250   5.381
 8402SOL     OW26104   4.767   0.934   5.808
 8402SOL    HW126105   4.731   1.007   5.867
 8402SOL    HW226106   4.692   0.880   5.773
 8403SOL     OW26107   6.431   4.405   3.822
 8403SOL    HW126108   6.464   4.365   3.907
 8403SOL    HW226109   6.355   4.351   3.786
 8404SOL     OW26110   2.220   2.006   6.175
 8404SOL    HW126111   2.194   2.030   6.081
 8404SOL    HW226112   2.263   2.085   6.219
 8405SOL     OW26113   3.612   1.697   5.602
 8405SOL    HW126114   3.618   1.599   5.585
 8405SOL    HW226115   3.697   1.741   5.574
 8406SOL     OW26116   5.119   0.876   6.637
 8406SOL    HW126117   5.101   0.779   6.654
 8406SOL    HW226118   5.096   0.897   6.542
 8407SOL     OW26119   3.903   6.643   3.424
 8407SOL    HW126120   3.874   6.673   3.515
 8407SOL    HW226121   3.825   6.648   3.361
 8408SOL     OW26122   5.280   6.807   1.146
 8408SOL    HW126123   5.355   6.768   1.200
 8408SOL    HW226124   5.231   6.733   1.101
 8409SOL     OW26125   4.411   2.326   1.850
 8409SOL    HW126126   4.508   2.342   1.868
 8409SOL    HW226127   4.366   2.413   1.832
 8410SOL     OW26128   6.937   1.843   1.628
 8410SOL    HW126129   6.957   1.923   1.685
 8410SOL    HW226130   6.975   1.761   1.671
 8411SOL     OW26131   0.383   6.056   1.332
 8411SOL    HW126132   0.396   6.147   1.291
 8411SOL    HW226133   0.472   6.014   1.349
 8412SOL     OW26134   3.335   2.974   0.860
 8412SOL    HW126135   3.411   3.039   0.854
 8412SOL    HW226136   3.284   2.991   0.944
 8413SOL     OW26137   4.047   5.304   5.980
 8413SOL    HW126138   4.080   5.398   5.977
 8413SOL    HW226139   4.110   5.248   6.034
 8414SOL     OW26140   1.535   1.039   2.700
 8414SOL    HW126141   1.569   1.018   2.608
 8414SOL    HW226142   1.471   0.968   2.729
 8415SOL     OW26143   3.041   6.945   4.220
 8415SOL    HW126144   3.002   0.016   4.240
 8415SOL    HW226145   3.088   6.911   4.301
 8416SOL     OW26146   5.831   1.588   4.863
 8416SOL    HW126147   5.915   1.615   4.910
 8416SOL    HW226148   5.753   1.607   4.922
 8417SOL     OW26149   1.112   3.268   5.240
 8417SOL    HW126150   1.116   3.357   5.284
 8417SOL    HW226151   1.163   3.270   5.154
 8418SOL     OW26152   0.823   5.573   2.083
 8418SOL    HW126153   0.913   5.593   2.046
 8418SOL    HW226154   0.830   5.500   2.151
 8419SOL     OW26155   5.456   0.752   2.847
 8419SOL    HW126156   5.423   0.777   2.756
 8419SOL    HW226157   5.521   0.821   2.878
 8420SOL     OW26158   3.639   6.686   2.396
 8420SOL    HW126159   3.550   6.667   2.354
 8420SOL    HW226160   3.668   6.606   2.449
 8421SOL     OW26161   3.933   6.371   5.963
 8421SOL    HW126162   4.020   6.336   5.999
 8421SOL    HW226163   3.901   6.310   5.890
 8422SOL     OW26164   4.892   2.337   2.603
 8422SOL    HW126165   4.843   2.400   2.543
 8422SOL    HW226166   4.826   2.290   2.662
 8423SOL     OW26167   5.497   4.295   5.696
 8423SOL    HW126168   5.514   4.243   5.780
 8423SOL    HW226169   5.403   4.329   5.696
 8424SOL     OW26170   1.776   0.169   3.618
 8424SOL    HW126171   1.849   0.171   3.549
 8424SOL    HW226172   1.815   0.141   3.706
 8425SOL     OW26173   3.273   3.586   3.464
 8425SOL    HW126174   3.195   3.628   3.419
 8425SOL    HW226175   3.242   3.538   3.547
 8426SOL     OW26176   3.831   3.248   2.462
 8426SOL    HW126177   3.746   3.277   2.418
 8426SOL    HW226178   3.817   3.157   2.501
 8427SOL     OW26179   3.142   3.208   3.352
 8427SOL    HW126180   3.179   3.137   3.411
 8427SOL    HW226181   3.183   3.201   3.261
 8428SOL     OW26182   0.215   0.393   0.551
 8428SOL    HW126183   0.297   0.342   0.580
 8428SOL    HW226184   0.226   0.489   0.576
 8429SOL     OW26185   1.976   5.746   6.091
 8429SOL    HW126186   1.971   5.845   6.083
 8429SOL    HW226187   2.072   5.717   6.092
 8430SOL     OW26188   4.346   5.992   4.256
 8430SOL    HW126189   4.433   5.952   4.228
 8430SOL    HW226190   4.320   6.064   4.191
 8431SOL     OW26191   2.489   2.803   6.569
 8431SOL    HW126192   2.576   2.850   6.555
 8431SOL    HW226193   2.420   2.840   6.506
 8432SOL     OW26194   6.696   5.313   5.470
 8432SOL    HW126195   6.618   5.307   5.533
 8432SOL    HW226196   6.776   5.271   5.512
 8433SOL     OW26197   4.740   2.160   1.320
 8433SOL    HW126198   4.801   2.210   1.381
 8433SOL    HW226199   4.647   2.160   1.357
 8434SOL     OW26200   1.837   5.463   4.524
 8434SOL    HW126201   1.840   5.424   4.431
 8434SOL    HW226202   1.747   5.505   4.540
 8435SOL     OW26203   5.129   0.599   2.630
 8435SOL    HW126204   5.150   0.509   2.669
 8435SOL    HW226205   5.066   0.647   2.691
 8436SOL     OW26206   2.087   6.465   3.580
 8436SOL    HW126207   1.996   6.505   3.577
 8436SOL    HW226208   2.135   6.496   3.662
 8437SOL     OW26209   2.204   2.944   2.339
 8437SOL    HW126210   2.199   3.038   2.306
 8437SOL    HW226211   2.167   2.939   2.432
 8438SOL     OW26212   1.622   3.934   3.143
 8438SOL    HW126213   1.638   3.994   3.222
 8438SOL    HW226214   1.649   3.981   3.059
 8439SOL     OW26215   5.904   4.938   3.599
 8439SOL    HW126216   5.963   4.915   3.521
 8439SOL    HW226217   5.860   4.855   3.633
 8440SOL     OW26218   2.153   1.747   3.278
 8440SOL    HW126219   2.135   1.821   3.213
 8440SOL    HW226220   2.215   1.779   3.349
 8441SOL     OW26221   5.879   5.986   5.450
 8441SOL    HW126222   5.954   6.004   5.514
 8441SOL    HW226223   5.887   6.047   5.372
 8442SOL     OW26224   3.653   0.995   5.110
 8442SOL    HW126225   3.583   1.045   5.059
 8442SOL    HW226226   3.646   1.019   5.207
 8443SOL     OW26227   2.092   4.807   3.454
 8443SOL    HW126228   2.065   4.884   3.512
 8443SOL    HW226229   2.018   4.740   3.450
 8444SOL     OW26230   4.321   6.554   2.934
 8444SOL    HW126231   4.326   6.552   3.034
 8444SOL    HW226232   4.260   6.629   2.905
 8445SOL     OW26233   3.051   6.601   6.970
 8445SOL    HW126234   3.022   6.513   7.009
 8445SOL    HW226235   3.104   6.586   6.887
 8446SOL     OW26236   0.406   6.633   5.110
 8446SOL    HW126237   0.386   6.723   5.072
 8446SOL    HW226238   0.464   6.643   5.191
 8447SOL     OW26239   4.438   1.937   2.912
 8447SOL    HW126240   4.439   1.993   2.995
 8447SOL    HW226241   4.388   1.986   2.840
 8448SOL     OW26242   4.895   6.681   3.355
 8448SOL    HW126243   4.855   6.671   3.264
 8448SOL    HW226244   4.896   6.778   3.380
 8449SOL     OW26245   1.904   2.563   2.943
 8449SOL    HW126246   1.812   2.525   2.929
 8449SOL    HW226247   1.896   2.654   2.985
 8450SOL     OW26248   6.897   0.949   0.193
 8450SOL    HW126249   6.814   0.900   0.167
 8450SOL    HW226250   6.912   0.938   0.292
 8451SOL     OW26251   3.790   1.563   1.085
 8451SOL    HW126252   3.871   1.615   1.111
 8451SOL    HW226253   3.802   1.523   0.994
 8452SOL     OW26254   4.874   1.895   5.064
 8452SOL    HW126255   4.946   1.839   5.105
 8452SOL    HW226256   4.915   1.959   4.999
 8453SOL     OW26257   0.845   6.078   6.725
 8453SOL    HW126258   0.794   6.108   6.806
 8453SOL    HW226259   0.806   5.992   6.691
 8454SOL     OW26260   0.834   3.980   6.910
 8454SOL    HW126261   0.795   3.938   6.992
 8454SOL    HW226262   0.872   4.070   6.933
 8455SOL     OW26263   1.236   0.387   2.425
 8455SOL    HW126264   1.292   0.404   2.344
 8455SOL    HW226265   1.289   0.408   2.507
 8456SOL     OW26266   5.243   0.797   2.998
 8456SOL    HW126267   5.217   0.883   2.952
 8456SOL    HW226268   5.319   0.755   2.948
 8457SOL     OW26269   5.981   6.715   4.395
 8457SOL    HW126270   5.949   6.637   4.343
 8457SOL    HW226271   5.953   6.705   4.491
 8458SOL     OW26272   0.532   0.188   0.207
 8458SOL    HW126273   0.458   0.252   0.228
 8458SOL    HW226274   0.499   0.117   0.146
 8459SOL     OW26275   1.365   5.766   3.342
 8459SOL    HW126276   1.458   5.741   3.371
 8459SOL    HW226277   1.327   5.832   3.407
 8460SOL     OW26278   3.749   4.182   4.727
 8460SOL    HW126279   3.821   4.114   4.713
 8460SOL    HW226280   3.754   4.217   4.821
 8461SOL     OW26281   0.054   3.142   4.722
 8461SOL    HW126282   7.012   3.072   4.686
 8461SOL    HW226283   0.125   3.099   4.779
 8462SOL     OW26284   3.023   1.804   1.583
 8462SOL    HW126285   2.934   1.842   1.610
 8462SOL    HW226286   3.092   1.833   1.649
 8463SOL     OW26287   5.994   0.761   2.247
 8463SOL    HW126288   6.024   0.853   2.271
 8463SOL    HW226289   5.926   0.730   2.314
 8464SOL     OW26290   6.025   3.275   4.691
 8464SOL    HW126291   6.099   3.218   4.658
 8464SOL    HW226292   6.016   3.265   4.790
 8465SOL     OW26293   1.346   1.785   0.727
 8465SOL    HW126294   1.381   1.696   0.756
 8465SOL    HW226295   1.395   1.858   0.775
 8466SOL     OW26296   0.789   5.851   3.291
 8466SOL    HW126297   0.829   5.873   3.380
 8466SOL    HW226298   0.691   5.838   3.300
 8467SOL     OW26299   2.516   5.254   1.033
 8467SOL    HW126300   2.591   5.226   0.972
 8467SOL    HW226301   2.538   5.343   1.073
 8468SOL     OW26302   4.075   2.035   6.645
 8468SOL    HW126303   4.069   2.102   6.571
 8468SOL    HW226304   4.035   1.948   6.614
 8469SOL     OW26305   3.319   3.086   6.594
 8469SOL    HW126306   3.251   3.095   6.521
 8469SOL    HW226307   3.277   3.110   6.681
 8470SOL     OW26308   2.798   2.854   0.461
 8470SOL    HW126309   2.846   2.936   0.491
 8470SOL    HW226310   2.865   2.782   0.440
 8471SOL     OW26311   3.011   0.248   3.881
 8471SOL    HW126312   2.964   0.266   3.967
 8471SOL    HW226313   2.992   0.323   3.816
 8472SOL     OW26314   0.481   6.875   4.433
 8472SOL    HW126315   0.550   6.893   4.503
 8472SOL    HW226316   0.398   6.839   4.477
 8473SOL     OW26317   6.556   5.248   6.664
 8473SOL    HW126318   6.640   5.252   6.609
 8473SOL    HW226319   6.578   5.208   6.753
 8474SOL     OW26320   3.545   3.281   1.621
 8474SOL    HW126321   3.562   3.366   1.571
 8474SOL    HW226322   3.456   3.245   1.595
 8475SOL     OW26323   5.844   1.825   2.733
 8475SOL    HW126324   5.939   1.855   2.721
 8475SOL    HW226325   5.837   1.768   2.815
 8476SOL     OW26326   4.882   0.772   1.817
 8476SOL    HW126327   4.930   0.837   1.875
 8476SOL    HW226328   4.785   0.797   1.812
 8477SOL     OW26329   2.429   6.652   1.245
 8477SOL    HW126330   2.408   6.556   1.265
 8477SOL    HW226331   2.524   6.661   1.217
 8478SOL     OW26332   1.761   0.519   5.843
 8478SOL    HW126333   1.697   0.447   5.869
 8478SOL    HW226334   1.710   0.604   5.826
 8479SOL     OW26335   5.921   0.951   0.634
 8479SOL    HW126336   6.001   0.914   0.681
 8479SOL    HW226337   5.949   0.991   0.547
 8480SOL     OW26338   3.189   0.394   1.354
 8480SOL    HW126339   3.274   0.445   1.366
 8480SOL    HW226340   3.206   0.314   1.297
 8481SOL     OW26341   3.207   1.464   4.630
 8481SOL    HW126342   3.215   1.462   4.530
 8481SOL    HW226343   3.185   1.373   4.663
 8482SOL     OW26344   1.304   6.903   2.171
 8482SOL    HW126345   1.293   6.941   2.263
 8482SOL    HW226346   1.352   6.816   2.176
 8483SOL     OW26347   3.358   5.622   1.889
 8483SOL    HW126348   3.341   5.645   1.985
 8483SOL    HW226349   3.297   5.674   1.831
 8484SOL     OW26350   0.780   4.968   4.514
 8484SOL    HW126351   0.757   4.974   4.612
 8484SOL    HW226352   0.780   4.872   4.486
 8485SOL     OW26353   1.982   4.278   6.902
 8485SOL    HW126354   2.042   4.204   6.933
 8485SOL    HW226355   1.936   4.319   6.981
 8486SOL     OW26356   5.798   0.713   2.454
 8486SOL    HW126357   5.700   0.734   2.457
 8486SOL    HW226358   5.846   0.771   2.520
 8487SOL     OW26359   5.253   0.441   1.788
 8487SOL    HW126360   5.195   0.368   1.752
 8487SOL    HW226361   5.307   0.406   1.865
 8488SOL     OW26362   5.110   4.583   4.419
 8488SOL    HW126363   5.106   4.485   4.440
 8488SOL    HW226364   5.029   4.628   4.455
 8489SOL     OW26365   5.256   4.695   1.369
 8489SOL    HW126366   5.236   4.686   1.466
 8489SOL    HW226367   5.263   4.793   1.346
 8490SOL     OW26368   4.269   5.341   3.188
 8490SOL    HW126369   4.190   5.329   3.248
 8490SOL    HW226370   4.309   5.431   3.205
 8491SOL     OW26371   2.471   0.414   2.151
 8491SOL    HW126372   2.509   0.480   2.086
 8491SOL    HW226373   2.543   0.383   2.213
 8492SOL     OW26374   6.264   2.544   5.218
 8492SOL    HW126375   6.291   2.524   5.313
 8492SOL    HW226376   6.210   2.468   5.183
 8493SOL     OW26377   4.409   1.422   0.112
 8493SOL    HW126378   4.473   1.489   0.075
 8493SOL    HW226379   4.411   1.339   0.055
 8494SOL     OW26380   2.437   5.762   0.220
 8494SOL    HW126381   2.477   5.727   0.136
 8494SOL    HW226382   2.346   5.799   0.201
 8495SOL     OW26383   6.646   2.506   0.715
 8495SOL    HW126384   6.677   2.454   0.794
 8495SOL    HW226385   6.682   2.600   0.720
 8496SOL     OW26386   0.026   2.087   3.188
 8496SOL    HW126387   6.962   2.080   3.132
 8496SOL    HW226388   0.020   2.024   3.266
 8497SOL     OW26389   6.046   5.073   3.794
 8497SOL    HW126390   6.101   5.147   3.755
 8497SOL    HW226391   5.978   5.043   3.727
 8498SOL     OW26392   0.272   0.363   1.050
 8498SOL    HW126393   0.283   0.404   1.141
 8498SOL    HW226394   0.362   0.354   1.007
 8499SOL     OW26395   3.025   4.283   6.667
 8499SOL    HW126396   3.076   4.360   6.704
 8499SOL    HW226397   3.066   4.253   6.581
 8500SOL     OW26398   2.344   6.879   6.387
 8500SOL    HW126399   2.413   6.808   6.402
 8500SOL    HW226400   2.389   6.967   6.375
 8501SOL     OW26401   2.204   3.473   6.456
 8501SOL    HW126402   2.114   3.498   6.423
 8501SOL    HW226403   2.273   3.502   6.389
 8502SOL     OW26404   6.950   6.285   1.782
 8502SOL    HW126405   6.978   6.233   1.701
 8502SOL    HW226406   6.880   6.234   1.832
 8503SOL     OW26407   2.785   4.946   3.528
 8503SOL    HW126408   2.787   4.846   3.528
 8503SOL    HW226409   2.761   4.979   3.436
 8504SOL     OW26410   1.605   5.334   3.260
 8504SOL    HW126411   1.548   5.313   3.339
 8504SOL    HW226412   1.668   5.408   3.283
 8505SOL     OW26413   5.124   4.218   3.756
 8505SOL    HW126414   5.043   4.161   3.740
 8505SOL    HW226415   5.128   4.242   3.852
 8506SOL     OW26416   1.098   6.529   0.270
 8506SOL    HW126417   1.055   6.619   0.265
 8506SOL    HW226418   1.033   6.462   0.305
 8507SOL     OW26419   1.933   1.197   6.313
 8507SOL    HW126420   2.033   1.204   6.312
 8507SOL    HW226421   1.897   1.251   6.389
 8508SOL     OW26422   0.437   2.033   5.613
 8508SOL    HW126423   0.372   2.087   5.665
 8508SOL    HW226424   0.389   1.958   5.566
 8509SOL     OW26425   5.788   1.587   4.153
 8509SOL    HW126426   5.886   1.592   4.168
 8509SOL    HW226427   5.746   1.529   4.223
 8510SOL     OW26428   5.217   5.638   3.014
 8510SOL    HW126429   5.209   5.736   3.032
 8510SOL    HW226430   5.165   5.588   3.084
 8511SOL     OW26431   6.647   4.479   1.128
 8511SOL    HW126432   6.581   4.486   1.203
 8511SOL    HW226433   6.613   4.415   1.059
 8512SOL     OW26434   4.489   1.917   0.268
 8512SOL    HW126435   4.479   2.010   0.232
 8512SOL    HW226436   4.399   1.879   0.290
 8513SOL     OW26437   5.465   4.025   0.910
 8513SOL    HW126438   5.559   4.058   0.906
 8513SOL    HW226439   5.412   4.084   0.971
 8514SOL     OW26440   2.860   1.654   4.708
 8514SOL    HW126441   2.860   1.752   4.729
 8514SOL    HW226442   2.806   1.637   4.626
 8515SOL     OW26443   0.495   1.389   0.025
 8515SOL    HW126444   0.460   1.460   6.984
 8515SOL    HW226445   0.587   1.414   0.057
 8516SOL     OW26446   5.866   3.398   2.593
 8516SOL    HW126447   5.945   3.376   2.536
 8516SOL    HW226448   5.868   3.341   2.675
 8517SOL     OW26449   2.017   2.688   5.278
 8517SOL    HW126450   2.096   2.687   5.340
 8517SOL    HW226451   1.963   2.605   5.293
 8518SOL     OW26452   5.086   4.678   6.519
 8518SOL    HW126453   5.031   4.759   6.498
 8518SOL    HW226454   5.092   4.666   6.618
 8519SOL     OW26455   1.700   4.383   1.074
 8519SOL    HW126456   1.766   4.454   1.048
 8519SOL    HW226457   1.711   4.304   1.015
 8520SOL     OW26458   3.914   3.886   4.912
 8520SOL    HW126459   3.962   3.895   4.824
 8520SOL    HW226460   3.822   3.851   4.896
 8521SOL     OW26461   1.148   6.370   5.539
 8521SOL    HW126462   1.186   6.321   5.461
 8521SOL    HW226463   1.066   6.421   5.510
 8522SOL     OW26464   1.330   6.865   0.333
 8522SOL    HW126465   1.272   6.929   0.383
 8522SOL    HW226466   1.426   6.894   0.342
 8523SOL     OW26467   2.819   6.753   6.504
 8523SOL    HW126468   2.815   6.656   6.527
 8523SOL    HW226469   2.911   6.776   6.471
 8524SOL     OW26470   1.232   5.184   5.014
 8524SOL    HW126471   1.321   5.168   5.058
 8524SOL    HW226472   1.204   5.279   5.027
 8525SOL     OW26473   6.387   4.545   0.994
 8525SOL    HW126474   6.447   4.525   1.071
 8525SOL    HW226475   6.296   4.508   1.011
 8526SOL     OW26476   2.224   6.382   0.498
 8526SOL    HW126477   2.261   6.474   0.509
 8526SOL    HW226478   2.170   6.358   0.579
 8527SOL     OW26479   3.288   0.562   6.731
 8527SOL    HW126480   3.316   0.658   6.735
 8527SOL    HW226481   3.347   0.513   6.667
 8528SOL     OW26482   4.516   2.208   1.042
 8528SOL    HW126483   4.465   2.256   0.971
 8528SOL    HW226484   4.483   2.237   1.132
 8529SOL     OW26485   1.311   6.203   6.874
 8529SOL    HW126486   1.365   6.221   6.956
 8529SOL    HW226487   1.369   6.164   6.803
 8530SOL     OW26488   2.927   3.359   4.063
 8530SOL    HW126489   2.848   3.386   4.117
 8530SOL    HW226490   2.951   3.432   4.000
 8531SOL     OW26491   6.685   6.111   3.599
 8531SOL    HW126492   6.784   6.100   3.603
 8531SOL    HW226493   6.641   6.027   3.630
 8532SOL     OW26494   3.872   6.403   4.414
 8532SOL    HW126495   3.917   6.329   4.464
 8532SOL    HW226496   3.773   6.388   4.415
 8533SOL     OW26497   1.085   6.086   6.598
 8533SOL    HW126498   1.006   6.072   6.657
 8533SOL    HW226499   1.124   6.176   6.616
 8534SOL     OW26500   4.470   2.206   4.111
 8534SOL    HW126501   4.453   2.145   4.188
 8534SOL    HW226502   4.409   2.285   4.117
 8535SOL     OW26503   5.524   0.968   3.557
 8535SOL    HW126504   5.600   1.029   3.579
 8535SOL    HW226505   5.530   0.885   3.612
 8536SOL     OW26506   0.789   1.191   4.714
 8536SOL    HW126507   0.789   1.187   4.614
 8536SOL    HW226508   0.865   1.138   4.750
 8537SOL     OW26509   6.100   1.221   3.430
 8537SOL    HW126510   6.123   1.252   3.338
 8537SOL    HW226511   6.147   1.278   3.497
 8538SOL     OW26512   1.282   1.743   0.169
 8538SOL    HW126513   1.239   1.734   0.079
 8538SOL    HW226514   1.379   1.720   0.162
 8539SOL     OW26515   6.110   2.657   3.241
 8539SOL    HW126516   6.120   2.577   3.182
 8539SOL    HW226517   6.014   2.669   3.266
 8540SOL     OW26518   4.233   0.258   6.648
 8540SOL    HW126519   4.297   0.243   6.723
 8540SOL    HW226520   4.152   0.306   6.681
 8541SOL     OW26521   2.210   2.224   4.172
 8541SOL    HW126522   2.301   2.235   4.130
 8541SOL    HW226523   2.158   2.308   4.161
 8542SOL     OW26524   4.070   4.456   6.262
 8542SOL    HW126525   4.156   4.469   6.213
 8542SOL    HW226526   4.011   4.394   6.210
 8543SOL     OW26527   2.171   2.423   0.399
 8543SOL    HW126528   2.090   2.439   0.342
 8543SOL    HW226529   2.244   2.384   0.342
 8544SOL     OW26530   5.275   2.386   4.227
 8544SOL    HW126531   5.315   2.326   4.297
 8544SOL    HW226532   5.342   2.455   4.200
 8545SOL     OW26533   5.156   5.946   5.479
 8545SOL    HW126534   5.065   5.977   5.509
 8545SOL    HW226535   5.185   5.869   5.535
 8546SOL     OW26536   5.326   1.583   3.653
 8546SOL    HW126537   5.339   1.579   3.554
 8546SOL    HW226538   5.378   1.659   3.691
 8547SOL     OW26539   1.629   5.069   4.440
 8547SOL    HW126540   1.627   5.130   4.519
 8547SOL    HW226541   1.658   4.977   4.469
 8548SOL     OW26542   5.397   1.590   5.641
 8548SOL    HW126543   5.380   1.684   5.612
 8548SOL    HW226544   5.324   1.560   5.702
 8549SOL     OW26545   6.595   3.678   3.964
 8549SOL    HW126546   6.557   3.670   4.057
 8549SOL    HW226547   6.670   3.744   3.965
 8550SOL     OW26548   1.850   5.514   6.200
 8550SOL    HW126549   1.915   5.583   6.171
 8550SOL    HW226550   1.861   5.497   6.298
 8551SOL     OW26551   3.887   4.259   6.455
 8551SOL    HW126552   3.900   4.214   6.367
 8551SOL    HW226553   3.795   4.299   6.458
 8552SOL     OW26554   3.505   5.613   3.132
 8552SOL    HW126555   3.525   5.580   3.040
 8552SOL    HW226556   3.469   5.707   3.127
 8553SOL     OW26557   4.937   6.827   0.497
 8553SOL    HW126558   4.947   6.811   0.399
 8553SOL    HW226559   4.845   6.801   0.526
 8554SOL     OW26560   0.264   4.142   6.915
 8554SOL    HW126561   0.210   4.058   6.914
 8554SOL    HW226562   0.237   4.201   6.839
 8555SOL     OW26563   1.000   1.040   3.713
 8555SOL    HW126564   0.928   1.073   3.773
 8555SOL    HW226565   0.984   1.075   3.620
 8556SOL     OW26566   6.804   0.729   3.695
 8556SOL    HW126567   6.738   0.656   3.677
 8556SOL    HW226568   6.758   0.806   3.739
 8557SOL     OW26569   6.760   6.719   1.421
 8557SOL    HW126570   6.817   6.645   1.457
 8557SOL    HW226571   6.819   6.790   1.381
 8558SOL     OW26572   1.900   5.372   2.410
 8558SOL    HW126573   1.946   5.399   2.326
 8558SOL    HW226574   1.808   5.339   2.389
 8559SOL     OW26575   0.787   0.542   1.679
 8559SOL    HW126576   0.885   0.560   1.681
 8559SOL    HW226577   0.744   0.582   1.760
 8560SOL     OW26578   6.935   1.474   0.447
 8560SOL    HW126579   6.921   1.563   0.490
 8560SOL    HW226580   6.884   1.470   0.361
 8561SOL     OW26581   4.802   6.418   2.934
 8561SOL    HW126582   4.873   6.473   2.891
 8561SOL    HW226583   4.777   6.342   2.873
 8562SOL     OW26584   3.926   6.483   4.720
 8562SOL    HW126585   3.919   6.384   4.707
 8562SOL    HW226586   3.855   6.528   4.665
 8563SOL     OW26587   2.531   2.981   6.839
 8563SOL    HW126588   2.542   3.030   6.925
 8563SOL    HW226589   2.560   2.886   6.850
 8564SOL     OW26590   0.755   7.003   3.617
 8564SOL    HW126591   0.693   6.931   3.586
 8564SOL    HW226592   0.703   0.058   3.658
 8565SOL     OW26593   3.802   0.129   0.346
 8565SOL    HW126594   3.747   0.212   0.358
 8565SOL    HW226595   3.741   0.052   0.327
 8566SOL     OW26596   1.203   2.312   3.134
 8566SOL    HW126597   1.181   2.284   3.227
 8566SOL    HW226598   1.121   2.347   3.089
 8567SOL     OW26599   5.885   1.481   0.775
 8567SOL    HW126600   5.967   1.449   0.821
 8567SOL    HW226601   5.880   1.581   0.779
 8568SOL     OW26602   5.415   2.055   0.374
 8568SOL    HW126603   5.395   2.153   0.364
 8568SOL    HW226604   5.499   2.033   0.324
 8569SOL     OW26605   4.541   1.285   4.089
 8569SOL    HW126606   4.591   1.290   4.003
 8569SOL    HW226607   4.584   1.217   4.149
 8570SOL     OW26608   0.584   3.857   6.326
 8570SOL    HW126609   0.573   3.955   6.307
 8570SOL    HW226610   0.496   3.819   6.352
 8571SOL     OW26611   6.639   4.417   4.593
 8571SOL    HW126612   6.620   4.380   4.683
 8571SOL    HW226613   6.624   4.516   4.594
 8572SOL     OW26614   2.003   4.848   5.479
 8572SOL    HW126615   2.024   4.916   5.549
 8572SOL    HW226616   2.047   4.874   5.393
 8573SOL     OW26617   4.426   5.738   6.146
 8573SOL    HW126618   4.371   5.813   6.184
 8573SOL    HW226619   4.522   5.754   6.166
 8574SOL     OW26620   0.269   3.708   5.503
 8574SOL    HW126621   0.348   3.714   5.564
 8574SOL    HW226622   0.219   3.624   5.521
 8575SOL     OW26623   2.980   2.679   0.424
 8575SOL    HW126624   2.909   2.617   0.391
 8575SOL    HW226625   3.049   2.627   0.474
 8576SOL     OW26626   0.989   0.068   1.451
 8576SOL    HW126627   1.089   0.068   1.446
 8576SOL    HW226628   0.958   0.136   1.517
 8577SOL     OW26629   6.303   5.461   2.919
 8577SOL    HW126630   6.256   5.535   2.871
 8577SOL    HW226631   6.314   5.383   2.858
 8578SOL     OW26632   4.416   0.291   3.826
 8578SOL    HW126633   4.373   0.285   3.917
 8578SOL    HW226634   4.515   0.296   3.836
 8579SOL     OW26635   1.369   4.617   3.354
 8579SOL    HW126636   1.387   4.715   3.360
 8579SOL    HW226637   1.448   4.566   3.388
 8580SOL     OW26638   1.408   6.387   1.483
 8580SOL    HW126639   1.387   6.484   1.492
 8580SOL    HW226640   1.497   6.377   1.438
 8581SOL     OW26641   3.165   1.480   1.088
 8581SOL    HW126642   3.213   1.458   1.172
 8581SOL    HW226643   3.213   1.439   1.010
 8582SOL     OW26644   4.468   4.532   2.147
 8582SOL    HW126645   4.481   4.437   2.119
 8582SOL    HW226646   4.418   4.581   2.076
 8583SOL     OW26647   6.083   6.906   5.967
 8583SOL    HW126648   5.985   6.903   5.949
 8583SOL    HW226649   6.131   6.930   5.882
 8584SOL     OW26650   0.298   5.135   0.461
 8584SOL    HW126651   0.204   5.106   0.477
 8584SOL    HW226652   0.335   5.086   0.383
 8585SOL     OW26653   0.317   0.814   0.287
 8585SOL    HW126654   0.290   0.842   0.195
 8585SOL    HW226655   0.282   0.881   0.353
 8586SOL     OW26656   3.762   5.866   2.859
 8586SOL    HW126657   3.728   5.867   2.953
 8586SOL    HW226658   3.778   5.772   2.830
 8587SOL     OW26659   7.004   1.709   2.628
 8587SOL    HW126660   0.078   1.745   2.631
 8587SOL    HW226661   6.964   1.726   2.538
 8588SOL     OW26662   4.046   2.768   0.313
 8588SOL    HW126663   4.066   2.834   0.241
 8588SOL    HW226664   3.997   2.690   0.274
 8589SOL     OW26665   3.321   0.897   4.446
 8589SOL    HW126666   3.236   0.916   4.396
 8589SOL    HW226667   3.393   0.872   4.381
 8590SOL     OW26668   6.278   5.284   4.574
 8590SOL    HW126669   6.208   5.216   4.550
 8590SOL    HW226670   6.275   5.301   4.672
 8591SOL     OW26671   1.405   3.247   6.214
 8591SOL    HW126672   1.405   3.237   6.115
 8591SOL    HW226673   1.361   3.334   6.239
 8592SOL     OW26674   0.047   4.352   1.076
 8592SOL    HW126675   0.100   4.368   1.159
 8592SOL    HW226676   6.972   4.328   1.101
 8593SOL     OW26677   1.896   6.535   2.079
 8593SOL    HW126678   1.976   6.488   2.118
 8593SOL    HW226679   1.914   6.556   1.983
 8594SOL     OW26680   3.243   3.684   3.966
 8594SOL    HW126681   3.155   3.723   3.991
 8594SOL    HW226682   3.258   3.599   4.016
 8595SOL     OW26683   1.621   2.340   2.471
 8595SOL    HW126684   1.694   2.387   2.421
 8595SOL    HW226685   1.532   2.374   2.439
 8596SOL     OW26686   5.445   5.325   1.409
 8596SOL    HW126687   5.520   5.276   1.364
 8596SOL    HW226688   5.477   5.363   1.495
 8597SOL     OW26689   2.915   1.276   0.757
 8597SOL    HW126690   2.945   1.289   0.663
 8597SOL    HW226691   2.817   1.256   0.759
 8598SOL     OW26692   6.219   3.768   0.929
 8598SOL    HW126693   6.191   3.849   0.878
 8598SOL    HW226694   6.141   3.732   0.980
 8599SOL     OW26695   1.255   2.783   3.161
 8599SOL    HW126696   1.239   2.849   3.234
 8599SOL    HW226697   1.259   2.691   3.200
 8600SOL     OW26698   6.498   5.029   6.432
 8600SOL    HW126699   6.455   4.942   6.455
 8600SOL    HW226700   6.437   5.104   6.457
 8601SOL     OW26701   0.003   0.227   4.012
 8601SOL    HW126702   0.102   0.213   4.013
 8601SOL    HW226703   6.976   0.139   4.018
 8602SOL     OW26704   2.793   5.634   2.268
 8602SOL    HW126705   2.800   5.585   2.182
 8602SOL    HW226706   2.834   5.580   2.341
 8603SOL     OW26707   3.947   3.125   6.934
 8603SOL    HW126708   3.956   3.224   6.920
 8603SOL    HW226709   3.853   3.097   6.917
 8604SOL     OW26710   5.552   3.170   3.799
 8604SOL    HW126711   5.502   3.167   3.712
 8604SOL    HW226712   5.487   3.172   3.875
 8605SOL     OW26713   2.649   5.894   3.647
 8605SOL    HW126714   2.592   5.949   3.708
 8605SOL    HW226715   2.673   5.808   3.692
 8606SOL     OW26716   3.513   4.892   6.150
 8606SOL    HW126717   3.436   4.955   6.141
 8606SOL    HW226718   3.485   4.813   6.204
 8607SOL     OW26719   4.346   5.673   1.962
 8607SOL    HW126720   4.327   5.680   1.865
 8607SOL    HW226721   4.368   5.764   1.998
 8608SOL     OW26722   4.014   5.097   2.818
 8608SOL    HW126723   3.956   5.099   2.899
 8608SOL    HW226724   4.105   5.132   2.841
 8609SOL     OW26725   3.516   0.326   5.228
 8609SOL    HW126726   3.430   0.344   5.276
 8609SOL    HW226727   3.496   0.297   5.134
 8610SOL     OW26728   1.012   6.522   3.184
 8610SOL    HW126729   0.991   6.425   3.189
 8610SOL    HW226730   1.107   6.537   3.212
 8611SOL     OW26731   1.761   2.215   4.665
 8611SOL    HW126732   1.826   2.271   4.613
 8611SOL    HW226733   1.741   2.259   4.752
 8612SOL     OW26734   3.679   3.051   6.854
 8612SOL    HW126735   3.631   2.998   6.783
 8612SOL    HW226736   3.617   3.069   6.930
 8613SOL     OW26737   1.870   1.408   1.296
 8613SOL    HW126738   1.936   1.334   1.304
 8613SOL    HW226739   1.834   1.431   1.387
 8614SOL     OW26740   1.108   3.094   2.763
 8614SOL    HW126741   1.065   3.028   2.825
 8614SOL    HW226742   1.038   3.152   2.722
 8615SOL     OW26743   3.860   2.146   5.959
 8615SOL    HW126744   3.828   2.240   5.963
 8615SOL    HW226745   3.798   2.087   6.011
 8616SOL     OW26746   1.252   4.848   0.312
 8616SOL    HW126747   1.169   4.792   0.306
 8616SOL    HW226748   1.286   4.846   0.405
 8617SOL     OW26749   5.946   2.651   0.774
 8617SOL    HW126750   5.996   2.731   0.808
 8617SOL    HW226751   5.848   2.664   0.789
 8618SOL     OW26752   4.204   0.055   2.904
 8618SOL    HW126753   4.154   0.039   2.988
 8618SOL    HW226754   4.229   0.152   2.897
 8619SOL     OW26755   4.341   4.967   0.171
 8619SOL    HW126756   4.407   5.018   0.114
 8619SOL    HW226757   4.259   4.948   0.117
 8620SOL     OW26758   5.401   6.498   2.041
 8620SOL    HW126759   5.398   6.585   1.992
 8620SOL    HW226760   5.330   6.497   2.111
 8621SOL     OW26761   5.848   1.410   3.673
 8621SOL    HW126762   5.835   1.480   3.603
 8621SOL    HW226763   5.822   1.447   3.763
 8622SOL     OW26764   4.811   5.327   0.140
 8622SOL    HW126765   4.883   5.342   0.207
 8622SOL    HW226766   4.725   5.306   0.187
 8623SOL     OW26767   1.170   3.703   3.152
 8623SOL    HW126768   1.082   3.680   3.193
 8623SOL    HW226769   1.157   3.768   3.078
 8624SOL     OW26770   0.960   4.143   3.280
 8624SOL    HW126771   0.955   4.098   3.191
 8624SOL    HW226772   1.052   4.180   3.293
 8625SOL     OW26773   4.464   0.889   4.716
 8625SOL    HW126774   4.420   0.821   4.658
 8625SOL    HW226775   4.430   0.882   4.809
 8626SOL     OW26776   3.368   3.157   4.130
 8626SOL    HW126777   3.388   3.219   4.054
 8626SOL    HW226778   3.276   3.119   4.118
 8627SOL     OW26779   1.021   0.762   1.266
 8627SOL    HW126780   0.993   0.778   1.171
 8627SOL    HW226781   1.031   0.664   1.282
 8628SOL     OW26782   6.267   0.820   6.932
 8628SOL    HW126783   6.347   0.760   6.942
 8628SOL    HW226784   6.292   0.898   6.875
 8629SOL     OW26785   1.156   4.807   4.137
 8629SOL    HW126786   1.176   4.733   4.202
 8629SOL    HW226787   1.087   4.868   4.176
 8630SOL     OW26788   5.812   4.270   3.982
 8630SOL    HW126789   5.714   4.283   3.998
 8630SOL    HW226790   5.854   4.356   3.955
 8631SOL     OW26791   3.802   6.055   4.953
 8631SOL    HW126792   3.706   6.036   4.972
 8631SOL    HW226793   3.856   5.972   4.966
 8632SOL     OW26794   3.220   0.743   3.765
 8632SOL    HW126795   3.164   0.669   3.728
 8632SOL    HW226796   3.192   0.829   3.723
 8633SOL     OW26797   5.244   0.980   3.903
 8633SOL    HW126798   5.325   1.034   3.926
 8633SOL    HW226799   5.190   0.965   3.986
 8634SOL     OW26800   6.883   4.359   1.877
 8634SOL    HW126801   6.783   4.361   1.880
 8634SOL    HW226802   6.920   4.430   1.936
 8635SOL     OW26803   6.028   4.006   5.833
 8635SOL    HW126804   5.959   4.061   5.786
 8635SOL    HW226805   6.063   3.936   5.771
 8636SOL     OW26806   6.258   5.994   0.363
 8636SOL    HW126807   6.258   5.895   0.375
 8636SOL    HW226808   6.294   6.037   0.446
 8637SOL     OW26809   1.863   0.738   0.734
 8637SOL    HW126810   1.959   0.761   0.752
 8637SOL    HW226811   1.826   0.804   0.669
 8638SOL     OW26812   2.721   4.575   0.022
 8638SOL    HW126813   2.730   4.524   0.107
 8638SOL    HW226814   2.669   4.659   0.038
 8639SOL     OW26815   5.557   3.818   1.699
 8639SOL    HW126816   5.525   3.850   1.788
 8639SOL    HW226817   5.489   3.842   1.629
 8640SOL     OW26818   4.985   4.433   0.483
 8640SOL    HW126819   4.995   4.532   0.475
 8640SOL    HW226820   5.074   4.390   0.466
 8641SOL     OW26821   0.255   4.353   3.465
 8641SOL    HW126822   0.188   4.380   3.535
 8641SOL    HW226823   0.293   4.435   3.422
 8642SOL     OW26824   4.784   1.021   2.195
 8642SOL    HW126825   4.762   0.924   2.184
 8642SOL    HW226826   4.707   1.068   2.238
 8643SOL     OW26827   4.285   0.626   6.647
 8643SOL    HW126828   4.365   0.567   6.653
 8643SOL    HW226829   4.293   0.684   6.565
 8644SOL     OW26830   5.285   2.676   4.624
 8644SOL    HW126831   5.334   2.699   4.708
 8644SOL    HW226832   5.245   2.759   4.585
 8645SOL     OW26833   6.644   3.868   1.284
 8645SOL    HW126834   6.657   3.926   1.365
 8645SOL    HW226835   6.634   3.773   1.312
 8646SOL     OW26836   5.111   0.986   0.148
 8646SOL    HW126837   5.037   0.992   0.080
 8646SOL    HW226838   5.116   1.072   0.199
 8647SOL     OW26839   3.708   4.843   0.125
 8647SOL    HW126840   3.717   4.749   0.157
 8647SOL    HW226841   3.683   4.843   0.028
 8648SOL     OW26842   5.545   0.554   4.602
 8648SOL    HW126843   5.628   0.568   4.547
 8648SOL    HW226844   5.534   0.457   4.621
 8649SOL     OW26845   5.999   3.889   5.428
 8649SOL    HW126846   6.004   3.885   5.328
 8649SOL    HW226847   5.904   3.899   5.457
 8650SOL     OW26848   1.981   4.796   3.774
 8650SOL    HW126849   2.032   4.874   3.738
 8650SOL    HW226850   2.004   4.714   3.722
 8651SOL     OW26851   3.629   1.634   0.087
 8651SOL    HW126852   3.692   1.666   0.158
 8651SOL    HW226853   3.547   1.691   0.088
 8652SOL     OW26854   2.044   3.717   3.433
 8652SOL    HW126855   2.097   3.800   3.453
 8652SOL    HW226856   2.042   3.702   3.334
 8653SOL     OW26857   0.510   2.480   6.507
 8653SOL    HW126858   0.572   2.552   6.476
 8653SOL    HW226859   0.425   2.522   6.539
 8654SOL     OW26860   0.358   6.717   3.372
 8654SOL    HW126861   0.319   6.657   3.442
 8654SOL    HW226862   0.318   6.696   3.283
 8655SOL     OW26863   5.837   6.581   4.216
 8655SOL    HW126864   5.871   6.622   4.131
 8655SOL    HW226865   5.743   6.551   4.204
 8656SOL     OW26866   6.097   1.078   1.144
 8656SOL    HW126867   6.112   1.131   1.060
 8656SOL    HW226868   6.106   1.138   1.223
 8657SOL     OW26869   5.087   5.166   6.178
 8657SOL    HW126870   5.080   5.148   6.080
 8657SOL    HW226871   5.175   5.133   6.212
 8658SOL     OW26872   5.492   4.516   0.357
 8658SOL    HW126873   5.572   4.540   0.412
 8658SOL    HW226874   5.417   4.580   0.376
 8659SOL     OW26875   4.315   0.740   2.962
 8659SOL    HW126876   4.281   0.833   2.948
 8659SOL    HW226877   4.238   0.680   2.987
 8660SOL     OW26878   5.989   3.734   0.611
 8660SOL    HW126879   6.089   3.738   0.611
 8660SOL    HW226880   5.956   3.731   0.705
 8661SOL     OW26881   6.372   4.277   1.704
 8661SOL    HW126882   6.367   4.321   1.614
 8661SOL    HW226883   6.294   4.217   1.717
 8662SOL     OW26884   6.358   6.470   1.238
 8662SOL    HW126885   6.343   6.552   1.182
 8662SOL    HW226886   6.309   6.393   1.197
 8663SOL     OW26887   2.148   5.452   0.999
 8663SOL    HW126888   2.198   5.433   1.083
 8663SOL    HW226889   2.054   5.478   1.021
 8664SOL     OW26890   3.893   5.836   7.008
 8664SOL    HW126891   3.826   5.908   6.994
 8664SOL    HW226892   3.982   5.876   0.011
 8665SOL     OW26893   4.427   5.514   4.998
 8665SOL    HW126894   4.492   5.589   4.990
 8665SOL    HW226895   4.444   5.464   5.083
 8666SOL     OW26896   4.733   2.315   5.523
 8666SOL    HW126897   4.682   2.308   5.437
 8666SOL    HW226898   4.782   2.402   5.526
 8667SOL     OW26899   5.420   1.651   3.125
 8667SOL    HW126900   5.494   1.638   3.059
 8667SOL    HW226901   5.364   1.729   3.099
 8668SOL     OW26902   5.176   2.547   4.393
 8668SOL    HW126903   5.245   2.555   4.465
 8668SOL    HW226904   5.210   2.486   4.321
 8669SOL     OW26905   3.841   1.014   6.252
 8669SOL    HW126906   3.790   1.065   6.321
 8669SOL    HW226907   3.802   0.922   6.244
 8670SOL     OW26908   3.890   5.640   4.528
 8670SOL    HW126909   3.978   5.592   4.530
 8670SOL    HW226910   3.883   5.690   4.442
 8671SOL     OW26911   5.823   6.823   3.646
 8671SOL    HW126912   5.818   6.886   3.569
 8671SOL    HW226913   5.734   6.779   3.658
 8672SOL     OW26914   2.861   5.093   4.175
 8672SOL    HW126915   2.923   5.037   4.230
 8672SOL    HW226916   2.869   5.065   4.079
 8673SOL     OW26917   0.035   2.112   0.599
 8673SOL    HW126918   0.065   2.040   0.536
 8673SOL    HW226919   6.966   2.087   0.639
 8674SOL     OW26920   0.039   6.845   2.785
 8674SOL    HW126921   0.060   6.805   2.696
 8674SOL    HW226922   6.960   6.835   2.803
 8675SOL     OW26923   2.756   1.689   3.728
 8675SOL    HW126924   2.819   1.751   3.681
 8675SOL    HW226925   2.808   1.617   3.775
 8676SOL     OW26926   3.551   0.495   2.573
 8676SOL    HW126927   3.499   0.412   2.595
 8676SOL    HW226928   3.609   0.478   2.493
 8677SOL     OW26929   2.787   4.585   6.230
 8677SOL    HW126930   2.729   4.665   6.211
 8677SOL    HW226931   2.864   4.583   6.167
 8678SOL     OW26932   1.419   6.957   6.601
 8678SOL    HW126933   1.419   6.957   6.701
 8678SOL    HW226934   1.326   6.973   6.568
 8679SOL     OW26935   6.411   1.822   5.207
 8679SOL    HW126936   6.448   1.907   5.245
 8679SOL    HW226937   6.474   1.785   5.139
 8680SOL     OW26938   1.969   3.167   0.493
 8680SOL    HW126939   1.918   3.252   0.499
 8680SOL    HW226940   2.050   3.181   0.435
 8681SOL     OW26941   4.173   4.491   0.716
 8681SOL    HW126942   4.183   4.512   0.618
 8681SOL    HW226943   4.264   4.485   0.758
 8682SOL     OW26944   2.770   6.701   2.874
 8682SOL    HW126945   2.727   6.670   2.789
 8682SOL    HW226946   2.752   6.634   2.946
 8683SOL     OW26947   1.113   2.792   1.023
 8683SOL    HW126948   1.178   2.823   0.954
 8683SOL    HW226949   1.162   2.747   1.097
 8684SOL     OW26950   5.928   2.873   5.450
 8684SOL    HW126951   5.830   2.871   5.471
 8684SOL    HW226952   5.956   2.784   5.413
 8685SOL     OW26953   0.964   1.615   6.459
 8685SOL    HW126954   0.926   1.707   6.463
 8685SOL    HW226955   1.061   1.620   6.433
 8686SOL     OW26956   0.074   2.071   2.658
 8686SOL    HW126957   0.101   2.000   2.592
 8686SOL    HW226958   0.000   2.126   2.619
 8687SOL     OW26959   3.461   6.578   2.205
 8687SOL    HW126960   3.478   6.492   2.252
 8687SOL    HW226961   3.519   6.583   2.123
 8688SOL     OW26962   2.688   6.739   1.228
 8688SOL    HW126963   2.764   6.704   1.175
 8688SOL    HW226964   2.663   6.830   1.195
 8689SOL     OW26965   4.078   5.692   0.255
 8689SOL    HW126966   4.047   5.786   0.245
 8689SOL    HW226967   4.060   5.641   0.171
 8690SOL     OW26968   1.085   2.289   3.385
 8690SOL    HW126969   1.168   2.283   3.441
 8690SOL    HW226970   1.031   2.206   3.397
 8691SOL     OW26971   4.857   2.699   6.644
 8691SOL    HW126972   4.956   2.698   6.655
 8691SOL    HW226973   4.814   2.740   6.724
 8692SOL     OW26974   3.142   2.210   3.679
 8692SOL    HW126975   3.132   2.208   3.580
 8692SOL    HW226976   3.109   2.124   3.718
 8693SOL     OW26977   5.596   2.323   0.456
 8693SOL    HW126978   5.550   2.278   0.532
 8693SOL    HW226979   5.676   2.373   0.490
 8694SOL     OW26980   5.005   0.116   6.423
 8694SOL    HW126981   4.972   0.113   6.517
 8694SOL    HW226982   4.931   0.089   6.361
 8695SOL     OW26983   4.997   2.974   5.541
 8695SOL    HW126984   4.910   2.958   5.586
 8695SOL    HW226985   5.042   3.054   5.582
 8696SOL     OW26986   3.356   5.377   0.847
 8696SOL    HW126987   3.300   5.428   0.781
 8696SOL    HW226988   3.452   5.401   0.835
 8697SOL     OW26989   6.547   3.313   1.412
 8697SOL    HW126990   6.479   3.261   1.360
 8697SOL    HW226991   6.612   3.250   1.454
 8698SOL     OW26992   5.543   5.669   4.534
 8698SOL    HW126993   5.623   5.727   4.514
 8698SOL    HW226994   5.474   5.682   4.463
 8699SOL     OW26995   0.866   1.982   5.585
 8699SOL    HW126996   0.874   1.905   5.522
 8699SOL    HW226997   0.913   2.062   5.546
 8700SOL     OW26998   1.968   0.724   4.694
 8700SOL    HW126999   1.961   0.625   4.688
 8700SOL    HW227000   2.056   0.749   4.735
 8701SOL     OW27001   1.044   1.234   5.501
 8701SOL    HW127002   0.972   1.270   5.560
 8701SOL    HW227003   1.080   1.149   5.541
 8702SOL     OW27004   5.592   4.671   0.594
 8702SOL    HW127005   5.654   4.641   0.666
 8702SOL    HW227006   5.636   4.743   0.540
 8703SOL     OW27007   3.151   5.684   1.061
 8703SOL    HW127008   3.105   5.753   1.005
 8703SOL    HW227009   3.083   5.621   1.098
 8704SOL     OW27010   6.682   4.549   2.492
 8704SOL    HW127011   6.600   4.595   2.524
 8704SOL    HW227012   6.744   4.616   2.451
 8705SOL     OW27013   5.285   0.884   6.188
 8705SOL    HW127014   5.288   0.791   6.224
 8705SOL    HW227015   5.282   0.880   6.088
 8706SOL     OW27016   4.623   1.899   6.833
 8706SOL    HW127017   4.547   1.844   6.867
 8706SOL    HW227018   4.588   1.981   6.788
 8707SOL     OW27019   4.573   2.726   6.779
 8707SOL    HW127020   4.597   2.689   6.689
 8707SOL    HW227021   4.475   2.749   6.780
 8708SOL     OW27022   3.501   0.882   1.682
 8708SOL    HW127023   3.451   0.806   1.722
 8708SOL    HW227024   3.507   0.957   1.748
 8709SOL     OW27025   0.209   4.324   0.094
 8709SOL    HW127026   0.113   4.337   0.121
 8709SOL    HW227027   0.213   4.263   0.015
 8710SOL     OW27028   1.437   3.628   2.748
 8710SOL    HW127029   1.409   3.532   2.747
 8710SOL    HW227030   1.442   3.662   2.654
 8711SOL     OW27031   6.541   0.606   2.767
 8711SOL    HW127032   6.473   0.537   2.791
 8711SOL    HW227033   6.576   0.589   2.675
 8712SOL     OW27034   3.200   1.770   4.323
 8712SOL    HW127035   3.117   1.826   4.314
 8712SOL    HW227036   3.220   1.756   4.420
 8713SOL     OW27037   6.844   4.740   3.794
 8713SOL    HW127038   6.937   4.722   3.761
 8713SOL    HW227039   6.783   4.668   3.762
 8714SOL     OW27040   1.701   0.909   6.067
 8714SOL    HW127041   1.790   0.955   6.071
 8714SOL    HW227042   1.631   0.977   6.044
 8715SOL     OW27043   5.715   1.048   1.117
 8715SOL    HW127044   5.760   1.029   1.030
 8715SOL    HW227045   5.760   0.996   1.189
 8716SOL     OW27046   0.751   1.609   1.619
 8716SOL    HW127047   0.827   1.551   1.649
 8716SOL    HW227048   0.780   1.665   1.541
 8717SOL     OW27049   4.147   3.600   2.088
 8717SOL    HW127050   4.121   3.672   2.152
 8717SOL    HW227051   4.178   3.520   2.139
 8718SOL     OW27052   6.851   2.425   4.632
 8718SOL    HW127053   6.824   2.517   4.657
 8718SOL    HW227054   6.900   2.428   4.544
 8719SOL     OW27055   1.412   0.537   5.241
 8719SOL    HW127056   1.351   0.559   5.318
 8719SOL    HW227057   1.382   0.452   5.198
 8720SOL     OW27058   6.371   5.329   4.846
 8720SOL    HW127059   6.450   5.282   4.807
 8720SOL    HW227060   6.386   5.428   4.845
 8721SOL     OW27061   6.475   1.878   4.552
 8721SOL    HW127062   6.480   1.823   4.635
 8721SOL    HW227063   6.399   1.942   4.559
 8722SOL     OW27064   3.637   1.975   0.479
 8722SOL    HW127065   3.554   2.012   0.438
 8722SOL    HW227066   3.612   1.912   0.554
 8723SOL     OW27067   6.571   5.536   0.643
 8723SOL    HW127068   6.575   5.634   0.620
 8723SOL    HW227069   6.599   5.523   0.738
 8724SOL     OW27070   5.478   0.472   5.753
 8724SOL    HW127071   5.529   0.444   5.834
 8724SOL    HW227072   5.510   0.420   5.674
 8725SOL     OW27073   2.302   0.419   0.334
 8725SOL    HW127074   2.254   0.364   0.402
 8725SOL    HW227075   2.286   0.381   0.243
 8726SOL     OW27076   5.782   6.879   1.395
 8726SOL    HW127077   5.794   6.978   1.385
 8726SOL    HW227078   5.745   6.841   1.311
 8727SOL     OW27079   6.647   6.433   1.689
 8727SOL    HW127080   6.585   6.446   1.612
 8727SOL    HW227081   6.646   6.337   1.717
 8728SOL     OW27082   3.100   6.706   5.361
 8728SOL    HW127083   3.015   6.689   5.412
 8728SOL    HW227084   3.177   6.665   5.411
 8729SOL     OW27085   4.268   5.570   3.423
 8729SOL    HW127086   4.209   5.500   3.463
 8729SOL    HW227087   4.328   5.608   3.494
 8730SOL     OW27088   0.026   5.718   2.433
 8730SOL    HW127089   0.023   5.648   2.362
 8730SOL    HW227090   0.064   5.802   2.395
 8731SOL     OW27091   1.452   2.300   3.317
 8731SOL    HW127092   1.475   2.206   3.343
 8731SOL    HW227093   1.394   2.298   3.235
 8732SOL     OW27094   5.210   4.352   1.820
 8732SOL    HW127095   5.168   4.267   1.851
 8732SOL    HW227096   5.272   4.386   1.890
 8733SOL     OW27097   0.848   6.369   2.184
 8733SOL    HW127098   0.861   6.409   2.275
 8733SOL    HW227099   0.770   6.306   2.186
 8734SOL     OW27100   0.646   4.989   1.310
 8734SOL    HW127101   0.682   5.068   1.260
 8734SOL    HW227102   0.659   4.906   1.255
 8735SOL     OW27103   0.364   2.022   0.149
 8735SOL    HW127104   0.447   2.024   0.094
 8735SOL    HW227105   0.327   1.929   0.149
 8736SOL     OW27106   1.244   6.196   0.261
 8736SOL    HW127107   1.305   6.197   0.340
 8736SOL    HW227108   1.280   6.257   0.190
 8737SOL     OW27109   3.621   6.190   5.910
 8737SOL    HW127110   3.631   6.090   5.908
 8737SOL    HW227111   3.625   6.221   6.004
 8738SOL     OW27112   1.546   4.049   4.159
 8738SOL    HW127113   1.564   4.033   4.256
 8738SOL    HW227114   1.564   4.145   4.137
 8739SOL     OW27115   6.725   3.637   5.948
 8739SOL    HW127116   6.645   3.586   5.980
 8739SOL    HW227117   6.738   3.618   5.851
 8740SOL     OW27118   3.157   0.481   6.057
 8740SOL    HW127119   3.064   0.509   6.033
 8740SOL    HW227120   3.215   0.488   5.976
 8741SOL     OW27121   1.536   2.548   2.066
 8741SOL    HW127122   1.604   2.587   2.127
 8741SOL    HW227123   1.532   2.602   1.982
 8742SOL     OW27124   4.876   6.510   1.378
 8742SOL    HW127125   4.945   6.581   1.389
 8742SOL    HW227126   4.787   6.553   1.360
 8743SOL     OW27127   2.364   5.539   1.874
 8743SOL    HW127128   2.362   5.459   1.935
 8743SOL    HW227129   2.459   5.560   1.850
 8744SOL     OW27130   4.581   2.640   6.504
 8744SOL    HW127131   4.615   2.651   6.411
 8744SOL    HW227132   4.481   2.628   6.502
 8745SOL     OW27133   6.230   2.133   5.086
 8745SOL    HW127134   6.136   2.101   5.093
 8745SOL    HW227135   6.283   2.098   5.162
 8746SOL     OW27136   4.887   4.538   5.903
 8746SOL    HW127137   4.942   4.573   5.979
 8746SOL    HW227138   4.886   4.605   5.829
 8747SOL     OW27139   0.965   2.817   3.682
 8747SOL    HW127140   0.925   2.782   3.597
 8747SOL    HW227141   0.896   2.816   3.754
 8748SOL     OW27142   1.440   0.740   6.631
 8748SOL    HW127143   1.461   0.808   6.702
 8748SOL    HW227144   1.526   0.703   6.595
 8749SOL     OW27145   3.285   1.028   3.873
 8749SOL    HW127146   3.361   0.978   3.915
 8749SOL    HW227147   3.293   1.125   3.893
 8750SOL     OW27148   2.057   2.421   4.982
 8750SOL    HW127149   2.017   2.513   4.979
 8750SOL    HW227150   1.986   2.353   4.961
 8751SOL     OW27151   0.524   0.103   2.250
 8751SOL    HW127152   0.527   0.129   2.346
 8751SOL    HW227153   0.571   0.016   2.237
 8752SOL     OW27154   2.460   3.629   6.323
 8752SOL    HW127155   2.533   3.677   6.274
 8752SOL    HW227156   2.377   3.684   6.321
 8753SOL     OW27157   5.224   1.399   5.274
 8753SOL    HW127158   5.124   1.398   5.270
 8753SOL    HW227159   5.258   1.305   5.283
 8754SOL     OW27160   0.719   1.749   5.807
 8754SOL    HW127161   0.685   1.842   5.817
 8754SOL    HW227162   0.818   1.752   5.791
 8755SOL     OW27163   2.412   0.743   0.384
 8755SOL    HW127164   2.324   0.781   0.414
 8755SOL    HW227165   2.433   0.661   0.438
 8756SOL     OW27166   2.171   2.809   3.610
 8756SOL    HW127167   2.113   2.770   3.682
 8756SOL    HW227168   2.202   2.736   3.549
 8757SOL     OW27169   4.462   6.612   5.076
 8757SOL    HW127170   4.406   6.695   5.068
 8757SOL    HW227171   4.512   6.598   4.991
 8758SOL     OW27172   5.368   6.657   1.730
 8758SOL    HW127173   5.385   6.562   1.706
 8758SOL    HW227174   5.270   6.675   1.730
 8759SOL     OW27175   4.920   0.716   5.878
 8759SOL    HW127176   4.858   0.792   5.895
 8759SOL    HW227177   5.011   0.738   5.914
 8760SOL     OW27178   1.715   1.975   4.550
 8760SOL    HW127179   1.705   2.019   4.461
 8760SOL    HW227180   1.712   2.044   4.622
 8761SOL     OW27181   5.327   0.859   0.070
 8761SOL    HW127182   5.244   0.901   0.106
 8761SOL    HW227183   5.339   0.886   6.993
 8762SOL     OW27184   1.533   3.403   1.328
 8762SOL    HW127185   1.507   3.463   1.252
 8762SOL    HW227186   1.630   3.416   1.348
 8763SOL     OW27187   6.450   6.154   5.504
 8763SOL    HW127188   6.497   6.104   5.577
 8763SOL    HW227189   6.437   6.094   5.425
 8764SOL     OW27190   5.073   1.462   4.167
 8764SOL    HW127191   5.048   1.381   4.219
 8764SOL    HW227192   4.995   1.491   4.110
 8765SOL     OW27193   5.607   6.763   5.052
 8765SOL    HW127194   5.666   6.841   5.031
 8765SOL    HW227195   5.523   6.769   4.998
 8766SOL     OW27196   3.094   4.860   3.357
 8766SOL    HW127197   3.113   4.880   3.453
 8766SOL    HW227198   3.004   4.817   3.348
 8767SOL     OW27199   4.435   1.367   2.965
 8767SOL    HW127200   4.460   1.464   2.966
 8767SOL    HW227201   4.364   1.350   3.034
 8768SOL     OW27202   1.437   3.096   0.683
 8768SOL    HW127203   1.529   3.063   0.665
 8768SOL    HW227204   1.400   3.050   0.764
 8769SOL     OW27205   1.064   0.143   5.774
 8769SOL    HW127206   1.059   0.046   5.748
 8769SOL    HW227207   1.089   0.198   5.695
 8770SOL     OW27208   4.849   4.696   1.944
 8770SOL    HW127209   4.919   4.650   1.998
 8770SOL    HW227210   4.776   4.632   1.922
 8771SOL     OW27211   1.872   1.201   6.854
 8771SOL    HW127212   1.922   1.238   6.776
 8771SOL    HW227213   1.880   1.101   6.855
 8772SOL     OW27214   5.934   0.888   6.749
 8772SOL    HW127215   5.884   0.893   6.836
 8772SOL    HW227216   6.032   0.899   6.766
 8773SOL     OW27217   3.607   2.138   3.141
 8773SOL    HW127218   3.512   2.129   3.108
 8773SOL    HW227219   3.669   2.100   3.072
 8774SOL     OW27220   1.075   1.800   0.787
 8774SOL    HW127221   1.034   1.709   0.774
 8774SOL    HW227222   1.173   1.795   0.767
 8775SOL     OW27223   6.070   6.597   3.310
 8775SOL    HW127224   6.084   6.633   3.402
 8775SOL    HW227225   5.979   6.624   3.277
 8776SOL     OW27226   3.255   3.308   5.091
 8776SOL    HW127227   3.301   3.397   5.093
 8776SOL    HW227228   3.212   3.290   5.179
 8777SOL     OW27229   6.225   5.246   1.935
 8777SOL    HW127230   6.210   5.183   1.860
 8777SOL    HW227231   6.246   5.195   2.018
 8778SOL     OW27232   0.086   2.124   3.502
 8778SOL    HW127233   0.050   2.033   3.483
 8778SOL    HW227234   0.030   2.193   3.455
 8779SOL     OW27235   1.881   4.216   1.518
 8779SOL    HW127236   1.800   4.256   1.562
 8779SOL    HW227237   1.880   4.238   1.421
 8780SOL     OW27238   1.174   5.573   4.257
 8780SOL    HW127239   1.175   5.474   4.247
 8780SOL    HW227240   1.234   5.614   4.188
 8781SOL     OW27241   0.305   1.780   2.967
 8781SOL    HW127242   0.342   1.760   3.057
 8781SOL    HW227243   0.232   1.716   2.945
 8782SOL     OW27244   4.585   1.804   2.729
 8782SOL    HW127245   4.651   1.852   2.672
 8782SOL    HW227246   4.554   1.864   2.803
 8783SOL     OW27247   6.077   4.121   3.967
 8783SOL    HW127248   6.136   4.140   4.045
 8783SOL    HW227249   5.990   4.170   3.978
 8784SOL     OW27250   5.732   5.436   5.437
 8784SOL    HW127251   5.814   5.480   5.400
 8784SOL    HW227252   5.668   5.418   5.362
 8785SOL     OW27253   5.528   4.138   6.505
 8785SOL    HW127254   5.578   4.209   6.457
 8785SOL    HW227255   5.579   4.111   6.587
 8786SOL     OW27256   1.440   6.341   0.135
 8786SOL    HW127257   1.528   6.294   0.142
 8786SOL    HW227258   1.456   6.436   0.107
 8787SOL     OW27259   2.132   3.236   1.851
 8787SOL    HW127260   2.190   3.313   1.878
 8787SOL    HW227261   2.069   3.266   1.780
 8788SOL     OW27262   6.904   1.880   5.099
 8788SOL    HW127263   6.933   1.793   5.059
 8788SOL    HW227264   6.884   1.946   5.026
 8789SOL     OW27265   6.646   0.243   6.280
 8789SOL    HW127266   6.601   0.155   6.292
 8789SOL    HW227267   6.589   0.315   6.319
 8790SOL     OW27268   0.034   1.958   6.447
 8790SOL    HW127269   0.041   2.053   6.476
 8790SOL    HW227270   6.967   1.944   6.397
 8791SOL     OW27271   5.004   6.756   5.421
 8791SOL    HW127272   4.959   6.816   5.355
 8791SOL    HW227273   5.102   6.753   5.402
 8792SOL     OW27274   3.962   0.115   3.204
 8792SOL    HW127275   3.954   0.085   3.300
 8792SOL    HW227276   4.006   0.043   3.151
 8793SOL     OW27277   2.180   6.116   3.774
 8793SOL    HW127278   2.147   6.177   3.847
 8793SOL    HW227279   2.144   6.147   3.686
 8794SOL     OW27280   1.972   6.639   2.816
 8794SOL    HW127281   2.038   6.698   2.863
 8794SOL    HW227282   1.882   6.682   2.818
 8795SOL     OW27283   1.821   6.318   5.632
 8795SOL    HW127284   1.756   6.261   5.682
 8795SOL    HW227285   1.913   6.303   5.668
 8796SOL     OW27286   4.408   2.099   5.485
 8796SOL    HW127287   4.484   2.035   5.492
 8796SOL    HW227288   4.357   2.082   5.400
 8797SOL     OW27289   0.615   6.754   6.210
 8797SOL    HW127290   0.666   6.716   6.133
 8797SOL    HW227291   0.517   6.756   6.187
 8798SOL     OW27292   5.345   3.735   5.055
 8798SOL    HW127293   5.386   3.645   5.043
 8798SOL    HW227294   5.292   3.736   5.140
 8799SOL     OW27295   2.876   4.768   2.864
 8799SOL    HW127296   2.946   4.825   2.822
 8799SOL    HW227297   2.835   4.709   2.795
 8800SOL     OW27298   4.642   4.930   6.389
 8800SOL    HW127299   4.714   4.924   6.319
 8800SOL    HW227300   4.649   4.852   6.451
 8801SOL     OW27301   2.444   1.211   4.304
 8801SOL    HW127302   2.346   1.222   4.291
 8801SOL    HW227303   2.472   1.121   4.272
 8802SOL     OW27304   1.891   6.364   2.483
 8802SOL    HW127305   1.881   6.265   2.484
 8802SOL    HW227306   1.829   6.405   2.550
 8803SOL     OW27307   2.418   5.910   6.917
 8803SOL    HW127308   2.458   5.820   6.930
 8803SOL    HW227309   2.489   5.980   6.925
 8804SOL     OW27310   3.898   0.404   1.067
 8804SOL    HW127311   3.951   0.436   0.988
 8804SOL    HW227312   3.935   0.444   1.150
 8805SOL     OW27313   0.962   0.378   3.223
 8805SOL    HW127314   1.037   0.434   3.257
 8805SOL    HW227315   0.933   0.412   3.134
 8806SOL     OW27316   1.497   5.412   0.207
 8806SOL    HW127317   1.425   5.387   0.272
 8806SOL    HW227318   1.575   5.351   0.219
 8807SOL     OW27319   6.682   5.913   6.008
 8807SOL    HW127320   6.770   5.896   6.051
 8807SOL    HW227321   6.672   6.011   5.989
 8808SOL     OW27322   5.976   0.668   0.410
 8808SOL    HW127323   6.057   0.692   0.465
 8808SOL    HW227324   5.895   0.672   0.467
 8809SOL     OW27325   5.428   4.164   1.789
 8809SOL    HW127326   5.428   4.095   1.862
 8809SOL    HW227327   5.336   4.203   1.781
 8810SOL     OW27328   4.930   1.639   3.661
 8810SOL    HW127329   4.886   1.604   3.578
 8810SOL    HW227330   5.001   1.575   3.691
 8811SOL     OW27331   2.703   1.563   3.420
 8811SOL    HW127332   2.637   1.490   3.399
 8811SOL    HW227333   2.659   1.631   3.479
 8812SOL     OW27334   0.970   1.181   0.784
 8812SOL    HW127335   0.903   1.109   0.762
 8812SOL    HW227336   0.921   1.263   0.814
 8813SOL     OW27337   1.076   6.627   1.767
 8813SOL    HW127338   1.121   6.702   1.815
 8813SOL    HW227339   1.054   6.554   1.831
 8814SOL     OW27340   6.531   0.727   6.885
 8814SOL    HW127341   6.589   0.653   6.918
 8814SOL    HW227342   6.586   0.790   6.829
 8815SOL     OW27343   0.286   5.883   1.824
 8815SOL    HW127344   0.271   5.901   1.727
 8815SOL    HW227345   0.249   5.793   1.847
 8816SOL     OW27346   1.069   5.966   1.260
 8816SOL    HW127347   1.156   6.011   1.278
 8816SOL    HW227348   1.042   5.981   1.165
 8817SOL     OW27349   1.589   5.727   5.174
 8817SOL    HW127350   1.605   5.639   5.219
 8817SOL    HW227351   1.667   5.749   5.115
 8818SOL     OW27352   6.885   4.521   4.221
 8818SOL    HW127353   6.869   4.589   4.150
 8818SOL    HW227354   6.814   4.528   4.291
 8819SOL     OW27355   4.682   6.500   4.264
 8819SOL    HW127356   4.663   6.465   4.356
 8819SOL    HW227357   4.778   6.482   4.241
 8820SOL     OW27358   2.070   2.741   3.840
 8820SOL    HW127359   2.093   2.781   3.929
 8820SOL    HW227360   2.003   2.668   3.853
 8821SOL     OW27361   2.425   0.596   6.449
 8821SOL    HW127362   2.430   0.667   6.379
 8821SOL    HW227363   2.492   0.617   6.521
 8822SOL     OW27364   0.994   1.830   3.478
 8822SOL    HW127365   0.977   1.742   3.434
 8822SOL    HW227366   1.031   1.815   3.570
 8823SOL     OW27367   1.994   6.883   0.908
 8823SOL    HW127368   2.017   6.870   0.812
 8823SOL    HW227369   1.971   6.979   0.924
 8824SOL     OW27370   3.095   3.956   0.828
 8824SOL    HW127371   3.143   3.869   0.838
 8824SOL    HW227372   2.998   3.943   0.848
 8825SOL     OW27373   1.570   1.112   2.199
 8825SOL    HW127374   1.642   1.149   2.140
 8825SOL    HW227375   1.483   1.112   2.150
 8826SOL     OW27376   5.452   0.675   6.757
 8826SOL    HW127377   5.442   0.618   6.839
 8826SOL    HW227378   5.430   0.770   6.779
 8827SOL     OW27379   2.367   1.368   2.884
 8827SOL    HW127380   2.309   1.317   2.820
 8827SOL    HW227381   2.404   1.449   2.839
 8828SOL     OW27382   2.655   6.047   3.317
 8828SOL    HW127383   2.664   6.087   3.226
 8828SOL    HW227384   2.632   5.950   3.309
 8829SOL     OW27385   0.280   2.584   6.667
 8829SOL    HW127386   0.265   2.512   6.735
 8829SOL    HW227387   0.335   2.657   6.707
 8830SOL     OW27388   0.870   1.165   0.160
 8830SOL    HW127389   0.868   1.065   0.154
 8830SOL    HW227390   0.921   1.202   0.083
 8831SOL     OW27391   5.980   0.554   2.696
 8831SOL    HW127392   5.898   0.538   2.641
 8831SOL    HW227393   5.956   0.551   2.793
 8832SOL     OW27394   6.851   0.354   2.117
 8832SOL    HW127395   6.786   0.295   2.069
 8832SOL    HW227396   6.941   0.349   2.072
 8833SOL     OW27397   2.893   5.361   4.341
 8833SOL    HW127398   2.808   5.401   4.306
 8833SOL    HW227399   2.874   5.314   4.427
 8834SOL     OW27400   6.300   2.799   4.622
 8834SOL    HW127401   6.309   2.838   4.530
 8834SOL    HW227402   6.296   2.873   4.689
 8835SOL     OW27403   6.666   6.488   5.465
 8835SOL    HW127404   6.694   6.393   5.478
 8835SOL    HW227405   6.747   6.547   5.464
 8836SOL     OW27406   4.417   1.245   0.456
 8836SOL    HW127407   4.449   1.326   0.505
 8836SOL    HW227408   4.481   1.223   0.383
 8837SOL     OW27409   0.402   0.625   1.960
 8837SOL    HW127410   0.429   0.541   1.914
 8837SOL    HW227411   0.446   0.703   1.915
 8838SOL     OW27412   2.924   5.222   3.280
 8838SOL    HW127413   2.957   5.149   3.220
 8838SOL    HW227414   2.938   5.196   3.375
 8839SOL     OW27415   6.408   6.236   3.306
 8839SOL    HW127416   6.508   6.232   3.314
 8839SOL    HW227417   6.383   6.298   3.232
 8840SOL     OW27418   5.405   2.554   2.588
 8840SOL    HW127419   5.455   2.585   2.668
 8840SOL    HW227420   5.336   2.487   2.615
 8841SOL     OW27421   1.268   1.728   5.259
 8841SOL    HW127422   1.266   1.700   5.163
 8841SOL    HW227423   1.256   1.648   5.317
 8842SOL     OW27424   2.719   2.647   1.602
 8842SOL    HW127425   2.722   2.582   1.678
 8842SOL    HW227426   2.657   2.722   1.625
 8843SOL     OW27427   1.146   2.984   5.275
 8843SOL    HW127428   1.245   2.997   5.276
 8843SOL    HW227429   1.102   3.067   5.240
 8844SOL     OW27430   6.261   1.248   5.946
 8844SOL    HW127431   6.191   1.183   5.974
 8844SOL    HW227432   6.280   1.238   5.849
 8845SOL     OW27433   4.689   3.925   0.203
 8845SOL    HW127434   4.729   3.944   0.293
 8845SOL    HW227435   4.755   3.950   0.132
 8846SOL     OW27436   1.783   4.462   4.525
 8846SOL    HW127437   1.854   4.426   4.465
 8846SOL    HW227438   1.797   4.560   4.540
 8847SOL     OW27439   2.687   0.004   2.325
 8847SOL    HW127440   2.777   7.000   2.287
 8847SOL    HW227441   2.629   0.041   2.252
 8848SOL     OW27442   1.902   0.662   1.939
 8848SOL    HW127443   1.944   0.572   1.944
 8848SOL    HW227444   1.967   0.732   1.968
 8849SOL     OW27445   2.203   6.487   2.149
 8849SOL    HW127446   2.160   6.500   2.238
 8849SOL    HW227447   2.286   6.432   2.161
 8850SOL     OW27448   3.278   2.520   6.910
 8850SOL    HW127449   3.321   2.563   6.831
 8850SOL    HW227450   3.179   2.516   6.897
 8851SOL     OW27451   1.485   4.464   2.190
 8851SOL    HW127452   1.548   4.400   2.146
 8851SOL    HW227453   1.473   4.545   2.133
 8852SOL     OW27454   1.365   1.480   6.223
 8852SOL    HW127455   1.457   1.470   6.259
 8852SOL    HW227456   1.364   1.461   6.125
 8853SOL     OW27457   3.620   0.920   0.927
 8853SOL    HW127458   3.574   0.878   1.005
 8853SOL    HW227459   3.680   0.993   0.958
 8854SOL     OW27460   1.346   2.984   4.887
 8854SOL    HW127461   1.398   3.069   4.889
 8854SOL    HW227462   1.394   2.914   4.939
 8855SOL     OW27463   5.673   5.164   1.305
 8855SOL    HW127464   5.645   5.068   1.311
 8855SOL    HW227465   5.738   5.174   1.229
 8856SOL     OW27466   0.713   5.548   6.373
 8856SOL    HW127467   0.696   5.462   6.325
 8856SOL    HW227468   0.645   5.616   6.344
 8857SOL     OW27469   6.513   1.127   4.896
 8857SOL    HW127470   6.535   1.217   4.860
 8857SOL    HW227471   6.414   1.113   4.891
 8858SOL     OW27472   6.067   4.885   4.520
 8858SOL    HW127473   6.003   4.891   4.443
 8858SOL    HW227474   6.067   4.971   4.571
 8859SOL     OW27475   0.365   0.985   3.683
 8859SOL    HW127476   0.362   1.025   3.592
 8859SOL    HW227477   0.299   1.031   3.742
 8860SOL     OW27478   6.372   2.472   1.468
 8860SOL    HW127479   6.356   2.374   1.457
 8860SOL    HW227480   6.304   2.510   1.530
 8861SOL     OW27481   4.337   1.951   1.288
 8861SOL    HW127482   4.412   1.954   1.355
 8861SOL    HW227483   4.375   1.934   1.197
 8862SOL     OW27484   4.647   4.988   5.286
 8862SOL    HW127485   4.743   5.000   5.258
 8862SOL    HW227486   4.625   5.053   5.359
 8863SOL     OW27487   1.933   3.977   3.832
 8863SOL    HW127488   1.880   3.962   3.915
 8863SOL    HW227489   1.978   4.066   3.836
 8864SOL     OW27490   5.699   1.723   5.828
 8864SOL    HW127491   5.756   1.775   5.892
 8864SOL    HW227492   5.739   1.633   5.813
 8865SOL     OW27493   2.171   1.682   6.614
 8865SOL    HW127494   2.097   1.695   6.548
 8865SOL    HW227495   2.236   1.614   6.578
 8866SOL     OW27496   5.792   5.937   1.729
 8866SOL    HW127497   5.872   5.957   1.672
 8866SOL    HW227498   5.789   6.000   1.806
 8867SOL     OW27499   6.722   3.733   2.748
 8867SOL    HW127500   6.691   3.666   2.815
 8867SOL    HW227501   6.719   3.824   2.788
 8868SOL     OW27502   0.290   3.757   3.197
 8868SOL    HW127503   0.211   3.720   3.147
 8868SOL    HW227504   0.275   3.747   3.295
 8869SOL     OW27505   2.855   6.299   3.834
 8869SOL    HW127506   2.802   6.251   3.904
 8869SOL    HW227507   2.820   6.275   3.743
 8870SOL     OW27508   1.673   6.969   1.934
 8870SOL    HW127509   1.681   6.875   1.968
 8870SOL    HW227510   1.733   6.982   1.856
 8871SOL     OW27511   0.429   0.971   2.978
 8871SOL    HW127512   0.411   1.027   2.897
 8871SOL    HW227513   0.507   0.911   2.961
 8872SOL     OW27514   0.387   4.687   5.112
 8872SOL    HW127515   0.346   4.693   5.021
 8872SOL    HW227516   0.406   4.592   5.135
 8873SOL     OW27517   1.479   0.776   2.290
 8873SOL    HW127518   1.533   0.857   2.312
 8873SOL    HW227519   1.383   0.802   2.278
 8874SOL     OW27520   2.258   5.528   0.331
 8874SOL    HW127521   2.355   5.516   0.310
 8874SOL    HW227522   2.211   5.565   0.252
 8875SOL     OW27523   6.945   3.459   3.687
 8875SOL    HW127524   0.006   3.399   3.699
 8875SOL    HW227525   6.928   3.473   3.590
 8876SOL     OW27526   3.494   0.538   6.541
 8876SOL    HW127527   3.443   0.458   6.510
 8876SOL    HW227528   3.584   0.510   6.573
 8877SOL     OW27529   1.957   3.672   1.244
 8877SOL    HW127530   1.915   3.581   1.235
 8877SOL    HW227531   1.941   3.724   1.160
 8878SOL     OW27532   4.072   4.428   0.974
 8878SOL    HW127533   4.150   4.445   0.914
 8878SOL    HW227534   4.038   4.335   0.959
 8879SOL     OW27535   6.320   4.536   2.790
 8879SOL    HW127536   6.278   4.608   2.844
 8879SOL    HW227537   6.354   4.464   2.851
 8880SOL     OW27538   4.528   6.725   3.842
 8880SOL    HW127539   4.507   6.714   3.939
 8880SOL    HW227540   4.591   6.654   3.813
 8881SOL     OW27541   4.153   5.217   4.299
 8881SOL    HW127542   4.131   5.315   4.299
 8881SOL    HW227543   4.069   5.164   4.307
 8882SOL     OW27544   4.377   0.506   1.019
 8882SOL    HW127545   4.367   0.598   0.982
 8882SOL    HW227546   4.451   0.459   0.970
 8883SOL     OW27547   0.402   5.906   4.758
 8883SOL    HW127548   0.461   5.976   4.797
 8883SOL    HW227549   0.321   5.895   4.816
 8884SOL     OW27550   5.338   3.717   4.769
 8884SOL    HW127551   5.401   3.774   4.716
 8884SOL    HW227552   5.353   3.733   4.867
 8885SOL     OW27553   5.891   5.723   0.463
 8885SOL    HW127554   5.831   5.701   0.540
 8885SOL    HW227555   5.935   5.640   0.430
 8886SOL     OW27556   3.124   5.930   0.159
 8886SOL    HW127557   3.118   5.889   0.250
 8886SOL    HW227558   3.093   5.865   0.090
 8887SOL     OW27559   4.790   1.945   1.171
 8887SOL    HW127560   4.809   1.872   1.237
 8887SOL    HW227561   4.770   2.029   1.220
 8888SOL     OW27562   2.568   1.939   3.306
 8888SOL    HW127563   2.563   1.839   3.308
 8888SOL    HW227564   2.485   1.977   3.265
 8889SOL     OW27565   0.321   6.741   6.245
 8889SOL    HW127566   0.341   6.684   6.324
 8889SOL    HW227567   0.240   6.797   6.265
 8890SOL     OW27568   0.312   0.015   6.885
 8890SOL    HW127569   0.233   7.012   6.943
 8890SOL    HW227570   0.381   6.963   6.896
 8891SOL     OW27571   6.046   4.957   6.905
 8891SOL    HW127572   5.960   4.928   6.946
 8891SOL    HW227573   6.106   4.877   6.897
 8892SOL     OW27574   3.106   5.648   3.432
 8892SOL    HW127575   3.027   5.710   3.426
 8892SOL    HW227576   3.090   5.568   3.374
 8893SOL     OW27577   1.637   5.227   4.927
 8893SOL    HW127578   1.589   5.200   5.010
 8893SOL    HW227579   1.669   5.145   4.879
 8894SOL     OW27580   4.233   1.897   0.255
 8894SOL    HW127581   4.223   1.921   0.159
 8894SOL    HW227582   4.177   1.958   0.311
 8895SOL     OW27583   0.625   3.560   0.888
 8895SOL    HW127584   0.540   3.515   0.859
 8895SOL    HW227585   0.605   3.654   0.915
 8896SOL     OW27586   0.273   2.089   4.128
 8896SOL    HW127587   0.250   2.183   4.154
 8896SOL    HW227588   0.197   2.029   4.152
 8897SOL     OW27589   2.020   4.216   3.913
 8897SOL    HW127590   2.042   4.196   4.008
 8897SOL    HW227591   1.963   4.298   3.908
 8898SOL     OW27592   4.898   3.756   2.947
 8898SOL    HW127593   4.829   3.688   2.972
 8898SOL    HW227594   4.910   3.757   2.847
 8899SOL     OW27595   6.894   3.482   6.155
 8899SOL    HW127596   6.803   3.520   6.135
 8899SOL    HW227597   6.936   3.450   6.071
 8900SOL     OW27598   5.444   2.812   4.346
 8900SOL    HW127599   5.461   2.729   4.401
 8900SOL    HW227600   5.469   2.893   4.400
 8901SOL     OW27601   0.981   2.769   4.103
 8901SOL    HW127602   1.047   2.777   4.179
 8901SOL    HW227603   0.991   2.847   4.042
 8902SOL     OW27604   0.918   4.431   0.165
 8902SOL    HW127605   0.953   4.524   0.173
 8902SOL    HW227606   0.841   4.418   0.227
 8903SOL     OW27607   1.264   0.662   4.734
 8903SOL    HW127608   1.197   0.722   4.690
 8903SOL    HW227609   1.327   0.717   4.789
 8904SOL     OW27610   0.657   1.231   3.272
 8904SOL    HW127611   0.708   1.205   3.354
 8904SOL    HW227612   0.717   1.225   3.192
 8905SOL     OW27613   1.794   3.817   2.339
 8905SOL    HW127614   1.751   3.728   2.351
 8905SOL    HW227615   1.831   3.823   2.246
 8906SOL     OW27616   7.001   0.216   0.633
 8906SOL    HW127617   0.052   0.279   0.598
 8906SOL    HW227618   0.026   0.139   0.680
 8907SOL     OW27619   3.754   2.886   4.975
 8907SOL    HW127620   3.663   2.919   4.950
 8907SOL    HW227621   3.808   2.870   4.892
 8908SOL     OW27622   1.619   6.226   0.634
 8908SOL    HW127623   1.536   6.282   0.628
 8908SOL    HW227624   1.600   6.134   0.600
 8909SOL     OW27625   2.886   1.044   6.868
 8909SOL    HW127626   2.975   1.087   6.860
 8909SOL    HW227627   2.836   1.083   6.946
 8910SOL     OW27628   1.778   2.324   3.846
 8910SOL    HW127629   1.780   2.254   3.917
 8910SOL    HW227630   1.748   2.283   3.760
 8911SOL     OW27631   4.784   1.474   4.093
 8911SOL    HW127632   4.721   1.406   4.056
 8911SOL    HW227633   4.767   1.562   4.048
 8912SOL     OW27634   3.626   3.901   4.491
 8912SOL    HW127635   3.561   3.962   4.535
 8912SOL    HW227636   3.636   3.927   4.395
 8913SOL     OW27637   4.906   6.299   0.069
 8913SOL    HW127638   4.846   6.245   0.128
 8913SOL    HW227639   4.858   6.319   7.002
 8914SOL     OW27640   4.881   6.770   6.046
 8914SOL    HW127641   4.963   6.720   6.075
 8914SOL    HW227642   4.895   6.806   5.954
 8915SOL     OW27643   0.794   1.158   3.514
 8915SOL    HW127644   0.799   1.079   3.576
 8915SOL    HW227645   0.752   1.235   3.561
 8916SOL     OW27646   5.453   1.375   6.888
 8916SOL    HW127647   5.543   1.390   6.930
 8916SOL    HW227648   5.384   1.365   6.959
 8917SOL     OW27649   5.939   1.788   0.068
 8917SOL    HW127650   5.998   1.772   0.147
 8917SOL    HW227651   5.987   1.760   7.004
 8918SOL     OW27652   1.304   4.569   1.796
 8918SOL    HW127653   1.225   4.565   1.735
 8918SOL    HW227654   1.292   4.505   1.871
 8919SOL     OW27655   5.685   4.073   6.723
 8919SOL    HW127656   5.708   4.170   6.708
 8919SOL    HW227657   5.768   4.023   6.749
 8920SOL     OW27658   0.008   1.214   0.106
 8920SOL    HW127659   6.966   1.282   0.067
 8920SOL    HW227660   6.974   1.134   0.134
 8921SOL     OW27661   1.313   2.852   0.854
 8921SOL    HW127662   1.387   2.811   0.909
 8921SOL    HW227663   1.298   2.796   0.773
 8922SOL     OW27664   3.350   0.570   3.967
 8922SOL    HW127665   3.440   0.548   4.005
 8922SOL    HW227666   3.358   0.647   3.904
 8923SOL     OW27667   1.663   2.336   4.965
 8923SOL    HW127668   1.672   2.275   5.044
 8923SOL    HW227669   1.654   2.430   4.998
 8924SOL     OW27670   4.902   5.225   4.612
 8924SOL    HW127671   4.850   5.166   4.674
 8924SOL    HW227672   4.981   5.176   4.577
 8925SOL     OW27673   1.196   0.812   3.616
 8925SOL    HW127674   1.182   0.848   3.524
 8925SOL    HW227675   1.218   0.886   3.678
 8926SOL     OW27676   6.826   3.027   5.370
 8926SOL    HW127677   6.888   3.034   5.448
 8926SOL    HW227678   6.758   2.955   5.388
 8927SOL     OW27679   6.511   1.520   6.229
 8927SOL    HW127680   6.540   1.454   6.298
 8927SOL    HW227681   6.590   1.575   6.200
 8928SOL     OW27682   2.137   6.838   5.376
 8928SOL    HW127683   2.110   6.916   5.432
 8928SOL    HW227684   2.224   6.858   5.331
 8929SOL     OW27685   0.311   2.176   4.831
 8929SOL    HW127686   0.298   2.114   4.908
 8929SOL    HW227687   0.230   2.235   4.821
 8930SOL     OW27688   1.491   4.696   3.774
 8930SOL    HW127689   1.406   4.645   3.787
 8930SOL    HW227690   1.565   4.633   3.749
 8931SOL     OW27691   3.731   3.113   1.297
 8931SOL    HW127692   3.735   3.016   1.276
 8931SOL    HW227693   3.796   3.135   1.370
 8932SOL     OW27694   6.768   2.322   2.981
 8932SOL    HW127695   6.845   2.366   2.934
 8932SOL    HW227696   6.729   2.251   2.922
 8933SOL     OW27697   3.635   1.965   6.035
 8933SOL    HW127698   3.653   1.898   6.107
 8933SOL    HW227699   3.596   2.048   6.075
 8934SOL     OW27700   3.129   5.595   4.465
 8934SOL    HW127701   3.215   5.629   4.426
 8934SOL    HW227702   3.062   5.583   4.393
 8935SOL     OW27703   6.947   4.872   0.925
 8935SOL    HW127704   6.943   4.782   0.968
 8935SOL    HW227705   6.942   4.862   0.826
 8936SOL     OW27706   2.185   2.998   0.740
 8936SOL    HW127707   2.121   3.042   0.804
 8936SOL    HW227708   2.212   2.909   0.777
 8937SOL     OW27709   0.084   6.403   5.418
 8937SOL    HW127710   0.015   6.371   5.353
 8937SOL    HW227711   0.040   6.451   5.493
 8938SOL     OW27712   6.376   5.051   1.395
 8938SOL    HW127713   6.289   5.004   1.409
 8938SOL    HW227714   6.393   5.063   1.297
 8939SOL     OW27715   4.750   2.266   4.670
 8939SOL    HW127716   4.680   2.239   4.736
 8939SOL    HW227717   4.785   2.357   4.694
 8940SOL     OW27718   6.433   0.662   3.986
 8940SOL    HW127719   6.524   0.649   4.024
 8940SOL    HW227720   6.395   0.749   4.019
 8941SOL     OW27721   5.503   2.128   6.150
 8941SOL    HW127722   5.475   2.168   6.063
 8941SOL    HW227723   5.482   2.030   6.151
 8942SOL     OW27724   0.444   2.175   5.377
 8942SOL    HW127725   0.467   2.129   5.462
 8942SOL    HW227726   0.344   2.182   5.369
 8943SOL     OW27727   4.939   3.274   1.274
 8943SOL    HW127728   4.862   3.245   1.331
 8943SOL    HW227729   4.909   3.282   1.179
 8944SOL     OW27730   4.630   5.881   0.224
 8944SOL    HW127731   4.545   5.861   0.175
 8944SOL    HW227732   4.677   5.796   0.247
 8945SOL     OW27733   2.232   0.750   4.742
 8945SOL    HW127734   2.264   0.738   4.836
 8945SOL    HW227735   2.246   0.845   4.713
 8946SOL     OW27736   3.742   1.733   5.285
 8946SOL    HW127737   3.820   1.784   5.249
 8946SOL    HW227738   3.659   1.757   5.234
 8947SOL     OW27739   3.671   3.718   5.549
 8947SOL    HW127740   3.661   3.815   5.525
 8947SOL    HW227741   3.766   3.699   5.573
 8948SOL     OW27742   5.481   4.925   3.158
 8948SOL    HW127743   5.395   4.917   3.208
 8948SOL    HW227744   5.475   5.000   3.093
 8949SOL     OW27745   1.701   6.792   6.959
 8949SOL    HW127746   1.649   6.801   6.874
 8949SOL    HW227747   1.791   6.754   6.939
 8950SOL     OW27748   5.016   3.030   5.272
 8950SOL    HW127749   4.925   3.067   5.256
 8950SOL    HW227750   5.020   2.989   5.363
 8951SOL     OW27751   1.791   3.013   5.339
 8951SOL    HW127752   1.767   2.925   5.297
 8951SOL    HW227753   1.887   3.034   5.320
 8952SOL     OW27754   1.387   1.364   3.336
 8952SOL    HW127755   1.458   1.384   3.404
 8952SOL    HW227756   1.430   1.332   3.252
 8953SOL     OW27757   1.619   3.374   0.269
 8953SOL    HW127758   1.672   3.447   0.225
 8953SOL    HW227759   1.542   3.414   0.319
 8954SOL     OW27760   0.888   5.975   6.187
 8954SOL    HW127761   0.971   5.937   6.148
 8954SOL    HW227762   0.858   6.054   6.133
 8955SOL     OW27763   0.004   4.368   3.697
 8955SOL    HW127764   7.001   4.282   3.651
 8955SOL    HW227765   6.938   4.416   3.720
 8956SOL     OW27766   0.570   1.127   6.495
 8956SOL    HW127767   0.490   1.168   6.538
 8956SOL    HW227768   0.599   1.184   6.418
 8957SOL     OW27769   2.713   4.758   1.668
 8957SOL    HW127770   2.751   4.674   1.707
 8957SOL    HW227771   2.676   4.739   1.577
 8958SOL     OW27772   1.633   6.966   3.975
 8958SOL    HW127773   1.568   0.022   3.961
 8958SOL    HW227774   1.584   6.879   3.978
 8959SOL     OW27775   1.236   4.866   0.585
 8959SOL    HW127776   1.289   4.939   0.628
 8959SOL    HW227777   1.139   4.890   0.586
 8960SOL     OW27778   3.914   5.497   1.887
 8960SOL    HW127779   3.834   5.470   1.940
 8960SOL    HW227780   3.995   5.448   1.922
 8961SOL     OW27781   1.133   2.300   4.284
 8961SOL    HW127782   1.096   2.338   4.199
 8961SOL    HW227783   1.188   2.219   4.263
 8962SOL     OW27784   6.163   0.606   3.639
 8962SOL    HW127785   6.113   0.572   3.559
 8962SOL    HW227786   6.214   0.688   3.615
 8963SOL     OW27787   5.342   0.325   4.417
 8963SOL    HW127788   5.416   0.315   4.483
 8963SOL    HW227789   5.356   0.409   4.364
 8964SOL     OW27790   4.936   4.796   2.250
 8964SOL    HW127791   4.948   4.788   2.349
 8964SOL    HW227792   5.003   4.737   2.204
 8965SOL     OW27793   1.346   4.969   1.307
 8965SOL    HW127794   1.270   4.940   1.365
 8965SOL    HW227795   1.427   4.916   1.329
 8966SOL     OW27796   1.878   2.384   6.072
 8966SOL    HW127797   1.859   2.474   6.111
 8966SOL    HW227798   1.975   2.362   6.083
 8967SOL     OW27799   4.010   0.357   0.693
 8967SOL    HW127800   3.985   0.299   0.770
 8967SOL    HW227801   4.046   0.444   0.727
 8968SOL     OW27802   5.062   6.329   1.644
 8968SOL    HW127803   4.963   6.325   1.659
 8968SOL    HW227804   5.093   6.245   1.602
 8969SOL     OW27805   5.804   0.893   3.725
 8969SOL    HW127806   5.865   0.972   3.727
 8969SOL    HW227807   5.842   0.820   3.782
 8970SOL     OW27808   3.813   2.297   1.477
 8970SOL    HW127809   3.789   2.382   1.523
 8970SOL    HW227810   3.838   2.316   1.382
 8971SOL     OW27811   3.663   5.666   2.453
 8971SOL    HW127812   3.684   5.763   2.443
 8971SOL    HW227813   3.669   5.621   2.364
 8972SOL     OW27814   5.566   6.206   5.942
 8972SOL    HW127815   5.508   6.130   5.970
 8972SOL    HW227816   5.510   6.279   5.903
 8973SOL     OW27817   1.660   4.766   0.656
 8973SOL    HW127818   1.715   4.703   0.710
 8973SOL    HW227819   1.676   4.750   0.559
 8974SOL     OW27820   0.908   4.208   6.289
 8974SOL    HW127821   0.810   4.222   6.279
 8974SOL    HW227822   0.926   4.149   6.368
 8975SOL     OW27823   2.530   0.288   0.816
 8975SOL    HW127824   2.619   0.243   0.804
 8975SOL    HW227825   2.477   0.278   0.731
 8976SOL     OW27826   1.835   5.172   4.252
 8976SOL    HW127827   1.774   5.114   4.306
 8976SOL    HW227828   1.780   5.234   4.195
 8977SOL     OW27829   5.842   1.478   5.772
 8977SOL    HW127830   5.807   1.386   5.754
 8977SOL    HW227831   5.911   1.474   5.845
 8978SOL     OW27832   5.818   5.985   0.600
 8978SOL    HW127833   5.737   6.043   0.617
 8978SOL    HW227834   5.818   5.957   0.505
 8979SOL     OW27835   1.955   3.944   5.007
 8979SOL    HW127836   2.029   3.945   4.940
 8979SOL    HW227837   1.994   3.946   5.100
 8980SOL     OW27838   3.312   3.582   5.040
 8980SOL    HW127839   3.411   3.597   5.046
 8980SOL    HW227840   3.274   3.635   4.964
 8981SOL     OW27841   3.556   1.390   5.010
 8981SOL    HW127842   3.498   1.438   4.945
 8981SOL    HW227843   3.499   1.343   5.078
 8982SOL     OW27844   2.689   3.409   0.551
 8982SOL    HW127845   2.693   3.336   0.619
 8982SOL    HW227846   2.600   3.407   0.506
 8983SOL     OW27847   3.735   5.598   6.881
 8983SOL    HW127848   3.751   5.688   6.841
 8983SOL    HW227849   3.684   5.541   6.816
 8984SOL     OW27850   2.335   5.817   3.144
 8984SOL    HW127851   2.415   5.782   3.192
 8984SOL    HW227852   2.350   5.810   3.045
 8985SOL     OW27853   3.435   2.466   0.551
 8985SOL    HW127854   3.481   2.393   0.601
 8985SOL    HW227855   3.492   2.494   0.473
 8986SOL     OW27856   3.350   4.881   2.828
 8986SOL    HW127857   3.448   4.885   2.807
 8986SOL    HW227858   3.331   4.799   2.882
 8987SOL     OW27859   5.276   5.865   2.689
 8987SOL    HW127860   5.239   5.803   2.620
 8987SOL    HW227861   5.348   5.818   2.741
 8988SOL     OW27862   0.492   5.742   3.643
 8988SOL    HW127863   0.423   5.690   3.593
 8988SOL    HW227864   0.448   5.793   3.717
 8989SOL     OW27865   4.966   2.693   6.279
 8989SOL    HW127866   4.918   2.608   6.299
 8989SOL    HW227867   4.900   2.768   6.270
 8990SOL     OW27868   0.908   5.039   4.081
 8990SOL    HW127869   0.860   4.951   4.089
 8990SOL    HW227870   0.954   5.060   4.167
 8991SOL     OW27871   1.591   2.555   4.381
 8991SOL    HW127872   1.501   2.534   4.344
 8991SOL    HW227873   1.604   2.507   4.468
 8992SOL     OW27874   5.628   1.951   0.241
 8992SOL    HW127875   5.627   1.864   0.291
 8992SOL    HW227876   5.690   1.944   0.163
 8993SOL     OW27877   3.938   3.205   6.376
 8993SOL    HW127878   4.023   3.199   6.323
 8993SOL    HW227879   3.875   3.268   6.331
 8994SOL     OW27880   1.748   4.636   4.849
 8994SOL    HW127881   1.806   4.588   4.783
 8994SOL    HW227882   1.666   4.581   4.868
 8995SOL     OW27883   0.053   1.921   1.906
 8995SOL    HW127884   0.123   1.973   1.857
 8995SOL    HW227885   0.088   1.896   1.996
 8996SOL     OW27886   5.273   3.782   6.716
 8996SOL    HW127887   5.368   3.760   6.693
 8996SOL    HW227888   5.271   3.843   6.795
 8997SOL     OW27889   4.781   0.863   5.352
 8997SOL    HW127890   4.688   0.895   5.370
 8997SOL    HW227891   4.809   0.802   5.427
 8998SOL     OW27892   6.501   3.984   4.200
 8998SOL    HW127893   6.487   3.887   4.184
 8998SOL    HW227894   6.572   3.997   4.269
 8999SOL     OW27895   4.251   6.778   5.625
 8999SOL    HW127896   4.243   6.722   5.542
 8999SOL    HW227897   4.163   6.779   5.673
 9000SOL     OW27898   1.359   3.772   1.491
 9000SOL    HW127899   1.357   3.872   1.501
 9000SOL    HW227900   1.365   3.748   1.394
 9001SOL     OW27901   0.191   4.714   2.119
 9001SOL    HW127902   0.218   4.726   2.024
 9001SOL    HW227903   0.229   4.788   2.175
 9002SOL     OW27904   1.146   4.638   5.602
 9002SOL    HW127905   1.105   4.704   5.539
 9002SOL    HW227906   1.122   4.546   5.573
 9003SOL     OW27907   5.330   2.969   1.448
 9003SOL    HW127908   5.234   2.974   1.420
 9003SOL    HW227909   5.383   3.037   1.397
 9004SOL     OW27910   4.302   4.965   1.018
 9004SOL    HW127911   4.215   4.925   1.049
 9004SOL    HW227912   4.320   5.048   1.070
 9005SOL     OW27913   5.797   1.184   6.136
 9005SOL    HW127914   5.716   1.235   6.108
 9005SOL    HW227915   5.854   1.241   6.196
 9006SOL     OW27916   3.152   6.851   1.009
 9006SOL    HW127917   3.072   6.895   1.048
 9006SOL    HW227918   3.182   6.903   0.928
 9007SOL     OW27919   2.449   1.116   2.408
 9007SOL    HW127920   2.437   1.195   2.468
 9007SOL    HW227921   2.406   1.036   2.450
 9008SOL     OW27922   0.481   5.073   2.965
 9008SOL    HW127923   0.389   5.064   2.930
 9008SOL    HW227924   0.488   5.156   3.020
 9009SOL     OW27925   3.383   5.350   1.143
 9009SOL    HW127926   3.415   5.261   1.112
 9009SOL    HW227927   3.366   5.409   1.064
 9010SOL     OW27928   1.682   0.012   4.433
 9010SOL    HW127929   1.755   0.067   4.393
 9010SOL    HW227930   1.652   6.963   4.367
 9011SOL     OW27931   3.935   0.871   1.801
 9011SOL    HW127932   4.034   0.876   1.801
 9011SOL    HW227933   3.898   0.957   1.839
 9012SOL     OW27934   2.199   5.718   0.566
 9012SOL    HW127935   2.238   5.702   0.656
 9012SOL    HW227936   2.202   5.633   0.512
 9013SOL     OW27937   1.084   0.048   4.361
 9013SOL    HW127938   1.059   7.017   4.445
 9013SOL    HW227939   1.057   7.013   4.281
 9014SOL     OW27940   5.913   3.201   1.560
 9014SOL    HW127941   5.947   3.112   1.589
 9014SOL    HW227942   5.814   3.206   1.573
 9015SOL     OW27943   4.776   2.596   1.363
 9015SOL    HW127944   4.850   2.557   1.309
 9015SOL    HW227945   4.722   2.658   1.306
 9016SOL     OW27946   5.556   5.068   6.380
 9016SOL    HW127947   5.564   5.143   6.445
 9016SOL    HW227948   5.574   4.981   6.426
 9017SOL     OW27949   3.785   1.260   4.816
 9017SOL    HW127950   3.813   1.200   4.890
 9017SOL    HW227951   3.733   1.337   4.852
 9018SOL     OW27952   3.859   3.630   6.781
 9018SOL    HW127953   3.959   3.628   6.773
 9018SOL    HW227954   3.834   3.668   6.871
 9019SOL     OW27955   1.142   3.900   2.939
 9019SOL    HW127956   1.081   3.900   2.860
 9019SOL    HW227957   1.199   3.982   2.937
 9020SOL     OW27958   6.482   4.739   1.247
 9020SOL    HW127959   6.535   4.734   1.332
 9020SOL    HW227960   6.408   4.672   1.251
 9021SOL     OW27961   0.200   0.268   4.274
 9021SOL    HW127962   0.120   0.319   4.306
 9021SOL    HW227963   0.221   0.297   4.180
 9022SOL     OW27964   3.796   2.233   6.901
 9022SOL    HW127965   3.819   2.136   6.899
 9022SOL    HW227966   3.719   2.250   6.841
 9023SOL     OW27967   4.136   3.119   1.134
 9023SOL    HW127968   4.079   3.143   1.055
 9023SOL    HW227969   4.123   3.187   1.206
 9024SOL     OW27970   0.722   4.755   5.738
 9024SOL    HW127971   0.668   4.759   5.822
 9024SOL    HW227972   0.722   4.662   5.703
 9025SOL     OW27973   0.292   5.390   0.914
 9025SOL    HW127974   0.283   5.337   0.999
 9025SOL    HW227975   0.273   5.486   0.933
 9026SOL     OW27976   3.827   1.241   0.521
 9026SOL    HW127977   3.793   1.151   0.549
 9026SOL    HW227978   3.817   1.250   0.422
 9027SOL     OW27979   0.967   3.756   3.729
 9027SOL    HW127980   0.929   3.804   3.808
 9027SOL    HW227981   1.066   3.748   3.739
 9028SOL     OW27982   3.525   3.271   5.166
 9028SOL    HW127983   3.429   3.268   5.137
 9028SOL    HW227984   3.578   3.205   5.113
 9029SOL     OW27985   4.258   0.868   4.920
 9029SOL    HW127986   4.191   0.807   4.962
 9029SOL    HW227987   4.315   0.908   4.992
 9030SOL     OW27988   2.142   2.364   3.803
 9030SOL    HW127989   2.233   2.397   3.779
 9030SOL    HW227990   2.087   2.441   3.836
 9031SOL     OW27991   4.251   0.483   4.755
 9031SOL    HW127992   4.325   0.473   4.689
 9031SOL    HW227993   4.287   0.518   4.842
 9032SOL     OW27994   4.460   4.103   1.287
 9032SOL    HW127995   4.458   4.005   1.305
 9032SOL    HW227996   4.545   4.142   1.321
 9033SOL     OW27997   0.486   5.185   2.235
 9033SOL    HW127998   0.583   5.173   2.211
 9033SOL    HW227999   0.478   5.255   2.305
 9034SOL     OW28000   3.581   5.875   5.243
 9034SOL    HW128001   3.547   5.931   5.318
 9034SOL    HW228002   3.680   5.863   5.253
 9035SOL     OW28003   1.875   5.964   0.155
 9035SOL    HW128004   1.878   5.947   0.254
 9035SOL    HW228005   1.789   5.929   0.117
 9036SOL     OW28006   1.487   3.799   5.035
 9036SOL    HW128007   1.513   3.718   5.087
 9036SOL    HW228008   1.390   3.794   5.011
 9037SOL     OW28009   1.027   2.537   4.467
 9037SOL    HW128010   0.960   2.507   4.399
 9037SOL    HW228011   1.057   2.630   4.446
 9038SOL     OW28012   4.568   2.942   6.400
 9038SOL    HW128013   4.577   2.957   6.499
 9038SOL    HW228014   4.481   2.896   6.382
 9039SOL     OW28015   3.620   4.619   6.737
 9039SOL    HW128016   3.706   4.572   6.756
 9039SOL    HW228017   3.628   4.672   6.653
 9040SOL     OW28018   2.508   1.954   2.056
 9040SOL    HW128019   2.583   2.020   2.054
 9040SOL    HW228020   2.543   1.864   2.030
 9041SOL     OW28021   0.929   2.083   1.116
 9041SOL    HW128022   0.952   2.117   1.024
 9041SOL    HW228023   1.014   2.063   1.165
 9042SOL     OW28024   4.078   5.915   5.277
 9042SOL    HW128025   4.139   5.990   5.298
 9042SOL    HW228026   4.071   5.904   5.177
 9043SOL     OW28027   2.279   1.504   6.895
 9043SOL    HW128028   2.220   1.525   6.973
 9043SOL    HW228029   2.370   1.542   6.910
 9044SOL     OW28030   0.799   0.710   0.255
 9044SOL    HW128031   0.700   0.699   0.244
 9044SOL    HW228032   0.843   0.621   0.250
 9045SOL     OW28033   4.164   0.562   3.529
 9045SOL    HW128034   4.083   0.542   3.474
 9045SOL    HW228035   4.174   0.661   3.539
 9046SOL     OW28036   4.092   3.477   2.618
 9046SOL    HW128037   4.084   3.394   2.673
 9046SOL    HW228038   4.173   3.470   2.560
 9047SOL     OW28039   1.558   4.098   5.318
 9047SOL    HW128040   1.505   4.119   5.236
 9047SOL    HW228041   1.513   4.137   5.398
 9048SOL     OW28042   6.040   2.320   6.267
 9048SOL    HW128043   6.055   2.415   6.239
 9048SOL    HW228044   6.071   2.308   6.361
 9049SOL     OW28045   3.628   6.284   6.176
 9049SOL    HW128046   3.537   6.293   6.217
 9049SOL    HW228047   3.675   6.372   6.180
 9050SOL     OW28048   0.726   4.224   1.824
 9050SOL    HW128049   0.757   4.159   1.755
 9050SOL    HW228050   0.663   4.179   1.887
 9051SOL     OW28051   2.616   0.935   1.318
 9051SOL    HW128052   2.615   0.840   1.286
 9051SOL    HW228053   2.651   0.995   1.246
 9052SOL     OW28054   1.826   2.872   3.979
 9052SOL    HW128055   1.802   2.825   3.893
 9052SOL    HW228056   1.905   2.932   3.963
 9053SOL     OW28057   2.211   1.336   1.142
 9053SOL    HW128058   2.261   1.255   1.114
 9053SOL    HW228059   2.123   1.340   1.093
 9054SOL     OW28060   2.432   5.675   3.758
 9054SOL    HW128061   2.372   5.623   3.820
 9054SOL    HW228062   2.408   5.772   3.763
 9055SOL     OW28063   6.901   4.327   5.072
 9055SOL    HW128064   6.926   4.232   5.091
 9055SOL    HW228065   6.811   4.330   5.028
 9056SOL     OW28066   6.069   2.467   2.799
 9056SOL    HW128067   6.109   2.550   2.761
 9056SOL    HW228068   6.136   2.393   2.795
 9057SOL     OW28069   4.710   1.731   4.633
 9057SOL    HW128070   4.676   1.689   4.717
 9057SOL    HW228071   4.809   1.743   4.640
 9058SOL     OW28072   1.424   0.408   6.194
 9058SOL    HW128073   1.325   0.406   6.204
 9058SOL    HW228074   1.464   0.332   6.244
 9059SOL     OW28075   1.408   2.475   2.339
 9059SOL    HW128076   1.423   2.564   2.382
 9059SOL    HW228077   1.423   2.483   2.240
 9060SOL     OW28078   5.378   3.291   4.575
 9060SOL    HW128079   5.333   3.211   4.613
 9060SOL    HW228080   5.447   3.325   4.639
 9061SOL     OW28081   4.379   5.738   2.386
 9061SOL    HW128082   4.298   5.722   2.329
 9061SOL    HW228083   4.459   5.697   2.343
 9062SOL     OW28084   1.315   5.419   1.475
 9062SOL    HW128085   1.340   5.359   1.400
 9062SOL    HW228086   1.222   5.455   1.460
 9063SOL     OW28087   2.931   1.481   3.862
 9063SOL    HW128088   3.009   1.544   3.862
 9063SOL    HW228089   2.935   1.422   3.781
 9064SOL     OW28090   6.555   3.548   0.217
 9064SOL    HW128091   6.485   3.487   0.178
 9064SOL    HW228092   6.583   3.513   0.306
 9065SOL     OW28093   3.162   0.712   0.388
 9065SOL    HW128094   3.082   0.663   0.421
 9065SOL    HW228095   3.135   0.802   0.355
 9066SOL     OW28096   5.311   0.245   0.095
 9066SOL    HW128097   5.397   0.205   0.062
 9066SOL    HW228098   5.302   0.228   0.194
 9067SOL     OW28099   1.757   6.612   3.241
 9067SOL    HW128100   1.751   6.512   3.241
 9067SOL    HW228101   1.718   6.648   3.326
 9068SOL     OW28102   1.163   5.971   5.790
 9068SOL    HW128103   1.077   5.921   5.792
 9068SOL    HW228104   1.146   6.067   5.811
 9069SOL     OW28105   1.772   2.671   6.099
 9069SOL    HW128106   1.854   2.698   6.148
 9069SOL    HW228107   1.741   2.746   6.040
 9070SOL     OW28108   1.587   3.851   4.671
 9070SOL    HW128109   1.512   3.786   4.678
 9070SOL    HW228110   1.660   3.826   4.735
 9071SOL     OW28111   6.458   6.581   0.560
 9071SOL    HW128112   6.381   6.518   0.564
 9071SOL    HW228113   6.457   6.630   0.472
 9072SOL     OW28114   6.817   3.728   0.701
 9072SOL    HW128115   6.820   3.774   0.790
 9072SOL    HW228116   6.723   3.728   0.667
 9073SOL     OW28117   2.369   1.177   1.863
 9073SOL    HW128118   2.396   1.195   1.958
 9073SOL    HW228119   2.395   1.084   1.838
 9074SOL     OW28120   1.267   6.681   2.736
 9074SOL    HW128121   1.190   6.719   2.786
 9074SOL    HW228122   1.264   6.581   2.741
 9075SOL     OW28123   6.498   0.843   2.100
 9075SOL    HW128124   6.568   0.803   2.041
 9075SOL    HW228125   6.413   0.853   2.049
 9076SOL     OW28126   0.026   1.122   5.591
 9076SOL    HW128127   0.014   1.136   5.493
 9076SOL    HW228128   0.045   1.025   5.608
 9077SOL     OW28129   5.058   6.709   2.285
 9077SOL    HW128130   4.987   6.666   2.231
 9077SOL    HW228131   5.032   6.804   2.305
 9078SOL     OW28132   3.861   3.419   5.033
 9078SOL    HW128133   3.882   3.323   5.015
 9078SOL    HW228134   3.865   3.436   5.131
 9079SOL     OW28135   3.421   6.511   4.422
 9079SOL    HW128136   3.366   6.572   4.364
 9079SOL    HW228137   3.360   6.465   4.488
 9080SOL     OW28138   5.295   2.596   6.956
 9080SOL    HW128139   5.280   2.690   6.988
 9080SOL    HW228140   5.270   2.532   0.009
 9081SOL     OW28141   5.374   6.238   2.144
 9081SOL    HW128142   5.355   6.320   2.089
 9081SOL    HW228143   5.473   6.224   2.149
 9082SOL     OW28144   2.709   0.645   3.726
 9082SOL    HW128145   2.714   0.654   3.826
 9082SOL    HW228146   2.743   0.728   3.683
 9083SOL     OW28147   5.080   4.458   5.107
 9083SOL    HW128148   5.011   4.525   5.079
 9083SOL    HW228149   5.150   4.504   5.161
 9084SOL     OW28150   3.173   3.850   2.957
 9084SOL    HW128151   3.208   3.943   2.945
 9084SOL    HW228152   3.242   3.784   2.927
 9085SOL     OW28153   2.360   2.002   1.720
 9085SOL    HW128154   2.453   2.037   1.706
 9085SOL    HW228155   2.330   1.953   1.639
 9086SOL     OW28156   0.865   3.883   1.119
 9086SOL    HW128157   0.890   3.845   1.208
 9086SOL    HW228158   0.813   3.967   1.132
 9087SOL     OW28159   4.931   3.878   2.147
 9087SOL    HW128160   4.974   3.788   2.150
 9087SOL    HW228161   4.881   3.888   2.061
 9088SOL     OW28162   6.843   0.474   6.124
 9088SOL    HW128163   6.850   0.381   6.159
 9088SOL    HW228164   6.766   0.521   6.169
 9089SOL     OW28165   4.382   6.977   5.762
 9089SOL    HW128166   4.330   0.040   5.786
 9089SOL    HW228167   4.319   6.903   5.738
 9090SOL     OW28168   5.416   0.600   4.302
 9090SOL    HW128169   5.419   0.677   4.365
 9090SOL    HW228170   5.484   0.614   4.229
 9091SOL     OW28171   3.014   3.729   0.132
 9091SOL    HW128172   3.051   3.650   0.084
 9091SOL    HW228173   3.088   3.785   0.169
 9092SOL     OW28174   0.039   1.962   0.067
 9092SOL    HW128175   0.100   1.884   0.079
 9092SOL    HW228176   6.970   1.943   0.112
 9093SOL     OW28177   1.563   6.941   5.236
 9093SOL    HW128178   1.647   6.925   5.184
 9093SOL    HW228179   1.503   7.003   5.185
 9094SOL     OW28180   0.521   3.328   2.215
 9094SOL    HW128181   0.619   3.312   2.209
 9094SOL    HW228182   0.480   3.261   2.276
 9095SOL     OW28183   5.604   6.004   5.482
 9095SOL    HW128184   5.546   5.938   5.530
 9095SOL    HW228185   5.700   5.980   5.495
 9096SOL     OW28186   6.234   5.280   2.703
 9096SOL    HW128187   6.142   5.256   2.734
 9096SOL    HW228188   6.229   5.347   2.630
 9097SOL     OW28189   0.829   3.296   5.737
 9097SOL    HW128190   0.851   3.212   5.785
 9097SOL    HW228191   0.846   3.374   5.797
 9098SOL     OW28192   2.034   3.351   4.526
 9098SOL    HW128193   2.040   3.332   4.624
 9098SOL    HW228194   2.063   3.445   4.508
 9099SOL     OW28195   2.220   3.439   0.222
 9099SOL    HW128196   2.164   3.507   0.174
 9099SOL    HW228197   2.235   3.360   0.163
 9100SOL     OW28198   1.101   4.665   2.717
 9100SOL    HW128199   1.182   4.721   2.732
 9100SOL    HW228200   1.020   4.723   2.709
 9101SOL     OW28201   1.932   1.408   1.704
 9101SOL    HW128202   1.912   1.335   1.639
 9101SOL    HW228203   2.020   1.390   1.749
 9102SOL     OW28204   4.282   5.771   2.644
 9102SOL    HW128205   4.313   5.758   2.550
 9102SOL    HW228206   4.289   5.868   2.669
 9103SOL     OW28207   6.469   2.043   0.529
 9103SOL    HW128208   6.372   2.044   0.508
 9103SOL    HW228209   6.483   2.073   0.623
 9104SOL     OW28210   6.640   0.811   0.124
 9104SOL    HW128211   6.618   0.807   0.027
 9104SOL    HW228212   6.570   0.761   0.176
 9105SOL     OW28213   1.918   6.973   6.249
 9105SOL    HW128214   1.866   6.977   6.335
 9105SOL    HW228215   1.884   0.023   6.186
 9106SOL     OW28216   1.465   5.019   6.844
 9106SOL    HW128217   1.469   5.048   6.748
 9106SOL    HW228218   1.479   5.098   6.903
 9107SOL     OW28219   2.330   1.304   0.443
 9107SOL    HW128220   2.342   1.305   0.543
 9107SOL    HW228221   2.377   1.383   0.403
 9108SOL     OW28222   5.556   5.299   5.847
 9108SOL    HW128223   5.569   5.368   5.776
 9108SOL    HW228224   5.601   5.329   5.931
 9109SOL     OW28225   5.074   2.833   2.396
 9109SOL    HW128226   5.004   2.899   2.427
 9109SOL    HW228227   5.135   2.877   2.330
 9110SOL     OW28228   1.526   5.496   4.498
 9110SOL    HW128229   1.529   5.435   4.577
 9110SOL    HW228230   1.461   5.461   4.431
 9111SOL     OW28231   4.502   3.005   5.394
 9111SOL    HW128232   4.546   3.012   5.483
 9111SOL    HW228233   4.448   2.921   5.389
 9112SOL     OW28234   1.607   5.445   2.200
 9112SOL    HW128235   1.637   5.395   2.281
 9112SOL    HW228236   1.511   5.471   2.209
 9113SOL     OW28237   4.846   1.980   3.387
 9113SOL    HW128238   4.889   1.966   3.476
 9113SOL    HW228239   4.902   2.043   3.333
 9114SOL     OW28240   1.259   6.139   4.526
 9114SOL    HW128241   1.265   6.075   4.602
 9114SOL    HW228242   1.342   6.193   4.521
 9115SOL     OW28243   5.493   4.577   4.136
 9115SOL    HW128244   5.405   4.532   4.151
 9115SOL    HW228245   5.487   4.636   4.056
 9116SOL     OW28246   0.815   6.627   3.475
 9116SOL    HW128247   0.830   6.668   3.385
 9116SOL    HW228248   0.874   6.672   3.542
 9117SOL     OW28249   3.810   0.661   6.895
 9117SOL    HW128250   3.724   0.650   6.945
 9117SOL    HW228251   3.885   0.628   6.952
 9118SOL     OW28252   6.116   3.990   0.817
 9118SOL    HW128253   6.139   4.038   0.902
 9118SOL    HW228254   6.022   4.010   0.791
 9119SOL     OW28255   3.624   0.430   0.682
 9119SOL    HW128256   3.605   0.475   0.770
 9119SOL    HW228257   3.686   0.354   0.697
 9120SOL     OW28258   5.588   2.952   5.341
 9120SOL    HW128259   5.564   3.013   5.266
 9120SOL    HW228260   5.541   2.864   5.329
 9121SOL     OW28261   3.131   0.183   5.110
 9121SOL    HW128262   3.200   0.226   5.050
 9121SOL    HW228263   3.176   0.145   5.190
 9122SOL     OW28264   2.343   4.330   2.433
 9122SOL    HW128265   2.423   4.366   2.384
 9122SOL    HW228266   2.361   4.333   2.531
 9123SOL     OW28267   1.074   0.846   3.942
 9123SOL    HW128268   1.050   0.883   3.852
 9123SOL    HW228269   1.172   0.854   3.956
 9124SOL     OW28270   2.755   5.797   1.521
 9124SOL    HW128271   2.730   5.867   1.589
 9124SOL    HW228272   2.809   5.840   1.449
 9125SOL     OW28273   4.853   6.476   0.835
 9125SOL    HW128274   4.907   6.548   0.793
 9125SOL    HW228275   4.781   6.517   0.892
 9126SOL     OW28276   4.014   4.130   0.172
 9126SOL    HW128277   3.932   4.158   0.221
 9126SOL    HW228278   4.087   4.195   0.190
 9127SOL     OW28279   7.014   4.046   5.735
 9127SOL    HW128280   0.074   3.986   5.749
 9127SOL    HW228281   6.973   4.026   5.645
 9128SOL     OW28282   5.806   3.643   5.717
 9128SOL    HW128283   5.711   3.661   5.692
 9128SOL    HW228284   5.817   3.547   5.743
 9129SOL     OW28285   1.686   1.980   0.369
 9129SOL    HW128286   1.715   2.061   0.420
 9129SOL    HW228287   1.691   1.900   0.429
 9130SOL     OW28288   2.679   3.852   5.258
 9130SOL    HW128289   2.585   3.880   5.238
 9130SOL    HW228290   2.741   3.892   5.191
 9131SOL     OW28291   5.837   2.901   1.033
 9131SOL    HW128292   5.759   2.913   1.094
 9131SOL    HW228293   5.805   2.895   0.938
 9132SOL     OW28294   0.302   4.584   3.855
 9132SOL    HW128295   0.354   4.620   3.777
 9132SOL    HW228296   0.341   4.497   3.884
 9133SOL     OW28297   4.723   1.008   0.703
 9133SOL    HW128298   4.661   0.933   0.728
 9133SOL    HW228299   4.811   0.995   0.747
 9134SOL     OW28300   4.294   5.273   0.811
 9134SOL    HW128301   4.270   5.271   0.908
 9134SOL    HW228302   4.247   5.350   0.767
 9135SOL     OW28303   0.135   6.621   2.905
 9135SOL    HW128304   0.093   6.708   2.881
 9135SOL    HW228305   0.069   6.564   2.954
 9136SOL     OW28306   6.207   4.750   6.919
 9136SOL    HW128307   6.198   4.677   6.986
 9136SOL    HW228308   6.296   4.745   6.875
 9137SOL     OW28309   4.913   6.357   6.609
 9137SOL    HW128310   4.859   6.438   6.584
 9137SOL    HW228311   4.887   6.281   6.549
 9138SOL     OW28312   3.358   3.722   1.137
 9138SOL    HW128313   3.422   3.646   1.120
 9138SOL    HW228314   3.281   3.715   1.074
 9139SOL     OW28315   6.615   0.153   1.335
 9139SOL    HW128316   6.538   0.123   1.279
 9139SOL    HW228317   6.691   0.089   1.324
 9140SOL     OW28318   1.161   4.433   2.911
 9140SOL    HW128319   1.082   4.394   2.959
 9140SOL    HW228320   1.135   4.520   2.869
 9141SOL     OW28321   6.798   6.046   5.231
 9141SOL    HW128322   6.748   6.011   5.310
 9141SOL    HW228323   6.735   6.096   5.172
 9142SOL     OW28324   1.214   4.275   3.584
 9142SOL    HW128325   1.222   4.229   3.496
 9142SOL    HW228326   1.188   4.370   3.570
 9143SOL     OW28327   6.944   3.682   2.556
 9143SOL    HW128328   6.885   3.665   2.478
 9143SOL    HW228329   6.888   3.701   2.637
 9144SOL     OW28330   2.438   4.467   5.387
 9144SOL    HW128331   2.456   4.376   5.349
 9144SOL    HW228332   2.519   4.501   5.433
 9145SOL     OW28333   1.322   6.313   5.907
 9145SOL    HW128334   1.334   6.249   5.983
 9145SOL    HW228335   1.230   6.301   5.868
 9146SOL     OW28336   6.193   2.843   2.852
 9146SOL    HW128337   6.099   2.846   2.886
 9146SOL    HW228338   6.231   2.936   2.851
 9147SOL     OW28339   4.185   0.019   4.209
 9147SOL    HW128340   4.225   0.069   4.286
 9147SOL    HW228341   4.088   0.039   4.203
 9148SOL     OW28342   6.032   6.400   1.851
 9148SOL    HW128343   6.055   6.334   1.922
 9148SOL    HW228344   6.016   6.353   1.765
 9149SOL     OW28345   0.323   3.802   1.978
 9149SOL    HW128346   0.313   3.842   1.887
 9149SOL    HW228347   0.386   3.724   1.973
 9150SOL     OW28348   2.876   2.621   1.144
 9150SOL    HW128349   2.783   2.643   1.115
 9150SOL    HW228350   2.877   2.595   1.240
 9151SOL     OW28351   1.963   3.089   3.833
 9151SOL    HW128352   2.052   3.049   3.809
 9151SOL    HW228353   1.900   3.076   3.756
 9152SOL     OW28354   2.353   4.703   3.371
 9152SOL    HW128355   2.365   4.603   3.369
 9152SOL    HW228356   2.257   4.725   3.385
 9153SOL     OW28357   6.700   4.033   0.465
 9153SOL    HW128358   6.708   4.082   0.378
 9153SOL    HW228359   6.660   3.943   0.450
 9154SOL     OW28360   5.835   4.841   2.600
 9154SOL    HW128361   5.881   4.789   2.672
 9154SOL    HW228362   5.769   4.903   2.641
 9155SOL     OW28363   1.083   6.363   2.454
 9155SOL    HW128364   1.145   6.390   2.379
 9155SOL    HW228365   1.017   6.436   2.470
 9156SOL     OW28366   6.963   4.168   6.992
 9156SOL    HW128367   6.953   4.249   0.030
 9156SOL    HW228368   6.876   4.118   6.989
 9157SOL     OW28369   2.111   5.365   5.957
 9157SOL    HW128370   2.143   5.362   6.051
 9157SOL    HW228371   2.042   5.293   5.942
 9158SOL     OW28372   6.682   3.435   4.900
 9158SOL    HW128373   6.695   3.418   4.998
 9158SOL    HW228374   6.648   3.528   4.887
 9159SOL     OW28375   3.820   1.322   3.927
 9159SOL    HW128376   3.775   1.394   3.979
 9159SOL    HW228377   3.766   1.300   3.845
 9160SOL     OW28378   6.899   4.461   0.862
 9160SOL    HW128379   6.954   4.399   0.917
 9160SOL    HW228380   6.884   4.546   0.912
 9161SOL     OW28381   6.744   4.302   1.544
 9161SOL    HW128382   6.718   4.398   1.539
 9161SOL    HW228383   6.830   4.293   1.593
 9162SOL     OW28384   4.344   2.033   1.626
 9162SOL    HW128385   4.402   2.107   1.592
 9162SOL    HW228386   4.395   1.979   1.693
 9163SOL     OW28387   1.620   2.509   3.295
 9163SOL    HW128388   1.584   2.567   3.368
 9163SOL    HW228389   1.565   2.426   3.288
 9164SOL     OW28390   2.923   0.145   0.233
 9164SOL    HW128391   2.919   0.243   0.213
 9164SOL    HW228392   2.994   0.128   0.302
 9165SOL     OW28393   4.939   1.531   6.307
 9165SOL    HW128394   5.010   1.596   6.331
 9165SOL    HW228395   4.910   1.481   6.389
 9166SOL     OW28396   5.272   5.889   1.591
 9166SOL    HW128397   5.294   5.915   1.685
 9166SOL    HW228398   5.357   5.878   1.539
 9167SOL     OW28399   1.488   1.381   4.428
 9167SOL    HW128400   1.588   1.390   4.432
 9167SOL    HW228401   1.455   1.339   4.512
 9168SOL     OW28402   6.430   5.882   4.238
 9168SOL    HW128403   6.530   5.885   4.230
 9168SOL    HW228404   6.392   5.826   4.164
 9169SOL     OW28405   6.568   5.811   0.622
 9169SOL    HW128406   6.526   5.897   0.591
 9169SOL    HW228407   6.667   5.817   0.613
 9170SOL     OW28408   1.647   1.186   6.223
 9170SOL    HW128409   1.656   1.115   6.293
 9170SOL    HW228410   1.601   1.147   6.143
 9171SOL     OW28411   3.413   4.581   0.151
 9171SOL    HW128412   3.381   4.604   0.059
 9171SOL    HW228413   3.511   4.561   0.149
 9172SOL     OW28414   4.672   1.300   3.864
 9172SOL    HW128415   4.635   1.309   3.772
 9172SOL    HW228416   4.772   1.296   3.860
 9173SOL     OW28417   5.630   3.186   4.965
 9173SOL    HW128418   5.608   3.250   4.892
 9173SOL    HW228419   5.610   3.093   4.934
 9174SOL     OW28420   0.498   4.577   0.275
 9174SOL    HW128421   0.517   4.624   0.362
 9174SOL    HW228422   0.399   4.565   0.265
 9175SOL     OW28423   2.314   6.824   6.819
 9175SOL    HW128424   2.392   6.886   6.810
 9175SOL    HW228425   2.254   6.835   6.740
 9176SOL     OW28426   1.606   1.705   2.638
 9176SOL    HW128427   1.640   1.695   2.731
 9176SOL    HW228428   1.580   1.800   2.622
 9177SOL     OW28429   0.464   4.350   3.902
 9177SOL    HW128430   0.547   4.349   3.958
 9177SOL    HW228431   0.468   4.276   3.835
 9178SOL     OW28432   2.180   5.955   0.444
 9178SOL    HW128433   2.238   6.027   0.482
 9178SOL    HW228434   2.195   5.870   0.494
 9179SOL     OW28435   3.674   5.334   4.840
 9179SOL    HW128436   3.645   5.242   4.812
 9179SOL    HW228437   3.597   5.397   4.834
 9180SOL     OW28438   6.733   0.897   4.983
 9180SOL    HW128439   6.637   0.871   4.977
 9180SOL    HW228440   6.786   0.843   4.917
 9181SOL     OW28441   3.090   1.932   3.777
 9181SOL    HW128442   3.084   1.911   3.875
 9181SOL    HW228443   3.177   1.898   3.741
 9182SOL     OW28444   1.348   1.278   2.771
 9182SOL    HW128445   1.370   1.182   2.754
 9182SOL    HW228446   1.403   1.335   2.710
 9183SOL     OW28447   0.440   2.010   6.068
 9183SOL    HW128448   0.435   1.980   6.163
 9183SOL    HW228449   0.429   2.109   6.064
 9184SOL     OW28450   3.709   3.148   0.356
 9184SOL    HW128451   3.789   3.144   0.297
 9184SOL    HW228452   3.709   3.068   0.417
 9185SOL     OW28453   1.152   0.800   0.121
 9185SOL    HW128454   1.135   0.795   0.023
 9185SOL    HW228455   1.205   0.720   0.150
 9186SOL     OW28456   5.883   0.934   6.254
 9186SOL    HW128457   5.869   1.017   6.200
 9186SOL    HW228458   5.852   0.949   6.347
 9187SOL     OW28459   5.449   2.224   0.721
 9187SOL    HW128460   5.385   2.301   0.720
 9187SOL    HW228461   5.406   2.144   0.679
 9188SOL     OW28462   1.442   0.393   1.850
 9188SOL    HW128463   1.458   0.302   1.888
 9188SOL    HW228464   1.529   0.435   1.824
 9189SOL     OW28465   3.817   1.436   4.573
 9189SOL    HW128466   3.830   1.339   4.591
 9189SOL    HW228467   3.820   1.452   4.474
 9190SOL     OW28468   6.467   2.299   5.433
 9190SOL    HW128469   6.566   2.302   5.450
 9190SOL    HW228470   6.424   2.380   5.474
 9191SOL     OW28471   5.446   6.551   0.608
 9191SOL    HW128472   5.372   6.533   0.543
 9191SOL    HW228473   5.527   6.581   0.558
 9192SOL     OW28474   5.659   4.729   4.553
 9192SOL    HW128475   5.582   4.791   4.541
 9192SOL    HW228476   5.720   4.764   4.624
 9193SOL     OW28477   3.653   3.129   3.991
 9193SOL    HW128478   3.749   3.124   3.961
 9193SOL    HW228479   3.645   3.091   4.083
 9194SOL     OW28480   3.112   5.634   2.284
 9194SOL    HW128481   3.104   5.614   2.382
 9194SOL    HW228482   3.132   5.550   2.234
 9195SOL     OW28483   0.090   3.676   3.039
 9195SOL    HW128484   0.038   3.611   2.983
 9195SOL    HW228485   0.074   3.769   3.006
 9196SOL     OW28486   4.451   0.074   3.675
 9196SOL    HW128487   4.439   0.160   3.726
 9196SOL    HW228488   4.457   0.094   3.577
 9197SOL     OW28489   3.285   3.474   6.365
 9197SOL    HW128490   3.187   3.452   6.375
 9197SOL    HW228491   3.295   3.570   6.340
 9198SOL     OW28492   5.146   2.620   4.992
 9198SOL    HW128493   5.134   2.642   5.089
 9198SOL    HW228494   5.079   2.670   4.938
 9199SOL     OW28495   1.599   3.442   6.425
 9199SOL    HW128496   1.603   3.440   6.325
 9199SOL    HW228497   1.655   3.519   6.458
 9200SOL     OW28498   5.868   0.071   0.548
 9200SOL    HW128499   5.867   0.153   0.605
 9200SOL    HW228500   5.855   0.097   0.452
 9201SOL     OW28501   1.656   4.049   3.396
 9201SOL    HW128502   1.616   3.965   3.433
 9201SOL    HW228503   1.743   4.068   3.442
 9202SOL     OW28504   3.339   5.325   4.202
 9202SOL    HW128505   3.401   5.306   4.126
 9202SOL    HW228506   3.308   5.420   4.196
 9203SOL     OW28507   5.057   0.706   6.257
 9203SOL    HW128508   4.986   0.734   6.322
 9203SOL    HW228509   5.035   0.616   6.220
 9204SOL     OW28510   4.673   4.512   1.895
 9204SOL    HW128511   4.610   4.588   1.886
 9204SOL    HW228512   4.626   4.433   1.935
 9205SOL     OW28513   4.942   3.178   2.778
 9205SOL    HW128514   4.990   3.096   2.746
 9205SOL    HW228515   4.848   3.155   2.801
 9206SOL     OW28516   0.621   6.774   3.522
 9206SOL    HW128517   0.551   6.750   3.455
 9206SOL    HW228518   0.695   6.707   3.518
 9207SOL     OW28519   4.252   6.838   0.072
 9207SOL    HW128520   4.164   6.798   0.047
 9207SOL    HW228521   4.239   6.906   0.144
 9208SOL     OW28522   4.692   4.772   2.477
 9208SOL    HW128523   4.626   4.785   2.550
 9208SOL    HW228524   4.671   4.836   2.402
 9209SOL     OW28525   3.564   1.131   3.055
 9209SOL    HW128526   3.503   1.192   3.105
 9209SOL    HW228527   3.521   1.042   3.044
 9210SOL     OW28528   1.287   0.099   0.768
 9210SOL    HW128529   1.225   0.156   0.714
 9210SOL    HW228530   1.234   0.031   0.820
 9211SOL     OW28531   4.686   1.701   6.214
 9211SOL    HW128532   4.682   1.731   6.119
 9211SOL    HW228533   4.759   1.634   6.225
 9212SOL     OW28534   5.771   3.871   4.759
 9212SOL    HW128535   5.805   3.890   4.851
 9212SOL    HW228536   5.841   3.896   4.692
 9213SOL     OW28537   6.499   6.970   2.416
 9213SOL    HW128538   6.412   7.002   2.454
 9213SOL    HW228539   6.572   6.987   2.482
 9214SOL     OW28540   1.668   2.629   5.523
 9214SOL    HW128541   1.681   2.561   5.450
 9214SOL    HW228542   1.689   2.587   5.611
 9215SOL     OW28543   0.770   3.010   2.834
 9215SOL    HW128544   0.696   3.039   2.895
 9215SOL    HW228545   0.849   2.983   2.888
 9216SOL     OW28546   2.825   5.629   5.054
 9216SOL    HW128547   2.893   5.627   4.980
 9216SOL    HW228548   2.872   5.631   5.142
 9217SOL     OW28549   4.549   1.315   6.268
 9217SOL    HW128550   4.468   1.261   6.244
 9217SOL    HW228551   4.520   1.402   6.307
 9218SOL     OW28552   6.124   5.379   6.807
 9218SOL    HW128553   6.204   5.398   6.863
 9218SOL    HW228554   6.106   5.280   6.807
 9219SOL     OW28555   3.591   2.990   5.598
 9219SOL    HW128556   3.572   2.929   5.522
 9219SOL    HW228557   3.666   2.953   5.653
 9220SOL     OW28558   0.719   6.449   3.753
 9220SOL    HW128559   0.736   6.486   3.661
 9220SOL    HW228560   0.737   6.351   3.752
 9221SOL     OW28561   2.457   1.242   1.021
 9221SOL    HW128562   2.463   1.336   1.055
 9221SOL    HW228563   2.401   1.240   0.938
 9222SOL     OW28564   1.669   3.314   3.849
 9222SOL    HW128565   1.758   3.342   3.883
 9222SOL    HW228566   1.653   3.354   3.758
 9223SOL     OW28567   0.490   3.356   5.090
 9223SOL    HW128568   0.474   3.258   5.097
 9223SOL    HW228569   0.448   3.403   5.168
 9224SOL     OW28570   2.126   4.531   3.957
 9224SOL    HW128571   2.173   4.448   3.986
 9224SOL    HW228572   2.140   4.544   3.858
 9225SOL     OW28573   5.060   6.154   6.760
 9225SOL    HW128574   5.000   6.074   6.761
 9225SOL    HW228575   5.022   6.223   6.697
 9226SOL     OW28576   1.017   0.794   0.975
 9226SOL    HW128577   0.940   0.748   0.932
 9226SOL    HW228578   1.100   0.740   0.961
 9227SOL     OW28579   2.284   4.866   0.913
 9227SOL    HW128580   2.241   4.779   0.889
 9227SOL    HW228581   2.213   4.933   0.936
 9228SOL     OW28582   3.533   3.279   5.578
 9228SOL    HW128583   3.540   3.184   5.550
 9228SOL    HW228584   3.507   3.335   5.499
 9229SOL     OW28585   0.203   4.827   0.254
 9229SOL    HW128586   0.240   4.817   0.346
 9229SOL    HW228587   0.163   4.740   0.224
 9230SOL     OW28588   4.490   1.665   4.954
 9230SOL    HW128589   4.508   1.608   4.873
 9230SOL    HW228590   4.576   1.686   5.000
 9231SOL     OW28591   6.995   5.419   3.586
 9231SOL    HW128592   6.917   5.459   3.635
 9231SOL    HW228593   7.007   5.465   3.498
 9232SOL     OW28594   1.387   5.173   2.359
 9232SOL    HW128595   1.456   5.197   2.428
 9232SOL    HW228596   1.373   5.251   2.298
 9233SOL     OW28597   0.518   6.601   0.056
 9233SOL    HW128598   0.523   6.619   6.977
 9233SOL    HW228599   0.610   6.594   0.094
 9234SOL     OW28600   2.464   4.115   0.696
 9234SOL    HW128601   2.412   4.140   0.614
 9234SOL    HW228602   2.451   4.019   0.717
 9235SOL     OW28603   2.183   1.900   3.894
 9235SOL    HW128604   2.276   1.904   3.931
 9235SOL    HW228605   2.169   1.976   3.830
 9236SOL     OW28606   2.681   3.492   6.559
 9236SOL    HW128607   2.747   3.527   6.626
 9236SOL    HW228608   2.660   3.397   6.580
 9237SOL     OW28609   5.679   4.737   3.107
 9237SOL    HW128610   5.692   4.695   3.197
 9237SOL    HW228611   5.617   4.815   3.115
 9238SOL     OW28612   1.811   2.821   5.127
 9238SOL    HW128613   1.739   2.751   5.127
 9238SOL    HW228614   1.893   2.785   5.170
 9239SOL     OW28615   1.164   5.052   6.968
 9239SOL    HW128616   1.158   5.051   0.049
 9239SOL    HW228617   1.248   5.097   6.939
 9240SOL     OW28618   4.256   2.342   2.837
 9240SOL    HW128619   4.256   2.389   2.925
 9240SOL    HW228620   4.164   2.311   2.816
 9241SOL     OW28621   6.063   6.374   1.252
 9241SOL    HW128622   6.077   6.317   1.332
 9241SOL    HW228623   5.986   6.436   1.268
 9242SOL     OW28624   1.161   2.644   0.193
 9242SOL    HW128625   1.172   2.685   0.284
 9242SOL    HW228626   1.105   2.704   0.136
 9243SOL     OW28627   0.897   0.879   0.068
 9243SOL    HW128628   0.992   0.859   0.092
 9243SOL    HW228629   0.836   0.813   0.113
 9244SOL     OW28630   3.302   6.597   5.553
 9244SOL    HW128631   3.287   6.638   5.643
 9244SOL    HW228632   3.385   6.635   5.513
 9245SOL     OW28633   1.224   4.548   3.595
 9245SOL    HW128634   1.292   4.573   3.526
 9245SOL    HW228635   1.179   4.630   3.629
 9246SOL     OW28636   6.645   0.374   5.974
 9246SOL    HW128637   6.573   0.317   6.014
 9246SOL    HW228638   6.703   0.410   6.047
 9247SOL     OW28639   3.584   6.510   2.983
 9247SOL    HW128640   3.495   6.544   2.953
 9247SOL    HW228641   3.599   6.419   2.944
 9248SOL     OW28642   2.387   1.365   6.270
 9248SOL    HW128643   2.459   1.420   6.226
 9248SOL    HW228644   2.310   1.356   6.207
 9249SOL     OW28645   3.573   5.794   0.996
 9249SOL    HW128646   3.564   5.892   1.015
 9249SOL    HW228647   3.649   5.756   1.048
 9250SOL     OW28648   0.447   2.914   4.126
 9250SOL    HW128649   0.533   2.923   4.177
 9250SOL    HW228650   0.462   2.859   4.044
 9251SOL     OW28651   2.978   2.980   1.228
 9251SOL    HW128652   3.038   2.927   1.169
 9251SOL    HW228653   2.985   3.077   1.205
 9252SOL     OW28654   4.590   1.981   5.785
 9252SOL    HW128655   4.592   2.004   5.688
 9252SOL    HW228656   4.657   2.036   5.834
 9253SOL     OW28657   1.262   5.328   5.339
 9253SOL    HW128658   1.241   5.251   5.398
 9253SOL    HW228659   1.206   5.323   5.256
 9254SOL     OW28660   6.979   4.948   2.872
 9254SOL    HW128661   0.028   5.016   2.897
 9254SOL    HW228662   6.888   4.980   2.899
 9255SOL     OW28663   6.764   4.590   0.646
 9255SOL    HW128664   6.803   4.519   0.705
 9255SOL    HW228665   6.665   4.595   0.660
 9256SOL     OW28666   1.924   6.190   1.956
 9256SOL    HW128667   1.902   6.225   2.047
 9256SOL    HW228668   1.971   6.262   1.904
 9257SOL     OW28669   6.468   6.031   3.885
 9257SOL    HW128670   6.492   5.989   3.798
 9257SOL    HW228671   6.410   6.111   3.869
 9258SOL     OW28672   3.641   5.160   1.284
 9258SOL    HW128673   3.659   5.211   1.200
 9258SOL    HW228674   3.678   5.067   1.275
 9259SOL     OW28675   2.173   1.242   6.916
 9259SOL    HW128676   2.265   1.282   6.913
 9259SOL    HW228677   2.160   1.195   7.003
 9260SOL     OW28678   5.991   3.837   5.170
 9260SOL    HW128679   6.039   3.766   5.120
 9260SOL    HW228680   5.917   3.873   5.113
 9261SOL     OW28681   3.758   2.503   1.676
 9261SOL    HW128682   3.837   2.542   1.722
 9261SOL    HW228683   3.711   2.440   1.737
 9262SOL     OW28684   6.157   6.095   4.524
 9262SOL    HW128685   6.147   6.188   4.560
 9262SOL    HW228686   6.135   6.029   4.596
 9263SOL     OW28687   1.844   4.086   4.296
 9263SOL    HW128688   1.805   4.042   4.215
 9263SOL    HW228689   1.772   4.102   4.363
 9264SOL     OW28690   4.303   4.099   6.897
 9264SOL    HW128691   4.365   4.119   6.972
 9264SOL    HW228692   4.272   4.184   6.855
 9265SOL     OW28693   6.136   2.203   0.158
 9265SOL    HW128694   6.160   2.300   0.157
 9265SOL    HW228695   6.129   2.169   0.064
 9266SOL     OW28696   1.253   4.666   1.348
 9266SOL    HW128697   1.259   4.735   1.276
 9266SOL    HW228698   1.274   4.576   1.309
 9267SOL     OW28699   6.230   1.028   4.877
 9267SOL    HW128700   6.207   0.947   4.931
 9267SOL    HW228701   6.149   1.087   4.870
 9268SOL     OW28702   0.673   0.257   2.050
 9268SOL    HW128703   0.625   0.188   2.105
 9268SOL    HW228704   0.765   0.272   2.088
 9269SOL     OW28705   4.068   0.958   0.480
 9269SOL    HW128706   4.099   1.026   0.413
 9269SOL    HW228707   3.975   0.981   0.509
 9270SOL     OW28708   1.853   0.180   6.083
 9270SOL    HW128709   1.757   0.160   6.066
 9270SOL    HW228710   1.867   0.279   6.084
 9271SOL     OW28711   1.220   6.704   4.810
 9271SOL    HW128712   1.143   6.652   4.774
 9271SOL    HW228713   1.206   6.720   4.908
 9272SOL     OW28714   6.533   6.599   6.068
 9272SOL    HW128715   6.442   6.635   6.089
 9272SOL    HW228716   6.525   6.521   6.006
 9273SOL     OW28717   5.014   5.054   4.273
 9273SOL    HW128718   5.052   5.031   4.184
 9273SOL    HW228719   5.015   5.154   4.285
 9274SOL     OW28720   0.733   2.497   0.257
 9274SOL    HW128721   0.744   2.595   0.239
 9274SOL    HW228722   0.650   2.483   0.310
 9275SOL     OW28723   0.159   0.532   0.092
 9275SOL    HW128724   0.214   0.586   0.028
 9275SOL    HW228725   0.137   0.444   0.049
 9276SOL     OW28726   2.518   5.358   0.234
 9276SOL    HW128727   2.594   5.378   0.173
 9276SOL    HW228728   2.547   5.289   0.302
 9277SOL     OW28729   5.066   5.683   1.885
 9277SOL    HW128730   5.077   5.782   1.883
 9277SOL    HW228731   5.128   5.640   1.819
 9278SOL     OW28732   1.090   0.715   5.174
 9278SOL    HW128733   1.060   0.801   5.134
 9278SOL    HW228734   1.029   0.641   5.144
 9279SOL     OW28735   4.621   5.975   1.804
 9279SOL    HW128736   4.591   5.909   1.735
 9279SOL    HW228737   4.552   5.980   1.877
 9280SOL     OW28738   1.633   0.026   2.668
 9280SOL    HW128739   1.606   0.111   2.713
 9280SOL    HW228740   1.671   0.046   2.578
 9281SOL     OW28741   2.456   5.253   6.788
 9281SOL    HW128742   2.517   5.305   6.727
 9281SOL    HW228743   2.405   5.316   6.845
 9282SOL     OW28744   2.680   6.822   4.952
 9282SOL    HW128745   2.703   6.878   5.032
 9282SOL    HW228746   2.607   6.865   4.901
 9283SOL     OW28747   4.224   6.108   0.408
 9283SOL    HW128748   4.293   6.037   0.419
 9283SOL    HW228749   4.249   6.188   0.462
 9284SOL     OW28750   3.457   3.900   4.905
 9284SOL    HW128751   3.543   3.882   4.857
 9284SOL    HW228752   3.395   3.823   4.891
 9285SOL     OW28753   0.614   5.150   2.615
 9285SOL    HW128754   0.700   5.121   2.573
 9285SOL    HW228755   0.623   5.144   2.715
 9286SOL     OW28756   4.296   6.274   1.309
 9286SOL    HW128757   4.341   6.214   1.243
 9286SOL    HW228758   4.200   6.287   1.284
 9287SOL     OW28759   3.683   4.510   6.212
 9287SOL    HW128760   3.741   4.589   6.192
 9287SOL    HW228761   3.734   4.426   6.192
 9288SOL     OW28762   3.897   1.894   2.580
 9288SOL    HW128763   3.883   1.989   2.552
 9288SOL    HW228764   3.817   1.863   2.633
 9289SOL     OW28765   4.906   6.506   0.476
 9289SOL    HW128766   4.929   6.571   0.404
 9289SOL    HW228767   4.810   6.480   0.467
 9290SOL     OW28768   4.487   0.658   4.100
 9290SOL    HW128769   4.512   0.597   4.025
 9290SOL    HW228770   4.388   0.654   4.114
 9291SOL     OW28771   1.064   5.008   6.075
 9291SOL    HW128772   1.054   5.100   6.112
 9291SOL    HW228773   0.974   4.964   6.068
 9292SOL     OW28774   1.392   1.226   6.456
 9292SOL    HW128775   1.468   1.173   6.493
 9292SOL    HW228776   1.355   1.179   6.376
 9293SOL     OW28777   5.001   2.755   4.805
 9293SOL    HW128778   5.048   2.797   4.727
 9293SOL    HW228779   4.922   2.812   4.830
 9294SOL     OW28780   4.546   1.047   0.093
 9294SOL    HW128781   4.481   1.011   0.160
 9294SOL    HW228782   4.502   1.053   0.004
 9295SOL     OW28783   0.753   1.359   5.246
 9295SOL    HW128784   0.657   1.368   5.221
 9295SOL    HW228785   0.806   1.433   5.205
 9296SOL     OW28786   1.587   4.792   0.212
 9296SOL    HW128787   1.554   4.754   0.126
 9296SOL    HW228788   1.566   4.890   0.215
 9297SOL     OW28789   5.805   5.651   2.232
 9297SOL    HW128790   5.792   5.560   2.194
 9297SOL    HW228791   5.832   5.714   2.159
 9298SOL     OW28792   1.628   5.316   6.451
 9298SOL    HW128793   1.637   5.410   6.485
 9298SOL    HW228794   1.559   5.312   6.379
 9299SOL     OW28795   1.828   2.814   4.660
 9299SOL    HW128796   1.737   2.856   4.656
 9299SOL    HW228797   1.864   2.803   4.567
 9300SOL     OW28798   1.579   4.925   5.221
 9300SOL    HW128799   1.673   4.894   5.233
 9300SOL    HW228800   1.542   4.953   5.310
 9301SOL     OW28801   0.416   4.415   5.138
 9301SOL    HW128802   0.512   4.411   5.110
 9301SOL    HW228803   0.366   4.340   5.096
 9302SOL     OW28804   2.286   3.456   5.250
 9302SOL    HW128805   2.191   3.483   5.265
 9302SOL    HW228806   2.344   3.537   5.247
 9303SOL     OW28807   2.165   4.608   0.896
 9303SOL    HW128808   2.132   4.518   0.869
 9303SOL    HW228809   2.230   4.598   0.971
 9304SOL     OW28810   4.007   5.377   0.160
 9304SOL    HW128811   3.950   5.295   0.166
 9304SOL    HW228812   4.074   5.366   0.087
 9305SOL     OW28813   2.150   1.933   1.283
 9305SOL    HW128814   2.138   2.032   1.275
 9305SOL    HW228815   2.138   1.891   1.193
 9306SOL     OW28816   6.401   5.598   4.785
 9306SOL    HW128817   6.328   5.643   4.732
 9306SOL    HW228818   6.482   5.656   4.786
 9307SOL     OW28819   2.602   2.994   1.523
 9307SOL    HW128820   2.560   2.935   1.592
 9307SOL    HW228821   2.620   2.941   1.440
 9308SOL     OW28822   2.267   3.965   2.133
 9308SOL    HW128823   2.366   3.970   2.145
 9308SOL    HW228824   2.236   3.871   2.148
 9309SOL     OW28825   4.860   5.510   6.287
 9309SOL    HW128826   4.814   5.558   6.361
 9309SOL    HW228827   4.888   5.576   6.217
 9310SOL     OW28828   5.904   5.887   0.224
 9310SOL    HW128829   5.888   5.836   0.308
 9310SOL    HW228830   5.925   5.824   0.149
 9311SOL     OW28831   4.638   3.849   1.702
 9311SOL    HW128832   4.549   3.804   1.706
 9311SOL    HW228833   4.627   3.946   1.680
 9312SOL     OW28834   0.391   2.904   2.222
 9312SOL    HW128835   0.319   2.865   2.278
 9312SOL    HW228836   0.405   2.848   2.140
 9313SOL     OW28837   0.098   0.286   2.128
 9313SOL    HW128838   0.078   0.302   2.225
 9313SOL    HW228839   0.197   0.293   2.114
 9314SOL     OW28840   4.997   3.563   0.645
 9314SOL    HW128841   4.938   3.547   0.565
 9314SOL    HW228842   4.947   3.617   0.712
 9315SOL     OW28843   5.260   0.606   6.028
 9315SOL    HW128844   5.241   0.638   5.936
 9315SOL    HW228845   5.178   0.562   6.065
 9316SOL     OW28846   4.436   0.578   5.553
 9316SOL    HW128847   4.374   0.562   5.476
 9316SOL    HW228848   4.410   0.522   5.630
 9317SOL     OW28849   3.386   6.545   3.248
 9317SOL    HW128850   3.310   6.538   3.313
 9317SOL    HW228851   3.415   6.453   3.221
 9318SOL     OW28852   4.437   6.450   1.517
 9318SOL    HW128853   4.383   6.379   1.471
 9318SOL    HW228854   4.464   6.417   1.608
 9319SOL     OW28855   2.459   3.455   0.393
 9319SOL    HW128856   2.446   3.553   0.380
 9319SOL    HW228857   2.384   3.405   0.350
 9320SOL     OW28858   6.838   6.422   6.916
 9320SOL    HW128859   6.875   6.496   6.973
 9320SOL    HW228860   6.768   6.459   6.855
 9321SOL     OW28861   0.640   3.393   4.874
 9321SOL    HW128862   0.560   3.367   4.928
 9321SOL    HW228863   0.722   3.354   4.916
 9322SOL     OW28864   5.729   3.253   6.477
 9322SOL    HW128865   5.749   3.177   6.539
 9322SOL    HW228866   5.804   3.263   6.412
 9323SOL     OW28867   1.313   2.149   5.015
 9323SOL    HW128868   1.352   2.137   4.923
 9323SOL    HW228869   1.352   2.080   5.077
 9324SOL     OW28870   0.651   4.530   1.728
 9324SOL    HW128871   0.671   4.440   1.766
 9324SOL    HW228872   0.652   4.525   1.628
 9325SOL     OW28873   1.129   4.536   3.263
 9325SOL    HW128874   1.202   4.579   3.315
 9325SOL    HW228875   1.064   4.492   3.326
 9326SOL     OW28876   4.442   4.844   1.735
 9326SOL    HW128877   4.342   4.845   1.746
 9326SOL    HW228878   4.484   4.821   1.823
 9327SOL     OW28879   3.964   0.556   4.015
 9327SOL    HW128880   4.050   0.603   3.997
 9327SOL    HW228881   3.968   0.463   3.979
 9328SOL     OW28882   2.588   6.935   4.149
 9328SOL    HW128883   2.656   6.862   4.149
 9328SOL    HW228884   2.624   7.015   4.102
 9329SOL     OW28885   0.434   5.364   6.609
 9329SOL    HW128886   0.518   5.311   6.603
 9329SOL    HW228887   0.428   5.408   6.699
 9330SOL     OW28888   6.801   5.782   6.337
 9330SOL    HW128889   6.861   5.821   6.267
 9330SOL    HW228890   6.855   5.723   6.397
 9331SOL     OW28891   1.488   3.199   4.794
 9331SOL    HW128892   1.484   3.153   4.706
 9331SOL    HW228893   1.545   3.281   4.787
 9332SOL     OW28894   4.668   6.010   1.085
 9332SOL    HW128895   4.648   6.073   1.011
 9332SOL    HW228896   4.765   5.984   1.082
 9333SOL     OW28897   3.957   4.187   0.961
 9333SOL    HW128898   3.888   4.155   1.026
 9333SOL    HW228899   4.030   4.119   0.954
 9334SOL     OW28900   5.954   5.696   5.827
 9334SOL    HW128901   6.047   5.686   5.792
 9334SOL    HW228902   5.956   5.737   5.919
 9335SOL     OW28903   1.216   3.215   1.459
 9335SOL    HW128904   1.278   3.290   1.479
 9335SOL    HW228905   1.121   3.246   1.468
 9336SOL     OW28906   5.871   6.873   5.244
 9336SOL    HW128907   5.928   6.913   5.172
 9336SOL    HW228908   5.917   6.881   5.332
 9337SOL     OW28909   2.663   0.158   6.546
 9337SOL    HW128910   2.576   0.138   6.501
 9337SOL    HW228911   2.649   0.169   6.644
 9338SOL     OW28912   5.570   6.569   0.355
 9338SOL    HW128913   5.664   6.603   0.349
 9338SOL    HW228914   5.519   6.598   0.274
 9339SOL     OW28915   6.328   3.773   5.315
 9339SOL    HW128916   6.253   3.833   5.342
 9339SOL    HW228917   6.415   3.814   5.342
 9340SOL     OW28918   4.134   5.882   1.604
 9340SOL    HW128919   4.057   5.944   1.618
 9340SOL    HW228920   4.214   5.934   1.573
 9341SOL     OW28921   5.054   4.201   6.720
 9341SOL    HW128922   5.092   4.217   6.629
 9341SOL    HW228923   5.058   4.104   6.741
 9342SOL     OW28924   3.082   0.306   4.379
 9342SOL    HW128925   3.094   0.392   4.429
 9342SOL    HW228926   2.997   0.262   4.407
 9343SOL     OW28927   4.520   4.408   1.618
 9343SOL    HW128928   4.615   4.379   1.624
 9343SOL    HW228929   4.465   4.359   1.685
 9344SOL     OW28930   6.141   6.024   5.208
 9344SOL    HW128931   6.073   6.091   5.238
 9344SOL    HW228932   6.098   5.959   5.146
 9345SOL     OW28933   0.444   6.080   0.668
 9345SOL    HW128934   0.423   6.177   0.680
 9345SOL    HW228935   0.534   6.060   0.707
 9346SOL     OW28936   6.083   5.737   0.657
 9346SOL    HW128937   6.016   5.724   0.584
 9346SOL    HW228938   6.043   5.795   0.728
 9347SOL     OW28939   3.614   5.546   0.887
 9347SOL    HW128940   3.593   5.641   0.913
 9347SOL    HW228941   3.663   5.546   0.800
 9348SOL     OW28942   2.993   5.965   1.629
 9348SOL    HW128943   3.083   5.986   1.667
 9348SOL    HW228944   3.004   5.927   1.537
 9349SOL     OW28945   6.407   5.910   1.735
 9349SOL    HW128946   6.409   5.906   1.635
 9349SOL    HW228947   6.427   5.819   1.773
 9350SOL     OW28948   7.017   0.227   5.751
 9350SOL    HW128949   0.084   0.176   5.755
 9350SOL    HW228950   0.010   0.315   5.797
 9351SOL     OW28951   3.010   1.871   6.410
 9351SOL    HW128952   2.927   1.816   6.403
 9351SOL    HW228953   3.082   1.818   6.457
 9352SOL     OW28954   3.341   2.478   6.017
 9352SOL    HW128955   3.407   2.553   6.023
 9352SOL    HW228956   3.264   2.507   5.960
 9353SOL     OW28957   0.830   3.154   1.220
 9353SOL    HW128958   0.738   3.183   1.192
 9353SOL    HW228959   0.861   3.210   1.297
 9354SOL     OW28960   4.761   2.307   1.618
 9354SOL    HW128961   4.773   2.360   1.702
 9354SOL    HW228962   4.824   2.340   1.549
 9355SOL     OW28963   6.965   0.351   3.110
 9355SOL    HW128964   6.975   0.445   3.145
 9355SOL    HW228965   0.034   0.304   3.116
 9356SOL     OW28966   4.420   4.644   2.385
 9356SOL    HW128967   4.426   4.610   2.291
 9356SOL    HW228968   4.513   4.654   2.422
 9357SOL     OW28969   3.566   2.457   1.180
 9357SOL    HW128970   3.473   2.487   1.201
 9357SOL    HW228971   3.578   2.363   1.214
 9358SOL     OW28972   6.180   4.747   2.482
 9358SOL    HW128973   6.128   4.819   2.529
 9358SOL    HW228974   6.271   4.740   2.521
 9359SOL     OW28975   6.581   3.859   5.616
 9359SOL    HW128976   6.595   3.760   5.618
 9359SOL    HW228977   6.592   3.896   5.708
 9360SOL     OW28978   2.376   1.055   0.308
 9360SOL    HW128979   2.349   1.141   0.353
 9360SOL    HW228980   2.468   1.030   0.337
 9361SOL     OW28981   2.851   6.539   2.471
 9361SOL    HW128982   2.942   6.552   2.511
 9361SOL    HW228983   2.838   6.604   2.396
 9362SOL     OW28984   2.328   1.354   2.604
 9362SOL    HW128985   2.290   1.272   2.647
 9362SOL    HW228986   2.255   1.408   2.564
 9363SOL     OW28987   3.284   5.826   2.479
 9363SOL    HW128988   3.318   5.769   2.405
 9363SOL    HW228989   3.267   5.770   2.560
 9364SOL     OW28990   4.512   4.094   0.076
 9364SOL    HW128991   4.572   4.159   0.030
 9364SOL    HW228992   4.564   4.013   0.102
 9365SOL     OW28993   3.020   1.900   4.750
 9365SOL    HW128994   3.001   1.995   4.723
 9365SOL    HW228995   3.097   1.865   4.697
 9366SOL     OW28996   2.746   1.615   1.025
 9366SOL    HW128997   2.807   1.536   1.027
 9366SOL    HW228998   2.795   1.696   1.055
 9367SOL     OW28999   6.893   5.747   2.951
 9367SOL    HW129000   6.869   5.820   2.888
 9367SOL    HW229001   6.929   5.669   2.900
 9368SOL     OW29002   3.240   1.702   1.966
 9368SOL    HW129003   3.242   1.753   1.880
 9368SOL    HW229004   3.220   1.765   2.041
 9369SOL     OW29005   0.004   2.244   4.769
 9369SOL    HW129006   0.039   2.206   4.683
 9369SOL    HW229007   6.951   2.311   4.750
 9370SOL     OW29008   6.299   0.839   2.738
 9370SOL    HW129009   6.393   0.869   2.725
 9370SOL    HW229010   6.286   0.808   2.832
 9371SOL     OW29011   0.281   6.314   0.401
 9371SOL    HW129012   0.287   6.329   0.499
 9371SOL    HW229013   0.296   6.400   0.352
 9372SOL     OW29014   6.034   6.396   4.093
 9372SOL    HW129015   5.989   6.407   4.181
 9372SOL    HW229016   6.108   6.463   4.085
 9373SOL     OW29017   3.719   1.657   3.552
 9373SOL    HW129018   3.664   1.728   3.509
 9373SOL    HW229019   3.677   1.629   3.638
 9374SOL     OW29020   5.062   3.413   0.089
 9374SOL    HW129021   5.125   3.373   0.156
 9374SOL    HW229022   5.115   3.459   0.018
 9375SOL     OW29023   0.420   1.385   3.331
 9375SOL    HW129024   0.505   1.340   3.307
 9375SOL    HW229025   0.386   1.347   3.418
 9376SOL     OW29026   2.398   3.534   0.891
 9376SOL    HW129027   2.353   3.505   0.806
 9376SOL    HW229028   2.337   3.517   0.968
 9377SOL     OW29029   5.986   5.836   3.738
 9377SOL    HW129030   5.941   5.819   3.651
 9377SOL    HW229031   5.994   5.750   3.788
 9378SOL     OW29032   2.203   6.981   0.493
 9378SOL    HW129033   2.245   6.944   0.409
 9378SOL    HW229034   2.109   7.009   0.473
 9379SOL     OW29035   5.122   5.416   4.020
 9379SOL    HW129036   5.105   5.515   4.013
 9379SOL    HW229037   5.040   5.366   3.993
 9380SOL     OW29038   5.890   0.087   5.526
 9380SOL    HW129039   5.805   0.043   5.498
 9380SOL    HW229040   5.870   0.165   5.585
 9381SOL     OW29041   2.266   1.673   5.812
 9381SOL    HW129042   2.239   1.700   5.904
 9381SOL    HW229043   2.313   1.749   5.767
 9382SOL     OW29044   4.527   2.075   2.565
 9382SOL    HW129045   4.525   2.036   2.473
 9382SOL    HW229046   4.437   2.065   2.608
 9383SOL     OW29047   4.062   6.490   4.234
 9383SOL    HW129048   3.979   6.461   4.283
 9383SOL    HW229049   4.080   6.586   4.254
 9384SOL     OW29050   4.812   6.305   2.460
 9384SOL    HW129051   4.812   6.205   2.451
 9384SOL    HW229052   4.757   6.331   2.540
 9385SOL     OW29053   3.576   1.308   3.515
 9385SOL    HW129054   3.607   1.281   3.424
 9385SOL    HW229055   3.574   1.228   3.575
 9386SOL     OW29056   2.904   6.673   5.557
 9386SOL    HW129057   2.833   6.741   5.540
 9386SOL    HW229058   2.862   6.588   5.589
 9387SOL     OW29059   3.263   6.590   0.839
 9387SOL    HW129060   3.245   6.531   0.918
 9387SOL    HW229061   3.240   6.684   0.861
 9388SOL     OW29062   0.279   0.662   2.765
 9388SOL    HW129063   0.361   0.681   2.820
 9388SOL    HW229064   0.298   0.683   2.669
 9389SOL     OW29065   2.682   0.968   5.950
 9389SOL    HW129066   2.680   1.068   5.947
 9389SOL    HW229067   2.753   0.939   6.015
 9390SOL     OW29068   2.879   5.388   2.392
 9390SOL    HW129069   2.926   5.354   2.311
 9390SOL    HW229070   2.847   5.311   2.447
 9391SOL     OW29071   0.555   1.138   5.525
 9391SOL    HW129072   0.507   1.056   5.558
 9391SOL    HW229073   0.653   1.127   5.541
 9392SOL     OW29074   1.713   6.293   4.743
 9392SOL    HW129075   1.709   6.290   4.843
 9392SOL    HW229076   1.651   6.363   4.710
 9393SOL     OW29077   3.459   2.279   5.284
 9393SOL    HW129078   3.382   2.319   5.236
 9393SOL    HW229079   3.444   2.285   5.383
 9394SOL     OW29080   6.284   3.093   2.803
 9394SOL    HW129081   6.256   3.080   2.708
 9394SOL    HW229082   6.259   3.185   2.834
 9395SOL     OW29083   2.444   3.255   1.065
 9395SOL    HW129084   2.463   3.221   0.973
 9395SOL    HW229085   2.377   3.329   1.061
 9396SOL     OW29086   6.144   7.002   6.239
 9396SOL    HW129087   6.090   6.924   6.272
 9396SOL    HW229088   6.147   7.000   6.139
 9397SOL     OW29089   2.464   6.924   0.616
 9397SOL    HW129090   2.485   0.002   0.603
 9397SOL    HW229091   2.388   6.898   0.557
 9398SOL     OW29092   2.738   1.685   6.463
 9398SOL    HW129093   2.736   1.744   6.382
 9398SOL    HW229094   2.776   1.596   6.438
 9399SOL     OW29095   0.103   0.849   5.673
 9399SOL    HW129096   0.122   0.787   5.597
 9399SOL    HW229097   0.181   0.849   5.736
 9400SOL     OW29098   5.572   3.320   2.374
 9400SOL    HW129099   5.649   3.271   2.334
 9400SOL    HW229100   5.605   3.405   2.415
 9401SOL     OW29101   2.790   6.140   3.579
 9401SOL    HW129102   2.756   6.080   3.652
 9401SOL    HW229103   2.760   6.103   3.490
 9402SOL     OW29104   2.405   5.165   6.151
 9402SOL    HW129105   2.468   5.100   6.194
 9402SOL    HW229106   2.334   5.115   6.102
 9403SOL     OW29107   5.357   1.267   3.733
 9403SOL    HW129108   5.270   1.221   3.715
 9403SOL    HW229109   5.368   1.342   3.668
 9404SOL     OW29110   1.491   5.131   6.605
 9404SOL    HW129111   1.522   5.211   6.553
 9404SOL    HW229112   1.445   5.068   6.543
 9405SOL     OW29113   6.284   6.995   0.945
 9405SOL    HW129114   6.212   7.019   1.010
 9405SOL    HW229115   6.271   0.026   0.860
 9406SOL     OW29116   0.345   1.119   4.870
 9406SOL    HW129117   0.273   1.050   4.862
 9406SOL    HW229118   0.393   1.107   4.957
 9407SOL     OW29119   2.790   6.224   3.074
 9407SOL    HW129120   2.783   6.260   2.981
 9407SOL    HW229121   2.874   6.171   3.083
 9408SOL     OW29122   3.796   1.368   6.575
 9408SOL    HW129123   3.807   1.270   6.590
 9408SOL    HW229124   3.738   1.407   6.647
 9409SOL     OW29125   5.958   3.419   3.863
 9409SOL    HW129126   5.943   3.453   3.956
 9409SOL    HW229127   6.052   3.437   3.836
 9410SOL     OW29128   4.452   6.294   2.592
 9410SOL    HW129129   4.432   6.334   2.681
 9410SOL    HW229130   4.432   6.360   2.520
 9411SOL     OW29131   4.229   5.664   0.492
 9411SOL    HW129132   4.305   5.729   0.489
 9411SOL    HW229133   4.176   5.670   0.407
 9412SOL     OW29134   0.076   2.663   1.591
 9412SOL    HW129135   7.004   2.626   1.608
 9412SOL    HW229136   0.139   2.630   1.661
 9413SOL     OW29137   4.215   6.123   5.443
 9413SOL    HW129138   4.217   6.223   5.438
 9413SOL    HW229139   4.305   6.089   5.469
 9414SOL     OW29140   3.354   1.441   2.999
 9414SOL    HW129141   3.260   1.461   2.971
 9414SOL    HW229142   3.417   1.471   2.927
 9415SOL     OW29143   2.113   6.472   2.643
 9415SOL    HW129144   2.073   6.556   2.678
 9415SOL    HW229145   2.049   6.429   2.579
 9416SOL     OW29146   1.125   1.937   2.039
 9416SOL    HW129147   1.174   1.858   2.075
 9416SOL    HW229148   1.053   1.905   1.977
 9417SOL     OW29149   2.390   5.652   5.827
 9417SOL    HW129150   2.407   5.555   5.840
 9417SOL    HW229151   2.330   5.665   5.748
 9418SOL     OW29152   2.174   5.060   1.415
 9418SOL    HW129153   2.205   5.106   1.332
 9418SOL    HW229154   2.235   4.984   1.436
 9419SOL     OW29155   3.113   6.622   5.099
 9419SOL    HW129156   3.070   6.675   5.026
 9419SOL    HW229157   3.106   6.673   5.185
 9420SOL     OW29158   6.613   1.391   4.867
 9420SOL    HW129159   6.588   1.385   4.770
 9420SOL    HW229160   6.711   1.376   4.877
 9421SOL     OW29161   0.781   4.076   5.565
 9421SOL    HW129162   0.696   4.083   5.617
 9421SOL    HW229163   0.857   4.107   5.621
 9422SOL     OW29164   5.424   0.261   2.120
 9422SOL    HW129165   5.488   0.226   2.051
 9422SOL    HW229166   5.334   0.220   2.105
 9423SOL     OW29167   3.791   0.726   4.138
 9423SOL    HW129168   3.842   0.805   4.107
 9423SOL    HW229169   3.839   0.642   4.113
 9424SOL     OW29170   3.822   6.931   4.877
 9424SOL    HW129171   3.866   6.866   4.815
 9424SOL    HW229172   3.725   6.908   4.886
 9425SOL     OW29173   0.968   3.909   5.324
 9425SOL    HW129174   1.012   3.877   5.241
 9425SOL    HW229175   1.015   3.991   5.357
 9426SOL     OW29176   3.059   0.431   6.708
 9426SOL    HW129177   3.092   0.342   6.677
 9426SOL    HW229178   3.134   0.497   6.706
 9427SOL     OW29179   2.820   5.042   5.108
 9427SOL    HW129180   2.889   4.978   5.143
 9427SOL    HW229181   2.865   5.119   5.065
 9428SOL     OW29182   5.938   0.534   2.976
 9428SOL    HW129183   5.874   0.458   2.974
 9428SOL    HW229184   6.015   0.512   3.037
 9429SOL     OW29185   0.839   4.333   2.041
 9429SOL    HW129186   0.799   4.275   2.112
 9429SOL    HW229187   0.813   4.298   1.951
 9430SOL     OW29188   6.961   6.097   1.513
 9430SOL    HW129189   6.986   6.178   1.460
 9430SOL    HW229190   0.021   6.036   1.520
 9431SOL     OW29191   7.018   4.084   0.763
 9431SOL    HW129192   6.926   4.052   0.784
 9431SOL    HW229193   0.018   4.071   0.666
 9432SOL     OW29194   6.235   0.280   3.081
 9432SOL    HW129195   6.156   0.222   3.063
 9432SOL    HW229196   6.249   0.289   3.179
 9433SOL     OW29197   3.445   4.881   5.351
 9433SOL    HW129198   3.399   4.855   5.265
 9433SOL    HW229199   3.542   4.895   5.334
 9434SOL     OW29200   5.766   4.332   3.032
 9434SOL    HW129201   5.779   4.242   2.992
 9434SOL    HW229202   5.684   4.332   3.088
 9435SOL     OW29203   1.545   1.228   4.100
 9435SOL    HW129204   1.451   1.238   4.133
 9435SOL    HW229205   1.545   1.172   4.017
 9436SOL     OW29206   2.442   3.717   0.331
 9436SOL    HW129207   2.497   3.783   0.383
 9436SOL    HW229208   2.443   3.742   0.234
 9437SOL     OW29209   1.783   5.122   3.466
 9437SOL    HW129210   1.842   5.194   3.429
 9437SOL    HW229211   1.698   5.163   3.500
 9438SOL     OW29212   0.474   6.512   2.327
 9438SOL    HW129213   0.409   6.486   2.255
 9438SOL    HW229214   0.506   6.430   2.375
 9439SOL     OW29215   0.204   3.130   2.130
 9439SOL    HW129216   0.257   3.152   2.048
 9439SOL    HW229217   0.261   3.140   2.211
 9440SOL     OW29218   5.013   6.245   5.659
 9440SOL    HW129219   5.073   6.242   5.739
 9440SOL    HW229220   4.972   6.155   5.645
 9441SOL     OW29221   2.080   4.950   4.973
 9441SOL    HW129222   2.034   4.863   4.993
 9441SOL    HW229223   2.012   5.021   4.961
 9442SOL     OW29224   6.791   2.662   0.342
 9442SOL    HW129225   6.813   2.753   0.377
 9442SOL    HW229226   6.875   2.617   0.311
 9443SOL     OW29227   1.947   4.394   0.911
 9443SOL    HW129228   1.950   4.297   0.886
 9443SOL    HW229229   2.003   4.409   0.992
 9444SOL     OW29230   0.339   3.128   0.230
 9444SOL    HW129231   0.342   3.228   0.227
 9444SOL    HW229232   0.306   3.098   0.320
 9445SOL     OW29233   5.720   3.883   2.093
 9445SOL    HW129234   5.740   3.968   2.044
 9445SOL    HW229235   5.802   3.853   2.142
 9446SOL     OW29236   6.271   6.273   2.067
 9446SOL    HW129237   6.349   6.303   2.011
 9446SOL    HW229238   6.242   6.348   2.127
 9447SOL     OW29239   5.212   3.812   1.912
 9447SOL    HW129240   5.234   3.730   1.860
 9447SOL    HW229241   5.168   3.787   1.998
 9448SOL     OW29242   5.768   6.392   0.031
 9448SOL    HW129243   5.764   6.490   0.052
 9448SOL    HW229244   5.862   6.367   0.007
 9449SOL     OW29245   5.889   5.366   5.646
 9449SOL    HW129246   5.972   5.350   5.592
 9449SOL    HW229247   5.812   5.386   5.584
 9450SOL     OW29248   2.610   5.197   4.221
 9450SOL    HW129249   2.705   5.177   4.197
 9450SOL    HW229250   2.601   5.295   4.241
 9451SOL     OW29251   4.256   5.537   6.493
 9451SOL    HW129252   4.265   5.633   6.469
 9451SOL    HW229253   4.345   5.501   6.522
 9452SOL     OW29254   2.291   3.874   1.204
 9452SOL    HW129255   2.306   3.952   1.265
 9452SOL    HW229256   2.363   3.807   1.218
 9453SOL     OW29257   2.286   5.196   2.816
 9453SOL    HW129258   2.190   5.223   2.824
 9453SOL    HW229259   2.292   5.111   2.763
 9454SOL     OW29260   1.443   3.965   6.044
 9454SOL    HW129261   1.367   4.011   6.089
 9454SOL    HW229262   1.408   3.888   5.990
 9455SOL     OW29263   3.349   1.275   3.218
 9455SOL    HW129264   3.355   1.325   3.132
 9455SOL    HW229265   3.257   1.237   3.228
 9456SOL     OW29266   1.453   3.587   0.949
 9456SOL    HW129267   1.462   3.488   0.962
 9456SOL    HW229268   1.528   3.633   0.997
 9457SOL     OW29269   1.585   3.133   0.072
 9457SOL    HW129270   1.611   3.182   7.007
 9457SOL    HW229271   1.619   3.184   0.151
 9458SOL     OW29272   6.434   4.960   5.655
 9458SOL    HW129273   6.369   4.922   5.721
 9458SOL    HW229274   6.519   4.908   5.660
 9459SOL     OW29275   6.303   5.266   1.497
 9459SOL    HW129276   6.346   5.303   1.579
 9459SOL    HW229277   6.365   5.202   1.452
 9460SOL     OW29278   0.864   1.839   5.022
 9460SOL    HW129279   0.864   1.833   4.922
 9460SOL    HW229280   0.937   1.900   5.051
 9461SOL     OW29281   0.696   0.795   3.409
 9461SOL    HW129282   0.601   0.807   3.383
 9461SOL    HW229283   0.707   0.811   3.507
 9462SOL     OW29284   1.209   3.069   2.450
 9462SOL    HW129285   1.150   3.150   2.439
 9462SOL    HW229286   1.154   2.992   2.483
 9463SOL     OW29287   6.509   1.030   0.254
 9463SOL    HW129288   6.582   0.975   0.214
 9463SOL    HW229289   6.450   1.065   0.182
 9464SOL     OW29290   6.005   6.776   6.275
 9464SOL    HW129291   5.985   6.759   6.371
 9464SOL    HW229292   5.955   6.711   6.218
 9465SOL     OW29293   6.574   0.400   3.584
 9465SOL    HW129294   6.524   0.469   3.637
 9465SOL    HW229295   6.640   0.445   3.524
 9466SOL     OW29296   2.485   3.037   5.864
 9466SOL    HW129297   2.518   2.945   5.845
 9466SOL    HW229298   2.449   3.078   5.780
 9467SOL     OW29299   1.867   2.572   1.895
 9467SOL    HW129300   1.925   2.494   1.918
 9467SOL    HW229301   1.788   2.574   1.956
 9468SOL     OW29302   6.661   2.817   5.442
 9468SOL    HW129303   6.598   2.834   5.518
 9468SOL    HW229304   6.609   2.783   5.363
 9469SOL     OW29305   6.651   5.750   2.183
 9469SOL    HW129306   6.621   5.811   2.257
 9469SOL    HW229307   6.572   5.727   2.126
 9470SOL     OW29308   4.883   3.706   0.266
 9470SOL    HW129309   4.852   3.611   0.257
 9470SOL    HW229310   4.962   3.720   0.206
 9471SOL     OW29311   6.732   2.387   5.827
 9471SOL    HW129312   6.830   2.404   5.824
 9471SOL    HW229313   6.700   2.395   5.922
 9472SOL     OW29314   5.967   4.397   4.785
 9472SOL    HW129315   6.064   4.374   4.777
 9472SOL    HW229316   5.937   4.447   4.704
 9473SOL     OW29317   2.962   6.042   6.075
 9473SOL    HW129318   3.020   5.965   6.102
 9473SOL    HW229319   3.007   6.095   6.004
 9474SOL     OW29320   4.743   4.947   2.098
 9474SOL    HW129321   4.812   4.883   2.132
 9474SOL    HW229322   4.683   4.974   2.174
 9475SOL     OW29323   3.170   3.867   1.343
 9475SOL    HW129324   3.113   3.819   1.410
 9475SOL    HW229325   3.236   3.804   1.303
 9476SOL     OW29326   4.158   3.422   5.268
 9476SOL    HW129327   4.199   3.494   5.212
 9476SOL    HW229328   4.224   3.348   5.283
 9477SOL     OW29329   1.295   2.380   0.850
 9477SOL    HW129330   1.206   2.352   0.886
 9477SOL    HW229331   1.282   2.448   0.778
 9478SOL     OW29332   5.411   4.645   5.333
 9478SOL    HW129333   5.451   4.727   5.294
 9478SOL    HW229334   5.460   4.564   5.299
 9479SOL     OW29335   6.171   5.650   6.633
 9479SOL    HW129336   6.163   5.715   6.708
 9479SOL    HW229337   6.146   5.558   6.665
 9480SOL     OW29338   5.264   4.356   6.824
 9480SOL    HW129339   5.324   4.353   6.744
 9480SOL    HW229340   5.191   4.289   6.813
 9481SOL     OW29341   0.265   4.189   1.716
 9481SOL    HW129342   0.263   4.090   1.703
 9481SOL    HW229343   0.333   4.211   1.786
 9482SOL     OW29344   4.661   0.779   2.423
 9482SOL    HW129345   4.658   0.801   2.326
 9482SOL    HW229346   4.741   0.821   2.465
 9483SOL     OW29347   1.967   1.903   0.634
 9483SOL    HW129348   1.968   1.835   0.560
 9483SOL    HW229349   2.001   1.861   0.717
 9484SOL     OW29350   5.906   1.148   3.799
 9484SOL    HW129351   5.872   1.227   3.749
 9484SOL    HW229352   5.924   1.173   3.894
 9485SOL     OW29353   0.813   1.250   2.826
 9485SOL    HW129354   0.880   1.229   2.898
 9485SOL    HW229355   0.860   1.280   2.744
 9486SOL     OW29356   2.480   5.631   0.828
 9486SOL    HW129357   2.509   5.672   0.915
 9486SOL    HW229358   2.555   5.638   0.763
 9487SOL     OW29359   3.260   4.082   3.396
 9487SOL    HW129360   3.357   4.105   3.406
 9487SOL    HW229361   3.221   4.065   3.486
 9488SOL     OW29362   2.119   6.272   1.043
 9488SOL    HW129363   2.022   6.257   1.023
 9488SOL    HW229364   2.134   6.368   1.066
 9489SOL     OW29365   4.056   4.595   1.418
 9489SOL    HW129366   3.980   4.543   1.456
 9489SOL    HW229367   4.060   4.580   1.319
 9490SOL     OW29368   5.378   1.264   0.889
 9490SOL    HW129369   5.451   1.322   0.854
 9490SOL    HW229370   5.405   1.225   0.977
 9491SOL     OW29371   6.298   5.555   3.633
 9491SOL    HW129372   6.228   5.603   3.580
 9491SOL    HW229373   6.254   5.505   3.708
 9492SOL     OW29374   3.283   3.860   1.964
 9492SOL    HW129375   3.193   3.902   1.958
 9492SOL    HW229376   3.349   3.928   1.998
 9493SOL     OW29377   4.483   6.061   2.956
 9493SOL    HW129378   4.473   6.155   2.989
 9493SOL    HW229379   4.486   5.999   3.035
 9494SOL     OW29380   5.562   3.392   0.095
 9494SOL    HW129381   5.594   3.454   0.024
 9494SOL    HW229382   5.497   3.439   0.155
 9495SOL     OW29383   6.235   2.006   4.657
 9495SOL    HW129384   6.216   1.961   4.745
 9495SOL    HW229385   6.173   2.083   4.645
 9496SOL     OW29386   5.625   4.165   6.999
 9496SOL    HW129387   5.616   4.256   0.021
 9496SOL    HW229388   5.653   4.174   6.904
 9497SOL     OW29389   5.338   4.691   0.699
 9497SOL    HW129390   5.421   4.661   0.652
 9497SOL    HW229391   5.335   4.649   0.790
 9498SOL     OW29392   3.603   6.708   5.374
 9498SOL    HW129393   3.571   6.791   5.329
 9498SOL    HW229394   3.588   6.629   5.315
 9499SOL     OW29395   2.991   3.751   5.038
 9499SOL    HW129396   2.918   3.684   5.029
 9499SOL    HW229397   3.068   3.710   5.088
 9500SOL     OW29398   4.524   6.333   1.755
 9500SOL    HW129399   4.544   6.368   1.847
 9500SOL    HW229400   4.446   6.270   1.760
 9501SOL     OW29401   3.687   1.677   4.581
 9501SOL    HW129402   3.743   1.599   4.553
 9501SOL    HW229403   3.697   1.692   4.679
 9502SOL     OW29404   6.453   2.030   4.945
 9502SOL    HW129405   6.379   2.072   4.997
 9502SOL    HW229406   6.499   2.100   4.890
 9503SOL     OW29407   0.277   0.172   1.815
 9503SOL    HW129408   0.201   0.219   1.769
 9503SOL    HW229409   0.265   0.178   1.914
 9504SOL     OW29410   0.343   2.535   0.746
 9504SOL    HW129411   0.357   2.440   0.774
 9504SOL    HW229412   0.268   2.575   0.799
 9505SOL     OW29413   6.622   3.588   2.947
 9505SOL    HW129414   6.529   3.596   2.912
 9505SOL    HW229415   6.667   3.510   2.905
 9506SOL     OW29416   0.048   3.314   0.004
 9506SOL    HW129417   0.097   3.295   0.089
 9506SOL    HW229418   0.112   3.349   6.955
 9507SOL     OW29419   1.282   1.583   3.848
 9507SOL    HW129420   1.380   1.569   3.859
 9507SOL    HW229421   1.252   1.540   3.762
 9508SOL     OW29422   5.592   2.031   0.582
 9508SOL    HW129423   5.680   2.064   0.548
 9508SOL    HW229424   5.526   2.025   0.507
 9509SOL     OW29425   1.981   6.367   5.393
 9509SOL    HW129426   1.947   6.345   5.301
 9509SOL    HW229427   1.910   6.351   5.460
 9510SOL     OW29428   0.056   4.203   2.421
 9510SOL    HW129429   0.116   4.124   2.431
 9510SOL    HW229430   0.088   4.277   2.480
 9511SOL     OW29431   0.029   2.610   0.241
 9511SOL    HW129432   0.103   2.652   0.189
 9511SOL    HW229433   0.009   2.519   0.202
 9512SOL     OW29434   0.670   2.073   3.831
 9512SOL    HW129435   0.667   2.133   3.751
 9512SOL    HW229436   0.625   2.118   3.908
 9513SOL     OW29437   2.101   3.533   3.816
 9513SOL    HW129438   2.116   3.627   3.783
 9513SOL    HW229439   2.151   3.469   3.758
 9514SOL     OW29440   2.235   3.434   6.727
 9514SOL    HW129441   2.316   3.485   6.755
 9514SOL    HW229442   2.226   3.438   6.627
 9515SOL     OW29443   1.114   6.174   6.304
 9515SOL    HW129444   1.140   6.092   6.355
 9515SOL    HW229445   1.016   6.188   6.311
 9516SOL     OW29446   4.845   3.560   4.065
 9516SOL    HW129447   4.845   3.631   3.995
 9516SOL    HW229448   4.810   3.598   4.151
 9517SOL     OW29449   0.802   5.237   1.183
 9517SOL    HW129450   0.866   5.257   1.258
 9517SOL    HW229451   0.849   5.248   1.096
 9518SOL     OW29452   0.791   2.707   5.963
 9518SOL    HW129453   0.889   2.709   5.982
 9518SOL    HW229454   0.773   2.640   5.891
 9519SOL     OW29455   3.241   3.351   2.842
 9519SOL    HW129456   3.195   3.423   2.791
 9519SOL    HW229457   3.317   3.315   2.788
 9520SOL     OW29458   0.257   0.947   5.390
 9520SOL    HW129459   0.214   0.858   5.403
 9520SOL    HW229460   0.334   0.956   5.454
 9521SOL     OW29461   3.954   6.758   1.386
 9521SOL    HW129462   3.887   6.833   1.395
 9521SOL    HW229463   4.011   6.775   1.306
 9522SOL     OW29464   4.019   5.498   1.242
 9522SOL    HW129465   3.920   5.489   1.229
 9522SOL    HW229466   4.062   5.523   1.155
 9523SOL     OW29467   2.584   4.864   4.507
 9523SOL    HW129468   2.620   4.800   4.575
 9523SOL    HW229469   2.507   4.822   4.460
 9524SOL     OW29470   1.988   4.123   0.888
 9524SOL    HW129471   2.070   4.100   0.941
 9524SOL    HW229472   2.015   4.174   0.807
 9525SOL     OW29473   1.863   2.119   5.594
 9525SOL    HW129474   1.922   2.198   5.582
 9525SOL    HW229475   1.814   2.126   5.681
 9526SOL     OW29476   5.231   5.172   6.597
 9526SOL    HW129477   5.302   5.241   6.583
 9526SOL    HW229478   5.224   5.151   6.694
 9527SOL     OW29479   3.176   6.830   3.747
 9527SOL    HW129480   3.260   6.885   3.741
 9527SOL    HW229481   3.164   6.799   3.841
 9528SOL     OW29482   6.481   1.152   1.054
 9528SOL    HW129483   6.530   1.236   1.032
 9528SOL    HW229484   6.536   1.097   1.117
 9529SOL     OW29485   6.357   2.331   1.930
 9529SOL    HW129486   6.374   2.280   2.015
 9529SOL    HW229487   6.334   2.267   1.857
 9530SOL     OW29488   0.731   5.255   4.155
 9530SOL    HW129489   0.805   5.192   4.134
 9530SOL    HW229490   0.663   5.209   4.213
 9531SOL     OW29491   4.478   4.645   3.668
 9531SOL    HW129492   4.495   4.550   3.639
 9531SOL    HW229493   4.566   4.689   3.688
 9532SOL     OW29494   6.149   5.513   1.933
 9532SOL    HW129495   6.146   5.550   2.026
 9532SOL    HW229496   6.175   5.416   1.937
 9533SOL     OW29497   1.662   5.749   4.170
 9533SOL    HW129498   1.589   5.781   4.230
 9533SOL    HW229499   1.670   5.650   4.178
 9534SOL     OW29500   5.785   5.076   4.525
 9534SOL    HW129501   5.812   5.022   4.445
 9534SOL    HW229502   5.685   5.082   4.530
 9535SOL     OW29503   1.685   1.439   6.286
 9535SOL    HW129504   1.666   1.352   6.241
 9535SOL    HW229505   1.758   1.426   6.353
 9536SOL     OW29506   3.749   3.593   5.255
 9536SOL    HW129507   3.817   3.666   5.255
 9536SOL    HW229508   3.789   3.508   5.289
 9537SOL     OW29509   1.835   1.598   3.991
 9537SOL    HW129510   1.812   1.548   3.908
 9537SOL    HW229511   1.763   1.583   4.060
 9538SOL     OW29512   3.436   0.695   4.889
 9538SOL    HW129513   3.505   0.744   4.836
 9538SOL    HW229514   3.445   0.597   4.872
 9539SOL     OW29515   3.663   2.929   3.739
 9539SOL    HW129516   3.583   2.885   3.781
 9539SOL    HW229517   3.718   2.973   3.809
 9540SOL     OW29518   4.671   5.334   3.781
 9540SOL    HW129519   4.629   5.417   3.818
 9540SOL    HW229520   4.693   5.348   3.684
 9541SOL     OW29521   1.152   0.331   4.918
 9541SOL    HW129522   1.108   0.419   4.934
 9541SOL    HW229523   1.223   0.341   4.848
 9542SOL     OW29524   5.865   4.916   4.326
 9542SOL    HW129525   5.795   4.849   4.303
 9542SOL    HW229526   5.901   4.955   4.241
 9543SOL     OW29527   3.342   0.393   6.226
 9543SOL    HW129528   3.345   0.296   6.247
 9543SOL    HW229529   3.260   0.414   6.173
 9544SOL     OW29530   4.954   3.899   3.450
 9544SOL    HW129531   4.964   3.830   3.378
 9544SOL    HW229532   5.037   3.954   3.454
 9545SOL     OW29533   0.909   4.715   1.744
 9545SOL    HW129534   0.923   4.753   1.835
 9545SOL    HW229535   0.825   4.660   1.743
 9546SOL     OW29536   3.425   1.113   5.524
 9546SOL    HW129537   3.342   1.070   5.487
 9546SOL    HW229538   3.405   1.208   5.548
 9547SOL     OW29539   3.432   5.680   4.630
 9547SOL    HW129540   3.504   5.666   4.562
 9547SOL    HW229541   3.430   5.602   4.693
 9548SOL     OW29542   1.226   5.127   5.506
 9548SOL    HW129543   1.207   5.034   5.475
 9548SOL    HW229544   1.182   5.142   5.595
 9549SOL     OW29545   3.823   1.586   2.653
 9549SOL    HW129546   3.770   1.669   2.640
 9549SOL    HW229547   3.780   1.511   2.603
 9550SOL     OW29548   5.754   2.918   1.507
 9550SOL    HW129549   5.730   3.012   1.484
 9550SOL    HW229550   5.676   2.858   1.488
 9551SOL     OW29551   6.199   2.502   5.997
 9551SOL    HW129552   6.227   2.422   5.943
 9551SOL    HW229553   6.101   2.518   5.984
 9552SOL     OW29554   2.511   1.048   6.654
 9552SOL    HW129555   2.600   1.002   6.653
 9552SOL    HW229556   2.488   1.074   6.748
 9553SOL     OW29557   5.237   2.394   0.717
 9553SOL    HW129558   5.273   2.418   0.807
 9553SOL    HW229559   5.180   2.468   0.682
 9554SOL     OW29560   2.713   6.429   4.114
 9554SOL    HW129561   2.757   6.386   4.192
 9554SOL    HW229562   2.613   6.424   4.124
 9555SOL     OW29563   6.564   1.505   3.310
 9555SOL    HW129564   6.614   1.436   3.361
 9555SOL    HW229565   6.625   1.549   3.244
 9556SOL     OW29566   1.396   4.484   1.114
 9556SOL    HW129567   1.433   4.546   1.045
 9556SOL    HW229568   1.300   4.465   1.094
 9557SOL     OW29569   4.820   0.007   1.895
 9557SOL    HW129570   4.798   6.934   1.929
 9557SOL    HW229571   4.849   0.001   1.800
 9558SOL     OW29572   5.962   6.517   6.265
 9558SOL    HW129573   5.879   6.476   6.227
 9558SOL    HW229574   5.938   6.575   6.343
 9559SOL     OW29575   1.629   3.635   6.778
 9559SOL    HW129576   1.556   3.664   6.715
 9559SOL    HW229577   1.679   3.558   6.738
 9560SOL     OW29578   3.460   0.575   2.243
 9560SOL    HW129579   3.422   0.506   2.181
 9560SOL    HW229580   3.399   0.586   2.322
 9561SOL     OW29581   0.702   6.741   0.970
 9561SOL    HW129582   0.633   6.689   1.020
 9561SOL    HW229583   0.745   6.807   1.031
 9562SOL     OW29584   3.025   5.808   4.578
 9562SOL    HW129585   3.057   5.732   4.521
 9562SOL    HW229586   3.018   5.890   4.522
 9563SOL     OW29587   0.473   6.866   0.191
 9563SOL    HW129588   0.490   6.796   0.121
 9563SOL    HW229589   0.376   6.890   0.190
 9564SOL     OW29590   0.560   0.811   1.506
 9564SOL    HW129591   0.578   0.779   1.599
 9564SOL    HW229592   0.597   0.903   1.493
 9565SOL     OW29593   2.756   0.979   4.181
 9565SOL    HW129594   2.662   0.945   4.189
 9565SOL    HW229595   2.775   1.002   4.086
 9566SOL     OW29596   2.719   6.340   0.845
 9566SOL    HW129597   2.628   6.301   0.830
 9566SOL    HW229598   2.775   6.327   0.764
 9567SOL     OW29599   7.014   4.653   0.546
 9567SOL    HW129600   6.985   4.692   0.459
 9567SOL    HW229601   6.935   4.611   0.591
 9568SOL     OW29602   3.798   1.655   0.667
 9568SOL    HW129603   3.753   1.594   0.602
 9568SOL    HW229604   3.888   1.681   0.632
 9569SOL     OW29605   6.376   0.935   2.343
 9569SOL    HW129606   6.405   0.910   2.250
 9569SOL    HW229607   6.345   0.853   2.391
 9570SOL     OW29608   0.602   2.666   0.711
 9570SOL    HW129609   0.511   2.645   0.747
 9570SOL    HW229610   0.668   2.667   0.786
 9571SOL     OW29611   2.535   2.720   6.095
 9571SOL    HW129612   2.519   2.817   6.115
 9571SOL    HW229613   2.612   2.712   6.032
 9572SOL     OW29614   2.151   3.980   3.506
 9572SOL    HW129615   2.180   3.989   3.411
 9572SOL    HW229616   2.208   4.037   3.565
 9573SOL     OW29617   6.835   0.865   5.723
 9573SOL    HW129618   6.934   0.857   5.712
 9573SOL    HW229619   6.798   0.920   5.648
 9574SOL     OW29620   3.950   3.175   1.643
 9574SOL    HW129621   3.961   3.194   1.741
 9574SOL    HW229622   3.962   3.259   1.591
 9575SOL     OW29623   6.087   0.187   2.486
 9575SOL    HW129624   6.028   0.262   2.456
 9575SOL    HW229625   6.183   0.213   2.473
 9576SOL     OW29626   1.256   1.408   0.221
 9576SOL    HW129627   1.330   1.366   0.169
 9576SOL    HW229628   1.215   1.482   0.168
 9577SOL     OW29629   6.964   5.922   0.417
 9577SOL    HW129630   0.026   5.964   0.458
 9577SOL    HW229631   6.988   5.881   0.329
 9578SOL     OW29632   1.096   2.824   2.524
 9578SOL    HW129633   1.003   2.820   2.560
 9578SOL    HW229634   1.138   2.733   2.529
 9579SOL     OW29635   5.788   0.252   2.234
 9579SOL    HW129636   5.756   0.346   2.228
 9579SOL    HW229637   5.887   0.249   2.220
 9580SOL     OW29638   4.984   4.261   1.413
 9580SOL    HW129639   5.024   4.304   1.332
 9580SOL    HW229640   5.009   4.313   1.495
 9581SOL     OW29641   0.220   0.728   6.774
 9581SOL    HW129642   0.228   0.717   6.675
 9581SOL    HW229643   0.155   0.660   6.810
 9582SOL     OW29644   3.784   6.035   4.595
 9582SOL    HW129645   3.728   6.118   4.606
 9582SOL    HW229646   3.764   5.972   4.670
 9583SOL     OW29647   3.176   4.328   1.438
 9583SOL    HW129648   3.182   4.360   1.532
 9583SOL    HW229649   3.145   4.402   1.378
 9584SOL     OW29650   1.720   4.544   5.328
 9584SOL    HW129651   1.756   4.636   5.312
 9584SOL    HW229652   1.794   4.484   5.360
 9585SOL     OW29653   5.087   6.475   1.863
 9585SOL    HW129654   5.118   6.462   1.769
 9585SOL    HW229655   5.126   6.404   1.922
 9586SOL     OW29656   4.782   5.040   1.699
 9586SOL    HW129657   4.853   5.038   1.769
 9586SOL    HW229658   4.811   4.985   1.620
 9587SOL     OW29659   1.864   6.271   2.208
 9587SOL    HW129660   1.935   6.292   2.275
 9587SOL    HW229661   1.793   6.342   2.212
 9588SOL     OW29662   6.393   6.230   0.966
 9588SOL    HW129663   6.315   6.284   0.997
 9588SOL    HW229664   6.360   6.152   0.913
 9589SOL     OW29665   1.890   3.743   6.537
 9589SOL    HW129666   1.947   3.824   6.524
 9589SOL    HW229667   1.899   3.710   6.631
 9590SOL     OW29668   5.965   2.294   1.799
 9590SOL    HW129669   5.886   2.241   1.766
 9590SOL    HW229670   5.990   2.262   1.890
 9591SOL     OW29671   3.584   6.777   5.972
 9591SOL    HW129672   3.623   6.692   5.936
 9591SOL    HW229673   3.584   6.773   6.072
 9592SOL     OW29674   3.242   4.508   6.675
 9592SOL    HW129675   3.188   4.589   6.650
 9592SOL    HW229676   3.329   4.510   6.626
 9593SOL     OW29677   1.597   1.142   5.579
 9593SOL    HW129678   1.650   1.162   5.661
 9593SOL    HW229679   1.596   1.222   5.519
 9594SOL     OW29680   2.881   6.238   4.329
 9594SOL    HW129681   2.836   6.281   4.407
 9594SOL    HW229682   2.948   6.302   4.290
 9595SOL     OW29683   0.615   3.361   3.368
 9595SOL    HW129684   0.576   3.443   3.326
 9595SOL    HW229685   0.661   3.306   3.299
 9596SOL     OW29686   0.581   5.331   0.047
 9596SOL    HW129687   0.622   5.242   0.062
 9596SOL    HW229688   0.620   5.397   0.112
 9597SOL     OW29689   0.671   4.506   1.436
 9597SOL    HW129690   0.678   4.408   1.415
 9597SOL    HW229691   0.751   4.553   1.400
 9598SOL     OW29692   2.164   3.856   2.872
 9598SOL    HW129693   2.211   3.770   2.887
 9598SOL    HW229694   2.134   3.862   2.777
 9599SOL     OW29695   3.226   6.680   4.281
 9599SOL    HW129696   3.146   6.620   4.291
 9599SOL    HW229697   3.217   6.758   4.343
 9600SOL     OW29698   2.834   6.989   0.854
 9600SOL    HW129699   2.797   6.902   0.822
 9600SOL    HW229700   2.867   6.979   0.948
 9601SOL     OW29701   5.812   4.007   0.772
 9601SOL    HW129702   5.768   4.021   0.683
 9601SOL    HW229703   5.776   4.072   0.838
 9602SOL     OW29704   4.639   4.349   5.784
 9602SOL    HW129705   4.596   4.439   5.777
 9602SOL    HW229706   4.723   4.347   5.730
 9603SOL     OW29707   5.535   6.362   6.375
 9603SOL    HW129708   5.509   6.396   6.465
 9603SOL    HW229709   5.453   6.353   6.318
 9604SOL     OW29710   4.734   0.364   1.637
 9604SOL    HW129711   4.664   0.435   1.630
 9604SOL    HW229712   4.791   0.380   1.717
 9605SOL     OW29713   0.124   5.382   3.078
 9605SOL    HW129714   0.164   5.369   3.169
 9605SOL    HW229715   0.024   5.380   3.085
 9606SOL     OW29716   1.970   0.837   6.974
 9606SOL    HW129717   1.984   0.855   6.877
 9606SOL    HW229718   1.895   0.771   6.985
 9607SOL     OW29719   2.960   1.381   0.184
 9607SOL    HW129720   2.932   1.477   0.181
 9607SOL    HW229721   3.055   1.374   0.213
 9608SOL     OW29722   6.955   4.686   2.726
 9608SOL    HW129723   6.994   4.718   2.812
 9608SOL    HW229724   6.857   4.667   2.739
 9609SOL     OW29725   4.080   2.975   6.763
 9609SOL    HW129726   4.029   2.891   6.779
 9609SOL    HW229727   4.041   3.049   6.818
 9610SOL     OW29728   1.915   4.868   2.756
 9610SOL    HW129729   1.985   4.834   2.819
 9610SOL    HW229730   1.948   4.857   2.662
 9611SOL     OW29731   1.861   6.717   0.454
 9611SOL    HW129732   1.884   6.774   0.376
 9611SOL    HW229733   1.819   6.632   0.423
 9612SOL     OW29734   0.402   3.503   1.659
 9612SOL    HW129735   0.494   3.470   1.681
 9612SOL    HW229736   0.392   3.511   1.560
 9613SOL     OW29737   5.741   6.502   3.525
 9613SOL    HW129738   5.734   6.404   3.509
 9613SOL    HW229739   5.831   6.524   3.562
 9614SOL     OW29740   3.487   1.823   2.404
 9614SOL    HW129741   3.519   1.917   2.416
 9614SOL    HW229742   3.553   1.759   2.443
 9615SOL     OW29743   3.137   1.919   1.349
 9615SOL    HW129744   3.099   1.869   1.426
 9615SOL    HW229745   3.233   1.895   1.336
 9616SOL     OW29746   3.829   3.543   1.265
 9616SOL    HW129747   3.893   3.617   1.281
 9616SOL    HW229748   3.867   3.479   1.198
 9617SOL     OW29749   1.979   2.899   3.426
 9617SOL    HW129750   2.053   2.877   3.490
 9617SOL    HW229751   1.995   2.849   3.340
 9618SOL     OW29752   2.955   0.219   1.133
 9618SOL    HW129753   2.897   0.226   1.215
 9618SOL    HW229754   3.049   0.198   1.160
 9619SOL     OW29755   1.961   0.266   5.627
 9619SOL    HW129756   1.963   0.338   5.558
 9619SOL    HW229757   1.869   0.259   5.665
 9620SOL     OW29758   4.198   0.187   4.536
 9620SOL    HW129759   4.264   0.260   4.521
 9620SOL    HW229760   4.113   0.208   4.487
 9621SOL     OW29761   1.582   2.744   1.851
 9621SOL    HW129762   1.648   2.728   1.777
 9621SOL    HW229763   1.529   2.826   1.832
 9622SOL     OW29764   6.371   1.521   0.441
 9622SOL    HW129765   6.421   1.541   0.526
 9622SOL    HW229766   6.289   1.467   0.462
 9623SOL     OW29767   2.086   3.054   6.442
 9623SOL    HW129768   2.119   3.104   6.522
 9623SOL    HW229769   1.996   3.088   6.416
 9624SOL     OW29770   6.101   4.040   2.944
 9624SOL    HW129771   6.171   4.106   2.970
 9624SOL    HW229772   6.090   4.040   2.844
 9625SOL     OW29773   5.674   5.746   0.021
 9625SOL    HW129774   5.641   5.820   6.983
 9625SOL    HW229775   5.625   5.747   0.109
 9626SOL     OW29776   3.942   4.953   0.893
 9626SOL    HW129777   3.987   4.870   0.863
 9626SOL    HW229778   3.878   4.932   0.967
 9627SOL     OW29779   0.858   6.178   6.418
 9627SOL    HW129780   0.855   6.215   6.511
 9627SOL    HW229781   0.794   6.102   6.410
 9628SOL     OW29782   5.014   5.175   0.974
 9628SOL    HW129783   5.060   5.263   0.959
 9628SOL    HW229784   4.932   5.189   1.030
 9629SOL     OW29785   2.217   0.608   1.553
 9629SOL    HW129786   2.225   0.706   1.574
 9629SOL    HW229787   2.214   0.556   1.638
 9630SOL     OW29788   6.016   6.970   4.725
 9630SOL    HW129789   5.940   6.925   4.677
 9630SOL    HW229790   6.046   0.031   4.672
 9631SOL     OW29791   6.403   0.272   5.965
 9631SOL    HW129792   6.371   0.198   5.905
 9631SOL    HW229793   6.326   0.333   5.986
 9632SOL     OW29794   1.616   6.399   2.891
 9632SOL    HW129795   1.532   6.401   2.945
 9632SOL    HW229796   1.668   6.317   2.913
 9633SOL     OW29797   5.780   5.038   6.650
 9633SOL    HW129798   5.731   4.957   6.617
 9633SOL    HW229799   5.769   5.045   6.750
 9634SOL     OW29800   1.522   6.519   3.983
 9634SOL    HW129801   1.541   6.502   4.080
 9634SOL    HW229802   1.607   6.543   3.937
 9635SOL     OW29803   2.713   5.389   5.014
 9635SOL    HW129804   2.762   5.476   5.004
 9635SOL    HW229805   2.651   5.394   5.092
 9636SOL     OW29806   4.173   1.418   5.619
 9636SOL    HW129807   4.269   1.445   5.627
 9636SOL    HW229808   4.119   1.497   5.592
 9637SOL     OW29809   2.360   2.276   6.329
 9637SOL    HW129810   2.336   2.370   6.354
 9637SOL    HW229811   2.368   2.270   6.229
 9638SOL     OW29812   6.610   3.584   5.602
 9638SOL    HW129813   6.680   3.517   5.580
 9638SOL    HW229814   6.528   3.567   5.547
 9639SOL     OW29815   4.199   1.877   2.333
 9639SOL    HW129816   4.111   1.889   2.288
 9639SOL    HW229817   4.185   1.856   2.430
 9640SOL     OW29818   2.466   2.692   3.627
 9640SOL    HW129819   2.562   2.696   3.656
 9640SOL    HW229820   2.440   2.780   3.588
 9641SOL     OW29821   4.834   0.161   0.425
 9641SOL    HW129822   4.757   0.162   0.489
 9641SOL    HW229823   4.842   0.250   0.382
 9642SOL     OW29824   2.421   0.371   4.690
 9642SOL    HW129825   2.345   0.333   4.744
 9642SOL    HW229826   2.505   0.366   4.743
 9643SOL     OW29827   5.498   3.973   3.498
 9643SOL    HW129828   5.585   3.929   3.520
 9643SOL    HW229829   5.485   3.972   3.398
 9644SOL     OW29830   1.113   2.903   6.234
 9644SOL    HW129831   1.156   2.814   6.223
 9644SOL    HW229832   1.174   2.963   6.287
 9645SOL     OW29833   3.162   5.051   5.340
 9645SOL    HW129834   3.249   5.090   5.371
 9645SOL    HW229835   3.150   4.961   5.379
 9646SOL     OW29836   4.221   5.048   2.527
 9646SOL    HW129837   4.246   4.953   2.543
 9646SOL    HW229838   4.230   5.100   2.612
 9647SOL     OW29839   6.355   3.688   1.478
 9647SOL    HW129840   6.303   3.604   1.460
 9647SOL    HW229841   6.447   3.679   1.440
 9648SOL     OW29842   3.878   1.671   1.360
 9648SOL    HW129843   3.892   1.766   1.333
 9648SOL    HW229844   3.799   1.665   1.421
 9649SOL     OW29845   2.861   6.403   0.046
 9649SOL    HW129846   2.869   6.303   0.043
 9649SOL    HW229847   2.786   6.432   7.006
 9650SOL     OW29848   6.959   5.323   2.608
 9650SOL    HW129849   6.960   5.289   2.514
 9650SOL    HW229850   6.950   5.423   2.607
 9651SOL     OW29851   0.281   1.731   5.701
 9651SOL    HW129852   0.222   1.657   5.734
 9651SOL    HW229853   0.246   1.764   5.613
 9652SOL     OW29854   0.943   5.047   1.931
 9652SOL    HW129855   0.987   5.086   2.013
 9652SOL    HW229856   0.896   4.963   1.956
 9653SOL     OW29857   4.364   4.747   4.591
 9653SOL    HW129858   4.394   4.653   4.608
 9653SOL    HW229859   4.427   4.791   4.527
 9654SOL     OW29860   2.692   2.438   1.775
 9654SOL    HW129861   2.606   2.405   1.815
 9654SOL    HW229862   2.769   2.404   1.828
 9655SOL     OW29863   6.992   1.641   6.020
 9655SOL    HW129864   6.956   1.548   6.012
 9655SOL    HW229865   7.002   1.664   6.117
 9656SOL     OW29866   2.883   0.064   2.566
 9656SOL    HW129867   2.887   0.162   2.551
 9656SOL    HW229868   2.917   0.016   2.485
 9657SOL     OW29869   5.927   1.106   4.594
 9657SOL    HW129870   5.920   1.201   4.565
 9657SOL    HW229871   5.869   1.049   4.537
 9658SOL     OW29872   6.222   2.640   2.537
 9658SOL    HW129873   6.238   2.665   2.633
 9658SOL    HW229874   6.132   2.596   2.529
 9659SOL     OW29875   0.268   4.738   0.506
 9659SOL    HW129876   0.170   4.731   0.525
 9659SOL    HW229877   0.311   4.649   0.523
 9660SOL     OW29878   0.760   5.756   1.205
 9660SOL    HW129879   0.826   5.707   1.262
 9660SOL    HW229880   0.719   5.694   1.139
 9661SOL     OW29881   4.339   0.064   0.863
 9661SOL    HW129882   4.259   0.030   0.815
 9661SOL    HW229883   4.368   7.017   0.932
 9662SOL     OW29884   5.867   2.204   4.889
 9662SOL    HW129885   5.782   2.254   4.911
 9662SOL    HW229886   5.863   2.172   4.795
 9663SOL     OW29887   1.889   5.349   3.154
 9663SOL    HW129888   1.938   5.388   3.232
 9663SOL    HW229889   1.797   5.323   3.183
 9664SOL     OW29890   4.572   6.723   2.984
 9664SOL    HW129891   4.503   6.653   2.965
 9664SOL    HW229892   4.529   6.814   2.979
 9665SOL     OW29893   5.798   4.864   4.725
 9665SOL    HW129894   5.833   4.943   4.675
 9665SOL    HW229895   5.872   4.822   4.777
 9666SOL     OW29896   5.975   4.496   1.936
 9666SOL    HW129897   6.022   4.482   2.024
 9666SOL    HW229898   6.043   4.501   1.863
 9667SOL     OW29899   3.506   3.590   3.881
 9667SOL    HW129900   3.421   3.631   3.912
 9667SOL    HW229901   3.516   3.605   3.782
 9668SOL     OW29902   0.196   1.239   5.807
 9668SOL    HW129903   0.247   1.281   5.732
 9668SOL    HW229904   0.145   1.160   5.772
 9669SOL     OW29905   0.595   0.460   0.297
 9669SOL    HW129906   0.566   0.365   0.301
 9669SOL    HW229907   0.695   0.465   0.296
 9670SOL     OW29908   5.022   4.294   6.305
 9670SOL    HW129909   4.954   4.265   6.237
 9670SOL    HW229910   5.058   4.213   6.352
 9671SOL     OW29911   0.256   5.451   5.555
 9671SOL    HW129912   0.283   5.379   5.491
 9671SOL    HW229913   0.216   5.410   5.637
 9672SOL     OW29914   1.024   6.345   4.462
 9672SOL    HW129915   0.947   6.283   4.482
 9672SOL    HW229916   1.109   6.294   4.464
 9673SOL     OW29917   3.908   3.829   6.572
 9673SOL    HW129918   3.897   3.764   6.647
 9673SOL    HW229919   3.835   3.814   6.505
 9674SOL     OW29920   3.166   6.461   1.618
 9674SOL    HW129921   3.105   6.479   1.541
 9674SOL    HW229922   3.132   6.384   1.672
 9675SOL     OW29923   6.517   1.383   2.364
 9675SOL    HW129924   6.575   1.436   2.426
 9675SOL    HW229925   6.568   1.305   2.328
 9676SOL     OW29926   0.916   3.363   4.655
 9676SOL    HW129927   0.966   3.449   4.665
 9676SOL    HW229928   0.964   3.291   4.704
 9677SOL     OW29929   2.270   4.291   5.931
 9677SOL    HW129930   2.225   4.312   6.018
 9677SOL    HW229931   2.326   4.209   5.942
 9678SOL     OW29932   4.104   3.310   3.050
 9678SOL    HW129933   4.081   3.229   3.105
 9678SOL    HW229934   4.149   3.377   3.109
 9679SOL     OW29935   1.577   2.434   1.632
 9679SOL    HW129936   1.572   2.376   1.713
 9679SOL    HW229937   1.617   2.523   1.657
 9680SOL     OW29938   5.884   5.831   3.473
 9680SOL    HW129939   5.936   5.916   3.460
 9680SOL    HW229940   5.808   5.828   3.409
 9681SOL     OW29941   1.996   0.862   1.353
 9681SOL    HW129942   1.977   0.764   1.359
 9681SOL    HW229943   1.944   0.901   1.277
 9682SOL     OW29944   5.265   4.992   3.377
 9682SOL    HW129945   5.304   4.912   3.423
 9682SOL    HW229946   5.190   5.028   3.433
 9683SOL     OW29947   3.764   5.250   0.289
 9683SOL    HW129948   3.811   5.322   0.341
 9683SOL    HW229949   3.697   5.292   0.227
 9684SOL     OW29950   0.307   3.692   4.696
 9684SOL    HW129951   0.404   3.682   4.673
 9684SOL    HW229952   0.268   3.601   4.714
 9685SOL     OW29953   2.055   3.037   0.979
 9685SOL    HW129954   2.146   3.004   1.004
 9685SOL    HW229955   2.022   3.100   1.049
 9686SOL     OW29956   6.565   0.634   1.452
 9686SOL    HW129957   6.650   0.667   1.409
 9686SOL    HW229958   6.584   0.553   1.506
 9687SOL     OW29959   2.484   1.147   2.996
 9687SOL    HW129960   2.450   1.235   2.961
 9687SOL    HW229961   2.529   1.097   2.923
 9688SOL     OW29962   6.964   2.024   2.928
 9688SOL    HW129963   6.987   2.047   2.833
 9688SOL    HW229964   6.867   1.999   2.934
 9689SOL     OW29965   2.643   6.066   6.863
 9689SOL    HW129966   2.728   6.102   6.901
 9689SOL    HW229967   2.642   6.082   6.764
 9690SOL     OW29968   5.917   4.726   0.145
 9690SOL    HW129969   5.913   4.724   0.245
 9690SOL    HW229970   5.979   4.656   0.112
 9691SOL     OW29971   1.483   5.494   1.790
 9691SOL    HW129972   1.568   5.454   1.825
 9691SOL    HW229973   1.414   5.422   1.783
 9692SOL     OW29974   2.726   5.191   1.759
 9692SOL    HW129975   2.647   5.219   1.814
 9692SOL    HW229976   2.807   5.190   1.817
 9693SOL     OW29977   6.662   5.754   1.550
 9693SOL    HW129978   6.758   5.784   1.552
 9693SOL    HW229979   6.658   5.655   1.565
 9694SOL     OW29980   1.362   2.455   0.114
 9694SOL    HW129981   1.297   2.524   0.144
 9694SOL    HW229982   1.397   2.405   0.193
 9695SOL     OW29983   6.485   3.948   1.081
 9695SOL    HW129984   6.542   3.911   1.154
 9695SOL    HW229985   6.442   3.873   1.031
 9696SOL     OW29986   3.959   2.910   1.733
 9696SOL    HW129987   3.876   2.891   1.786
 9696SOL    HW229988   3.947   2.995   1.682
 9697SOL     OW29989   0.604   4.617   0.016
 9697SOL    HW129990   0.562   4.594   0.104
 9697SOL    HW229991   0.690   4.664   0.032
 9698SOL     OW29992   5.901   0.830   5.275
 9698SOL    HW129993   5.862   0.819   5.367
 9698SOL    HW229994   5.848   0.776   5.210
 9699SOL     OW29995   1.110   3.198   6.325
 9699SOL    HW129996   1.108   3.273   6.391
 9699SOL    HW229997   1.205   3.180   6.299
 9700SOL     OW29998   3.515   4.739   5.940
 9700SOL    HW129999   3.506   4.788   6.027
 9700SOL    HW230000   3.453   4.778   5.872
 9701SOL     OW30001   4.124   5.355   4.626
 9701SOL    HW130002   4.133   5.448   4.660
 9701SOL    HW230003   4.157   5.291   4.696
 9702SOL     OW30004   5.114   1.238   0.738
 9702SOL    HW130005   5.049   1.180   0.787
 9702SOL    HW230006   5.207   1.218   0.769
 9703SOL     OW30007   3.277   5.882   4.704
 9703SOL    HW130008   3.355   5.819   4.698
 9703SOL    HW230009   3.198   5.842   4.656
 9704SOL     OW30010   3.307   6.787   2.668
 9704SOL    HW130011   3.241   6.862   2.675
 9704SOL    HW230012   3.353   6.774   2.755
 9705SOL     OW30013   3.756   4.687   0.881
 9705SOL    HW130014   3.741   4.763   0.945
 9705SOL    HW230015   3.834   4.707   0.823
 9706SOL     OW30016   6.440   2.753   1.716
 9706SOL    HW130017   6.397   2.804   1.641
 9706SOL    HW230018   6.448   2.812   1.796
 9707SOL     OW30019   1.152   3.856   2.531
 9707SOL    HW130020   1.099   3.855   2.446
 9707SOL    HW230021   1.242   3.894   2.514
 9708SOL     OW30022   2.122   1.639   4.062
 9708SOL    HW130023   2.114   1.731   4.100
 9708SOL    HW230024   2.038   1.615   4.014
 9709SOL     OW30025   0.960   5.961   3.526
 9709SOL    HW130026   0.991   6.043   3.479
 9709SOL    HW230027   1.040   5.903   3.547
 9710SOL     OW30028   0.197   1.500   2.904
 9710SOL    HW130029   0.135   1.439   2.855
 9710SOL    HW230030   0.187   1.487   3.002
 9711SOL     OW30031   1.740   3.256   5.842
 9711SOL    HW130032   1.748   3.223   5.748
 9711SOL    HW230033   1.814   3.218   5.897
 9712SOL     OW30034   5.567   1.906   4.626
 9712SOL    HW130035   5.609   1.820   4.600
 9712SOL    HW230036   5.624   1.982   4.595
 9713SOL     OW30037   0.740   4.833   3.470
 9713SOL    HW130038   0.680   4.907   3.438
 9713SOL    HW230039   0.702   4.745   3.440
 9714SOL     OW30040   1.696   1.862   2.089
 9714SOL    HW130041   1.764   1.895   2.155
 9714SOL    HW230042   1.676   1.935   2.023
 9715SOL     OW30043   5.538   5.932   4.923
 9715SOL    HW130044   5.478   5.955   5.000
 9715SOL    HW230045   5.593   5.852   4.945
 9716SOL     OW30046   4.019   1.788   6.550
 9716SOL    HW130047   4.069   1.733   6.482
 9716SOL    HW230048   3.994   1.730   6.627
 9717SOL     OW30049   5.358   6.009   3.934
 9717SOL    HW130050   5.391   5.989   4.026
 9717SOL    HW230051   5.391   6.100   3.907
 9718SOL     OW30052   4.072   3.314   1.313
 9718SOL    HW130053   4.127   3.392   1.281
 9718SOL    HW230054   4.025   3.340   1.398
 9719SOL     OW30055   0.327   2.647   0.014
 9719SOL    HW130056   0.366   2.554   0.021
 9719SOL    HW230057   0.229   2.640   7.015
 9720SOL     OW30058   0.659   6.067   2.410
 9720SOL    HW130059   0.616   6.063   2.319
 9720SOL    HW230060   0.681   5.974   2.440
 9721SOL     OW30061   0.067   3.671   2.125
 9721SOL    HW130062   0.033   3.578   2.116
 9721SOL    HW230063   0.144   3.684   2.062
 9722SOL     OW30064   0.157   0.850   3.224
 9722SOL    HW130065   0.171   0.761   3.181
 9722SOL    HW230066   0.077   0.845   3.285
 9723SOL     OW30067   0.516   0.666   3.045
 9723SOL    HW130068   0.583   0.724   3.000
 9723SOL    HW230069   0.517   0.684   3.144
 9724SOL     OW30070   2.996   2.448   1.673
 9724SOL    HW130071   2.926   2.437   1.744
 9724SOL    HW230072   3.069   2.381   1.688
 9725SOL     OW30073   5.050   3.304   6.252
 9725SOL    HW130074   5.109   3.233   6.291
 9725SOL    HW230075   5.049   3.384   6.313
 9726SOL     OW30076   5.232   6.906   4.646
 9726SOL    HW130077   5.152   6.966   4.651
 9726SOL    HW230078   5.235   6.862   4.557
 9727SOL     OW30079   0.593   2.940   5.629
 9727SOL    HW130080   0.552   3.025   5.662
 9727SOL    HW230081   0.565   2.864   5.687
 9728SOL     OW30082   1.594   6.363   6.155
 9728SOL    HW130083   1.513   6.411   6.120
 9728SOL    HW230084   1.589   6.267   6.130
 9729SOL     OW30085   1.341   4.386   3.113
 9729SOL    HW130086   1.283   4.388   3.031
 9729SOL    HW230087   1.313   4.460   3.174
 9730SOL     OW30088   6.939   3.074   2.646
 9730SOL    HW130089   0.001   3.048   2.594
 9730SOL    HW230090   6.896   3.154   2.604
 9731SOL     OW30091   3.867   5.376   0.781
 9731SOL    HW130092   3.827   5.434   0.709
 9731SOL    HW230093   3.874   5.282   0.749
 9732SOL     OW30094   0.260   5.939   2.365
 9732SOL    HW130095   0.240   5.916   2.270
 9732SOL    HW230096   0.246   6.037   2.380
 9733SOL     OW30097   5.342   4.915   5.057
 9733SOL    HW130098   5.407   4.882   5.125
 9733SOL    HW230099   5.389   4.931   4.971
 9734SOL     OW30100   5.424   1.997   4.184
 9734SOL    HW130101   5.328   2.020   4.203
 9734SOL    HW230102   5.449   1.915   4.236
 9735SOL     OW30103   2.361   4.901   1.888
 9735SOL    HW130104   2.433   4.956   1.845
 9735SOL    HW230105   2.377   4.895   1.986
 9736SOL     OW30106   5.555   1.106   0.069
 9736SOL    HW130107   5.620   1.153   0.129
 9736SOL    HW230108   5.479   1.071   0.124
 9737SOL     OW30109   4.088   2.096   5.081
 9737SOL    HW130110   4.103   2.192   5.058
 9737SOL    HW230111   4.122   2.038   5.007
 9738SOL     OW30112   1.643   1.132   3.338
 9738SOL    HW130113   1.732   1.154   3.301
 9738SOL    HW230114   1.573   1.144   3.267
 9739SOL     OW30115   6.701   5.240   1.715
 9739SOL    HW130116   6.659   5.164   1.766
 9739SOL    HW230117   6.789   5.210   1.678
 9740SOL     OW30118   6.520   3.936   2.483
 9740SOL    HW130119   6.466   3.865   2.528
 9740SOL    HW230120   6.600   3.957   2.538
 9741SOL     OW30121   4.303   1.726   2.571
 9741SOL    HW130122   4.280   1.662   2.498
 9741SOL    HW230123   4.389   1.698   2.614
 9742SOL     OW30124   5.597   0.564   3.158
 9742SOL    HW130125   5.557   0.548   3.068
 9742SOL    HW230126   5.570   0.655   3.190
 9743SOL     OW30127   1.778   3.011   5.649
 9743SOL    HW130128   1.866   2.971   5.677
 9743SOL    HW230129   1.774   3.016   5.549
 9744SOL     OW30130   2.006   1.118   2.041
 9744SOL    HW130131   1.910   1.095   2.060
 9744SOL    HW230132   2.012   1.213   2.013
 9745SOL     OW30133   0.866   2.796   4.887
 9745SOL    HW130134   0.873   2.765   4.982
 9745SOL    HW230135   0.948   2.769   4.837
 9746SOL     OW30136   5.533   0.514   5.320
 9746SOL    HW130137   5.457   0.499   5.257
 9746SOL    HW230138   5.541   0.612   5.340
 9747SOL     OW30139   1.197   0.760   0.467
 9747SOL    HW130140   1.246   0.847   0.458
 9747SOL    HW230141   1.263   0.685   0.460
 9748SOL     OW30142   1.445   5.826   4.321
 9748SOL    HW130143   1.390   5.905   4.294
 9748SOL    HW230144   1.436   5.811   4.419
 9749SOL     OW30145   1.421   3.633   4.682
 9749SOL    HW130146   1.441   3.535   4.688
 9749SOL    HW230147   1.373   3.652   4.597
 9750SOL     OW30148   4.778   5.003   3.214
 9750SOL    HW130149   4.821   5.065   3.149
 9750SOL    HW230150   4.847   4.965   3.275
 9751SOL     OW30151   1.525   2.021   0.819
 9751SOL    HW130152   1.506   2.107   0.770
 9751SOL    HW230153   1.569   2.042   0.906
 9752SOL     OW30154   4.292   1.154   5.804
 9752SOL    HW130155   4.265   1.152   5.707
 9752SOL    HW230156   4.223   1.203   5.856
 9753SOL     OW30157   6.741   5.690   5.173
 9753SOL    HW130158   6.825   5.715   5.126
 9753SOL    HW230159   6.685   5.633   5.113
 9754SOL     OW30160   1.146   1.688   6.951
 9754SOL    HW130161   1.091   1.608   6.976
 9754SOL    HW230162   1.235   1.657   6.915
 9755SOL     OW30163   4.032   3.608   4.915
 9755SOL    HW130164   3.989   3.698   4.926
 9755SOL    HW230165   3.980   3.540   4.967
 9756SOL     OW30166   5.868   3.469   0.100
 9756SOL    HW130167   5.818   3.555   0.087
 9756SOL    HW230168   5.853   3.435   0.192
 9757SOL     OW30169   5.374   2.870   3.833
 9757SOL    HW130170   5.426   2.821   3.903
 9757SOL    HW230171   5.349   2.960   3.868
 9758SOL     OW30172   2.196   0.538   6.821
 9758SOL    HW130173   2.126   0.467   6.819
 9758SOL    HW230174   2.168   0.614   6.763
 9759SOL     OW30175   2.560   6.062   1.529
 9759SOL    HW130176   2.477   6.076   1.583
 9759SOL    HW230177   2.638   6.052   1.590
 9760SOL     OW30178   5.259   4.879   5.497
 9760SOL    HW130179   5.315   4.817   5.441
 9760SOL    HW230180   5.307   4.898   5.583
 9761SOL     OW30181   5.336   5.164   1.831
 9761SOL    HW130182   5.360   5.244   1.776
 9761SOL    HW230183   5.366   5.178   1.925
 9762SOL     OW30184   2.450   1.931   5.245
 9762SOL    HW130185   2.453   2.023   5.285
 9762SOL    HW230186   2.523   1.876   5.283
 9763SOL     OW30187   3.761   1.312   1.646
 9763SOL    HW130188   3.795   1.396   1.689
 9763SOL    HW230189   3.666   1.298   1.671
 9764SOL     OW30190   1.337   2.948   2.771
 9764SOL    HW130191   1.254   2.998   2.747
 9764SOL    HW230192   1.410   2.971   2.706
 9765SOL     OW30193   0.237   2.020   5.842
 9765SOL    HW130194   0.282   2.008   5.931
 9765SOL    HW230195   0.235   1.933   5.794
 9766SOL     OW30196   2.979   0.556   3.093
 9766SOL    HW130197   2.936   0.469   3.117
 9766SOL    HW230198   2.916   0.631   3.113
 9767SOL     OW30199   5.251   0.717   5.219
 9767SOL    HW130200   5.218   0.782   5.288
 9767SOL    HW230201   5.330   0.756   5.172
 9768SOL     OW30202   4.916   1.986   2.368
 9768SOL    HW130203   4.866   1.962   2.285
 9768SOL    HW230204   4.961   2.075   2.355
 9769SOL     OW30205   1.411   2.124   1.359
 9769SOL    HW130206   1.428   2.027   1.339
 9769SOL    HW230207   1.481   2.180   1.314
 9770SOL     OW30208   5.046   5.070   5.927
 9770SOL    HW130209   5.136   5.088   5.889
 9770SOL    HW230210   5.023   4.973   5.916
 9771SOL     OW30211   4.359   5.276   6.715
 9771SOL    HW130212   4.360   5.375   6.729
 9771SOL    HW230213   4.447   5.237   6.745
 9772SOL     OW30214   6.926   6.820   2.207
 9772SOL    HW130215   6.934   6.912   2.168
 9772SOL    HW230216   6.841   6.778   2.176
 9773SOL     OW30217   5.814   5.465   3.486
 9773SOL    HW130218   5.804   5.378   3.535
 9773SOL    HW230219   5.742   5.528   3.516
 9774SOL     OW30220   6.005   4.943   4.051
 9774SOL    HW130221   6.002   5.008   3.975
 9774SOL    HW230222   6.100   4.920   4.073
 9775SOL     OW30223   1.683   2.834   4.378
 9775SOL    HW130224   1.645   2.741   4.372
 9775SOL    HW230225   1.655   2.877   4.464
 9776SOL     OW30226   6.622   5.606   4.381
 9776SOL    HW130227   6.529   5.592   4.348
 9776SOL    HW230228   6.665   5.681   4.330
 9777SOL     OW30229   5.685   4.015   5.853
 9777SOL    HW130230   5.591   4.000   5.821
 9777SOL    HW230231   5.689   4.005   5.952
 9778SOL     OW30232   4.874   6.752   2.888
 9778SOL    HW130233   4.791   6.713   2.926
 9778SOL    HW230234   4.852   6.834   2.834
 9779SOL     OW30235   2.822   1.327   5.491
 9779SOL    HW130236   2.737   1.323   5.544
 9779SOL    HW230237   2.868   1.414   5.508
 9780SOL     OW30238   2.780   3.145   0.702
 9780SOL    HW130239   2.840   3.150   0.622
 9780SOL    HW230240   2.791   3.056   0.747
 9781SOL     OW30241   2.535   4.640   5.039
 9781SOL    HW130242   2.492   4.644   4.949
 9781SOL    HW230243   2.634   4.649   5.029
 9782SOL     OW30244   6.161   0.508   1.539
 9782SOL    HW130245   6.223   0.533   1.465
 9782SOL    HW230246   6.190   0.552   1.623
 9783SOL     OW30247   6.066   1.685   2.272
 9783SOL    HW130248   6.001   1.646   2.207
 9783SOL    HW230249   6.030   1.675   2.365
 9784SOL     OW30250   4.509   1.621   2.909
 9784SOL    HW130251   4.453   1.699   2.935
 9784SOL    HW230252   4.605   1.648   2.908
 9785SOL     OW30253   6.709   2.613   2.739
 9785SOL    HW130254   6.613   2.628   2.762
 9785SOL    HW230255   6.747   2.696   2.698
 9786SOL     OW30256   2.249   5.407   5.478
 9786SOL    HW130257   2.194   5.338   5.430
 9786SOL    HW230258   2.346   5.391   5.460
 9787SOL     OW30259   4.860   4.072   1.923
 9787SOL    HW130260   4.953   4.094   1.896
 9787SOL    HW230261   4.846   3.973   1.919
 9788SOL     OW30262   6.585   0.847   4.634
 9788SOL    HW130263   6.645   0.772   4.663
 9788SOL    HW230264   6.492   0.829   4.665
 9789SOL     OW30265   2.557   5.784   5.088
 9789SOL    HW130266   2.520   5.707   5.140
 9789SOL    HW230267   2.657   5.784   5.094
 9790SOL     OW30268   5.510   1.775   4.311
 9790SOL    HW130269   5.453   1.757   4.391
 9790SOL    HW230270   5.556   1.690   4.283
 9791SOL     OW30271   1.280   0.988   1.595
 9791SOL    HW130272   1.258   0.980   1.498
 9791SOL    HW230273   1.374   0.958   1.611
 9792SOL     OW30274   4.548   4.937   0.895
 9792SOL    HW130275   4.468   4.959   0.952
 9792SOL    HW230276   4.630   4.934   0.952
 9793SOL     OW30277   5.928   5.791   2.020
 9793SOL    HW130278   5.857   5.858   2.038
 9793SOL    HW230279   6.018   5.834   2.026
 9794SOL     OW30280   5.210   3.027   6.427
 9794SOL    HW130281   5.264   3.017   6.343
 9794SOL    HW230282   5.142   2.954   6.431
 9795SOL     OW30283   1.583   3.586   3.914
 9795SOL    HW130284   1.534   3.619   3.995
 9795SOL    HW230285   1.635   3.504   3.938
 9796SOL     OW30286   2.867   5.019   0.378
 9796SOL    HW130287   2.873   5.018   0.478
 9796SOL    HW230288   2.842   5.111   0.347
 9797SOL     OW30289   4.686   3.386   6.081
 9797SOL    HW130290   4.727   3.473   6.110
 9797SOL    HW230291   4.608   3.404   6.021
 9798SOL     OW30292   2.894   0.619   0.971
 9798SOL    HW130293   2.864   0.697   1.026
 9798SOL    HW230294   2.853   0.535   1.006
 9799SOL     OW30295   2.925   3.248   2.571
 9799SOL    HW130296   2.966   3.195   2.646
 9799SOL    HW230297   2.833   3.276   2.596
 9800SOL     OW30298   4.174   5.724   6.892
 9800SOL    HW130299   4.106   5.651   6.897
 9800SOL    HW230300   4.154   5.793   6.962
 9801SOL     OW30301   3.698   6.228   6.680
 9801SOL    HW130302   3.630   6.291   6.719
 9801SOL    HW230303   3.766   6.280   6.628
 9802SOL     OW30304   0.374   3.224   1.025
 9802SOL    HW130305   0.293   3.197   1.076
 9802SOL    HW230306   0.349   3.247   0.931
 9803SOL     OW30307   5.969   0.404   6.805
 9803SOL    HW130308   5.899   0.426   6.737
 9803SOL    HW230309   6.049   0.464   6.791
 9804SOL     OW30310   6.291   5.319   4.089
 9804SOL    HW130311   6.206   5.272   4.066
 9804SOL    HW230312   6.302   5.399   4.031
 9805SOL     OW30313   1.656   5.440   6.825
 9805SOL    HW130314   1.719   5.479   6.893
 9805SOL    HW230315   1.705   5.426   6.739
 9806SOL     OW30316   7.012   2.666   2.568
 9806SOL    HW130317   6.943   2.738   2.568
 9806SOL    HW230318   6.970   2.579   2.541
 9807SOL     OW30319   3.738   1.866   0.224
 9807SOL    HW130320   3.719   1.892   0.319
 9807SOL    HW230321   3.779   1.944   0.176
 9808SOL     OW30322   0.210   1.911   4.495
 9808SOL    HW130323   0.113   1.915   4.519
 9808SOL    HW230324   0.241   1.816   4.494
 9809SOL     OW30325   0.007   1.194   4.359
 9809SOL    HW130326   0.057   1.244   4.430
 9809SOL    HW230327   6.958   1.254   4.319
 9810SOL     OW30328   3.021   1.138   3.036
 9810SOL    HW130329   2.998   1.131   2.939
 9810SOL    HW230330   2.997   1.230   3.070
 9811SOL     OW30331   6.700   6.537   2.846
 9811SOL    HW130332   6.608   6.540   2.885
 9811SOL    HW230333   6.744   6.626   2.857
 9812SOL     OW30334   4.968   2.238   6.192
 9812SOL    HW130335   4.963   2.146   6.233
 9812SOL    HW230336   5.004   2.302   6.259
 9813SOL     OW30337   6.935   4.742   0.305
 9813SOL    HW130338   6.951   4.745   0.207
 9813SOL    HW230339   6.843   4.775   0.325
 9814SOL     OW30340   0.366   6.489   5.642
 9814SOL    HW130341   0.301   6.418   5.615
 9814SOL    HW230342   0.392   6.474   5.738
 9815SOL     OW30343   5.572   3.574   1.911
 9815SOL    HW130344   5.645   3.598   1.975
 9815SOL    HW230345   5.556   3.650   1.849
 9816SOL     OW30346   6.470   0.069   0.019
 9816SOL    HW130347   6.490   0.044   0.114
 9816SOL    HW230348   6.413   0.152   0.018
 9817SOL     OW30349   3.096   6.128   0.490
 9817SOL    HW130350   3.050   6.175   0.565
 9817SOL    HW230351   3.110   6.192   0.414
 9818SOL     OW30352   0.977   6.964   3.363
 9818SOL    HW130353   0.929   0.013   3.419
 9818SOL    HW230354   1.066   6.943   3.405
 9819SOL     OW30355   6.238   4.092   5.043
 9819SOL    HW130356   6.159   4.143   5.076
 9819SOL    HW230357   6.295   4.065   5.121
 9820SOL     OW30358   3.436   1.799   6.570
 9820SOL    HW130359   3.492   1.749   6.636
 9820SOL    HW230360   3.392   1.876   6.616
 9821SOL     OW30361   4.331   2.580   1.752
 9821SOL    HW130362   4.242   2.577   1.706
 9821SOL    HW230363   4.404   2.588   1.684
 9822SOL     OW30364   3.533   6.231   5.217
 9822SOL    HW130365   3.625   6.254   5.185
 9822SOL    HW230366   3.539   6.163   5.290
 9823SOL     OW30367   1.722   0.336   3.160
 9823SOL    HW130368   1.741   0.244   3.128
 9823SOL    HW230369   1.748   0.345   3.256
 9824SOL     OW30370   0.977   6.045   5.457
 9824SOL    HW130371   0.958   5.948   5.446
 9824SOL    HW230372   1.066   6.067   5.415
 9825SOL     OW30373   5.387   6.008   6.036
 9825SOL    HW130374   5.365   6.076   6.106
 9825SOL    HW230375   5.385   5.917   6.076
 9826SOL     OW30376   2.398   6.476   5.822
 9826SOL    HW130377   2.302   6.480   5.849
 9826SOL    HW230378   2.404   6.450   5.726
 9827SOL     OW30379   1.779   5.628   1.875
 9827SOL    HW130380   1.700   5.678   1.837
 9827SOL    HW230381   1.750   5.537   1.903
 9828SOL     OW30382   3.568   2.062   5.047
 9828SOL    HW130383   3.472   2.034   5.052
 9828SOL    HW230384   3.576   2.159   5.070
 9829SOL     OW30385   4.726   5.317   5.101
 9829SOL    HW130386   4.752   5.245   5.166
 9829SOL    HW230387   4.639   5.357   5.130
 9830SOL     OW30388   5.735   2.005   2.530
 9830SOL    HW130389   5.791   2.088   2.527
 9830SOL    HW230390   5.782   1.935   2.583
 9831SOL     OW30391   0.490   4.080   1.853
 9831SOL    HW130392   0.459   3.996   1.899
 9831SOL    HW230393   0.480   4.068   1.754
 9832SOL     OW30394   4.543   4.553   4.788
 9832SOL    HW130395   4.476   4.574   4.859
 9832SOL    HW230396   4.514   4.473   4.737
 9833SOL     OW30397   3.482   4.209   4.120
 9833SOL    HW130398   3.464   4.306   4.138
 9833SOL    HW230399   3.505   4.196   4.024
 9834SOL     OW30400   2.382   5.605   5.247
 9834SOL    HW130401   2.383   5.667   5.326
 9834SOL    HW230402   2.306   5.630   5.186
 9835SOL     OW30403   3.672   4.073   4.255
 9835SOL    HW130404   3.751   4.056   4.197
 9835SOL    HW230405   3.606   4.129   4.206
 9836SOL     OW30406   0.178   3.504   5.115
 9836SOL    HW130407   0.240   3.518   5.192
 9836SOL    HW230408   0.209   3.560   5.037
 9837SOL     OW30409   5.596   2.277   2.355
 9837SOL    HW130410   5.551   2.359   2.320
 9837SOL    HW230411   5.544   2.242   2.433
 9838SOL     OW30412   0.655   0.093   1.726
 9838SOL    HW130413   0.753   0.112   1.727
 9838SOL    HW230414   0.629   0.051   1.813
 9839SOL     OW30415   4.228   0.968   2.588
 9839SOL    HW130416   4.221   0.872   2.560
 9839SOL    HW230417   4.235   0.972   2.688
 9840SOL     OW30418   6.292   0.856   0.297
 9840SOL    HW130419   6.342   0.777   0.260
 9840SOL    HW230420   6.356   0.931   0.314
 9841SOL     OW30421   0.322   6.353   4.030
 9841SOL    HW130422   0.364   6.308   4.109
 9841SOL    HW230423   0.385   6.423   3.996
 9842SOL     OW30424   2.714   2.070   6.343
 9842SOL    HW130425   2.626   2.075   6.390
 9842SOL    HW230426   2.768   2.151   6.364
 9843SOL     OW30427   0.804   6.930   1.145
 9843SOL    HW130428   0.745   7.009   1.155
 9843SOL    HW230429   0.803   6.876   1.230
 9844SOL     OW30430   4.909   0.225   3.916
 9844SOL    HW130431   4.965   0.284   3.974
 9844SOL    HW230432   4.938   0.236   3.821
 9845SOL     OW30433   1.757   3.527   1.536
 9845SOL    HW130434   1.790   3.611   1.579
 9845SOL    HW230435   1.675   3.495   1.584
 9846SOL     OW30436   5.236   2.037   0.971
 9846SOL    HW130437   5.198   1.985   0.894
 9846SOL    HW230438   5.177   2.028   1.051
 9847SOL     OW30439   4.189   3.966   0.703
 9847SOL    HW130440   4.133   4.037   0.661
 9847SOL    HW230441   4.225   3.906   0.631
 9848SOL     OW30442   3.495   3.847   5.220
 9848SOL    HW130443   3.525   3.807   5.133
 9848SOL    HW230444   3.439   3.928   5.202
 9849SOL     OW30445   0.936   1.615   4.671
 9849SOL    HW130446   0.920   1.701   4.718
 9849SOL    HW230447   0.848   1.573   4.648
 9850SOL     OW30448   0.626   0.495   4.722
 9850SOL    HW130449   0.719   0.532   4.731
 9850SOL    HW230450   0.577   0.547   4.652
 9851SOL     OW30451   3.978   4.985   4.274
 9851SOL    HW130452   4.057   4.927   4.256
 9851SOL    HW230453   3.918   4.985   4.194
 9852SOL     OW30454   2.064   1.186   0.455
 9852SOL    HW130455   2.108   1.217   0.371
 9852SOL    HW230456   2.062   1.261   0.522
 9853SOL     OW30457   6.721   4.450   3.732
 9853SOL    HW130458   6.726   4.375   3.799
 9853SOL    HW230459   6.632   4.495   3.740
 9854SOL     OW30460   0.983   5.294   6.128
 9854SOL    HW130461   0.915   5.366   6.136
 9854SOL    HW230462   1.007   5.260   6.219
 9855SOL     OW30463   1.578   4.464   1.463
 9855SOL    HW130464   1.633   4.514   1.530
 9855SOL    HW230465   1.611   4.485   1.371
 9856SOL     OW30466   5.767   4.141   3.290
 9856SOL    HW130467   5.780   4.114   3.194
 9856SOL    HW230468   5.800   4.235   3.302
 9857SOL     OW30469   3.605   1.127   4.377
 9857SOL    HW130470   3.698   1.158   4.398
 9857SOL    HW230471   3.546   1.142   4.456
 9858SOL     OW30472   6.434   6.469   2.384
 9858SOL    HW130473   6.358   6.410   2.356
 9858SOL    HW230474   6.443   6.545   2.320
 9859SOL     OW30475   6.769   5.878   3.217
 9859SOL    HW130476   6.758   5.930   3.132
 9859SOL    HW230477   6.771   5.780   3.196
 9860SOL     OW30478   1.102   3.200   4.351
 9860SOL    HW130479   1.197   3.209   4.379
 9860SOL    HW230480   1.085   3.257   4.270
 9861SOL     OW30481   3.284   1.462   4.375
 9861SOL    HW130482   3.368   1.512   4.354
 9861SOL    HW230483   3.216   1.477   4.303
 9862SOL     OW30484   1.095   5.206   0.529
 9862SOL    HW130485   1.053   5.122   0.563
 9862SOL    HW230486   1.030   5.253   0.469
 9863SOL     OW30487   3.750   6.194   0.571
 9863SOL    HW130488   3.720   6.137   0.647
 9863SOL    HW230489   3.839   6.161   0.538
 9864SOL     OW30490   2.731   5.690   5.457
 9864SOL    HW130491   2.810   5.706   5.398
 9864SOL    HW230492   2.647   5.699   5.402
 9865SOL     OW30493   0.362   6.368   5.052
 9865SOL    HW130494   0.441   6.334   5.001
 9865SOL    HW230495   0.373   6.465   5.072
 9866SOL     OW30496   6.087   5.199   4.294
 9866SOL    HW130497   6.181   5.228   4.276
 9866SOL    HW230498   6.038   5.188   4.208
 9867SOL     OW30499   4.641   2.088   1.980
 9867SOL    HW130500   4.709   2.045   2.040
 9867SOL    HW230501   4.648   2.187   1.986
 9868SOL     OW30502   1.863   3.989   3.556
 9868SOL    HW130503   1.873   3.974   3.655
 9868SOL    HW230504   1.949   3.966   3.510
 9869SOL     OW30505   6.890   2.370   0.627
 9869SOL    HW130506   6.943   2.440   0.579
 9869SOL    HW230507   6.794   2.398   0.630
 9870SOL     OW30508   3.166   1.264   2.723
 9870SOL    HW130509   3.116   1.330   2.779
 9870SOL    HW230510   3.248   1.307   2.686
 9871SOL     OW30511   6.912   4.451   4.801
 9871SOL    HW130512   6.857   4.410   4.729
 9871SOL    HW230513   6.960   4.379   4.851
 9872SOL     OW30514   1.782   5.010   5.691
 9872SOL    HW130515   1.757   4.919   5.657
 9872SOL    HW230516   1.878   5.011   5.717
 9873SOL     OW30517   1.287   1.451   5.964
 9873SOL    HW130518   1.376   1.469   5.922
 9873SOL    HW230519   1.250   1.365   5.929
 9874SOL     OW30520   1.064   2.738   4.728
 9874SOL    HW130521   1.159   2.759   4.704
 9874SOL    HW230522   1.041   2.647   4.693
 9875SOL     OW30523   6.550   5.201   0.698
 9875SOL    HW130524   6.501   5.258   0.765
 9875SOL    HW230525   6.555   5.249   0.611
 9876SOL     OW30526   1.403   6.587   3.475
 9876SOL    HW130527   1.350   6.653   3.528
 9876SOL    HW230528   1.392   6.496   3.515
 9877SOL     OW30529   0.578   5.480   5.019
 9877SOL    HW130530   0.521   5.537   4.960
 9877SOL    HW230531   0.648   5.434   4.964
 9878SOL     OW30532   2.388   2.745   0.029
 9878SOL    HW130533   2.329   2.741   6.967
 9878SOL    HW230534   2.332   2.762   0.110
 9879SOL     OW30535   6.934   5.109   6.360
 9879SOL    HW130536   6.843   5.107   6.319
 9879SOL    HW230537   6.942   5.034   6.425
 9880SOL     OW30538   2.632   1.448   0.288
 9880SOL    HW130539   2.690   1.517   0.245
 9880SOL    HW230540   2.684   1.401   0.360
 9881SOL     OW30541   5.860   0.479   4.162
 9881SOL    HW130542   5.906   0.472   4.073
 9881SOL    HW230543   5.775   0.531   4.152
 9882SOL     OW30544   3.314   2.939   4.934
 9882SOL    HW130545   3.315   2.938   5.034
 9882SOL    HW230546   3.386   3.000   4.901
 9883SOL     OW30547   2.318   6.874   1.806
 9883SOL    HW130548   2.339   6.808   1.734
 9883SOL    HW230549   2.268   6.829   1.880
 9884SOL     OW30550   2.585   3.723   5.725
 9884SOL    HW130551   2.664   3.723   5.664
 9884SOL    HW230552   2.600   3.658   5.799
 9885SOL     OW30553   5.720   2.865   4.281
 9885SOL    HW130554   5.702   2.962   4.264
 9885SOL    HW230555   5.768   2.854   4.368
 9886SOL     OW30556   4.382   5.994   1.130
 9886SOL    HW130557   4.481   5.979   1.122
 9886SOL    HW230558   4.350   6.049   1.052
 9887SOL     OW30559   3.262   6.986   6.733
 9887SOL    HW130560   3.344   0.024   6.730
 9887SOL    HW230561   3.285   6.896   6.770
 9888SOL     OW30562   6.033   5.778   2.380
 9888SOL    HW130563   5.978   5.862   2.378
 9888SOL    HW230564   6.033   5.742   2.473
 9889SOL     OW30565   6.978   5.557   3.320
 9889SOL    HW130566   6.895   5.580   3.269
 9889SOL    HW230567   0.037   5.606   3.282
 9890SOL     OW30568   6.884   3.936   1.749
 9890SOL    HW130569   6.935   3.987   1.819
 9890SOL    HW230570   6.788   3.963   1.752
 9891SOL     OW30571   5.824   4.858   1.144
 9891SOL    HW130572   5.869   4.948   1.148
 9891SOL    HW230573   5.737   4.863   1.194
 9892SOL     OW30574   2.205   4.824   3.986
 9892SOL    HW130575   2.163   4.735   3.965
 9892SOL    HW230576   2.146   4.876   4.046
 9893SOL     OW30577   4.938   5.385   3.460
 9893SOL    HW130578   4.927   5.461   3.524
 9893SOL    HW230579   4.848   5.345   3.442
 9894SOL     OW30580   4.375   3.450   6.046
 9894SOL    HW130581   4.363   3.501   6.131
 9894SOL    HW230582   4.396   3.513   5.971
 9895SOL     OW30583   5.332   2.075   6.587
 9895SOL    HW130584   5.393   2.007   6.546
 9895SOL    HW230585   5.356   2.166   6.555
 9896SOL     OW30586   4.490   4.017   0.768
 9896SOL    HW130587   4.483   4.077   0.848
 9896SOL    HW230588   4.404   3.969   0.755
 9897SOL     OW30589   6.179   2.141   3.568
 9897SOL    HW130590   6.272   2.179   3.563
 9897SOL    HW230591   6.122   2.201   3.625
 9898SOL     OW30592   1.301   4.678   5.828
 9898SOL    HW130593   1.254   4.659   5.741
 9898SOL    HW230594   1.311   4.777   5.839
 9899SOL     OW30595   5.484   5.520   1.613
 9899SOL    HW130596   5.395   5.530   1.657
 9899SOL    HW230597   5.557   5.530   1.681
 9900SOL     OW30598   1.489   3.134   3.645
 9900SOL    HW130599   1.436   3.218   3.634
 9900SOL    HW230600   1.515   3.124   3.741
 9901SOL     OW30601   3.143   2.179   5.331
 9901SOL    HW130602   3.192   2.247   5.276
 9901SOL    HW230603   3.047   2.179   5.306
 9902SOL     OW30604   4.517   3.712   6.857
 9902SOL    HW130605   4.512   3.697   6.956
 9902SOL    HW230606   4.533   3.626   6.810
 9903SOL     OW30607   3.866   1.775   1.889
 9903SOL    HW130608   3.786   1.812   1.936
 9903SOL    HW230609   3.881   1.824   1.804
 9904SOL     OW30610   6.343   1.061   1.487
 9904SOL    HW130611   6.411   1.009   1.539
 9904SOL    HW230612   6.387   1.138   1.441
 9905SOL     OW30613   1.338   6.711   5.082
 9905SOL    HW130614   1.396   6.747   5.010
 9905SOL    HW230615   1.297   6.787   5.133
 9906SOL     OW30616   2.727   2.940   6.406
 9906SOL    HW130617   2.682   2.890   6.331
 9906SOL    HW230618   2.697   3.035   6.405
 9907SOL     OW30619   2.400   6.306   2.731
 9907SOL    HW130620   2.402   6.406   2.728
 9907SOL    HW230621   2.470   6.269   2.671
 9908SOL     OW30622   1.333   3.409   5.700
 9908SOL    HW130623   1.309   3.396   5.604
 9908SOL    HW230624   1.260   3.460   5.746
 9909SOL     OW30625   3.802   0.011   2.503
 9909SOL    HW130626   3.739   6.955   2.523
 9909SOL    HW230627   3.845   0.042   2.588
 9910SOL     OW30628   0.158   4.017   1.354
 9910SOL    HW130629   0.064   4.042   1.377
 9910SOL    HW230630   0.158   3.943   1.288
 9911SOL     OW30631   3.379   4.944   3.343
 9911SOL    HW130632   3.286   4.926   3.313
 9911SOL    HW230633   3.398   5.042   3.337
 9912SOL     OW30634   5.081   0.247   1.684
 9912SOL    HW130635   5.103   0.168   1.627
 9912SOL    HW230636   5.023   0.310   1.633
 9913SOL     OW30637   4.977   1.958   3.010
 9913SOL    HW130638   4.904   2.020   3.036
 9913SOL    HW230639   4.944   1.893   2.941
 9914SOL     OW30640   1.590   6.873   4.930
 9914SOL    HW130641   1.527   6.951   4.927
 9914SOL    HW230642   1.683   6.903   4.909
 9915SOL     OW30643   5.245   3.712   4.410
 9915SOL    HW130644   5.231   3.723   4.311
 9915SOL    HW230645   5.167   3.752   4.459
 9916SOL     OW30646   2.000   2.993   1.863
 9916SOL    HW130647   2.049   2.907   1.873
 9916SOL    HW230648   2.066   3.068   1.855
 9917SOL     OW30649   2.441   3.315   5.906
 9917SOL    HW130650   2.423   3.222   5.938
 9917SOL    HW230651   2.456   3.313   5.807
 9918SOL     OW30652   1.750   1.262   5.800
 9918SOL    HW130653   1.810   1.338   5.775
 9918SOL    HW230654   1.740   1.259   5.899
 9919SOL     OW30655   0.398   5.499   3.015
 9919SOL    HW130656   0.405   5.599   3.022
 9919SOL    HW230657   0.301   5.472   3.017
 9920SOL     OW30658   4.471   6.805   1.375
 9920SOL    HW130659   4.535   6.878   1.401
 9920SOL    HW230660   4.444   6.754   1.456
 9921SOL     OW30661   5.547   0.369   3.350
 9921SOL    HW130662   5.567   0.443   3.285
 9921SOL    HW230663   5.617   0.368   3.422
 9922SOL     OW30664   4.400   4.161   1.004
 9922SOL    HW130665   4.316   4.107   0.991
 9922SOL    HW230666   4.417   4.173   1.102
 9923SOL     OW30667   6.358   2.042   6.393
 9923SOL    HW130668   6.393   1.963   6.343
 9923SOL    HW230669   6.267   2.020   6.430
 9924SOL     OW30670   6.706   0.868   3.455
 9924SOL    HW130671   6.637   0.933   3.486
 9924SOL    HW230672   6.724   0.801   3.527
 9925SOL     OW30673   2.445   2.665   5.054
 9925SOL    HW130674   2.360   2.656   5.001
 9925SOL    HW230675   2.450   2.757   5.093
 9926SOL     OW30676   1.396   0.938   0.409
 9926SOL    HW130677   1.459   0.883   0.354
 9926SOL    HW230678   1.448   0.993   0.474
 9927SOL     OW30679   0.581   2.154   2.495
 9927SOL    HW130680   0.659   2.093   2.511
 9927SOL    HW230681   0.526   2.159   2.578
 9928SOL     OW30682   0.398   3.741   2.751
 9928SOL    HW130683   0.342   3.659   2.762
 9928SOL    HW230684   0.376   3.807   2.823
 9929SOL     OW30685   2.516   4.153   0.094
 9929SOL    HW130686   2.492   4.129   0.188
 9929SOL    HW230687   2.613   4.176   0.089
 9930SOL     OW30688   0.364   6.362   6.334
 9930SOL    HW130689   0.377   6.273   6.377
 9930SOL    HW230690   0.363   6.433   6.405
 9931SOL     OW30691   1.663   5.554   5.523
 9931SOL    HW130692   1.692   5.491   5.451
 9931SOL    HW230693   1.713   5.534   5.607
 9932SOL     OW30694   1.546   1.663   0.165
 9932SOL    HW130695   1.611   1.710   0.224
 9932SOL    HW230696   1.594   1.620   0.089
 9933SOL     OW30697   1.299   2.150   3.828
 9933SOL    HW130698   1.225   2.217   3.818
 9933SOL    HW230699   1.266   2.060   3.800
 9934SOL     OW30700   3.806   1.014   5.930
 9934SOL    HW130701   3.754   0.931   5.948
 9934SOL    HW230702   3.837   1.053   6.017
 9935SOL     OW30703   2.902   1.822   1.179
 9935SOL    HW130704   2.980   1.853   1.234
 9935SOL    HW230705   2.854   1.902   1.142
 9936SOL     OW30706   5.898   6.262   6.443
 9936SOL    HW130707   5.860   6.315   6.519
 9936SOL    HW230708   5.919   6.324   6.367
 9937SOL     OW30709   0.456   0.221   3.499
 9937SOL    HW130710   0.548   0.208   3.464
 9937SOL    HW230711   0.398   0.144   3.470
 9938SOL     OW30712   6.323   1.434   4.284
 9938SOL    HW130713   6.314   1.511   4.347
 9938SOL    HW230714   6.344   1.351   4.336
 9939SOL     OW30715   2.859   4.719   1.210
 9939SOL    HW130716   2.795   4.793   1.188
 9939SOL    HW230717   2.888   4.727   1.305
 9940SOL     OW30718   0.092   1.057   3.711
 9940SOL    HW130719   0.120   0.995   3.638
 9940SOL    HW230720   0.036   1.007   3.777
 9941SOL     OW30721   5.222   4.481   6.372
 9941SOL    HW130722   5.148   4.428   6.331
 9941SOL    HW230723   5.189   4.572   6.397
 9942SOL     OW30724   4.577   5.270   3.082
 9942SOL    HW130725   4.522   5.336   3.030
 9942SOL    HW230726   4.663   5.314   3.109
 9943SOL     OW30727   2.379   4.073   6.876
 9943SOL    HW130728   2.423   4.123   6.951
 9943SOL    HW230729   2.445   4.011   6.834
 9944SOL     OW30730   1.082   5.078   6.608
 9944SOL    HW130731   1.085   5.104   6.705
 9944SOL    HW230732   1.084   4.978   6.601
 9945SOL     OW30733   5.959   3.425   6.595
 9945SOL    HW130734   5.941   3.369   6.513
 9945SOL    HW230735   5.941   3.521   6.574
 9946SOL     OW30736   5.515   1.511   2.035
 9946SOL    HW130737   5.474   1.425   2.067
 9946SOL    HW230738   5.533   1.571   2.113
 9947SOL     OW30739   1.297   1.876   3.458
 9947SOL    HW130740   1.245   1.930   3.392
 9947SOL    HW230741   1.265   1.782   3.456
 9948SOL     OW30742   6.550   6.896   4.504
 9948SOL    HW130743   6.504   6.960   4.565
 9948SOL    HW230744   6.506   6.897   4.414
 9949SOL     OW30745   5.706   4.970   4.066
 9949SOL    HW130746   5.805   4.955   4.064
 9949SOL    HW230747   5.687   5.061   4.102
 9950SOL     OW30748   6.407   4.261   5.467
 9950SOL    HW130749   6.354   4.268   5.552
 9950SOL    HW230750   6.503   4.283   5.486
 9951SOL     OW30751   0.590   2.427   2.814
 9951SOL    HW130752   0.572   2.387   2.904
 9951SOL    HW230753   0.622   2.521   2.825
 9952SOL     OW30754   0.364   4.947   2.178
 9952SOL    HW130755   0.403   5.037   2.199
 9952SOL    HW230756   0.316   4.952   2.091
 9953SOL     OW30757   5.923   2.425   3.490
 9953SOL    HW130758   5.933   2.520   3.461
 9953SOL    HW230759   5.965   2.413   3.580
 9954SOL     OW30760   3.351   1.853   5.694
 9954SOL    HW130761   3.427   1.809   5.646
 9954SOL    HW230762   3.378   1.945   5.723
 9955SOL     OW30763   6.358   4.071   0.721
 9955SOL    HW130764   6.371   4.026   0.632
 9955SOL    HW230765   6.267   4.051   0.756
 9956SOL     OW30766   2.071   3.582   3.172
 9956SOL    HW130767   1.977   3.613   3.154
 9956SOL    HW230768   2.094   3.508   3.110
 9957SOL     OW30769   4.709   0.023   0.763
 9957SOL    HW130770   4.672   0.046   0.673
 9957SOL    HW230771   4.636   0.032   0.831
 9958SOL     OW30772   5.432   4.913   6.909
 9958SOL    HW130773   5.359   4.864   6.863
 9958SOL    HW230774   5.409   4.925   7.006
 9959SOL     OW30775   4.591   4.244   0.697
 9959SOL    HW130776   4.631   4.267   0.608
 9959SOL    HW230777   4.567   4.147   0.698
 9960SOL     OW30778   0.616   1.036   6.778
 9960SOL    HW130779   0.552   1.090   6.833
 9960SOL    HW230780   0.602   1.055   6.681
 9961SOL     OW30781   2.833   5.021   1.398
 9961SOL    HW130782   2.845   4.941   1.456
 9961SOL    HW230783   2.735   5.040   1.386
 9962SOL     OW30784   3.353   6.990   1.188
 9962SOL    HW130785   3.377   6.933   1.109
 9962SOL    HW230786   3.435   7.005   1.244
 9963SOL     OW30787   0.692   1.322   6.330
 9963SOL    HW130788   0.775   1.309   6.384
 9963SOL    HW230789   0.687   1.418   6.299
 9964SOL     OW30790   4.447   4.287   5.994
 9964SOL    HW130791   4.450   4.189   6.016
 9964SOL    HW230792   4.517   4.307   5.926
 9965SOL     OW30793   3.018   5.690   4.826
 9965SOL    HW130794   3.002   5.745   4.745
 9965SOL    HW230795   3.084   5.618   4.805
 9966SOL     OW30796   4.036   4.837   2.714
 9966SOL    HW130797   3.968   4.829   2.641
 9966SOL    HW230798   4.037   4.930   2.749
 9967SOL     OW30799   0.186   0.240   3.026
 9967SOL    HW130800   0.266   0.270   3.079
 9967SOL    HW230801   0.212   0.165   2.967
 9968SOL     OW30802   3.620   6.973   0.402
 9968SOL    HW130803   3.530   7.000   0.368
 9968SOL    HW230804   3.645   6.885   0.361
 9969SOL     OW30805   1.634   5.182   3.813
 9969SOL    HW130806   1.625   5.084   3.801
 9969SOL    HW230807   1.720   5.202   3.861
 9970SOL     OW30808   6.150   3.852   1.581
 9970SOL    HW130809   6.232   3.797   1.562
 9970SOL    HW230810   6.078   3.827   1.517
 9971SOL     OW30811   0.645   4.513   2.497
 9971SOL    HW130812   0.558   4.472   2.526
 9971SOL    HW230813   0.634   4.553   2.406
 9972SOL     OW30814   2.911   3.137   6.978
 9972SOL    HW130815   2.950   3.165   0.047
 9972SOL    HW230816   2.818   3.173   6.970
 9973SOL     OW30817   3.408   2.122   3.741
 9973SOL    HW130818   3.326   2.177   3.726
 9973SOL    HW230819   3.426   2.116   3.840
 9974SOL     OW30820   0.808   3.090   3.175
 9974SOL    HW130821   0.784   3.172   3.123
 9974SOL    HW230822   0.904   3.095   3.203
 9975SOL     OW30823   1.655   4.990   0.039
 9975SOL    HW130824   1.633   4.953   6.968
 9975SOL    HW230825   1.743   4.955   0.069
 9976SOL     OW30826   2.898   3.909   6.740
 9976SOL    HW130827   2.989   3.936   6.708
 9976SOL    HW230828   2.835   3.985   6.729
 9977SOL     OW30829   5.360   6.154   5.643
 9977SOL    HW130830   5.376   6.061   5.677
 9977SOL    HW230831   5.438   6.184   5.588
 9978SOL     OW30832   0.701   3.058   6.502
 9978SOL    HW130833   0.656   2.969   6.501
 9978SOL    HW230834   0.799   3.046   6.515
 9979SOL     OW30835   4.355   3.221   5.281
 9979SOL    HW130836   4.398   3.137   5.314
 9979SOL    HW230837   4.424   3.278   5.238
 9980SOL     OW30838   2.201   0.950   0.823
 9980SOL    HW130839   2.179   0.946   0.726
 9980SOL    HW230840   2.125   0.911   0.876
 9981SOL     OW30841   0.634   2.599   1.926
 9981SOL    HW130842   0.628   2.555   1.836
 9981SOL    HW230843   0.712   2.660   1.929
 9982SOL     OW30844   2.143   2.220   5.207
 9982SOL    HW130845   2.203   2.196   5.131
 9982SOL    HW230846   2.113   2.315   5.197
 9983SOL     OW30847   0.729   2.861   1.689
 9983SOL    HW130848   0.660   2.792   1.665
 9983SOL    HW230849   0.760   2.845   1.783
 9984SOL     OW30850   6.952   6.145   0.925
 9984SOL    HW130851   0.015   6.171   0.976
 9984SOL    HW230852   6.973   6.144   0.827
 9985SOL     OW30853   4.118   5.216   0.592
 9985SOL    HW130854   4.090   5.297   0.541
 9985SOL    HW230855   4.038   5.158   0.609
 9986SOL     OW30856   5.240   4.605   0.426
 9986SOL    HW130857   5.223   4.641   0.518
 9986SOL    HW230858   5.256   4.507   0.431
 9987SOL     OW30859   5.349   2.789   1.939
 9987SOL    HW130860   5.338   2.884   1.911
 9987SOL    HW230861   5.284   2.731   1.890
 9988SOL     OW30862   5.303   6.533   4.578
 9988SOL    HW130863   5.283   6.436   4.564
 9988SOL    HW230864   5.371   6.543   4.650
 9989SOL     OW30865   6.282   5.070   2.165
 9989SOL    HW130866   6.183   5.078   2.175
 9989SOL    HW230867   6.307   4.973   2.163
 9990SOL     OW30868   0.288   6.953   3.701
 9990SOL    HW130869   0.305   6.980   3.606
 9990SOL    HW230870   0.223   6.877   3.703
 9991SOL     OW30871   1.625   4.308   4.107
 9991SOL    HW130872   1.534   4.313   4.065
 9991SOL    HW230873   1.687   4.370   4.059
 9992SOL     OW30874   3.466   4.959   1.042
 9992SOL    HW130875   3.423   4.905   0.970
 9992SOL    HW230876   3.416   4.945   1.128
 9993SOL     OW30877   3.929   6.833   4.639
 9993SOL    HW130878   4.014   6.885   4.632
 9993SOL    HW230879   3.917   6.779   4.555
 9994SOL     OW30880   6.490   5.147   4.387
 9994SOL    HW130881   6.559   5.083   4.421
 9994SOL    HW230882   6.442   5.188   4.464
 9995SOL     OW30883   2.893   0.682   5.343
 9995SOL    HW130884   2.913   0.599   5.290
 9995SOL    HW230885   2.888   0.760   5.281
 9996SOL     OW30886   2.069   3.877   0.670
 9996SOL    HW130887   2.104   3.804   0.730
 9996SOL    HW230888   2.144   3.915   0.616
 9997SOL     OW30889   6.507   3.330   4.066
 9997SOL    HW130890   6.521   3.282   3.979
 9997SOL    HW230891   6.430   3.392   4.058
 9998SOL     OW30892   5.186   3.997   2.501
 9998SOL    HW130893   5.166   3.994   2.403
 9998SOL    HW230894   5.109   4.037   2.550
 9999SOL     OW30895   0.840   6.088   4.481
 9999SOL    HW130896   0.755   6.065   4.435
 9999SOL    HW230897   0.917   6.074   4.419
10000SOL     OW30898   5.309   1.858   1.646
10000SOL    HW130899   5.284   1.841   1.741
10000SOL    HW230900   5.257   1.936   1.611
10001SOL     OW30901   3.831   6.072   2.271
10001SOL    HW130902   3.879   6.057   2.185
10001SOL    HW230903   3.865   6.008   2.340
10002SOL     OW30904   2.913   0.763   1.706
10002SOL    HW130905   2.987   0.775   1.772
10002SOL    HW230906   2.949   0.765   1.613
10003SOL     OW30907   1.282   1.007   3.757
10003SOL    HW130908   1.197   1.060   3.762
10003SOL    HW230909   1.358   1.065   3.784
10004SOL     OW30910   6.536   4.745   4.870
10004SOL    HW130911   6.591   4.828   4.884
10004SOL    HW230912   6.470   4.761   4.797
10005SOL     OW30913   2.013   5.596   3.235
10005SOL    HW130914   2.000   5.669   3.167
10005SOL    HW230915   2.083   5.623   3.300
10006SOL     OW30916   5.207   0.505   5.718
10006SOL    HW130917   5.304   0.488   5.738
10006SOL    HW230918   5.199   0.554   5.631
10007SOL     OW30919   1.761   5.477   4.844
10007SOL    HW130920   1.840   5.464   4.784
10007SOL    HW230921   1.711   5.391   4.854
10008SOL     OW30922   3.941   1.712   5.911
10008SOL    HW130923   3.961   1.810   5.912
10008SOL    HW230924   4.010   1.663   5.963
10009SOL     OW30925   1.243   4.084   1.938
10009SOL    HW130926   1.150   4.091   1.974
10009SOL    HW230927   1.269   3.988   1.930
10010SOL     OW30928   2.194   4.828   6.859
10010SOL    HW130929   2.211   4.746   6.804
10010SOL    HW230930   2.097   4.852   6.854
10011SOL     OW30931   1.308   3.280   0.275
10011SOL    HW130932   1.239   3.220   0.235
10011SOL    HW230933   1.364   3.228   0.339
10012SOL     OW30934   4.822   1.350   1.781
10012SOL    HW130935   4.794   1.272   1.837
10012SOL    HW230936   4.914   1.335   1.746
10013SOL     OW30937   1.176   5.916   4.720
10013SOL    HW130938   1.167   5.816   4.716
10013SOL    HW230939   1.092   5.955   4.757
10014SOL     OW30940   0.674   6.881   3.075
10014SOL    HW130941   0.582   6.904   3.109
10014SOL    HW230942   0.721   6.826   3.144
10015SOL     OW30943   3.890   4.482   5.564
10015SOL    HW130944   3.850   4.406   5.514
10015SOL    HW230945   3.900   4.561   5.503
10016SOL     OW30946   2.492   6.474   3.226
10016SOL    HW130947   2.517   6.496   3.320
10016SOL    HW230948   2.419   6.536   3.196
10017SOL     OW30949   2.659   1.534   3.037
10017SOL    HW130950   2.676   1.445   3.078
10017SOL    HW230951   2.596   1.524   2.960
10018SOL     OW30952   6.138   3.132   5.888
10018SOL    HW130953   6.134   3.163   5.983
10018SOL    HW230954   6.091   3.044   5.880
10019SOL     OW30955   0.569   1.547   2.664
10019SOL    HW130956   0.650   1.594   2.630
10019SOL    HW230957   0.591   1.451   2.684
10020SOL     OW30958   6.579   0.437   1.902
10020SOL    HW130959   6.488   0.472   1.924
10020SOL    HW230960   6.597   0.355   1.956
10021SOL     OW30961   1.479   4.079   1.765
10021SOL    HW130962   1.428   4.065   1.849
10021SOL    HW230963   1.511   4.174   1.761
10022SOL     OW30964   2.682   6.074   0.234
10022SOL    HW130965   2.600   6.099   0.182
10022SOL    HW230966   2.763   6.092   0.178
10023SOL     OW30967   2.415   0.120   5.848
10023SOL    HW130968   2.491   0.119   5.913
10023SOL    HW230969   2.343   0.058   5.881
10024SOL     OW30970   1.841   4.528   3.179
10024SOL    HW130971   1.747   4.502   3.160
10024SOL    HW230972   1.860   4.617   3.137
10025SOL     OW30973   1.360   4.324   1.331
10025SOL    HW130974   1.409   4.363   1.409
10025SOL    HW230975   1.393   4.368   1.247
10026SOL     OW30976   5.121   1.477   3.279
10026SOL    HW130977   5.069   1.561   3.292
10026SOL    HW230978   5.217   1.499   3.266
10027SOL     OW30979   1.816   1.842   5.554
10027SOL    HW130980   1.840   1.936   5.532
10027SOL    HW230981   1.720   1.838   5.582
10028SOL     OW30982   4.201   0.694   1.689
10028SOL    HW130983   4.199   0.793   1.707
10028SOL    HW230984   4.294   0.660   1.700
10029SOL     OW30985   0.230   3.426   4.718
10029SOL    HW130986   0.268   3.387   4.802
10029SOL    HW230987   0.281   3.391   4.639
10030SOL     OW30988   2.561   6.924   4.585
10030SOL    HW130989   2.560   6.947   4.683
10030SOL    HW230990   2.498   6.848   4.568
10031SOL     OW30991   3.959   5.334   3.803
10031SOL    HW130992   4.002   5.371   3.886
10031SOL    HW230993   4.012   5.361   3.723
10032SOL     OW30994   3.218   6.119   5.182
10032SOL    HW130995   3.139   6.078   5.229
10032SOL    HW230996   3.251   6.055   5.113
10033SOL     OW30997   4.201   1.695   3.143
10033SOL    HW130998   4.192   1.606   3.098
10033SOL    HW230999   4.111   1.723   3.177
10034SOL     OW31000   2.174   0.455   3.345
10034SOL    HW131001   2.096   0.421   3.293
10034SOL    HW231002   2.258   0.439   3.293
10035SOL     OW31003   6.112   3.131   1.109
10035SOL    HW131004   6.018   3.152   1.137
10035SOL    HW231005   6.136   3.039   1.140
10036SOL     OW31006   6.182   0.567   6.770
10036SOL    HW131007   6.233   0.520   6.841
10036SOL    HW231008   6.175   0.664   6.791
10037SOL     OW31009   6.306   6.916   6.869
10037SOL    HW131010   6.368   6.841   6.844
10037SOL    HW231011   6.357   7.002   6.869
10038SOL     OW31012   4.482   0.149   0.072
10038SOL    HW131013   4.514   0.062   0.111
10038SOL    HW231014   4.522   0.225   0.123
10039SOL     OW31015   5.371   5.465   3.909
10039SOL    HW131016   5.298   5.478   3.976
10039SOL    HW231017   5.452   5.516   3.937
10040SOL     OW31018   3.649   0.356   0.392
10040SOL    HW131019   3.550   0.343   0.389
10040SOL    HW231020   3.673   0.420   0.466
10041SOL     OW31021   6.586   4.612   5.515
10041SOL    HW131022   6.549   4.591   5.425
10041SOL    HW231023   6.613   4.527   5.560
10042SOL     OW31024   0.708   0.863   5.256
10042SOL    HW131025   0.737   0.827   5.168
10042SOL    HW231026   0.746   0.954   5.269
10043SOL     OW31027   1.536   0.874   3.459
10043SOL    HW131028   1.476   0.807   3.415
10043SOL    HW231029   1.502   0.966   3.442
10044SOL     OW31030   2.250   1.054   5.110
10044SOL    HW131031   2.198   1.120   5.055
10044SOL    HW231032   2.214   0.962   5.095
10045SOL     OW31033   4.528   6.720   4.633
10045SOL    HW131034   4.604   6.740   4.572
10045SOL    HW231035   4.454   6.676   4.581
10046SOL     OW31036   0.206   2.577   1.811
10046SOL    HW131037   0.247   2.486   1.805
10046SOL    HW231038   0.159   2.586   1.899
10047SOL     OW31039   6.499   1.796   4.827
10047SOL    HW131040   6.492   1.888   4.865
10047SOL    HW231041   6.517   1.730   4.901
10048SOL     OW31042   3.530   1.635   1.752
10048SOL    HW131043   3.503   1.541   1.729
10048SOL    HW231044   3.609   1.633   1.812
10049SOL     OW31045   2.212   0.866   6.639
10049SOL    HW131046   2.230   0.932   6.566
10049SOL    HW231047   2.291   0.862   6.700
10050SOL     OW31048   5.133   2.883   4.544
10050SOL    HW131049   5.142   2.874   4.445
10050SOL    HW231050   5.179   2.966   4.575
10051SOL     OW31051   6.891   2.648   4.371
10051SOL    HW131052   6.957   2.718   4.347
10051SOL    HW231053   6.833   2.682   4.445
10052SOL     OW31054   1.840   3.760   2.046
10052SOL    HW131055   1.774   3.804   1.985
10052SOL    HW231056   1.838   3.661   2.032
10053SOL     OW31057   3.433   5.214   3.306
10053SOL    HW131058   3.490   5.252   3.379
10053SOL    HW231059   3.368   5.283   3.274
10054SOL     OW31060   4.166   5.597   6.003
10054SOL    HW131061   4.112   5.594   6.087
10054SOL    HW231062   4.243   5.659   6.016
10055SOL     OW31063   6.738   2.342   5.038
10055SOL    HW131064   6.780   2.252   5.051
10055SOL    HW231065   6.693   2.345   4.949
10056SOL     OW31066   6.278   4.818   1.032
10056SOL    HW131067   6.305   4.755   0.960
10056SOL    HW231068   6.349   4.820   1.103
10057SOL     OW31069   3.893   2.052   4.454
10057SOL    HW131070   3.957   1.976   4.468
10057SOL    HW231071   3.944   2.139   4.453
10058SOL     OW31072   6.513   5.240   3.466
10058SOL    HW131073   6.470   5.168   3.521
10058SOL    HW231074   6.477   5.237   3.373
10059SOL     OW31075   5.191   0.041   1.050
10059SOL    HW131076   5.228   0.077   1.136
10059SOL    HW231077   5.218   6.964   1.040
10060SOL     OW31078   2.738   2.093   2.088
10060SOL    HW131079   2.778   2.183   2.101
10060SOL    HW231080   2.768   2.054   2.001
10061SOL     OW31081   6.058   0.955   4.342
10061SOL    HW131082   6.065   0.953   4.242
10061SOL    HW231083   6.141   0.996   4.380
10062SOL     OW31084   5.754   6.216   3.547
10062SOL    HW131085   5.831   6.157   3.522
10062SOL    HW231086   5.728   6.199   3.642
10063SOL     OW31087   1.234   3.161   3.906
10063SOL    HW131088   1.230   3.202   3.815
10063SOL    HW231089   1.329   3.135   3.926
10064SOL     OW31090   5.387   5.698   4.778
10064SOL    HW131091   5.436   5.684   4.692
10064SOL    HW231092   5.391   5.794   4.803
10065SOL     OW31093   1.660   6.663   2.040
10065SOL    HW131094   1.638   6.639   1.946
10065SOL    HW231095   1.746   6.620   2.067
10066SOL     OW31096   0.489   0.435   4.124
10066SOL    HW131097   0.543   0.476   4.050
10066SOL    HW231098   0.526   0.345   4.146
10067SOL     OW31099   5.093   5.041   4.537
10067SOL    HW131100   5.115   4.948   4.567
10067SOL    HW231101   5.070   5.039   4.439
10068SOL     OW31102   5.529   3.043   4.460
10068SOL    HW131103   5.451   3.104   4.474
10068SOL    HW231104   5.613   3.089   4.491
10069SOL     OW31105   2.376   1.058   3.761
10069SOL    HW131106   2.287   1.094   3.790
10069SOL    HW231107   2.389   1.078   3.664
10070SOL     OW31108   0.290   6.220   4.815
10070SOL    HW131109   0.297   6.253   4.909
10070SOL    HW231110   0.257   6.126   4.814
10071SOL     OW31111   4.481   5.403   3.578
10071SOL    HW131112   4.461   5.500   3.585
10071SOL    HW231113   4.410   5.351   3.625
10072SOL     OW31114   0.785   6.197   3.741
10072SOL    HW131115   0.718   6.150   3.798
10072SOL    HW231116   0.809   6.139   3.663
10073SOL     OW31117   6.036   4.795   5.151
10073SOL    HW131118   6.062   4.886   5.183
10073SOL    HW231119   6.109   4.757   5.093
10074SOL     OW31120   1.518   6.506   5.848
10074SOL    HW131121   1.527   6.520   5.749
10074SOL    HW231122   1.431   6.462   5.868
10075SOL     OW31123   1.369   2.494   3.008
10075SOL    HW131124   1.308   2.458   3.077
10075SOL    HW231125   1.322   2.495   2.919
10076SOL     OW31126   4.897   0.135   4.456
10076SOL    HW131127   4.817   0.195   4.460
10076SOL    HW231128   4.967   0.177   4.400
10077SOL     OW31129   3.796   2.393   6.536
10077SOL    HW131130   3.835   2.480   6.565
10077SOL    HW231131   3.761   2.343   6.616
10078SOL     OW31132   6.142   6.327   4.672
10078SOL    HW131133   6.072   6.318   4.742
10078SOL    HW231134   6.194   6.411   4.688
10079SOL     OW31135   1.230   2.681   1.660
10079SOL    HW131136   1.254   2.772   1.627
10079SOL    HW231137   1.268   2.612   1.599
10080SOL     OW31138   2.173   2.575   0.627
10080SOL    HW131139   2.264   2.603   0.660
10080SOL    HW231140   2.183   2.533   0.537
10081SOL     OW31141   1.023   0.555   6.469
10081SOL    HW131142   1.004   0.599   6.382
10081SOL    HW231143   0.945   0.498   6.496
10082SOL     OW31144   6.436   2.158   1.522
10082SOL    HW131145   6.403   2.147   1.615
10082SOL    HW231146   6.405   2.081   1.466
10083SOL     OW31147   4.733   0.957   3.903
10083SOL    HW131148   4.710   1.014   3.824
10083SOL    HW231149   4.685   0.991   3.984
10084SOL     OW31150   3.197   0.993   6.350
10084SOL    HW131151   3.169   1.027   6.260
10084SOL    HW231152   3.163   0.900   6.363
10085SOL     OW31153   1.016   4.881   2.914
10085SOL    HW131154   0.935   4.848   2.866
10085SOL    HW231155   0.991   4.960   2.971
10086SOL     OW31156   6.114   4.981   2.589
10086SOL    HW131157   6.068   5.044   2.651
10086SOL    HW231158   6.183   5.030   2.536
10087SOL     OW31159   1.048   1.080   4.517
10087SOL    HW131160   1.121   1.146   4.496
10087SOL    HW231161   0.959   1.120   4.491
10088SOL     OW31162   0.241   0.054   5.354
10088SOL    HW131163   0.262   0.085   5.262
10088SOL    HW231164   0.241   0.132   5.416
10089SOL     OW31165   2.838   1.585   2.737
10089SOL    HW131166   2.826   1.576   2.638
10089SOL    HW231167   2.757   1.550   2.784
10090SOL     OW31168   1.193   4.390   0.768
10090SOL    HW131169   1.223   4.483   0.749
10090SOL    HW231170   1.263   4.325   0.736
10091SOL     OW31171   1.250   3.671   4.477
10091SOL    HW131172   1.255   3.630   4.386
10091SOL    HW231173   1.244   3.771   4.468
10092SOL     OW31174   1.879   3.755   5.409
10092SOL    HW131175   1.941   3.722   5.338
10092SOL    HW231176   1.792   3.706   5.402
10093SOL     OW31177   0.558   5.163   5.065
10093SOL    HW131178   0.571   5.106   5.146
10093SOL    HW231179   0.644   5.206   5.040
10094SOL     OW31180   2.318   0.547   2.487
10094SOL    HW131181   2.344   0.525   2.393
10094SOL    HW231182   2.378   0.498   2.550
10095SOL     OW31183   6.427   1.662   5.444
10095SOL    HW131184   6.407   1.718   5.364
10095SOL    HW231185   6.525   1.646   5.450
10096SOL     OW31186   6.539   5.263   2.677
10096SOL    HW131187   6.601   5.341   2.688
10096SOL    HW231188   6.446   5.292   2.700
10097SOL     OW31189   1.196   1.241   0.608
10097SOL    HW131190   1.118   1.227   0.669
10097SOL    HW231191   1.163   1.261   0.516
10098SOL     OW31192   1.561   5.902   5.818
10098SOL    HW131193   1.534   5.994   5.789
10098SOL    HW231194   1.577   5.845   5.738
10099SOL     OW31195   6.889   3.538   5.733
10099SOL    HW131196   6.931   3.608   5.675
10099SOL    HW231197   6.858   3.462   5.676
10100SOL     OW31198   4.629   0.452   5.150
10100SOL    HW131199   4.611   0.409   5.239
10100SOL    HW231200   4.671   0.541   5.164
10101SOL     OW31201   0.055   4.856   2.385
10101SOL    HW131202   0.055   4.757   2.376
10101SOL    HW231203   0.104   4.882   2.469
10102SOL     OW31204   3.455   1.100   2.724
10102SOL    HW131205   3.360   1.099   2.756
10102SOL    HW231206   3.506   1.027   2.771
10103SOL     OW31207   2.788   1.381   5.067
10103SOL    HW131208   2.795   1.476   5.095
10103SOL    HW231209   2.838   1.367   4.982
10104SOL     OW31210   0.486   4.396   5.743
10104SOL    HW131211   0.553   4.352   5.802
10104SOL    HW231212   0.447   4.475   5.790
10105SOL     OW31213   1.409   1.471   6.585
10105SOL    HW131214   1.492   1.518   6.556
10105SOL    HW231215   1.405   1.381   6.542
10106SOL     OW31216   5.225   4.970   0.677
10106SOL    HW131217   5.234   5.054   0.731
10106SOL    HW231218   5.240   4.891   0.735
10107SOL     OW31219   6.348   1.175   5.690
10107SOL    HW131220   6.438   1.192   5.651
10107SOL    HW231221   6.340   1.078   5.716
10108SOL     OW31222   6.531   6.384   6.842
10108SOL    HW131223   6.609   6.329   6.810
10108SOL    HW231224   6.510   6.455   6.774
10109SOL     OW31225   4.071   6.090   2.622
10109SOL    HW131226   4.066   6.020   2.550
10109SOL    HW231227   4.167   6.110   2.643
10110SOL     OW31228   3.509   6.485   5.279
10110SOL    HW131229   3.430   6.539   5.251
10110SOL    HW231230   3.512   6.400   5.227
10111SOL     OW31231   6.767   3.783   3.558
10111SOL    HW131232   6.843   3.772   3.622
10111SOL    HW231233   6.802   3.783   3.464
10112SOL     OW31234   5.570   3.671   5.582
10112SOL    HW131235   5.510   3.611   5.529
10112SOL    HW231236   5.582   3.757   5.534
10113SOL     OW31237   4.034   0.796   0.203
10113SOL    HW131238   3.942   0.764   0.225
10113SOL    HW231239   4.078   0.829   0.287
10114SOL     OW31240   5.492   1.534   0.643
10114SOL    HW131241   5.467   1.458   0.583
10114SOL    HW231242   5.539   1.498   0.724
10115SOL     OW31243   1.992   2.179   3.499
10115SOL    HW131244   1.971   2.272   3.528
10115SOL    HW231245   2.066   2.142   3.556
10116SOL     OW31246   0.902   6.551   0.875
10116SOL    HW131247   0.992   6.556   0.918
10116SOL    HW231248   0.844   6.625   0.911
10117SOL     OW31249   6.442   0.257   4.432
10117SOL    HW131250   6.373   0.292   4.495
10117SOL    HW231251   6.426   0.295   4.341
10118SOL     OW31252   0.547   4.780   2.966
10118SOL    HW131253   0.548   4.879   2.973
10118SOL    HW231254   0.560   4.753   2.871
10119SOL     OW31255   1.973   0.078   4.304
10119SOL    HW131256   2.017   0.042   4.221
10119SOL    HW231257   1.999   0.174   4.316
10120SOL     OW31258   0.716   3.614   4.088
10120SOL    HW131259   0.662   3.648   4.011
10120SOL    HW231260   0.683   3.524   4.115
10121SOL     OW31261   6.872   4.676   4.972
10121SOL    HW131262   6.859   4.767   4.933
10121SOL    HW231263   6.904   4.613   4.901
10122SOL     OW31264   5.734   3.153   7.006
10122SOL    HW131265   5.765   3.201   6.923
10122SOL    HW231266   5.772   3.199   0.067
10123SOL     OW31267   0.369   5.990   0.993
10123SOL    HW131268   0.301   6.037   1.050
10123SOL    HW231269   0.433   6.056   0.955
10124SOL     OW31270   2.477   4.372   6.920
10124SOL    HW131271   2.563   4.363   6.970
10124SOL    HW231272   2.487   4.332   6.829
10125SOL     OW31273   1.639   0.616   3.123
10125SOL    HW131274   1.687   0.676   3.187
10125SOL    HW231275   1.682   0.526   3.122
10126SOL     OW31276   5.952   5.752   6.458
10126SOL    HW131277   6.033   5.719   6.508
10126SOL    HW231278   5.886   5.788   6.523
10127SOL     OW31279   3.144   5.701   5.542
10127SOL    HW131280   3.128   5.731   5.448
10127SOL    HW231281   3.118   5.605   5.552
10128SOL     OW31282   0.595   1.457   1.178
10128SOL    HW131283   0.559   1.481   1.088
10128SOL    HW231284   0.616   1.541   1.229
10129SOL     OW31285   4.938   2.771   4.051
10129SOL    HW131286   4.853   2.815   4.077
10129SOL    HW231287   4.927   2.671   4.057
10130SOL     OW31288   1.514   5.320   2.752
10130SOL    HW131289   1.483   5.317   2.847
10130SOL    HW231290   1.495   5.232   2.708
10131SOL     OW31291   0.509   2.020   2.239
10131SOL    HW131292   0.521   2.010   2.338
10131SOL    HW231293   0.414   1.998   2.215
10132SOL     OW31294   3.073   6.506   2.725
10132SOL    HW131295   3.172   6.521   2.730
10132SOL    HW231296   3.026   6.577   2.777
10133SOL     OW31297   3.956   6.583   2.986
10133SOL    HW131298   3.889   6.534   3.042
10133SOL    HW231299   4.043   6.534   2.987
10134SOL     OW31300   6.576   0.201   3.815
10134SOL    HW131301   6.550   0.262   3.740
10134SOL    HW231302   6.627   0.252   3.883
10135SOL     OW31303   4.920   3.725   2.691
10135SOL    HW131304   4.891   3.775   2.610
10135SOL    HW231305   4.933   3.628   2.667
10136SOL     OW31306   5.922   0.037   3.247
10136SOL    HW131307   5.873   0.017   3.162
10136SOL    HW231308   6.013   7.015   3.243
10137SOL     OW31309   6.813   5.631   4.014
10137SOL    HW131310   6.899   5.616   4.062
10137SOL    HW231311   6.766   5.544   4.000
10138SOL     OW31312   5.050   2.169   0.654
10138SOL    HW131313   5.115   2.095   0.669
10138SOL    HW231314   5.097   2.257   0.663
10139SOL     OW31315   3.842   2.995   2.539
10139SOL    HW131316   3.750   2.957   2.535
10139SOL    HW231317   3.872   3.001   2.634
10140SOL     OW31318   6.410   5.747   5.797
10140SOL    HW131319   6.423   5.752   5.698
10140SOL    HW231320   6.333   5.686   5.818
10141SOL     OW31321   3.264   2.170   4.244
10141SOL    HW131322   3.189   2.233   4.261
10141SOL    HW231323   3.284   2.119   4.328
10142SOL     OW31324   5.407   6.707   5.581
10142SOL    HW131325   5.347   6.662   5.648
10142SOL    HW231326   5.451   6.786   5.624
10143SOL     OW31327   4.529   0.344   1.235
10143SOL    HW131328   4.524   0.435   1.194
10143SOL    HW231329   4.467   0.339   1.313
10144SOL     OW31330   4.005   6.051   5.627
10144SOL    HW131331   4.061   6.085   5.551
10144SOL    HW231332   3.929   6.114   5.643
10145SOL     OW31333   2.961   5.943   5.570
10145SOL    HW131334   2.918   5.992   5.646
10145SOL    HW231335   3.021   5.871   5.606
10146SOL     OW31336   3.946   5.073   5.309
10146SOL    HW131337   3.974   5.167   5.327
10146SOL    HW231338   4.014   5.029   5.250
10147SOL     OW31339   4.857   4.686   4.494
10147SOL    HW131340   4.825   4.760   4.435
10147SOL    HW231341   4.835   4.707   4.589
10148SOL     OW31342   6.184   5.705   0.244
10148SOL    HW131343   6.095   5.692   0.200
10148SOL    HW231344   6.245   5.756   0.182
10149SOL     OW31345   4.825   1.923   0.443
10149SOL    HW131346   4.752   1.869   0.485
10149SOL    HW231347   4.834   1.897   0.347
10150SOL     OW31348   4.790   4.142   0.886
10150SOL    HW131349   4.849   4.222   0.903
10150SOL    HW231350   4.718   4.168   0.822
10151SOL     OW31351   1.619   0.150   6.401
10151SOL    HW131352   1.701   0.102   6.433
10151SOL    HW231353   1.567   0.184   6.479
10152SOL     OW31354   1.565   5.567   3.847
10152SOL    HW131355   1.496   5.494   3.847
10152SOL    HW231356   1.520   5.655   3.860
10153SOL     OW31357   4.073   6.153   3.803
10153SOL    HW131358   4.061   6.246   3.838
10153SOL    HW231359   4.099   6.157   3.706
10154SOL     OW31360   6.312   6.415   5.918
10154SOL    HW131361   6.262   6.329   5.931
10154SOL    HW231362   6.259   6.490   5.958
10155SOL     OW31363   3.682   1.649   5.856
10155SOL    HW131364   3.653   1.696   5.773
10155SOL    HW231365   3.769   1.688   5.888
10156SOL     OW31366   6.070   6.671   1.959
10156SOL    HW131367   6.014   6.731   1.902
10156SOL    HW231368   6.072   6.580   1.919
10157SOL     OW31369   5.522   1.930   5.703
10157SOL    HW131370   5.592   1.860   5.717
10157SOL    HW231371   5.561   2.007   5.653
10158SOL     OW31372   4.893   3.955   7.000
10158SOL    HW131373   4.988   3.970   6.976
10158SOL    HW231374   4.850   3.895   6.931
10159SOL     OW31375   2.867   3.055   6.130
10159SOL    HW131376   2.944   3.117   6.143
10159SOL    HW231377   2.898   2.961   6.142
10160SOL     OW31378   1.215   4.465   2.576
10160SOL    HW131379   1.144   4.397   2.592
10160SOL    HW231380   1.189   4.551   2.619
10161SOL     OW31381   3.413   4.704   0.418
10161SOL    HW131382   3.318   4.733   0.431
10161SOL    HW231383   3.428   4.683   0.322
10162SOL     OW31384   3.100   4.111   0.373
10162SOL    HW131385   3.140   4.202   0.363
10162SOL    HW231386   3.045   4.108   0.457
10163SOL     OW31387   5.654   4.302   6.309
10163SOL    HW131388   5.745   4.341   6.320
10163SOL    HW231389   5.661   4.212   6.265
10164SOL     OW31390   6.127   3.035   5.065
10164SOL    HW131391   6.112   2.943   5.102
10164SOL    HW231392   6.223   3.045   5.040
10165SOL     OW31393   1.582   2.333   3.588
10165SOL    HW131394   1.631   2.246   3.590
10165SOL    HW231395   1.502   2.325   3.528
10166SOL     OW31396   3.505   0.832   2.193
10166SOL    HW131397   3.468   0.830   2.100
10166SOL    HW231398   3.513   0.739   2.228
10167SOL     OW31399   4.232   1.002   6.628
10167SOL    HW131400   4.211   0.979   6.723
10167SOL    HW231401   4.283   1.088   6.624
10168SOL     OW31402   6.758   3.775   4.736
10168SOL    HW131403   6.783   3.872   4.748
10168SOL    HW231404   6.841   3.719   4.741
10169SOL     OW31405   7.007   4.117   3.519
10169SOL    HW131406   6.953   4.037   3.545
10169SOL    HW231407   0.064   4.088   3.461
10170SOL     OW31408   0.558   4.201   5.941
10170SOL    HW131409   0.552   4.143   5.860
10170SOL    HW231410   0.639   4.259   5.933
10171SOL     OW31411   6.629   4.038   6.751
10171SOL    HW131412   6.618   3.985   6.667
10171SOL    HW231413   6.676   4.124   6.730
10172SOL     OW31414   6.332   0.310   3.396
10172SOL    HW131415   6.397   0.313   3.472
10172SOL    HW231416   6.249   0.262   3.424
10173SOL     OW31417   1.945   2.283   1.082
10173SOL    HW131418   1.867   2.342   1.100
10173SOL    HW231419   1.990   2.312   0.998
10174SOL     OW31420   5.825   5.126   1.949
10174SOL    HW131421   5.801   5.150   1.855
10174SOL    HW231422   5.769   5.049   1.979
10175SOL     OW31423   6.803   2.580   3.920
10175SOL    HW131424   6.730   2.561   3.855
10175SOL    HW231425   6.858   2.656   3.887
10176SOL     OW31426   1.157   3.181   5.759
10176SOL    HW131427   1.209   3.150   5.680
10176SOL    HW231428   1.196   3.266   5.793
10177SOL     OW31429   2.761   0.138   6.992
10177SOL    HW131430   2.817   0.170   6.916
10177SOL    HW231431   2.815   0.139   0.057
10178SOL     OW31432   6.396   3.084   4.999
10178SOL    HW131433   6.408   3.177   4.963
10178SOL    HW231434   6.481   3.055   5.044
10179SOL     OW31435   1.141   1.683   6.002
10179SOL    HW131436   1.188   1.594   6.001
10179SOL    HW231437   1.082   1.688   6.082
10180SOL     OW31438   3.428   5.714   6.412
10180SOL    HW131439   3.444   5.696   6.509
10180SOL    HW231440   3.375   5.639   6.373
10181SOL     OW31441   5.083   3.379   2.128
10181SOL    HW131442   5.093   3.308   2.059
10181SOL    HW231443   5.159   3.372   2.193
10182SOL     OW31444   5.724   1.752   1.653
10182SOL    HW131445   5.634   1.765   1.693
10182SOL    HW231446   5.793   1.799   1.709
10183SOL     OW31447   0.938   2.096   6.122
10183SOL    HW131448   0.925   2.060   6.029
10183SOL    HW231449   0.978   2.025   6.179
10184SOL     OW31450   4.732   1.784   5.952
10184SOL    HW131451   4.699   1.872   5.920
10184SOL    HW231452   4.663   1.714   5.935
10185SOL     OW31453   5.010   5.714   0.944
10185SOL    HW131454   4.939   5.722   1.014
10185SOL    HW231455   5.095   5.753   0.979
10186SOL     OW31456   5.700   3.272   3.514
10186SOL    HW131457   5.651   3.207   3.455
10186SOL    HW231458   5.750   3.221   3.584
10187SOL     OW31459   0.638   2.130   2.015
10187SOL    HW131460   0.597   2.095   2.099
10187SOL    HW231461   0.688   2.056   1.969
10188SOL     OW31462   3.728   6.457   0.061
10188SOL    HW131463   3.782   6.463   0.145
10188SOL    HW231464   3.661   6.383   0.070
10189SOL     OW31465   2.409   0.705   5.774
10189SOL    HW131466   2.492   0.650   5.765
10189SOL    HW231467   2.378   0.702   5.869
10190SOL     OW31468   5.152   2.799   1.138
10190SOL    HW131469   5.182   2.706   1.161
10190SOL    HW231470   5.147   2.854   1.221
10191SOL     OW31471   4.632   4.162   6.837
10191SOL    HW131472   4.683   4.194   6.757
10191SOL    HW231473   4.655   4.066   6.854
10192SOL     OW31474   4.480   0.903   5.082
10192SOL    HW131475   4.493   0.991   5.127
10192SOL    HW231476   4.551   0.839   5.111
10193SOL     OW31477   4.223   4.134   1.683
10193SOL    HW131478   4.300   4.172   1.735
10193SOL    HW231479   4.245   4.040   1.656
10194SOL     OW31480   6.051   5.113   4.936
10194SOL    HW131481   6.128   5.051   4.918
10194SOL    HW231482   6.085   5.194   4.984
10195SOL     OW31483   6.177   4.508   1.264
10195SOL    HW131484   6.095   4.563   1.279
10195SOL    HW231485   6.152   4.420   1.224
10196SOL     OW31486   5.285   1.552   4.725
10196SOL    HW131487   5.358   1.566   4.792
10196SOL    HW231488   5.201   1.526   4.771
10197SOL     OW31489   0.095   1.817   4.839
10197SOL    HW131490   0.123   1.856   4.752
10197SOL    HW231491   0.119   1.881   4.913
10198SOL     OW31492   3.739   0.703   1.902
10198SOL    HW131493   3.727   0.753   1.988
10198SOL    HW231494   3.801   0.754   1.842
10199SOL     OW31495   2.188   2.651   6.462
10199SOL    HW131496   2.183   2.572   6.523
10199SOL    HW231497   2.175   2.735   6.514
10200SOL     OW31498   4.991   2.331   1.374
10200SOL    HW131499   5.004   2.366   1.281
10200SOL    HW231500   5.071   2.355   1.429
10201SOL     OW31501   0.878   4.470   0.791
10201SOL    HW131502   0.874   4.378   0.753
10201SOL    HW231503   0.876   4.466   0.891
10202SOL     OW31504   3.862   2.427   6.280
10202SOL    HW131505   3.841   2.411   6.376
10202SOL    HW231506   3.777   2.433   6.227
10203SOL     OW31507   5.515   3.150   4.158
10203SOL    HW131508   5.605   3.160   4.116
10203SOL    HW231509   5.513   3.201   4.244
10204SOL     OW31510   5.408   6.804   6.883
10204SOL    HW131511   5.487   6.834   6.830
10204SOL    HW231512   5.407   6.705   6.889
10205SOL     OW31513   0.460   1.814   0.433
10205SOL    HW131514   0.445   1.824   0.531
10205SOL    HW231515   0.519   1.734   0.416
10206SOL     OW31516   0.842   1.206   5.920
10206SOL    HW131517   0.928   1.161   5.947
10206SOL    HW231518   0.765   1.154   5.956
10207SOL     OW31519   1.232   2.113   6.356
10207SOL    HW131520   1.291   2.053   6.411
10207SOL    HW231521   1.136   2.095   6.378
10208SOL     OW31522   5.717   5.257   4.174
10208SOL    HW131523   5.645   5.261   4.104
10208SOL    HW231524   5.714   5.340   4.230
10209SOL     OW31525   6.934   6.940   6.016
10209SOL    HW131526   0.007   6.979   6.021
10209SOL    HW231527   6.871   7.007   5.977
10210SOL     OW31528   4.421   6.611   1.003
10210SOL    HW131529   4.399   6.613   0.905
10210SOL    HW231530   4.477   6.691   1.026
10211SOL     OW31531   3.628   6.504   4.985
10211SOL    HW131532   3.688   6.427   5.005
10211SOL    HW231533   3.673   6.589   5.013
10212SOL     OW31534   1.203   6.901   5.195
10212SOL    HW131535   1.203   6.914   5.294
10212SOL    HW231536   1.154   6.977   5.152
10213SOL     OW31537   4.823   2.804   0.984
10213SOL    HW131538   4.912   2.783   1.025
10213SOL    HW231539   4.750   2.766   1.042
10214SOL     OW31540   1.411   1.499   1.665
10214SOL    HW131541   1.479   1.528   1.599
10214SOL    HW231542   1.321   1.533   1.638
10215SOL     OW31543   4.008   3.056   3.145
10215SOL    HW131544   3.919   3.024   3.113
10215SOL    HW231545   4.035   3.003   3.225
10216SOL     OW31546   5.966   0.783   1.801
10216SOL    HW131547   5.994   0.840   1.878
10216SOL    HW231548   5.994   0.827   1.715
10217SOL     OW31549   2.481   0.693   3.574
10217SOL    HW131550   2.446   0.751   3.648
10217SOL    HW231551   2.560   0.641   3.606
10218SOL     OW31552   0.894   2.915   1.370
10218SOL    HW131553   0.980   2.935   1.418
10218SOL    HW231554   0.855   3.000   1.334
10219SOL     OW31555   0.194   1.521   2.065
10219SOL    HW131556   0.267   1.545   2.129
10219SOL    HW231557   0.218   1.552   1.973
10220SOL     OW31558   3.979   2.824   1.055
10220SOL    HW131559   3.918   2.755   1.094
10220SOL    HW231560   4.042   2.856   1.125
10221SOL     OW31561   0.796   5.589   3.166
10221SOL    HW131562   0.825   5.681   3.190
10221SOL    HW231563   0.858   5.553   3.095
10222SOL     OW31564   2.879   3.471   4.670
10222SOL    HW131565   2.958   3.424   4.708
10222SOL    HW231566   2.842   3.418   4.594
10223SOL     OW31567   0.809   5.166   0.685
10223SOL    HW131568   0.753   5.240   0.648
10223SOL    HW231569   0.835   5.187   0.779
10224SOL     OW31570   6.235   3.469   3.707
10224SOL    HW131571   6.319   3.472   3.654
10224SOL    HW231572   6.165   3.418   3.657
10225SOL     OW31573   1.433   4.220   5.888
10225SOL    HW131574   1.341   4.211   5.928
10225SOL    HW231575   1.489   4.142   5.917
10226SOL     OW31576   3.636   1.767   6.793
10226SOL    HW131577   3.663   1.673   6.814
10226SOL    HW231578   3.583   1.804   6.869
10227SOL     OW31579   5.426   3.942   0.636
10227SOL    HW131580   5.515   3.932   0.591
10227SOL    HW231581   5.439   3.949   0.735
10228SOL     OW31582   6.564   0.503   0.427
10228SOL    HW131583   6.608   0.551   0.503
10228SOL    HW231584   6.601   0.410   0.420
10229SOL     OW31585   0.412   3.083   5.108
10229SOL    HW131586   0.358   3.082   5.192
10229SOL    HW231587   0.503   3.046   5.127
10230SOL     OW31588   6.884   5.761   2.034
10230SOL    HW131589   6.871   5.783   1.938
10230SOL    HW231590   6.795   5.750   2.078
10231SOL     OW31591   1.436   5.815   3.779
10231SOL    HW131592   1.372   5.866   3.722
10231SOL    HW231593   1.473   5.874   3.850
10232SOL     OW31594   3.235   0.587   3.513
10232SOL    HW131595   3.298   0.602   3.437
10232SOL    HW231596   3.279   0.532   3.583
10233SOL     OW31597   3.960   4.370   6.009
10233SOL    HW131598   4.058   4.356   5.992
10233SOL    HW231599   3.923   4.433   5.940
10234SOL     OW31600   5.960   0.458   1.349
10234SOL    HW131601   6.010   0.450   1.263
10234SOL    HW231602   6.024   0.458   1.425
10235SOL     OW31603   0.895   0.989   3.332
10235SOL    HW131604   0.824   0.921   3.353
10235SOL    HW231605   0.873   1.075   3.378
10236SOL     OW31606   2.831   6.674   0.168
10236SOL    HW131607   2.848   6.576   0.176
10236SOL    HW231608   2.763   6.690   0.096
10237SOL     OW31609   0.438   3.238   6.971
10237SOL    HW131610   0.400   3.330   6.979
10237SOL    HW231611   0.459   3.203   0.044
10238SOL     OW31612   4.091   4.917   1.193
10238SOL    HW131613   4.039   4.832   1.204
10238SOL    HW231614   4.178   4.909   1.241
10239SOL     OW31615   1.583   2.980   4.591
10239SOL    HW131616   1.508   2.992   4.525
10239SOL    HW231617   1.657   3.043   4.568
10240SOL     OW31618   2.275   0.113   1.714
10240SOL    HW131619   2.294   0.018   1.740
10240SOL    HW231620   2.232   0.115   1.624
10241SOL     OW31621   5.151   1.786   2.011
10241SOL    HW131622   5.128   1.876   1.974
10241SOL    HW231623   5.123   1.716   1.945
10242SOL     OW31624   0.430   2.304   0.853
10242SOL    HW131625   0.519   2.337   0.821
10242SOL    HW231626   0.428   2.204   0.850
10243SOL     OW31627   2.628   4.514   1.177
10243SOL    HW131628   2.727   4.507   1.190
10243SOL    HW231629   2.608   4.521   1.079
10244SOL     OW31630   2.463   3.727   1.428
10244SOL    HW131631   2.480   3.776   1.513
10244SOL    HW231632   2.494   3.632   1.438
10245SOL     OW31633   3.372   3.971   0.655
10245SOL    HW131634   3.297   3.913   0.688
10245SOL    HW231635   3.419   3.923   0.580
10246SOL     OW31636   3.471   2.956   4.490
10246SOL    HW131637   3.409   2.951   4.568
10246SOL    HW231638   3.480   3.051   4.459
10247SOL     OW31639   1.138   3.906   5.097
10247SOL    HW131640   1.221   3.958   5.116
10247SOL    HW231641   1.161   3.825   5.043
10248SOL     OW31642   1.369   7.007   3.538
10248SOL    HW131643   1.355   0.069   3.594
10248SOL    HW231644   1.329   0.001   3.448
10249SOL     OW31645   1.909   4.898   0.037
10249SOL    HW131646   1.906   4.806   0.077
10249SOL    HW231647   1.910   4.892   6.956
10250SOL     OW31648   5.501   3.025   0.272
10250SOL    HW131649   5.474   3.038   0.176
10250SOL    HW231650   5.459   2.942   0.308
10251SOL     OW31651   1.496   0.227   3.847
10251SOL    HW131652   1.400   0.201   3.838
10251SOL    HW231653   1.531   0.259   3.759
10252SOL     OW31654   4.770   3.667   5.583
10252SOL    HW131655   4.788   3.666   5.484
10252SOL    HW231656   4.695   3.603   5.603
10253SOL     OW31657   3.775   6.960   0.078
10253SOL    HW131658   3.677   6.967   0.098
10253SOL    HW231659   3.789   6.956   6.999
10254SOL     OW31660   5.268   2.016   5.051
10254SOL    HW131661   5.201   1.997   5.123
10254SOL    HW231662   5.293   1.931   5.005
10255SOL     OW31663   2.978   5.906   1.371
10255SOL    HW131664   2.954   5.933   1.278
10255SOL    HW231665   3.063   5.852   1.370
10256SOL     OW31666   5.291   0.921   1.745
10256SOL    HW131667   5.277   0.957   1.653
10256SOL    HW231668   5.282   0.996   1.811
10257SOL     OW31669   3.075   5.033   3.131
10257SOL    HW131670   3.163   5.058   3.093
10257SOL    HW231671   3.085   4.951   3.187
10258SOL     OW31672   3.042   2.213   3.079
10258SOL    HW131673   3.029   2.121   3.116
10258SOL    HW231674   3.138   2.239   3.085
10259SOL     OW31675   0.882   4.368   4.220
10259SOL    HW131676   0.794   4.402   4.184
10259SOL    HW231677   0.865   4.293   4.284
10260SOL     OW31678   1.661   1.174   3.586
10260SOL    HW131679   1.574   1.199   3.627
10260SOL    HW231680   1.648   1.157   3.488
10261SOL     OW31681   0.503   3.816   0.932
10261SOL    HW131682   0.443   3.742   0.900
10261SOL    HW231683   0.450   3.901   0.939
10262SOL     OW31684   3.722   0.854   6.722
10262SOL    HW131685   3.761   0.781   6.779
10262SOL    HW231686   3.643   0.818   6.673
10263SOL     OW31687   6.140   0.845   0.774
10263SOL    HW131688   6.150   0.814   0.679
10263SOL    HW231689   6.128   0.766   0.834
10264SOL     OW31690   6.333   4.825   6.504
10264SOL    HW131691   6.242   4.849   6.537
10264SOL    HW231692   6.327   4.740   6.451
10265SOL     OW31693   2.409   2.658   0.364
10265SOL    HW131694   2.433   2.754   0.352
10265SOL    HW231695   2.462   2.619   0.439
10266SOL     OW31696   3.003   3.114   2.810
10266SOL    HW131697   3.027   3.018   2.823
10266SOL    HW231698   2.997   3.159   2.899
10267SOL     OW31699   5.302   0.545   0.849
10267SOL    HW131700   5.227   0.503   0.900
10267SOL    HW231701   5.354   0.605   0.911
10268SOL     OW31702   5.391   0.224   1.544
10268SOL    HW131703   5.380   0.277   1.459
10268SOL    HW231704   5.419   0.286   1.618
10269SOL     OW31705   1.799   2.395   6.611
10269SOL    HW131706   1.712   2.347   6.605
10269SOL    HW231707   1.813   2.450   6.529
10270SOL     OW31708   3.382   6.071   2.500
10270SOL    HW131709   3.456   6.074   2.432
10270SOL    HW231710   3.339   5.981   2.499
10271SOL     OW31711   2.911   2.192   0.885
10271SOL    HW131712   2.860   2.228   0.806
10271SOL    HW231713   3.000   2.238   0.890
10272SOL     OW31714   6.812   1.005   4.434
10272SOL    HW131715   6.888   1.069   4.424
10272SOL    HW231716   6.847   0.918   4.469
10273SOL     OW31717   3.075   5.367   4.148
10273SOL    HW131718   3.168   5.339   4.172
10273SOL    HW231719   3.014   5.346   4.224
10274SOL     OW31720   0.274   5.053   5.643
10274SOL    HW131721   0.188   5.002   5.645
10274SOL    HW231722   0.335   5.018   5.715
10275SOL     OW31723   6.986   0.779   2.967
10275SOL    HW131724   6.945   0.786   3.058
10275SOL    HW231725   0.022   0.696   2.962
10276SOL     OW31726   4.745   5.547   5.388
10276SOL    HW131727   4.822   5.597   5.349
10276SOL    HW231728   4.715   5.591   5.473
10277SOL     OW31729   1.364   6.763   4.040
10277SOL    HW131730   1.394   6.678   3.996
10277SOL    HW231731   1.337   6.743   4.135
10278SOL     OW31732   0.226   0.448   5.047
10278SOL    HW131733   0.137   0.460   5.003
10278SOL    HW231734   0.297   0.488   4.988
10279SOL     OW31735   2.575   5.468   4.300
10279SOL    HW131736   2.492   5.478   4.245
10279SOL    HW231737   2.551   5.457   4.396
10280SOL     OW31738   5.509   3.550   0.727
10280SOL    HW131739   5.423   3.601   0.729
10280SOL    HW231740   5.580   3.602   0.775
10281SOL     OW31741   6.759   2.147   3.369
10281SOL    HW131742   6.708   2.084   3.310
10281SOL    HW231743   6.776   2.232   3.319
10282SOL     OW31744   4.915   3.380   2.981
10282SOL    HW131745   4.911   3.336   3.070
10282SOL    HW231746   4.934   3.311   2.911
10283SOL     OW31747   0.275   3.719   1.170
10283SOL    HW131748   0.310   3.732   1.077
10283SOL    HW231749   0.176   3.727   1.170
10284SOL     OW31750   0.260   2.372   3.722
10284SOL    HW131751   0.296   2.280   3.728
10284SOL    HW231752   0.332   2.438   3.743
10285SOL     OW31753   4.148   6.518   3.456
10285SOL    HW131754   4.062   6.567   3.443
10285SOL    HW231755   4.193   6.552   3.539
10286SOL     OW31756   2.862   0.899   3.651
10286SOL    HW131757   2.852   0.906   3.552
10286SOL    HW231758   2.958   0.907   3.676
10287SOL     OW31759   2.001   5.990   1.821
10287SOL    HW131760   1.977   6.079   1.858
10287SOL    HW231761   1.968   5.918   1.882
10288SOL     OW31762   3.393   6.897   5.027
10288SOL    HW131763   3.313   6.952   4.999
10288SOL    HW231764   3.372   6.800   5.016
10289SOL     OW31765   3.096   6.183   0.838
10289SOL    HW131766   3.101   6.203   0.936
10289SOL    HW231767   3.010   6.218   0.801
10290SOL     OW31768   3.055   3.321   2.346
10290SOL    HW131769   2.996   3.390   2.304
10290SOL    HW231770   3.015   3.292   2.433
10291SOL     OW31771   3.330   0.976   3.054
10291SOL    HW131772   3.294   0.904   2.995
10291SOL    HW231773   3.256   1.041   3.075
10292SOL     OW31774   0.036   0.701   6.410
10292SOL    HW131775   0.002   0.706   6.316
10292SOL    HW231776   0.136   0.698   6.409
10293SOL     OW31777   0.573   3.915   4.061
10293SOL    HW131778   0.575   3.856   4.142
10293SOL    HW231779   0.487   3.902   4.012
10294SOL     OW31780   3.803   2.017   2.979
10294SOL    HW131781   3.744   1.937   2.987
10294SOL    HW231782   3.898   1.990   2.993
10295SOL     OW31783   1.255   2.544   6.262
10295SOL    HW131784   1.326   2.547   6.333
10295SOL    HW231785   1.284   2.596   6.183
10296SOL     OW31786   5.792   1.190   5.739
10296SOL    HW131787   5.698   1.162   5.755
10296SOL    HW231788   5.852   1.110   5.742
10297SOL     OW31789   2.883   1.687   6.859
10297SOL    HW131790   2.793   1.716   6.828
10297SOL    HW231791   2.894   1.589   6.846
10298SOL     OW31792   1.318   4.338   1.941
10298SOL    HW131793   1.330   4.239   1.947
10298SOL    HW231794   1.245   4.366   2.004
10299SOL     OW31795   4.731   6.654   2.601
10299SOL    HW131796   4.802   6.602   2.553
10299SOL    HW231797   4.770   6.739   2.638
10300SOL     OW31798   1.118   4.147   2.407
10300SOL    HW131799   1.104   4.159   2.506
10300SOL    HW231800   1.169   4.225   2.371
10301SOL     OW31801   3.842   1.842   5.540
10301SOL    HW131802   3.807   1.816   5.450
10301SOL    HW231803   3.923   1.900   5.530
10302SOL     OW31804   2.841   6.581   4.412
10302SOL    HW131805   2.805   6.655   4.355
10302SOL    HW231806   2.793   6.581   4.500
10303SOL     OW31807   1.256   5.961   3.967
10303SOL    HW131808   1.178   6.006   3.923
10303SOL    HW231809   1.271   6.001   4.057
10304SOL     OW31810   6.245   0.103   0.479
10304SOL    HW131811   6.208   0.158   0.404
10304SOL    HW231812   6.260   0.009   0.448
10305SOL     OW31813   3.345   3.783   6.106
10305SOL    HW131814   3.268   3.801   6.045
10305SOL    HW231815   3.429   3.819   6.065
10306SOL     OW31816   5.668   6.699   1.213
10306SOL    HW131817   5.596   6.690   1.282
10306SOL    HW231818   5.627   6.695   1.121
10307SOL     OW31819   2.966   1.444   4.849
10307SOL    HW131820   3.002   1.385   4.776
10307SOL    HW231821   2.936   1.530   4.809
10308SOL     OW31822   2.282   4.616   2.744
10308SOL    HW131823   2.182   4.621   2.741
10308SOL    HW231824   2.311   4.520   2.738
10309SOL     OW31825   6.276   0.915   5.818
10309SOL    HW131826   6.191   0.936   5.769
10309SOL    HW231827   6.258   0.845   5.887
10310SOL     OW31828   2.473   3.808   0.075
10310SOL    HW131829   2.465   3.907   0.085
10310SOL    HW231830   2.568   3.784   0.058
10311SOL     OW31831   5.941   5.620   0.087
10311SOL    HW131832   5.946   5.521   0.071
10311SOL    HW231833   5.855   5.656   0.050
10312SOL     OW31834   4.151   0.267   1.935
10312SOL    HW131835   4.229   0.298   1.990
10312SOL    HW231836   4.069   0.264   1.992
10313SOL     OW31837   3.841   5.604   2.823
10313SOL    HW131838   3.873   5.587   2.730
10313SOL    HW231839   3.890   5.544   2.887
10314SOL     OW31840   0.532   0.430   6.834
10314SOL    HW131841   0.445   0.380   6.829
10314SOL    HW231842   0.551   0.472   6.745
10315SOL     OW31843   5.143   6.632   3.574
10315SOL    HW131844   5.231   6.676   3.593
10315SOL    HW231845   5.117   6.646   3.479
10316SOL     OW31846   6.556   2.015   6.075
10316SOL    HW131847   6.525   2.046   5.985
10316SOL    HW231848   6.511   1.929   6.099
10317SOL     OW31849   3.658   5.922   5.938
10317SOL    HW131850   3.743   5.873   5.955
10317SOL    HW231851   3.601   5.919   6.020
10318SOL     OW31852   5.139   0.251   6.210
10318SOL    HW131853   5.079   0.187   6.259
10318SOL    HW231854   5.234   0.222   6.221
10319SOL     OW31855   0.392   4.761   5.600
10319SOL    HW131856   0.472   4.810   5.565
10319SOL    HW231857   0.314   4.778   5.540
10320SOL     OW31858   6.939   6.930   3.351
10320SOL    HW131859   6.923   6.844   3.400
10320SOL    HW231860   6.868   6.996   3.375
10321SOL     OW31861   5.904   2.466   2.183
10321SOL    HW131862   5.870   2.374   2.199
10321SOL    HW231863   5.854   2.530   2.241
10322SOL     OW31864   4.141   4.846   4.763
10322SOL    HW131865   4.206   4.812   4.695
10322SOL    HW231866   4.156   4.799   4.850
10323SOL     OW31867   6.469   4.926   5.211
10323SOL    HW131868   6.565   4.956   5.209
10323SOL    HW231869   6.418   4.971   5.138
10324SOL     OW31870   2.940   3.550   2.535
10324SOL    HW131871   2.966   3.453   2.543
10324SOL    HW231872   2.912   3.569   2.441
10325SOL     OW31873   0.175   5.277   2.296
10325SOL    HW131874   0.213   5.214   2.363
10325SOL    HW231875   0.075   5.272   2.298
10326SOL     OW31876   5.541   3.645   6.635
10326SOL    HW131877   5.612   3.674   6.571
10326SOL    HW231878   5.570   3.666   6.729
10327SOL     OW31879   2.386   3.173   1.454
10327SOL    HW131880   2.483   3.151   1.465
10327SOL    HW231881   2.365   3.258   1.502
10328SOL     OW31882   6.410   2.984   2.198
10328SOL    HW131883   6.325   2.943   2.230
10328SOL    HW231884   6.408   3.082   2.216
10329SOL     OW31885   2.897   0.540   2.684
10329SOL    HW131886   2.926   0.459   2.736
10329SOL    HW231887   2.800   0.533   2.664
10330SOL     OW31888   4.578   0.644   1.209
10330SOL    HW131889   4.543   0.737   1.196
10330SOL    HW231890   4.647   0.625   1.139
10331SOL     OW31891   6.511   5.914   6.707
10331SOL    HW131892   6.431   5.921   6.647
10331SOL    HW231893   6.565   5.834   6.682
10332SOL     OW31894   0.926   0.724   6.686
10332SOL    HW131895   0.960   0.655   6.621
10332SOL    HW231896   0.835   0.754   6.657
10333SOL     OW31897   0.503   5.771   4.521
10333SOL    HW131898   0.500   5.837   4.596
10333SOL    HW231899   0.595   5.769   4.482
10334SOL     OW31900   3.324   0.122   4.278
10334SOL    HW131901   3.301   0.219   4.274
10334SOL    HW231902   3.272   0.073   4.208
10335SOL     OW31903   0.988   4.355   6.746
10335SOL    HW131904   1.047   4.435   6.734
10335SOL    HW231905   1.043   4.272   6.735
10336SOL     OW31906   6.422   6.640   1.931
10336SOL    HW131907   6.465   6.729   1.920
10336SOL    HW231908   6.323   6.650   1.931
10337SOL     OW31909   6.705   5.590   0.151
10337SOL    HW131910   6.769   5.557   0.221
10337SOL    HW231911   6.623   5.626   0.195
10338SOL     OW31912   1.474   6.609   2.232
10338SOL    HW131913   1.511   6.641   2.319
10338SOL    HW231914   1.533   6.638   2.157
10339SOL     OW31915   6.288   3.684   6.156
10339SOL    HW131916   6.198   3.642   6.146
10339SOL    HW231917   6.291   3.770   6.107
10340SOL     OW31918   2.088   2.449   6.642
10340SOL    HW131919   2.072   2.368   6.586
10340SOL    HW231920   2.001   2.494   6.663
10341SOL     OW31921   2.037   3.465   2.226
10341SOL    HW131922   1.953   3.461   2.172
10341SOL    HW231923   2.115   3.484   2.165
10342SOL     OW31924   1.796   0.431   3.429
10342SOL    HW131925   1.817   0.522   3.463
10342SOL    HW231926   1.863   0.366   3.464
10343SOL     OW31927   2.591   5.307   0.561
10343SOL    HW131928   2.493   5.327   0.566
10343SOL    HW231929   2.606   5.209   0.577
10344SOL     OW31930   3.605   4.024   6.824
10344SOL    HW131931   3.564   4.113   6.845
10344SOL    HW231932   3.696   4.019   6.866
10345SOL     OW31933   1.357   3.080   5.576
10345SOL    HW131934   1.408   3.154   5.532
10345SOL    HW231935   1.354   3.001   5.515
10346SOL     OW31936   7.005   5.185   1.695
10346SOL    HW131937   7.006   5.240   1.611
10346SOL    HW231938   0.069   5.130   1.700
10347SOL     OW31939   4.590   1.149   3.365
10347SOL    HW131940   4.520   1.107   3.308
10347SOL    HW231941   4.581   1.249   3.362
10348SOL     OW31942   6.013   2.626   0.306
10348SOL    HW131943   5.960   2.580   0.234
10348SOL    HW231944   6.106   2.643   0.272
10349SOL     OW31945   0.702   0.145   6.394
10349SOL    HW131946   0.757   0.211   6.445
10349SOL    HW231947   0.754   0.060   6.382
10350SOL     OW31948   2.999   5.997   5.308
10350SOL    HW131949   2.920   6.035   5.259
10350SOL    HW231950   2.981   5.999   5.406
10351SOL     OW31951   4.721   4.966   5.743
10351SOL    HW131952   4.818   4.968   5.719
10351SOL    HW231953   4.701   5.039   5.809
10352SOL     OW31954   3.456   1.160   6.258
10352SOL    HW131955   3.406   1.242   6.231
10352SOL    HW231956   3.442   1.088   6.191
10353SOL     OW31957   6.533   2.937   4.766
10353SOL    HW131958   6.565   2.860   4.821
10353SOL    HW231959   6.456   2.981   4.812
10354SOL     OW31960   5.323   0.933   1.004
10354SOL    HW131961   5.371   0.975   1.082
10354SOL    HW231962   5.290   1.005   0.943
10355SOL     OW31963   2.768   6.109   2.299
10355SOL    HW131964   2.852   6.164   2.302
10355SOL    HW231965   2.789   6.015   2.325
10356SOL     OW31966   0.132   3.743   6.080
10356SOL    HW131967   0.141   3.649   6.048
10356SOL    HW231968   0.055   3.749   6.144
10357SOL     OW31969   2.161   2.057   5.926
10357SOL    HW131970   2.139   2.147   5.887
10357SOL    HW231971   2.129   1.985   5.865
10358SOL     OW31972   6.812   2.709   3.040
10358SOL    HW131973   6.782   2.688   3.133
10358SOL    HW231974   6.739   2.687   2.976
10359SOL     OW31975   0.493   1.473   1.585
10359SOL    HW131976   0.581   1.514   1.607
10359SOL    HW231977   0.431   1.544   1.551
10360SOL     OW31978   4.704   5.812   3.016
10360SOL    HW131979   4.682   5.752   2.939
10360SOL    HW231980   4.621   5.853   3.052
10361SOL     OW31981   2.987   5.643   2.583
10361SOL    HW131982   2.903   5.695   2.573
10361SOL    HW231983   3.057   5.699   2.627
10362SOL     OW31984   2.244   5.254   4.976
10362SOL    HW131985   2.231   5.156   4.960
10362SOL    HW231986   2.273   5.298   4.891
10363SOL     OW31987   5.495   0.498   2.906
10363SOL    HW131988   5.555   0.445   2.846
10363SOL    HW231989   5.487   0.591   2.871
10364SOL     OW31990   2.580   3.949   1.209
10364SOL    HW131991   2.547   3.940   1.115
10364SOL    HW231992   2.670   3.905   1.217
10365SOL     OW31993   3.995   5.524   6.875
10365SOL    HW131994   4.015   5.428   6.853
10365SOL    HW231995   3.904   5.531   6.915
10366SOL     OW31996   2.396   6.677   3.971
10366SOL    HW131997   2.351   6.707   4.055
10366SOL    HW231998   2.444   6.753   3.929
10367SOL     OW31999   6.230   1.967   3.105
10367SOL    HW132000   6.143   1.981   3.057
10367SOL    HW232001   6.223   2.005   3.197
10368SOL     OW32002   2.391   1.194   2.128
10368SOL    HW132003   2.400   1.120   2.193
10368SOL    HW232004   2.431   1.278   2.166
10369SOL     OW32005   3.636   2.013   0.960
10369SOL    HW132006   3.688   1.933   0.930
10369SOL    HW232007   3.543   1.985   0.984
10370SOL     OW32008   4.009   1.085   5.237
10370SOL    HW132009   4.058   1.000   5.260
10370SOL    HW232010   4.004   1.094   5.138
10371SOL     OW32011   4.357   5.990   5.074
10371SOL    HW132012   4.270   5.941   5.068
10371SOL    HW232013   4.402   5.988   4.985
10372SOL     OW32014   2.486   0.868   4.514
10372SOL    HW132015   2.485   0.957   4.561
10372SOL    HW232016   2.400   0.820   4.531
10373SOL     OW32017   1.010   6.862   4.526
10373SOL    HW132018   1.066   6.835   4.605
10373SOL    HW232019   0.921   6.816   4.531
10374SOL     OW32020   2.968   1.568   3.347
10374SOL    HW132021   2.872   1.550   3.365
10374SOL    HW232022   3.000   1.642   3.406
10375SOL     OW32023   5.610   2.305   1.123
10375SOL    HW132024   5.666   2.258   1.054
10375SOL    HW232025   5.601   2.248   1.204
10376SOL     OW32026   0.432   1.246   3.858
10376SOL    HW132027   0.342   1.275   3.892
10376SOL    HW232028   0.428   1.233   3.759
10377SOL     OW32029   0.395   0.457   3.631
10377SOL    HW132030   0.301   0.474   3.604
10377SOL    HW232031   0.435   0.387   3.573
10378SOL     OW32032   6.548   0.503   5.757
10378SOL    HW132033   6.552   0.457   5.846
10378SOL    HW232034   6.454   0.502   5.723
10379SOL     OW32035   5.189   0.250   4.643
10379SOL    HW132036   5.229   0.265   4.553
10379SOL    HW232037   5.137   0.165   4.642
10380SOL     OW32038   5.661   0.575   2.654
10380SOL    HW132039   5.695   0.666   2.677
10380SOL    HW232040   5.626   0.575   2.560
10381SOL     OW32041   4.695   5.388   6.100
10381SOL    HW132042   4.765   5.419   6.164
10381SOL    HW232043   4.605   5.416   6.132
10382SOL     OW32044   2.473   5.864   6.009
10382SOL    HW132045   2.471   5.803   5.929
10382SOL    HW232046   2.567   5.885   6.033
10383SOL     OW32047   0.742   2.683   0.960
10383SOL    HW132048   0.803   2.717   1.031
10383SOL    HW232049   0.647   2.697   0.988
10384SOL     OW32050   6.679   6.872   0.419
10384SOL    HW132051   6.686   6.842   0.514
10384SOL    HW232052   6.769   6.903   0.388
10385SOL     OW32053   6.072   1.072   6.027
10385SOL    HW132054   5.974   1.076   6.010
10385SOL    HW232055   6.095   0.987   6.074
10386SOL     OW32056   6.496   2.769   5.206
10386SOL    HW132057   6.530   2.840   5.144
10386SOL    HW232058   6.559   2.691   5.205
10387SOL     OW32059   1.667   2.741   2.804
10387SOL    HW132060   1.745   2.804   2.798
10387SOL    HW232061   1.638   2.733   2.899
10388SOL     OW32062   1.858   4.809   3.116
10388SOL    HW132063   1.810   4.830   3.201
10388SOL    HW232064   1.916   4.886   3.090
10389SOL     OW32065   1.224   4.935   3.908
10389SOL    HW132066   1.303   4.886   3.869
10389SOL    HW232067   1.197   4.891   3.994
10390SOL     OW32068   1.364   3.214   3.229
10390SOL    HW132069   1.438   3.276   3.203
10390SOL    HW232070   1.346   3.150   3.154
10391SOL     OW32071   2.071   6.207   6.719
10391SOL    HW132072   2.148   6.156   6.757
10391SOL    HW232073   2.094   6.240   6.628
10392SOL     OW32074   6.486   4.855   0.449
10392SOL    HW132075   6.557   4.917   0.483
10392SOL    HW232076   6.430   4.823   0.526
10393SOL     OW32077   0.807   1.188   4.445
10393SOL    HW132078   0.791   1.263   4.382
10393SOL    HW232079   0.770   1.103   4.407
10394SOL     OW32080   2.613   6.429   0.281
10394SOL    HW132081   2.568   6.364   0.220
10394SOL    HW232082   2.585   6.522   0.258
10395SOL     OW32083   0.170   0.651   4.719
10395SOL    HW132084   0.212   0.637   4.808
10395SOL    HW232085   0.207   0.585   4.653
10396SOL     OW32086   0.938   0.487   4.565
10396SOL    HW132087   0.898   0.497   4.474
10396SOL    HW232088   1.033   0.456   4.557
10397SOL     OW32089   3.702   0.803   3.798
10397SOL    HW132090   3.667   0.709   3.790
10397SOL    HW232091   3.800   0.803   3.780
10398SOL     OW32092   6.114   2.728   1.616
10398SOL    HW132093   6.131   2.633   1.641
10398SOL    HW232094   6.032   2.761   1.663
10399SOL     OW32095   5.237   2.359   4.917
10399SOL    HW132096   5.210   2.453   4.936
10399SOL    HW232097   5.241   2.344   4.819
10400SOL     OW32098   2.661   5.495   2.551
10400SOL    HW132099   2.755   5.473   2.523
10400SOL    HW232100   2.620   5.416   2.597
10401SOL     OW32101   0.578   5.843   1.908
10401SOL    HW132102   0.507   5.913   1.911
10401SOL    HW232103   0.566   5.780   1.984
10402SOL     OW32104   1.078   3.578   4.681
10402SOL    HW132105   0.996   3.625   4.651
10402SOL    HW232106   1.148   3.584   4.610
10403SOL     OW32107   5.670   1.324   1.427
10403SOL    HW132108   5.669   1.423   1.419
10403SOL    HW232109   5.739   1.286   1.365
10404SOL     OW32110   0.568   6.930   4.157
10404SOL    HW132111   0.577   6.943   4.256
10404SOL    HW232112   0.476   6.955   4.128
10405SOL     OW32113   1.601   6.231   5.823
10405SOL    HW132114   1.525   6.296   5.827
10405SOL    HW232115   1.609   6.183   5.911
10406SOL     OW32116   2.480   3.925   6.070
10406SOL    HW132117   2.458   4.017   6.102
10406SOL    HW232118   2.517   3.930   5.977
10407SOL     OW32119   1.044   2.361   6.412
10407SOL    HW132120   1.039   2.416   6.329
10407SOL    HW232121   1.140   2.344   6.436
10408SOL     OW32122   4.379   4.902   3.369
10408SOL    HW132123   4.430   4.983   3.339
10408SOL    HW232124   4.428   4.819   3.342
10409SOL     OW32125   0.445   4.261   2.346
10409SOL    HW132126   0.450   4.321   2.266
10409SOL    HW232127   0.461   4.166   2.318
10410SOL     OW32128   4.722   0.601   1.485
10410SOL    HW132129   4.804   0.652   1.513
10410SOL    HW232130   4.709   0.613   1.386
10411SOL     OW32131   2.480   4.803   2.869
10411SOL    HW132132   2.460   4.827   2.964
10411SOL    HW232133   2.414   4.734   2.838
10412SOL     OW32134   1.289   2.005   0.309
10412SOL    HW132135   1.375   2.054   0.290
10412SOL    HW232136   1.293   1.914   0.268
10413SOL     OW32137   6.838   2.493   0.019
10413SOL    HW132138   6.844   2.425   0.092
10413SOL    HW232139   6.793   2.576   0.054
10414SOL     OW32140   5.590   6.089   6.641
10414SOL    HW132141   5.615   6.128   6.553
10414SOL    HW232142   5.659   6.113   6.710
10415SOL     OW32143   0.235   5.863   4.187
10415SOL    HW132144   0.313   5.840   4.128
10415SOL    HW232145   0.266   5.874   4.281
10416SOL     OW32146   5.477   1.817   4.955
10416SOL    HW132147   5.524   1.819   4.867
10416SOL    HW232148   5.525   1.876   5.020
10417SOL     OW32149   3.993   4.826   3.728
10417SOL    HW132150   4.085   4.799   3.699
10417SOL    HW232151   3.998   4.905   3.788
10418SOL     OW32152   6.853   4.318   6.804
10418SOL    HW132153   6.871   4.250   6.875
10418SOL    HW232154   6.757   4.346   6.809
10419SOL     OW32155   3.036   1.220   4.653
10419SOL    HW132156   2.945   1.243   4.617
10419SOL    HW232157   3.038   1.123   4.677
10420SOL     OW32158   6.959   3.555   3.418
10420SOL    HW132159   6.875   3.569   3.365
10420SOL    HW232160   7.009   3.641   3.424
10421SOL     OW32161   1.174   4.611   4.330
10421SOL    HW132162   1.106   4.561   4.384
10421SOL    HW232163   1.230   4.667   4.391
10422SOL     OW32164   6.528   3.674   4.860
10422SOL    HW132165   6.606   3.716   4.814
10422SOL    HW232166   6.487   3.741   4.922
10423SOL     OW32167   3.338   5.018   3.973
10423SOL    HW132168   3.287   5.097   3.938
10423SOL    HW232169   3.425   5.010   3.925
10424SOL     OW32170   3.415   0.958   0.281
10424SOL    HW132171   3.352   0.949   0.358
10424SOL    HW232172   3.509   0.943   0.312
10425SOL     OW32173   1.792   1.296   0.704
10425SOL    HW132174   1.718   1.252   0.653
10425SOL    HW232175   1.754   1.374   0.756
10426SOL     OW32176   6.189   2.092   6.174
10426SOL    HW132177   6.249   2.081   6.254
10426SOL    HW232178   6.124   2.166   6.192
10427SOL     OW32179   5.535   6.953   4.375
10427SOL    HW132180   5.443   6.984   4.352
10427SOL    HW232181   5.537   6.921   4.469
10428SOL     OW32182   2.125   0.782   4.101
10428SOL    HW132183   2.141   0.840   4.021
10428SOL    HW232184   2.062   0.829   4.163
10429SOL     OW32185   0.940   3.191   2.481
10429SOL    HW132186   0.937   3.218   2.577
10429SOL    HW232187   0.855   3.144   2.456
10430SOL     OW32188   2.628   0.367   3.616
10430SOL    HW132189   2.640   0.390   3.520
10430SOL    HW232190   2.635   0.450   3.672
10431SOL     OW32191   2.912   0.864   3.388
10431SOL    HW132192   2.858   0.903   3.314
10431SOL    HW232193   3.008   0.860   3.361
10432SOL     OW32194   0.921   5.333   5.587
10432SOL    HW132195   0.916   5.235   5.566
10432SOL    HW232196   0.966   5.345   5.676
10433SOL     OW32197   1.927   0.006   2.734
10433SOL    HW132198   1.861   6.950   2.741
10433SOL    HW232199   2.000   7.000   2.670
10434SOL     OW32200   4.350   6.615   5.394
10434SOL    HW132201   4.289   6.536   5.383
10434SOL    HW232202   4.422   6.593   5.460
10435SOL     OW32203   2.415   2.001   6.920
10435SOL    HW132204   2.325   1.967   6.945
10435SOL    HW232205   2.474   2.003   7.001
10436SOL     OW32206   6.389   4.102   4.797
10436SOL    HW132207   6.397   4.012   4.754
10436SOL    HW232208   6.337   4.093   4.883
10437SOL     OW32209   5.190   6.071   5.082
10437SOL    HW132210   5.267   6.008   5.088
10437SOL    HW232211   5.170   6.107   5.173
10438SOL     OW32212   6.997   6.253   6.748
10438SOL    HW132213   6.991   6.296   6.657
10438SOL    HW232214   6.945   6.309   6.814
10439SOL     OW32215   6.388   6.863   5.010
10439SOL    HW132216   6.326   6.817   4.946
10439SOL    HW232217   6.422   6.796   5.077
10440SOL     OW32218   0.066   2.190   6.927
10440SOL    HW132219   0.064   2.097   6.964
10440SOL    HW232220   7.009   2.203   6.864
10441SOL     OW32221   3.616   2.298   0.874
10441SOL    HW132222   3.527   2.338   0.893
10441SOL    HW232223   3.614   2.201   0.897
10442SOL     OW32224   2.168   1.752   6.043
10442SOL    HW132225   2.197   1.702   6.125
10442SOL    HW232226   2.153   1.848   6.067
10443SOL     OW32227   7.004   1.912   3.393
10443SOL    HW132228   0.063   1.852   3.377
10443SOL    HW232229   6.927   1.858   3.427
10444SOL     OW32230   3.915   5.674   4.000
10444SOL    HW132231   3.855   5.613   4.053
10444SOL    HW232232   3.931   5.758   4.052
10445SOL     OW32233   1.521   4.150   2.854
10445SOL    HW132234   1.601   4.183   2.905
10445SOL    HW232235   1.540   4.058   2.820
10446SOL     OW32236   1.634   4.208   6.179
10446SOL    HW132237   1.715   4.175   6.130
10446SOL    HW232238   1.652   4.299   6.217
10447SOL     OW32239   0.262   2.267   2.555
10447SOL    HW132240   0.185   2.228   2.605
10447SOL    HW232241   0.348   2.236   2.595
10448SOL     OW32242   2.385   5.918   2.803
10448SOL    HW132243   2.453   5.983   2.837
10448SOL    HW232244   2.431   5.848   2.748
10449SOL     OW32245   4.048   5.304   5.383
10449SOL    HW132246   4.139   5.264   5.374
10449SOL    HW232247   4.025   5.312   5.480
10450SOL     OW32248   0.100   0.898   5.991
10450SOL    HW132249   0.069   0.991   6.013
10450SOL    HW232250   0.037   0.831   6.029
10451SOL     OW32251   2.467   0.870   3.171
10451SOL    HW132252   2.443   0.819   3.089
10451SOL    HW232253   2.393   0.933   3.195
10452SOL     OW32254   0.166   3.640   4.233
10452SOL    HW132255   0.104   3.598   4.299
10452SOL    HW232256   0.255   3.655   4.276
10453SOL     OW32257   3.872   5.595   3.401
10453SOL    HW132258   3.928   5.665   3.357
10453SOL    HW232259   3.913   5.505   3.386
10454SOL     OW32260   6.793   0.127   5.910
10454SOL    HW132261   6.739   0.206   5.939
10454SOL    HW232262   6.852   0.153   5.834
10455SOL     OW32263   6.070   6.422   3.654
10455SOL    HW132264   5.992   6.406   3.715
10455SOL    HW232265   6.097   6.337   3.610
10456SOL     OW32266   0.991   5.475   6.982
10456SOL    HW132267   0.949   5.551   0.014
10456SOL    HW232268   0.928   5.444   6.911
10457SOL     OW32269   3.739   2.649   6.966
10457SOL    HW132270   3.732   2.639   6.867
10457SOL    HW232271   3.647   2.660   7.004
10458SOL     OW32272   6.954   5.933   6.167
10458SOL    HW132273   6.996   6.012   6.210
10458SOL    HW232274   0.007   5.872   6.131
10459SOL     OW32275   0.137   5.233   0.174
10459SOL    HW132276   0.068   5.187   0.231
10459SOL    HW232277   0.215   5.172   0.162
10460SOL     OW32278   0.667   2.391   0.735
10460SOL    HW132279   0.650   2.483   0.700
10460SOL    HW232280   0.707   2.334   0.663
10461SOL     OW32281   6.878   5.045   5.402
10461SOL    HW132282   6.879   5.108   5.480
10461SOL    HW232283   6.951   4.977   5.414
10462SOL     OW32284   4.251   1.975   0.738
10462SOL    HW132285   4.171   1.986   0.680
10462SOL    HW232286   4.333   2.004   0.688
10463SOL     OW32287   4.827   2.468   6.301
10463SOL    HW132288   4.795   2.428   6.387
10463SOL    HW232289   4.824   2.399   6.229
10464SOL     OW32290   6.681   4.904   2.814
10464SOL    HW132291   6.730   4.912   2.901
10464SOL    HW232292   6.689   4.990   2.763
10465SOL     OW32293   5.057   4.582   2.094
10465SOL    HW132294   5.129   4.559   2.029
10465SOL    HW232295   5.017   4.498   2.132
10466SOL     OW32296   6.007   4.795   6.562
10466SOL    HW132297   6.013   4.758   6.469
10466SOL    HW232298   5.990   4.893   6.557
10467SOL     OW32299   2.072   2.631   0.028
10467SOL    HW132300   2.170   2.609   0.019
10467SOL    HW232301   2.035   2.651   6.957
10468SOL     OW32302   2.937   5.169   3.566
10468SOL    HW132303   3.034   5.148   3.585
10468SOL    HW232304   2.885   5.083   3.564
10469SOL     OW32305   6.339   1.555   4.727
10469SOL    HW132306   6.311   1.489   4.797
10469SOL    HW232307   6.385   1.633   4.770
10470SOL     OW32308   2.358   2.590   3.893
10470SOL    HW132309   2.275   2.614   3.943
10470SOL    HW232310   2.353   2.627   3.801
10471SOL     OW32311   3.322   0.006   0.265
10471SOL    HW132312   3.264   6.966   0.210
10471SOL    HW232313   3.275   0.029   0.350
10472SOL     OW32314   2.956   4.951   0.006
10472SOL    HW132315   3.015   4.870   0.007
10472SOL    HW232316   2.947   4.985   6.931
10473SOL     OW32317   5.201   5.117   6.921
10473SOL    HW132318   5.211   5.216   6.912
10473SOL    HW232319   5.158   5.094   7.008
10474SOL     OW32320   5.071   0.949   3.422
10474SOL    HW132321   5.095   1.044   3.405
10474SOL    HW232322   5.039   0.939   3.517
10475SOL     OW32323   1.009   0.031   1.036
10475SOL    HW132324   1.094   7.003   1.013
10475SOL    HW232325   0.948   6.987   1.085
10476SOL     OW32326   3.561   6.227   0.039
10476SOL    HW132327   3.504   6.201   0.116
10476SOL    HW232328   3.602   6.145   7.017
10477SOL     OW32329   6.298   5.816   3.226
10477SOL    HW132330   6.220   5.873   3.202
10477SOL    HW232331   6.266   5.732   3.270
10478SOL     OW32332   5.851   0.548   0.048
10478SOL    HW132333   5.797   0.466   0.069
10478SOL    HW232334   5.851   0.563   6.968
10479SOL     OW32335   0.646   2.393   2.131
10479SOL    HW132336   0.626   2.456   2.057
10479SOL    HW232337   0.656   2.300   2.095
10480SOL     OW32338   1.757   0.146   2.452
10480SOL    HW132339   1.774   0.168   2.356
10480SOL    HW232340   1.807   0.210   2.510
10481SOL     OW32341   0.047   0.867   2.605
10481SOL    HW132342   6.996   0.938   2.615
10481SOL    HW232343   0.081   0.842   2.696
10482SOL     OW32344   5.379   4.033   3.965
10482SOL    HW132345   5.451   4.049   4.033
10482SOL    HW232346   5.398   3.948   3.917
10483SOL     OW32347   6.294   5.741   0.480
10483SOL    HW132348   6.225   5.746   0.552
10483SOL    HW232349   6.251   5.721   0.392
10484SOL     OW32350   6.384   1.162   1.832
10484SOL    HW132351   6.401   1.064   1.821
10484SOL    HW232352   6.299   1.187   1.784
10485SOL     OW32353   5.447   3.322   5.773
10485SOL    HW132354   5.427   3.292   5.867
10485SOL    HW232355   5.375   3.292   5.712
10486SOL     OW32356   5.853   2.806   1.735
10486SOL    HW132357   5.832   2.836   1.642
10486SOL    HW232358   5.772   2.814   1.792
10487SOL     OW32359   6.073   6.849   1.559
10487SOL    HW132360   5.977   6.837   1.534
10487SOL    HW232361   6.079   6.881   1.654
10488SOL     OW32362   2.596   2.363   6.020
10488SOL    HW132363   2.571   2.437   5.957
10488SOL    HW232364   2.655   2.399   6.092
10489SOL     OW32365   0.195   5.824   6.121
10489SOL    HW132366   0.231   5.917   6.131
10489SOL    HW232367   0.209   5.773   6.206
10490SOL     OW32368   6.794   1.141   3.562
10490SOL    HW132369   6.708   1.090   3.563
10490SOL    HW232370   6.824   1.158   3.656
10491SOL     OW32371   1.821   4.722   6.053
10491SOL    HW132372   1.722   4.712   6.053
10491SOL    HW232373   1.862   4.654   5.992
10492SOL     OW32374   4.923   3.375   5.150
10492SOL    HW132375   4.866   3.293   5.147
10492SOL    HW232376   4.870   3.454   5.118
10493SOL     OW32377   3.654   1.018   1.483
10493SOL    HW132378   3.748   0.987   1.472
10493SOL    HW232379   3.617   0.983   1.569
10494SOL     OW32380   5.693   1.644   4.583
10494SOL    HW132381   5.731   1.650   4.676
10494SOL    HW232382   5.759   1.682   4.518
10495SOL     OW32383   1.345   6.701   0.688
10495SOL    HW132384   1.444   6.712   0.701
10495SOL    HW232385   1.326   6.688   0.590
10496SOL     OW32386   0.104   6.822   6.396
10496SOL    HW132387   0.131   6.743   6.452
10496SOL    HW232388   0.162   6.900   6.419
10497SOL     OW32389   1.283   0.635   1.003
10497SOL    HW132390   1.330   0.701   1.062
10497SOL    HW232391   1.292   0.663   0.908
10498SOL     OW32392   1.835   6.460   6.050
10498SOL    HW132393   1.892   6.497   6.123
10498SOL    HW232394   1.739   6.461   6.079
10499SOL     OW32395   3.275   5.847   3.361
10499SOL    HW132396   3.242   5.756   3.384
10499SOL    HW232397   3.202   5.914   3.375
10500SOL     OW32398   1.304   2.106   5.877
10500SOL    HW132399   1.381   2.042   5.880
10500SOL    HW232400   1.220   2.058   5.901
10501SOL     OW32401   1.784   3.837   2.664
10501SOL    HW132402   1.826   3.877   2.745
10501SOL    HW232403   1.800   3.897   2.585
10502SOL     OW32404   3.413   6.315   6.840
10502SOL    HW132405   3.372   6.241   6.786
10502SOL    HW232406   3.465   6.275   6.915
10503SOL     OW32407   3.312   2.880   0.033
10503SOL    HW132408   3.241   2.839   0.090
10503SOL    HW232409   3.271   2.949   6.992
10504SOL     OW32410   3.163   3.102   1.039
10504SOL    HW132411   3.209   3.136   1.121
10504SOL    HW232412   3.092   3.167   1.011
10505SOL     OW32413   6.428   5.868   1.471
10505SOL    HW132414   6.442   5.896   1.376
10505SOL    HW232415   6.510   5.820   1.504
10506SOL     OW32416   0.692   3.783   6.074
10506SOL    HW132417   0.665   3.834   6.156
10506SOL    HW232418   0.773   3.728   6.094
10507SOL     OW32419   1.073   0.590   6.180
10507SOL    HW132420   0.999   0.651   6.209
10507SOL    HW232421   1.034   0.513   6.129
10508SOL     OW32422   5.494   4.392   3.482
10508SOL    HW132423   5.589   4.395   3.516
10508SOL    HW232424   5.487   4.325   3.409
10509SOL     OW32425   1.260   6.640   6.478
10509SOL    HW132426   1.306   6.666   6.393
10509SOL    HW232427   1.250   6.720   6.537
10510SOL     OW32428   6.327   5.534   0.011
10510SOL    HW132429   6.373   5.622   7.018
10510SOL    HW232430   6.228   5.548   0.015
10511SOL     OW32431   4.455   2.685   0.154
10511SOL    HW132432   4.408   2.711   0.239
10511SOL    HW232433   4.388   2.650   0.088
10512SOL     OW32434   4.214   0.195   5.849
10512SOL    HW132435   4.139   0.149   5.896
10512SOL    HW232436   4.190   0.291   5.834
10513SOL     OW32437   0.482   2.302   6.051
10513SOL    HW132438   0.573   2.273   6.080
10513SOL    HW232439   0.446   2.369   6.116
10514SOL     OW32440   6.950   4.397   0.142
10514SOL    HW132441   6.853   4.422   0.147
10514SOL    HW232442   6.984   4.374   0.234
10515SOL     OW32443   6.510   1.952   3.618
10515SOL    HW132444   6.528   1.886   3.545
10515SOL    HW232445   6.490   2.041   3.577
10516SOL     OW32446   4.394   0.818   5.900
10516SOL    HW132447   4.317   0.880   5.916
10516SOL    HW232448   4.401   0.754   5.976
10517SOL     OW32449   6.313   1.743   2.384
10517SOL    HW132450   6.334   1.677   2.456
10517SOL    HW232451   6.225   1.720   2.342
10518SOL     OW32452   1.224   6.144   0.878
10518SOL    HW132453   1.250   6.193   0.961
10518SOL    HW232454   1.299   6.085   0.849
10519SOL     OW32455   3.041   3.383   6.335
10519SOL    HW132456   3.056   3.367   6.237
10519SOL    HW232457   2.978   3.458   6.348
10520SOL     OW32458   3.465   2.647   0.073
10520SOL    HW132459   3.439   2.741   0.052
10520SOL    HW232460   3.415   2.584   0.012
10521SOL     OW32461   6.641   5.867   1.243
10521SOL    HW132462   6.678   5.780   1.210
10521SOL    HW232463   6.621   5.926   1.164
10522SOL     OW32464   6.767   0.439   0.731
10522SOL    HW132465   6.784   0.401   0.822
10522SOL    HW232466   6.851   0.435   0.677
10523SOL     OW32467   0.170   5.575   6.014
10523SOL    HW132468   0.201   5.667   6.036
10523SOL    HW232469   0.073   5.577   5.991
10524SOL     OW32470   1.989   0.319   4.396
10524SOL    HW132471   1.892   0.311   4.374
10524SOL    HW232472   2.033   0.378   4.328
10525SOL     OW32473   1.940   6.658   5.158
10525SOL    HW132474   1.852   6.615   5.138
10525SOL    HW232475   1.929   6.757   5.162
10526SOL     OW32476   0.084   1.010   2.154
10526SOL    HW132477   0.071   0.988   2.057
10526SOL    HW232478   0.105   1.108   2.163
10527SOL     OW32479   0.659   2.786   4.509
10527SOL    HW132480   0.746   2.762   4.551
10527SOL    HW232481   0.602   2.704   4.503
10528SOL     OW32482   6.947   5.243   4.986
10528SOL    HW132483   7.013   5.169   4.999
10528SOL    HW232484   6.904   5.265   5.073
10529SOL     OW32485   6.635   6.993   3.467
10529SOL    HW132486   6.598   6.901   3.481
10529SOL    HW232487   6.602   0.010   3.380
10530SOL     OW32488   2.770   2.162   5.594
10530SOL    HW132489   2.714   2.092   5.640
10530SOL    HW232490   2.836   2.200   5.659
10531SOL     OW32491   1.386   3.248   4.453
10531SOL    HW132492   1.341   3.308   4.520
10531SOL    HW232493   1.464   3.295   4.413
10532SOL     OW32494   4.122   2.536   6.236
10532SOL    HW132495   4.132   2.623   6.285
10532SOL    HW232496   4.030   2.499   6.254
10533SOL     OW32497   2.710   1.038   5.636
10533SOL    HW132498   2.653   1.060   5.557
10533SOL    HW232499   2.660   1.060   5.720
10534SOL     OW32500   0.242   5.577   0.642
10534SOL    HW132501   0.214   5.672   0.653
10534SOL    HW232502   0.166   5.517   0.668
10535SOL     OW32503   0.668   1.456   2.370
10535SOL    HW132504   0.615   1.505   2.439
10535SOL    HW232505   0.726   1.521   2.320
10536SOL     OW32506   4.641   0.770   2.757
10536SOL    HW132507   4.679   0.825   2.832
10536SOL    HW232508   4.691   0.791   2.672
10537SOL     OW32509   2.518   5.192   2.264
10537SOL    HW132510   2.578   5.266   2.233
10537SOL    HW232511   2.450   5.229   2.328
10538SOL     OW32512   4.320   4.145   0.281
10538SOL    HW132513   4.360   4.198   0.355
10538SOL    HW232514   4.384   4.137   0.205
10539SOL     OW32515   0.552   3.247   6.311
10539SOL    HW132516   0.552   3.215   6.216
10539SOL    HW232517   0.602   3.182   6.368
10540SOL     OW32518   1.921   0.458   6.075
10540SOL    HW132519   1.852   0.469   6.004
10540SOL    HW232520   1.899   0.515   6.154
10541SOL     OW32521   4.075   3.405   0.272
10541SOL    HW132522   4.114   3.477   0.214
10541SOL    HW232523   4.107   3.418   0.366
10542SOL     OW32524   0.001   2.609   0.523
10542SOL    HW132525   6.939   2.665   0.540
10542SOL    HW232526   0.039   2.631   0.433
10543SOL     OW32527   0.487   1.609   5.798
10543SOL    HW132528   0.569   1.665   5.803
10543SOL    HW232529   0.408   1.666   5.774
10544SOL     OW32530   2.336   2.132   2.509
10544SOL    HW132531   2.299   2.143   2.602
10544SOL    HW232532   2.398   2.207   2.489
10545SOL     OW32533   6.977   0.320   2.410
10545SOL    HW132534   6.937   0.367   2.488
10545SOL    HW232535   6.908   0.306   2.339
10546SOL     OW32536   2.614   0.072   4.385
10546SOL    HW132537   2.618   0.041   4.290
10546SOL    HW232538   2.613   7.012   4.446
10547SOL     OW32539   4.365   1.522   1.315
10547SOL    HW132540   4.265   1.520   1.313
10547SOL    HW232541   4.400   1.520   1.221
10548SOL     OW32542   5.191   4.057   4.586
10548SOL    HW132543   5.284   4.084   4.611
10548SOL    HW232544   5.146   4.015   4.665
10549SOL     OW32545   1.377   0.458   2.197
10549SOL    HW132546   1.445   0.497   2.134
10549SOL    HW232547   1.364   0.361   2.175
10550SOL     OW32548   5.518   0.553   3.932
10550SOL    HW132549   5.490   0.558   3.836
10550SOL    HW232550   5.476   0.474   3.975
10551SOL     OW32551   1.296   2.230   5.315
10551SOL    HW132552   1.249   2.289   5.381
10551SOL    HW232553   1.248   2.233   5.227
10552SOL     OW32554   3.268   2.574   5.759
10552SOL    HW132555   3.209   2.525   5.695
10552SOL    HW232556   3.343   2.616   5.709
10553SOL     OW32557   0.768   5.899   7.002
10553SOL    HW132558   0.861   5.884   0.017
10553SOL    HW232559   0.738   5.819   6.950
10554SOL     OW32560   6.631   4.898   6.912
10554SOL    HW132561   6.659   4.802   6.916
10554SOL    HW232562   6.643   4.932   6.819
10555SOL     OW32563   3.325   1.461   2.582
10555SOL    HW132564   3.248   1.523   2.569
10555SOL    HW232565   3.388   1.470   2.505
10556SOL     OW32566   1.954   3.335   5.189
10556SOL    HW132567   2.041   3.349   5.142
10556SOL    HW232568   1.945   3.240   5.217
10557SOL     OW32569   6.784   2.634   3.313
10557SOL    HW132570   6.790   2.538   3.284
10557SOL    HW232571   6.855   2.653   3.380
10558SOL     OW32572   4.790   6.514   5.380
10558SOL    HW132573   4.700   6.496   5.339
10558SOL    HW232574   4.786   6.494   5.478
10559SOL     OW32575   4.871   1.923   0.936
10559SOL    HW132576   4.886   2.013   0.896
10559SOL    HW232577   4.863   1.931   1.035
10560SOL     OW32578   1.412   4.073   4.854
10560SOL    HW132579   1.428   4.105   4.760
10560SOL    HW232580   1.476   3.999   4.875
10561SOL     OW32581   1.918   4.823   6.795
10561SOL    HW132582   1.879   4.865   6.713
10561SOL    HW232583   1.921   4.724   6.783
10562SOL     OW32584   4.437   1.144   0.709
10562SOL    HW132585   4.409   1.176   0.619
10562SOL    HW232586   4.498   1.212   0.751
10563SOL     OW32587   1.923   2.109   5.318
10563SOL    HW132588   1.943   2.063   5.405
10563SOL    HW232589   2.008   2.148   5.282
10564SOL     OW32590   5.514   1.123   1.572
10564SOL    HW132591   5.521   1.028   1.542
10564SOL    HW232592   5.570   1.181   1.512
10565SOL     OW32593   6.201   0.930   5.499
10565SOL    HW132594   6.197   0.983   5.414
10565SOL    HW232595   6.294   0.896   5.512
10566SOL     OW32596   3.538   4.078   6.149
10566SOL    HW132597   3.529   3.980   6.132
10566SOL    HW232598   3.500   4.130   6.072
10567SOL     OW32599   1.945   3.711   4.116
10567SOL    HW132600   2.034   3.755   4.104
10567SOL    HW232601   1.958   3.615   4.142
10568SOL     OW32602   5.433   1.136   2.295
10568SOL    HW132603   5.461   1.137   2.391
10568SOL    HW232604   5.472   1.055   2.250
10569SOL     OW32605   6.119   2.984   3.206
10569SOL    HW132606   6.158   2.894   3.186
10569SOL    HW232607   6.023   2.985   3.180
10570SOL     OW32608   2.081   4.643   2.319
10570SOL    HW132609   2.106   4.546   2.329
10570SOL    HW232610   2.138   4.698   2.379
10571SOL     OW32611   6.415   5.683   2.668
10571SOL    HW132612   6.365   5.717   2.589
10571SOL    HW232613   6.443   5.588   2.652
10572SOL     OW32614   5.778   3.744   2.381
10572SOL    HW132615   5.848   3.800   2.336
10572SOL    HW232616   5.693   3.749   2.329
10573SOL     OW32617   6.331   5.546   3.942
10573SOL    HW132618   6.322   5.640   3.975
10573SOL    HW232619   6.428   5.527   3.922
10574SOL     OW32620   0.796   2.035   3.559
10574SOL    HW132621   0.701   2.004   3.558
10574SOL    HW232622   0.855   1.964   3.519
10575SOL     OW32623   1.019   0.978   5.132
10575SOL    HW132624   1.022   1.039   5.053
10575SOL    HW232625   0.973   1.025   5.208
10576SOL     OW32626   1.733   5.702   4.704
10576SOL    HW132627   1.743   5.616   4.755
10576SOL    HW232628   1.672   5.763   4.754
10577SOL     OW32629   1.932   3.057   5.910
10577SOL    HW132630   1.840   3.019   5.904
10577SOL    HW232631   1.970   3.040   6.001
10578SOL     OW32632   5.665   6.943   5.416
10578SOL    HW132633   5.723   6.916   5.339
10578SOL    HW232634   5.674   6.875   5.489
10579SOL     OW32635   4.599   1.778   0.654
10579SOL    HW132636   4.577   1.682   0.636
10579SOL    HW232637   4.545   1.811   0.731
10580SOL     OW32638   0.081   6.498   6.634
10580SOL    HW132639   0.038   6.465   6.550
10580SOL    HW232640   0.060   6.595   6.646
10581SOL     OW32641   5.483   0.740   3.692
10581SOL    HW132642   5.386   0.721   3.676
10581SOL    HW232643   5.538   0.663   3.661
10582SOL     OW32644   3.739   5.399   6.664
10582SOL    HW132645   3.768   5.328   6.728
10582SOL    HW232646   3.819   5.450   6.632
10583SOL     OW32647   3.680   0.914   0.336
10583SOL    HW132648   3.731   0.874   0.412
10583SOL    HW232649   3.696   0.859   0.253
10584SOL     OW32650   5.343   6.444   1.563
10584SOL    HW132651   5.373   6.366   1.509
10584SOL    HW232652   5.244   6.445   1.570
10585SOL     OW32653   0.830   2.841   6.311
10585SOL    HW132654   0.906   2.778   6.294
10585SOL    HW232655   0.842   2.925   6.258
10586SOL     OW32656   2.834   6.031   5.786
10586SOL    HW132657   2.920   6.052   5.832
10586SOL    HW232658   2.795   5.947   5.823
10587SOL     OW32659   6.255   3.679   0.655
10587SOL    HW132660   6.277   3.598   0.600
10587SOL    HW232661   6.209   3.651   0.739
10588SOL     OW32662   1.087   4.965   2.662
10588SOL    HW132663   1.066   4.951   2.759
10588SOL    HW232664   1.134   5.053   2.651
10589SOL     OW32665   5.568   2.590   4.459
10589SOL    HW132666   5.528   2.521   4.398
10589SOL    HW232667   5.668   2.587   4.451
10590SOL     OW32668   1.198   0.367   3.514
10590SOL    HW132669   1.142   0.296   3.556
10590SOL    HW232670   1.280   0.381   3.569
10591SOL     OW32671   1.216   1.685   6.391
10591SOL    HW132672   1.268   1.754   6.439
10591SOL    HW232673   1.278   1.617   6.351
10592SOL     OW32674   6.603   1.343   0.289
10592SOL    HW132675   6.533   1.279   0.320
10592SOL    HW232676   6.567   1.436   0.291
10593SOL     OW32677   1.857   5.564   1.467
10593SOL    HW132678   1.901   5.651   1.489
10593SOL    HW232679   1.902   5.490   1.516
10594SOL     OW32680   6.063   1.643   4.189
10594SOL    HW132681   6.105   1.605   4.107
10594SOL    HW232682   6.134   1.668   4.254
10595SOL     OW32683   3.907   6.740   6.382
10595SOL    HW132684   3.928   6.735   6.480
10595SOL    HW232685   3.992   6.746   6.330
10596SOL     OW32686   3.945   6.763   2.433
10596SOL    HW132687   3.883   6.777   2.355
10596SOL    HW232688   3.991   6.675   2.422
10597SOL     OW32689   2.117   0.823   5.111
10597SOL    HW132690   2.155   0.740   5.070
10597SOL    HW232691   2.029   0.802   5.153
10598SOL     OW32692   2.144   2.237   6.990
10598SOL    HW132693   2.140   2.146   0.012
10598SOL    HW232694   2.220   2.241   6.925
10599SOL     OW32695   6.095   0.635   0.132
10599SOL    HW132696   6.079   0.648   0.230
10599SOL    HW232697   6.034   0.564   0.098
10600SOL     OW32698   2.605   2.794   5.811
10600SOL    HW132699   2.605   2.817   5.713
10600SOL    HW232700   2.568   2.702   5.823
10601SOL     OW32701   2.775   6.436   6.361
10601SOL    HW132702   2.757   6.490   6.278
10601SOL    HW232703   2.690   6.397   6.395
10602SOL     OW32704   4.824   1.736   1.376
10602SOL    HW132705   4.894   1.666   1.360
10602SOL    HW232706   4.740   1.694   1.410
10603SOL     OW32707   1.897   5.243   3.852
10603SOL    HW132708   1.933   5.302   3.925
10603SOL    HW232709   1.959   5.166   3.838
10604SOL     OW32710   6.496   4.410   4.108
10604SOL    HW132711   6.512   4.375   4.201
10604SOL    HW232712   6.556   4.488   4.091
10605SOL     OW32713   0.912   5.100   6.873
10605SOL    HW132714   0.887   5.191   6.841
10605SOL    HW232715   1.004   5.102   6.913
10606SOL     OW32716   0.195   0.573   1.502
10606SOL    HW132717   0.125   0.569   1.430
10606SOL    HW232718   0.264   0.503   1.485
10607SOL     OW32719   4.903   4.455   6.489
10607SOL    HW132720   4.949   4.393   6.425
10607SOL    HW232721   4.958   4.538   6.499
10608SOL     OW32722   5.591   1.510   4.353
10608SOL    HW132723   5.620   1.547   4.441
10608SOL    HW232724   5.491   1.508   4.349
10609SOL     OW32725   4.302   6.320   0.558
10609SOL    HW132726   4.317   6.409   0.516
10609SOL    HW232727   4.389   6.283   0.590
10610SOL     OW32728   1.477   3.258   5.903
10610SOL    HW132729   1.415   3.320   5.854
10610SOL    HW232730   1.571   3.275   5.874
10611SOL     OW32731   5.589   2.630   6.127
10611SOL    HW132732   5.629   2.554   6.178
10611SOL    HW232733   5.648   2.652   6.049
10612SOL     OW32734   2.564   6.938   6.773
10612SOL    HW132735   2.553   0.018   6.773
10612SOL    HW232736   2.650   6.914   6.729
10613SOL     OW32737   0.413   6.824   5.931
10613SOL    HW132738   0.474   6.899   5.908
10613SOL    HW232739   0.355   6.850   6.009
10614SOL     OW32740   6.356   1.215   4.434
10614SOL    HW132741   6.435   1.158   4.413
10614SOL    HW232742   6.288   1.161   4.484
10615SOL     OW32743   5.158   5.320   4.921
10615SOL    HW132744   5.167   5.268   4.837
10615SOL    HW232745   5.221   5.284   4.990
10616SOL     OW32746   3.265   6.401   0.244
10616SOL    HW132747   3.168   6.417   0.263
10616SOL    HW232748   3.282   6.303   0.239
10617SOL     OW32749   2.340   2.455   0.941
10617SOL    HW132750   2.313   2.364   0.972
10617SOL    HW232751   2.278   2.523   0.982
10618SOL     OW32752   6.120   3.199   0.123
10618SOL    HW132753   6.089   3.108   0.149
10618SOL    HW232754   6.048   3.265   0.145
10619SOL     OW32755   0.920   4.280   3.743
10619SOL    HW132756   0.856   4.211   3.776
10619SOL    HW232757   0.996   4.235   3.695
10620SOL     OW32758   1.541   6.214   4.523
10620SOL    HW132759   1.615   6.190   4.460
10620SOL    HW232760   1.569   6.193   4.616
10621SOL     OW32761   1.784   6.155   6.821
10621SOL    HW132762   1.874   6.140   6.780
10621SOL    HW232763   1.783   6.243   6.868
10622SOL     OW32764   3.556   6.991   1.424
10622SOL    HW132765   3.600   6.927   1.360
10622SOL    HW232766   3.568   0.066   1.390
10623SOL     OW32767   6.207   2.552   3.993
10623SOL    HW132768   6.185   2.546   3.895
10623SOL    HW232769   6.285   2.613   4.006
10624SOL     OW32770   1.442   1.033   4.470
10624SOL    HW132771   1.373   1.100   4.497
10624SOL    HW232772   1.520   1.038   4.532
10625SOL     OW32773   0.809   2.968   6.864
10625SOL    HW132774   0.725   2.985   6.812
10625SOL    HW232775   0.836   3.051   6.913
10626SOL     OW32776   0.599   1.580   2.025
10626SOL    HW132777   0.615   1.508   1.957
10626SOL    HW232778   0.654   1.561   2.107
10627SOL     OW32779   6.355   6.190   2.839
10627SOL    HW132780   6.301   6.185   2.756
10627SOL    HW232781   6.372   6.286   2.863
10628SOL     OW32782   6.337   5.443   5.552
10628SOL    HW132783   6.396   5.373   5.592
10628SOL    HW232784   6.387   5.493   5.481
10629SOL     OW32785   2.781   5.378   5.656
10629SOL    HW132786   2.731   5.306   5.608
10629SOL    HW232787   2.720   5.455   5.673
10630SOL     OW32788   6.107   1.828   3.320
10630SOL    HW132789   6.135   1.823   3.224
10630SOL    HW232790   6.033   1.895   3.329
10631SOL     OW32791   0.504   6.792   3.811
10631SOL    HW132792   0.467   6.884   3.821
10631SOL    HW232793   0.497   6.764   3.715
10632SOL     OW32794   6.735   1.982   4.646
10632SOL    HW132795   6.714   2.052   4.578
10632SOL    HW232796   6.683   1.899   4.627
10633SOL     OW32797   2.218   5.667   1.376
10633SOL    HW132798   2.126   5.706   1.384
10633SOL    HW232799   2.274   5.698   1.453
10634SOL     OW32800   3.510   6.059   0.972
10634SOL    HW132801   3.545   6.141   0.927
10634SOL    HW232802   3.469   6.084   1.060
10635SOL     OW32803   2.459   0.608   1.415
10635SOL    HW132804   2.392   0.601   1.489
10635SOL    HW232805   2.413   0.595   1.328
10636SOL     OW32806   0.780   1.861   1.059
10636SOL    HW132807   0.843   1.807   1.003
10636SOL    HW232808   0.823   1.948   1.083
10637SOL     OW32809   3.517   4.124   4.598
10637SOL    HW132810   3.590   4.158   4.657
10637SOL    HW232811   3.439   4.096   4.655
10638SOL     OW32812   6.611   6.584   4.663
10638SOL    HW132813   6.696   6.581   4.716
10638SOL    HW232814   6.631   6.571   4.566
10639SOL     OW32815   1.702   1.059   4.925
10639SOL    HW132816   1.700   0.975   4.979
10639SOL    HW232817   1.619   1.112   4.943
10640SOL     OW32818   5.066   1.398   0.006
10640SOL    HW132819   5.080   1.313   6.973
10640SOL    HW232820   5.139   1.462   7.004
10641SOL     OW32821   5.748   1.596   0.079
10641SOL    HW132822   5.662   1.614   0.127
10641SOL    HW232823   5.810   1.673   0.092
10642SOL     OW32824   0.230   2.258   2.013
10642SOL    HW132825   0.310   2.206   1.984
10642SOL    HW232826   0.217   2.246   2.112
10643SOL     OW32827   2.763   3.488   5.496
10643SOL    HW132828   2.777   3.459   5.401
10643SOL    HW232829   2.739   3.585   5.499
10644SOL     OW32830   4.488   1.575   4.150
10644SOL    HW132831   4.526   1.483   4.144
10644SOL    HW232832   4.458   1.605   4.060
10645SOL     OW32833   2.204   0.229   4.828
10645SOL    HW132834   2.172   0.181   4.746
10645SOL    HW232835   2.128   0.280   4.868
10646SOL     OW32836   1.305   3.015   5.982
10646SOL    HW132837   1.375   3.070   5.936
10646SOL    HW232838   1.215   3.037   5.944
10647SOL     OW32839   6.712   4.984   0.523
10647SOL    HW132840   6.771   5.027   0.592
10647SOL    HW232841   6.717   5.036   0.438
10648SOL     OW32842   4.738   2.795   7.003
10648SOL    HW132843   4.691   2.884   7.006
10648SOL    HW232844   4.697   2.738   6.932
10649SOL     OW32845   6.658   4.793   5.711
10649SOL    HW132846   6.648   4.745   5.624
10649SOL    HW232847   6.754   4.820   5.723
10650SOL     OW32848   2.553   6.260   3.912
10650SOL    HW132849   2.498   6.312   3.977
10650SOL    HW232850   2.565   6.313   3.828
10651SOL     OW32851   4.996   6.685   5.682
10651SOL    HW132852   4.979   6.730   5.594
10651SOL    HW232853   4.970   6.746   5.756
10652SOL     OW32854   3.570   0.535   6.178
10652SOL    HW132855   3.644   0.468   6.174
10652SOL    HW232856   3.482   0.487   6.180
10653SOL     OW32857   5.352   4.248   4.281
10653SOL    HW132858   5.280   4.192   4.323
10653SOL    HW232859   5.312   4.327   4.235
10654SOL     OW32860   3.924   1.056   0.802
10654SOL    HW132861   3.877   1.119   0.864
10654SOL    HW232862   4.023   1.060   0.820
10655SOL     OW32863   2.893   5.971   1.086
10655SOL    HW132864   2.811   6.006   1.040
10655SOL    HW232865   2.931   5.896   1.032
10656SOL     OW32866   6.440   2.386   0.057
10656SOL    HW132867   6.359   2.375   0.115
10656SOL    HW232868   6.516   2.422   0.111
10657SOL     OW32869   5.760   0.690   1.433
10657SOL    HW132870   5.817   0.617   1.396
10657SOL    HW232871   5.756   0.682   1.533
10658SOL     OW32872   0.211   5.168   4.221
10658SOL    HW132873   0.263   5.208   4.145
10658SOL    HW232874   0.115   5.195   4.214
10659SOL     OW32875   6.096   0.409   0.771
10659SOL    HW132876   6.022   0.428   0.706
10659SOL    HW232877   6.184   0.428   0.727
10660SOL     OW32878   4.587   5.146   5.489
10660SOL    HW132879   4.633   5.086   5.553
10660SOL    HW232880   4.614   5.241   5.505
10661SOL     OW32881   0.399   6.685   2.699
10661SOL    HW132882   0.329   6.672   2.769
10661SOL    HW232883   0.359   6.735   2.621
10662SOL     OW32884   6.384   1.192   0.485
10662SOL    HW132885   6.296   1.166   0.526
10662SOL    HW232886   6.449   1.117   0.497
10663SOL     OW32887   6.925   0.221   0.131
10663SOL    HW132888   6.861   0.220   0.054
10663SOL    HW232889   6.875   0.244   0.215
10664SOL     OW32890   2.347   5.396   7.015
10664SOL    HW132891   2.272   5.343   0.034
10664SOL    HW232892   2.421   5.403   0.063
10665SOL     OW32893   6.458   1.601   0.932
10665SOL    HW132894   6.370   1.591   0.979
10665SOL    HW232895   6.501   1.686   0.959
10666SOL     OW32896   2.023   6.558   0.096
10666SOL    HW132897   2.006   6.548   7.017
10666SOL    HW232898   2.122   6.562   0.112
10667SOL     OW32899   3.275   2.126   5.907
10667SOL    HW132900   3.178   2.119   5.932
10667SOL    HW232901   3.283   2.159   5.813
10668SOL     OW32902   1.690   1.605   6.560
10668SOL    HW132903   1.755   1.546   6.512
10668SOL    HW232904   1.705   1.700   6.532
10669SOL     OW32905   1.654   7.001   0.118
10669SOL    HW132906   1.600   0.013   0.039
10669SOL    HW232907   1.679   6.905   0.105
10670SOL     OW32908   6.144   4.592   5.933
10670SOL    HW132909   6.186   4.682   5.940
10670SOL    HW232910   6.195   4.536   5.868
10671SOL     OW32911   2.500   1.679   3.191
10671SOL    HW132912   2.457   1.625   3.263
10671SOL    HW232913   2.560   1.620   3.136
10672SOL     OW32914   6.942   3.090   1.415
10672SOL    HW132915   6.989   3.058   1.498
10672SOL    HW232916   6.942   3.017   1.347
10673SOL     OW32917   2.721   3.105   5.331
10673SOL    HW132918   2.643   3.066   5.282
10673SOL    HW232919   2.690   3.145   5.418
10674SOL     OW32920   3.930   3.421   1.535
10674SOL    HW132921   3.834   3.447   1.527
10674SOL    HW232922   3.985   3.501   1.559
10675SOL     OW32923   0.261   0.095   5.688
10675SOL    HW132924   0.291   0.001   5.674
10675SOL    HW232925   0.316   0.157   5.631
10676SOL     OW32926   6.254   6.844   6.480
10676SOL    HW132927   6.341   6.811   6.517
10676SOL    HW232928   6.266   6.869   6.383
10677SOL     OW32929   0.433   0.517   0.844
10677SOL    HW132930   0.507   0.583   0.855
10677SOL    HW232931   0.365   0.554   0.780
10678SOL     OW32932   2.483   6.011   2.462
10678SOL    HW132933   2.547   5.974   2.395
10678SOL    HW232934   2.424   5.937   2.496
10679SOL     OW32935   5.220   5.228   4.678
10679SOL    HW132936   5.177   5.162   4.617
10679SOL    HW232937   5.237   5.314   4.629
10680SOL     OW32938   1.590   3.177   2.658
10680SOL    HW132939   1.575   3.079   2.646
10680SOL    HW232940   1.585   3.222   2.568
10681SOL     OW32941   6.875   1.857   5.886
10681SOL    HW132942   6.793   1.832   5.939
10681SOL    HW232943   6.947   1.791   5.903
10682SOL     OW32944   0.035   1.713   3.083
10682SOL    HW132945   0.104   1.711   3.155
10682SOL    HW232946   0.014   1.808   3.060
10683SOL     OW32947   1.708   1.661   4.848
10683SOL    HW132948   1.743   1.698   4.934
10683SOL    HW232949   1.663   1.733   4.796
10684SOL     OW32950   5.920   4.347   6.964
10684SOL    HW132951   5.981   4.330   6.887
10684SOL    HW232952   5.900   4.445   6.971
10685SOL     OW32953   0.199   2.845   2.948
10685SOL    HW132954   0.109   2.888   2.938
10685SOL    HW232955   0.230   2.855   3.043
10686SOL     OW32956   3.326   5.375   6.983
10686SOL    HW132957   3.316   5.308   6.910
10686SOL    HW232958   3.407   5.353   0.019
10687SOL     OW32959   0.534   4.927   3.317
10687SOL    HW132960   0.519   4.849   3.257
10687SOL    HW232961   0.538   5.011   3.263
10688SOL     OW32962   6.608   4.969   1.788
10688SOL    HW132963   6.621   4.961   1.887
10688SOL    HW232964   6.513   4.950   1.765
10689SOL     OW32965   0.568   1.249   2.711
10689SOL    HW132966   0.503   1.263   2.787
10689SOL    HW232967   0.658   1.228   2.749
10690SOL     OW32968   4.190   5.003   1.711
10690SOL    HW132969   4.115   5.053   1.756
10690SOL    HW232970   4.153   4.924   1.663
10691SOL     OW32971   7.015   1.598   1.653
10691SOL    HW132972   0.012   1.609   1.555
10691SOL    HW232973   6.971   1.510   1.669
10692SOL     OW32974   3.689   6.162   3.491
10692SOL    HW132975   3.764   6.209   3.444
10692SOL    HW232976   3.652   6.091   3.432
10693SOL     OW32977   6.841   1.762   1.911
10693SOL    HW132978   6.928   1.809   1.895
10693SOL    HW232979   6.859   1.673   1.954
10694SOL     OW32980   3.901   6.558   0.266
10694SOL    HW132981   3.910   6.527   0.360
10694SOL    HW232982   3.941   6.649   0.257
10695SOL     OW32983   0.218   3.009   3.982
10695SOL    HW132984   0.165   2.926   4.001
10695SOL    HW232985   0.313   2.994   4.006
10696SOL     OW32986   0.196   6.210   1.923
10696SOL    HW132987   0.261   6.145   1.883
10696SOL    HW232988   0.110   6.163   1.944
10697SOL     OW32989   2.284   5.448   3.385
10697SOL    HW132990   2.324   5.464   3.295
10697SOL    HW232991   2.355   5.455   3.455
10698SOL     OW32992   2.823   6.506   3.577
10698SOL    HW132993   2.919   6.521   3.599
10698SOL    HW232994   2.776   6.469   3.658
10699SOL     OW32995   2.670   2.379   2.745
10699SOL    HW132996   2.739   2.308   2.755
10699SOL    HW232997   2.631   2.376   2.653
10700SOL     OW32998   6.784   6.686   1.013
10700SOL    HW132999   6.797   6.766   1.071
10700SOL    HW233000   6.773   6.715   0.917
10701SOL     OW33001   2.766   6.445   1.082
10701SOL    HW133002   2.768   6.386   1.001
10701SOL    HW233003   2.845   6.507   1.080
10702SOL     OW33004   6.406   3.139   1.254
10702SOL    HW133005   6.312   3.110   1.240
10702SOL    HW233006   6.464   3.059   1.269
10703SOL     OW33007   3.814   3.580   3.924
10703SOL    HW133008   3.766   3.494   3.910
10703SOL    HW233009   3.748   3.655   3.933
10704SOL     OW33010   4.953   6.967   2.263
10704SOL    HW133011   4.858   6.993   2.277
10704SOL    HW233012   5.012   0.028   2.270
10705SOL     OW33013   0.354   2.694   6.236
10705SOL    HW133014   0.451   2.714   6.222
10705SOL    HW233015   0.308   2.775   6.273
10706SOL     OW33016   3.658   1.232   2.087
10706SOL    HW133017   3.573   1.223   2.139
10706SOL    HW233018   3.715   1.303   2.127
10707SOL     OW33019   5.614   0.057   6.127
10707SOL    HW133020   5.615   6.980   6.156
10707SOL    HW233021   5.706   0.094   6.134
10708SOL     OW33022   5.467   1.438   1.114
10708SOL    HW133023   5.497   1.532   1.125
10708SOL    HW233024   5.381   1.436   1.063
10709SOL     OW33025   6.567   6.000   5.733
10709SOL    HW133026   6.562   5.981   5.831
10709SOL    HW233027   6.663   6.000   5.703
10710SOL     OW33028   5.991   5.317   3.349
10710SOL    HW133029   6.047   5.362   3.279
10710SOL    HW233030   5.920   5.381   3.380
10711SOL     OW33031   1.523   6.275   3.838
10711SOL    HW133032   1.456   6.231   3.778
10711SOL    HW233033   1.489   6.364   3.867
10712SOL     OW33034   3.404   1.510   4.825
10712SOL    HW133035   3.468   1.585   4.806
10712SOL    HW233036   3.340   1.500   4.749
10713SOL     OW33037   0.750   6.175   1.325
10713SOL    HW133038   0.669   6.172   1.383
10713SOL    HW233039   0.735   6.122   1.242
10714SOL     OW33040   6.848   5.125   5.927
10714SOL    HW133041   6.873   5.077   5.843
10714SOL    HW233042   6.750   5.119   5.942
10715SOL     OW33043   5.662   1.309   4.184
10715SOL    HW133044   5.596   1.326   4.111
10715SOL    HW233045   5.654   1.380   4.254
10716SOL     OW33046   6.125   0.150   3.589
10716SOL    HW133047   6.160   0.065   3.550
10716SOL    HW233048   6.188   0.182   3.660
10717SOL     OW33049   6.989   7.015   1.049
10717SOL    HW133050   0.002   0.076   0.998
10717SOL    HW233051   0.049   6.964   1.084
10718SOL     OW33052   6.975   4.767   0.047
10718SOL    HW133053   0.026   4.793   6.999
10718SOL    HW233054   6.907   4.709   0.002
10719SOL     OW33055   5.317   0.746   1.990
10719SOL    HW133056   5.250   0.774   2.059
10719SOL    HW233057   5.284   0.770   1.899
10720SOL     OW33058   0.467   3.521   6.923
10720SOL    HW133059   0.445   3.575   6.842
10720SOL    HW233060   0.424   3.564   7.003
10721SOL     OW33061   4.873   2.488   4.053
10721SOL    HW133062   4.786   2.441   4.065
10721SOL    HW233063   4.947   2.421   4.049
10722SOL     OW33064   0.608   4.027   0.360
10722SOL    HW133065   0.675   4.061   0.426
10722SOL    HW233066   0.565   4.104   0.313
10723SOL     OW33067   6.471   4.314   0.063
10723SOL    HW133068   6.442   4.334   0.157
10723SOL    HW233069   6.431   4.228   0.033
10724SOL     OW33070   3.761   6.571   5.836
10724SOL    HW133071   3.823   6.517   5.893
10724SOL    HW233072   3.694   6.511   5.792
10725SOL     OW33073   6.662   6.084   4.684
10725SOL    HW133074   6.660   6.177   4.718
10725SOL    HW233075   6.740   6.072   4.622
10726SOL     OW33076   5.650   0.649   4.165
10726SOL    HW133077   5.654   0.749   4.176
10726SOL    HW233078   5.595   0.627   4.084
10727SOL     OW33079   2.302   5.888   6.267
10727SOL    HW133080   2.289   5.931   6.177
10727SOL    HW233081   2.307   5.789   6.255
10728SOL     OW33082   4.798   5.796   3.276
10728SOL    HW133083   4.729   5.816   3.206
10728SOL    HW233084   4.856   5.721   3.245
10729SOL     OW33085   6.134   3.286   3.535
10729SOL    HW133086   6.191   3.206   3.513
10729SOL    HW233087   6.105   3.330   3.451
10730SOL     OW33088   2.134   5.979   2.885
10730SOL    HW133089   2.108   6.065   2.841
10730SOL    HW233090   2.227   5.954   2.858
10731SOL     OW33091   4.705   6.783   6.349
10731SOL    HW133092   4.782   6.731   6.387
10731SOL    HW233093   4.641   6.720   6.305
10732SOL     OW33094   6.247   5.940   2.942
10732SOL    HW133095   6.293   6.025   2.916
10732SOL    HW233096   6.189   5.957   3.022
10733SOL     OW33097   0.565   0.815   6.406
10733SOL    HW133098   0.576   0.914   6.397
10733SOL    HW233099   0.585   0.772   6.318
10734SOL     OW33100   1.685   1.209   5.187
10734SOL    HW133101   1.610   1.168   5.239
10734SOL    HW233102   1.657   1.222   5.092
10735SOL     OW33103   1.069   5.463   2.263
10735SOL    HW133104   1.093   5.552   2.226
10735SOL    HW233105   1.031   5.474   2.355
10736SOL     OW33106   5.558   6.592   3.686
10736SOL    HW133107   5.595   6.600   3.778
10736SOL    HW233108   5.627   6.554   3.625
10737SOL     OW33109   6.289   1.362   2.222
10737SOL    HW133110   6.216   1.429   2.236
10737SOL    HW233111   6.372   1.394   2.268
10738SOL     OW33112   3.530   1.084   1.896
10738SOL    HW133113   3.574   1.141   1.966
10738SOL    HW233114   3.435   1.114   1.884
10739SOL     OW33115   5.240   2.583   3.359
10739SOL    HW133116   5.224   2.621   3.450
10739SOL    HW233117   5.176   2.624   3.294
10740SOL     OW33118   2.038   6.808   6.043
10740SOL    HW133119   2.136   6.791   6.044
10740SOL    HW233120   2.013   6.862   6.124
10741SOL     OW33121   2.407   2.343   3.671
10741SOL    HW133122   2.478   2.395   3.623
10741SOL    HW233123   2.440   2.316   3.761
10742SOL     OW33124   6.170   6.401   2.298
10742SOL    HW133125   6.136   6.395   2.392
10742SOL    HW233126   6.144   6.489   2.259
10743SOL     OW33127   3.225   1.243   5.889
10743SOL    HW133128   3.175   1.327   5.911
10743SOL    HW233129   3.199   1.213   5.797
10744SOL     OW33130   2.219   0.836   1.176
10744SOL    HW133131   2.156   0.867   1.247
10744SOL    HW233132   2.167   0.799   1.099
10745SOL     OW33133   1.153   5.038   1.740
10745SOL    HW133134   1.206   5.019   1.822
10745SOL    HW233135   1.061   5.067   1.766
10746SOL     OW33136   2.032   5.981   6.402
10746SOL    HW133137   2.030   5.951   6.497
10746SOL    HW233138   2.126   5.972   6.367
10747SOL     OW33139   5.852   1.333   5.003
10747SOL    HW133140   5.783   1.380   4.948
10747SOL    HW233141   5.807   1.281   5.075
10748SOL     OW33142   4.038   6.079   0.930
10748SOL    HW133143   4.028   6.150   1.000
10748SOL    HW233144   4.134   6.069   0.906
10749SOL     OW33145   5.540   5.167   2.110
10749SOL    HW133146   5.595   5.192   2.189
10749SOL    HW233147   5.451   5.131   2.140
10750SOL     OW33148   5.075   2.283   4.056
10750SOL    HW133149   5.043   2.189   4.065
10750SOL    HW233150   5.160   2.295   4.108
10751SOL     OW33151   0.079   4.883   5.459
10751SOL    HW133152   0.156   4.888   5.396
10751SOL    HW233153   0.052   4.787   5.473
10752SOL     OW33154   6.246   6.425   0.506
10752SOL    HW133155   6.211   6.373   0.584
10752SOL    HW233156   6.256   6.364   0.427
10753SOL     OW33157   4.472   6.600   4.090
10753SOL    HW133158   4.551   6.550   4.125
10753SOL    HW233159   4.400   6.535   4.067
10754SOL     OW33160   0.943   3.988   2.017
10754SOL    HW133161   0.946   4.079   2.058
10754SOL    HW233162   0.989   3.922   2.077
10755SOL     OW33163   6.193   3.260   1.562
10755SOL    HW133164   6.097   3.232   1.570
10755SOL    HW233165   6.246   3.222   1.638
10756SOL     OW33166   0.568   1.508   0.466
10756SOL    HW133167   0.611   1.430   0.421
10756SOL    HW233168   0.632   1.585   0.467
10757SOL     OW33169   0.540   4.045   1.558
10757SOL    HW133170   0.604   4.121   1.557
10757SOL    HW233171   0.530   4.009   1.465
10758SOL     OW33172   0.846   0.351   6.515
10758SOL    HW133173   0.871   0.307   6.601
10758SOL    HW233174   0.777   0.420   6.532
10759SOL     OW33175   2.732   2.089   6.074
10759SOL    HW133176   2.723   2.079   6.173
10759SOL    HW233177   2.717   2.184   6.048
10760SOL     OW33178   0.885   5.629   0.187
10760SOL    HW133179   0.797   5.674   0.171
10760SOL    HW233180   0.869   5.539   0.227
10761SOL     OW33181   0.364   0.972   5.899
10761SOL    HW133182   0.280   0.956   5.951
10761SOL    HW233183   0.389   1.068   5.906
10762SOL     OW33184   3.119   6.305   6.470
10762SOL    HW133185   3.049   6.269   6.408
10762SOL    HW233186   3.202   6.251   6.461
10763SOL     OW33187   5.390   0.021   3.453
10763SOL    HW133188   5.301   0.057   3.478
10763SOL    HW233189   5.460   0.058   3.515
10764SOL     OW33190   4.373   0.713   4.519
10764SOL    HW133191   4.427   0.729   4.436
10764SOL    HW233192   4.279   0.692   4.493
10765SOL     OW33193   6.504   2.097   2.465
10765SOL    HW133194   6.535   2.188   2.439
10765SOL    HW233195   6.578   2.048   2.511
10766SOL     OW33196   1.531   5.567   6.430
10766SOL    HW133197   1.603   5.631   6.401
10766SOL    HW233198   1.462   5.561   6.359
10767SOL     OW33199   1.488   5.502   0.524
10767SOL    HW133200   1.522   5.580   0.472
10767SOL    HW233201   1.531   5.500   0.615
10768SOL     OW33202   5.299   6.025   0.569
10768SOL    HW133203   5.328   6.009   0.474
10768SOL    HW233204   5.219   5.969   0.589
10769SOL     OW33205   3.403   3.206   4.622
10769SOL    HW133206   3.317   3.242   4.661
10769SOL    HW233207   3.417   3.246   4.531
10770SOL     OW33208   5.239   0.193   3.608
10770SOL    HW133209   5.243   0.272   3.547
10770SOL    HW233210   5.305   0.204   3.682
10771SOL     OW33211   4.882   6.015   5.556
10771SOL    HW133212   4.811   5.989   5.622
10771SOL    HW233213   4.839   6.037   5.468
10772SOL     OW33214   5.489   5.403   2.810
10772SOL    HW133215   5.389   5.407   2.808
10772SOL    HW233216   5.521   5.420   2.903
10773SOL     OW33217   0.043   3.507   1.638
10773SOL    HW133218   0.105   3.468   1.706
10773SOL    HW233219   0.050   3.606   1.640
10774SOL     OW33220   0.933   2.903   0.542
10774SOL    HW133221   0.835   2.894   0.529
10774SOL    HW233222   0.952   2.960   0.622
10775SOL     OW33223   1.644   4.234   0.345
10775SOL    HW133224   1.618   4.163   0.411
10775SOL    HW233225   1.694   4.307   0.392
10776SOL     OW33226   1.122   2.536   3.631
10776SOL    HW133227   1.040   2.521   3.576
10776SOL    HW233228   1.105   2.610   3.696
10777SOL     OW33229   3.491   1.460   2.358
10777SOL    HW133230   3.466   1.530   2.291
10777SOL    HW233231   3.448   1.373   2.333
10778SOL     OW33232   6.428   6.897   3.072
10778SOL    HW133233   6.458   6.816   3.022
10778SOL    HW233234   6.452   6.979   3.021
10779SOL     OW33235   5.103   3.893   4.811
10779SOL    HW133236   5.072   3.899   4.905
10779SOL    HW233237   5.191   3.845   4.808
10780SOL     OW33238   1.782   5.859   5.020
10780SOL    HW133239   1.783   5.927   4.947
10780SOL    HW233240   1.805   5.902   5.107
10781SOL     OW33241   5.915   2.310   5.266
10781SOL    HW133242   5.840   2.252   5.231
10781SOL    HW233243   5.996   2.297   5.209
10782SOL     OW33244   1.329   2.546   4.942
10782SOL    HW133245   1.277   2.629   4.963
10782SOL    HW233246   1.277   2.489   4.879
10783SOL     OW33247   1.113   2.456   2.870
10783SOL    HW133248   1.107   2.555   2.878
10783SOL    HW233249   1.022   2.415   2.877
10784SOL     OW33250   3.488   5.636   2.651
10784SOL    HW133251   3.528   5.599   2.567
10784SOL    HW233252   3.518   5.731   2.662
10785SOL     OW33253   2.067   5.509   2.192
10785SOL    HW133254   2.096   5.593   2.238
10785SOL    HW233255   2.046   5.529   2.096
10786SOL     OW33256   3.935   1.353   2.132
10786SOL    HW133257   3.910   1.445   2.164
10786SOL    HW233258   3.998   1.361   2.055
10787SOL     OW33259   3.881   0.673   3.136
10787SOL    HW133260   3.838   0.594   3.178
10787SOL    HW233261   3.852   0.756   3.184
10788SOL     OW33262   1.268   4.610   0.655
10788SOL    HW133263   1.307   4.581   0.567
10788SOL    HW233264   1.264   4.710   0.657
10789SOL     OW33265   6.567   1.261   1.454
10789SOL    HW133266   6.585   1.286   1.550
10789SOL    HW233267   6.652   1.232   1.411
10790SOL     OW33268   0.681   1.564   4.965
10790SOL    HW133269   0.723   1.604   5.046
10790SOL    HW233270   0.599   1.616   4.940
10791SOL     OW33271   1.210   1.933   3.718
10791SOL    HW133272   1.255   1.918   3.630
10791SOL    HW233273   1.182   1.845   3.756
10792SOL     OW33274   4.093   1.596   1.602
10792SOL    HW133275   4.105   1.683   1.554
10792SOL    HW233276   4.174   1.540   1.589
10793SOL     OW33277   4.098   1.956   4.789
10793SOL    HW133278   4.067   1.926   4.699
10793SOL    HW233279   4.184   2.006   4.780
10794SOL     OW33280   4.687   2.533   0.734
10794SOL    HW133281   4.655   2.497   0.646
10794SOL    HW233282   4.754   2.470   0.773
10795SOL     OW33283   0.130   3.746   3.427
10795SOL    HW133284   0.070   3.785   3.357
10795SOL    HW233285   0.140   3.810   3.503
10796SOL     OW33286   0.483   0.044   6.260
10796SOL    HW133287   0.525   0.108   6.324
10796SOL    HW233288   0.460   6.979   6.307
10797SOL     OW33289   4.154   3.925   0.036
10797SOL    HW133290   4.226   3.965   7.000
10797SOL    HW233291   4.098   3.997   0.077
10798SOL     OW33292   2.273   0.323   0.078
10798SOL    HW133293   2.304   0.367   7.013
10798SOL    HW233294   2.189   0.271   0.060
10799SOL     OW33295   2.575   1.026   2.743
10799SOL    HW133296   2.506   0.965   2.703
10799SOL    HW233297   2.658   0.974   2.763
10800SOL     OW33298   2.141   6.999   5.827
10800SOL    HW133299   2.130   0.013   5.921
10800SOL    HW233300   2.060   0.003   5.774
10801SOL     OW33301   2.568   6.690   5.929
10801SOL    HW133302   2.525   6.628   5.863
10801SOL    HW233303   2.608   6.768   5.881
10802SOL     OW33304   0.959   4.951   4.772
10802SOL    HW133305   0.981   4.916   4.681
10802SOL    HW233306   0.947   5.050   4.767
10803SOL     OW33307   0.262   4.197   4.815
10803SOL    HW133308   0.230   4.259   4.743
10803SOL    HW233309   0.348   4.155   4.785
10804SOL     OW33310   5.279   4.694   0.966
10804SOL    HW133311   5.257   4.787   0.996
10804SOL    HW233312   5.205   4.632   0.992
10805SOL     OW33313   4.174   6.730   0.370
10805SOL    HW133314   4.126   6.706   0.454
10805SOL    HW233315   4.112   6.780   0.309
10806SOL     OW33316   5.405   3.644   0.123
10806SOL    HW133317   5.449   3.722   0.080
10806SOL    HW233318   5.348   3.676   0.199
10807SOL     OW33319   4.863   6.966   3.435
10807SOL    HW133320   4.816   6.906   3.499
10807SOL    HW233321   4.802   0.021   3.408
10808SOL     OW33322   6.790   2.611   6.657
10808SOL    HW133323   6.868   2.673   6.652
10808SOL    HW233324   6.775   2.569   6.567
10809SOL     OW33325   2.611   1.176   3.381
10809SOL    HW133326   2.519   1.144   3.403
10809SOL    HW233327   2.667   1.174   3.463
10810SOL     OW33328   0.576   1.688   6.095
10810SOL    HW133329   0.636   1.741   6.035
10810SOL    HW233330   0.619   1.680   6.185
10811SOL     OW33331   4.825   4.550   5.473
10811SOL    HW133332   4.888   4.620   5.506
10811SOL    HW233333   4.816   4.556   5.374
10812SOL     OW33334   6.588   1.983   3.262
10812SOL    HW133335   6.583   1.909   3.329
10812SOL    HW233336   6.502   2.033   3.261
10813SOL     OW33337   2.372   5.944   2.001
10813SOL    HW133338   2.457   5.897   2.021
10813SOL    HW233339   2.342   5.995   2.082
10814SOL     OW33340   1.690   6.582   5.020
10814SOL    HW133341   1.754   6.596   4.945
10814SOL    HW233342   1.618   6.651   5.016
10815SOL     OW33343   5.156   2.398   2.600
10815SOL    HW133344   5.064   2.361   2.584
10815SOL    HW233345   5.159   2.443   2.689
10816SOL     OW33346   2.106   1.738   2.425
10816SOL    HW133347   2.173   1.811   2.410
10816SOL    HW233348   2.023   1.777   2.466
10817SOL     OW33349   4.685   6.998   2.287
10817SOL    HW133350   4.641   0.039   2.220
10817SOL    HW233351   4.641   6.909   2.287
10818SOL     OW33352   5.008   3.016   6.751
10818SOL    HW133353   4.967   2.958   6.682
10818SOL    HW233354   5.055   3.093   6.707
10819SOL     OW33355   0.403   3.534   5.856
10819SOL    HW133356   0.357   3.446   5.871
10819SOL    HW233357   0.419   3.579   5.944
10820SOL     OW33358   0.210   6.789   4.470
10820SOL    HW133359   0.215   6.885   4.444
10820SOL    HW233360   0.164   6.780   4.558
10821SOL     OW33361   6.832   0.265   0.375
10821SOL    HW133362   6.865   0.350   0.417
10821SOL    HW233363   6.799   0.203   0.447
10822SOL     OW33364   1.687   4.610   1.245
10822SOL    HW133365   1.786   4.616   1.256
10822SOL    HW233366   1.666   4.555   1.165
10823SOL     OW33367   1.568   0.889   1.615
10823SOL    HW133368   1.639   0.923   1.677
10823SOL    HW233369   1.599   0.804   1.573
10824SOL     OW33370   5.634   0.321   2.667
10824SOL    HW133371   5.647   0.420   2.662
10824SOL    HW233372   5.665   0.279   2.582
10825SOL     OW33373   3.372   1.362   1.256
10825SOL    HW133374   3.387   1.306   1.338
10825SOL    HW233375   3.424   1.447   1.264
10826SOL     OW33376   6.639   2.933   1.534
10826SOL    HW133377   6.627   2.937   1.435
10826SOL    HW233378   6.603   2.846   1.568
10827SOL     OW33379   0.320   2.625   4.137
10827SOL    HW133380   0.247   2.675   4.091
10827SOL    HW233381   0.407   2.671   4.121
10828SOL     OW33382   1.070   5.898   0.447
10828SOL    HW133383   1.032   5.918   0.537
10828SOL    HW233384   1.129   5.974   0.418
10829SOL     OW33385   2.552   3.481   1.479
10829SOL    HW133386   2.585   3.413   1.413
10829SOL    HW233387   2.484   3.439   1.539
10830SOL     OW33388   4.768   1.682   3.917
10830SOL    HW133389   4.817   1.663   3.832
10830SOL    HW233390   4.726   1.772   3.912
10831SOL     OW33391   5.461   2.362   3.499
10831SOL    HW133392   5.489   2.457   3.512
10831SOL    HW233393   5.496   2.306   3.575
10832SOL     OW33394   0.101   2.150   1.569
10832SOL    HW133395   0.064   2.190   1.653
10832SOL    HW233396   0.200   2.139   1.578
10833SOL     OW33397   3.085   6.488   4.384
10833SOL    HW133398   2.989   6.513   4.393
10833SOL    HW233399   3.127   6.484   4.475
10834SOL     OW33400   0.681   0.775   5.940
10834SOL    HW133401   0.672   0.709   5.865
10834SOL    HW233402   0.773   0.813   5.940
10835SOL     OW33403   6.644   1.648   2.441
10835SOL    HW133404   6.572   1.642   2.372
10835SOL    HW233405   6.643   1.739   2.482
10836SOL     OW33406   1.993   2.271   6.358
10836SOL    HW133407   2.053   2.212   6.412
10836SOL    HW233408   1.927   2.215   6.309
10837SOL     OW33409   0.921   5.656   1.396
10837SOL    HW133410   0.853   5.623   1.461
10837SOL    HW233411   0.980   5.580   1.368
10838SOL     OW33412   6.030   6.627   0.884
10838SOL    HW133413   6.023   6.678   0.969
10838SOL    HW233414   6.059   6.689   0.810
10839SOL     OW33415   2.256   2.160   0.933
10839SOL    HW133416   2.251   2.061   0.918
10839SOL    HW233417   2.175   2.204   0.892
10840SOL     OW33418   3.614   4.888   2.715
10840SOL    HW133419   3.606   4.988   2.724
10840SOL    HW233420   3.620   4.864   2.619
10841SOL     OW33421   4.328   4.474   6.151
10841SOL    HW133422   4.349   4.394   6.094
10841SOL    HW233423   4.405   4.493   6.211
10842SOL     OW33424   6.290   3.109   1.785
10842SOL    HW133425   6.274   3.048   1.707
10842SOL    HW233426   6.371   3.077   1.836
10843SOL     OW33427   0.529   0.871   1.841
10843SOL    HW133428   0.588   0.921   1.904
10843SOL    HW233429   0.438   0.911   1.842
10844SOL     OW33430   3.486   6.377   3.569
10844SOL    HW133431   3.387   6.380   3.564
10844SOL    HW233432   3.518   6.285   3.549
10845SOL     OW33433   2.135   2.820   0.507
10845SOL    HW133434   2.178   2.892   0.562
10845SOL    HW233435   2.137   2.734   0.557
10846SOL     OW33436   3.292   2.082   1.972
10846SOL    HW133437   3.215   2.102   2.033
10846SOL    HW233438   3.378   2.104   2.019
10847SOL     OW33439   4.160   2.907   6.128
10847SOL    HW133440   4.174   2.870   6.037
10847SOL    HW233441   4.063   2.902   6.151
10848SOL     OW33442   1.484   1.429   0.045
10848SOL    HW133443   1.502   1.498   0.115
10848SOL    HW233444   1.540   1.348   0.064
10849SOL     OW33445   2.816   4.777   4.375
10849SOL    HW133446   2.905   4.824   4.379
10849SOL    HW233447   2.744   4.842   4.398
10850SOL     OW33448   5.680   0.203   1.114
10850SOL    HW133449   5.652   0.289   1.072
10850SOL    HW233450   5.623   0.129   1.079
10851SOL     OW33451   4.045   2.253   6.460
10851SOL    HW133452   4.056   2.243   6.361
10851SOL    HW233453   3.962   2.306   6.480
10852SOL     OW33454   0.682   6.839   6.489
10852SOL    HW133455   0.672   6.788   6.404
10852SOL    HW233456   0.743   6.790   6.551
10853SOL     OW33457   2.265   1.715   4.652
10853SOL    HW133458   2.298   1.666   4.733
10853SOL    HW233459   2.172   1.686   4.632
10854SOL     OW33460   0.170   6.500   0.050
10854SOL    HW133461   0.203   6.508   0.144
10854SOL    HW233462   0.113   6.418   0.041
10855SOL     OW33463   1.298   6.307   1.105
10855SOL    HW133464   1.323   6.373   1.034
10855SOL    HW233465   1.234   6.350   1.169
10856SOL     OW33466   5.994   0.230   6.506
10856SOL    HW133467   6.092   0.222   6.487
10856SOL    HW233468   5.977   0.314   6.558
10857SOL     OW33469   6.305   0.373   4.638
10857SOL    HW133470   6.335   0.405   4.728
10857SOL    HW233471   6.251   0.445   4.594
10858SOL     OW33472   2.246   1.667   0.661
10858SOL    HW133473   2.319   1.599   0.664
10858SOL    HW233474   2.190   1.659   0.743
10859SOL     OW33475   0.724   5.253   2.128
10859SOL    HW133476   0.694   5.277   2.035
10859SOL    HW233477   0.814   5.211   2.124
10860SOL     OW33478   5.892   2.517   0.544
10860SOL    HW133479   5.927   2.563   0.626
10860SOL    HW233480   5.929   2.562   0.463
10861SOL     OW33481   3.260   2.852   2.146
10861SOL    HW133482   3.226   2.946   2.154
10861SOL    HW233483   3.248   2.805   2.233
10862SOL     OW33484   3.898   3.153   5.585
10862SOL    HW133485   3.886   3.234   5.643
10862SOL    HW233486   3.812   3.102   5.582
10863SOL     OW33487   2.298   1.698   2.964
10863SOL    HW133488   2.345   1.739   3.042
10863SOL    HW233489   2.224   1.758   2.934
10864SOL     OW33490   3.173   4.829   1.997
10864SOL    HW133491   3.083   4.849   1.959
10864SOL    HW233492   3.183   4.730   2.009
10865SOL     OW33493   3.039   1.469   2.853
10865SOL    HW133494   3.005   1.460   2.947
10865SOL    HW233495   2.965   1.503   2.795
10866SOL     OW33496   6.885   3.794   3.301
10866SOL    HW133497   6.851   3.714   3.251
10866SOL    HW233498   6.847   3.877   3.261
10867SOL     OW33499   4.371   3.567   0.610
10867SOL    HW133500   4.301   3.592   0.678
10867SOL    HW233501   4.459   3.557   0.656
10868SOL     OW33502   1.457   1.139   4.936
10868SOL    HW133503   1.421   1.060   4.987
10868SOL    HW233504   1.385   1.208   4.928
10869NA      NA33505   6.895   1.952   5.664
10870NA      NA33506   4.521   4.571   5.187
10871NA      NA33507   1.439   4.803   2.912
10872NA      NA33508   5.862   3.946   3.404
10873NA      NA33509   3.683   2.268   5.442
10874NA      NA33510   2.362   4.942   0.260
10875NA      NA33511   1.316   5.733   6.855
10876NA      NA33512   3.495   4.428   0.972
10877NA      NA33513   4.348   5.182   0.602
10878NA      NA33514   3.355   1.113   6.470
10879NA      NA33515   5.496   6.865   1.841
10880NA      NA33516   2.078   6.602   5.354
10881NA      NA33517   4.088   5.359   1.470
10882NA      NA33518   3.641   3.568   6.675
   7.01897   7.01897   7.01897
