Generated by trjconv : CNT in water t= 368.00000
33518
    1C        C    1   2.849   2.774   4.745
    1C        C    2   2.900   2.723   4.866
    1C        C    3   2.845   2.777   4.983
    1C        C    4   2.854   2.779   4.259
    1C        C    5   2.905   2.730   4.382
    1C        C    6   2.848   2.773   4.504
    1C        C    7   3.016   2.640   4.626
    1C        C    8   2.900   2.721   4.624
    1C        C    9   3.079   2.606   4.748
    1C        C   10   3.010   2.635   4.868
    1C        C   11   3.184   2.493   4.979
    1C        C   12   3.063   2.564   4.976
    1C        C   13   2.855   2.772   3.774
    1C        C   14   2.906   2.720   3.895
    1C        C   15   2.851   2.773   4.015
    1C        C   16   3.014   2.639   4.140
    1C        C   17   2.904   2.727   4.138
    1C        C   18   3.079   2.605   4.261
    1C        C   19   3.024   2.655   4.381
    1C        C   20   3.211   2.558   4.506
    1C        C   21   3.081   2.613   4.504
    1C        C   22   3.279   2.532   4.627
    1C        C   23   3.210   2.550   4.749
    1C        C   24   3.414   2.480   4.863
    1C        C   25   3.273   2.501   4.867
    1C        C   26   3.493   2.470   4.978
    1C        C   27   2.852   2.767   3.282
    1C        C   28   2.906   2.724   3.405
    1C        C   29   2.854   2.770   3.527
    1C        C   30   3.018   2.640   3.651
    1C        C   31   2.904   2.724   3.651
    1C        C   32   3.079   2.603   3.773
    1C        C   33   3.019   2.636   3.896
    1C        C   34   3.208   2.548   4.019
    1C        C   35   3.075   2.597   4.019
    1C        C   36   3.277   2.528   4.141
    1C        C   37   3.210   2.553   4.263
    1C        C   38   3.418   2.505   4.382
    1C        C   39   3.281   2.540   4.385
    1C        C   40   3.488   2.501   4.504
    1C        C   41   3.418   2.508   4.626
    1C        C   42   3.634   2.481   4.748
    1C        C   43   3.492   2.482   4.744
    1C        C   44   3.709   2.481   4.867
    1C        C   45   3.632   2.477   4.984
    1C        C   46   2.838   2.753   2.796
    1C        C   47   2.899   2.714   2.917
    1C        C   48   2.846   2.764   3.038
    1C        C   49   3.019   2.637   3.164
    1C        C   50   2.903   2.719   3.159
    1C        C   51   3.080   2.601   3.286
    1C        C   52   3.018   2.637   3.408
    1C        C   53   3.208   2.542   3.529
    1C        C   54   3.079   2.601   3.530
    1C        C   55   3.277   2.528   3.651
    1C        C   56   3.212   2.553   3.774
    1C        C   57   3.416   2.508   3.896
    1C        C   58   3.277   2.531   3.897
    1C        C   59   3.487   2.499   4.018
    1C        C   60   3.416   2.505   4.140
    1C        C   61   3.631   2.499   4.260
    1C        C   62   3.490   2.494   4.260
    1C        C   63   3.701   2.504   4.383
    1C        C   64   3.630   2.499   4.505
    1C        C   65   3.837   2.540   4.623
    1C        C   66   3.703   2.493   4.625
    1C        C   67   3.908   2.560   4.743
    1C        C   68   3.844   2.523   4.863
    1C        C   69   4.057   2.582   4.976
    1C        C   70   3.927   2.529   4.976
    1C        C   71   2.826   2.733   2.307
    1C        C   72   2.883   2.689   2.428
    1C        C   73   2.834   2.740   2.551
    1C        C   74   3.009   2.628   2.675
    1C        C   75   2.888   2.700   2.675
    1C        C   76   3.072   2.595   2.797
    1C        C   77   3.013   2.631   2.920
    1C        C   78   3.204   2.534   3.037
    1C        C   79   3.077   2.596   3.042
    1C        C   80   3.273   2.518   3.159
    1C        C   81   3.208   2.541   3.282
    1C        C   82   3.412   2.491   3.405
    1C        C   83   3.273   2.517   3.406
    1C        C   84   3.485   2.495   3.526
    1C        C   85   3.416   2.503   3.649
    1C        C   86   3.625   2.499   3.771
    1C        C   87   3.484   2.496   3.773
    1C        C   88   3.696   2.508   3.893
    1C        C   89   3.628   2.499   4.016
    1C        C   90   3.836   2.548   4.137
    1C        C   91   3.700   2.510   4.137
    1C        C   92   3.904   2.568   4.259
    1C        C   93   3.837   2.541   4.381
    1C        C   94   4.026   2.641   4.500
    1C        C   95   3.903   2.571   4.502
    1C        C   96   4.089   2.675   4.621
    1C        C   97   4.032   2.629   4.742
    1C        C   98   4.195   2.765   4.865
    1C        C   99   4.106   2.652   4.861
    1C        C  100   4.218   2.843   4.979
    1C        C  101   2.826   2.731   2.069
    1C        C  102   2.991   2.588   2.192
    1C        C  103   2.883   2.682   2.187
    1C        C  104   3.063   2.569   2.313
    1C        C  105   3.000   2.610   2.432
    1C        C  106   3.198   2.533   2.553
    1C        C  107   3.066   2.583   2.554
    1C        C  108   3.271   2.517   2.674
    1C        C  109   3.201   2.538   2.795
    1C        C  110   3.409   2.486   2.917
    1C        C  111   3.269   2.507   2.915
    1C        C  112   3.483   2.484   3.037
    1C        C  113   3.412   2.495   3.159
    1C        C  114   3.623   2.492   3.279
    1C        C  115   3.482   2.487   3.282
    1C        C  116   3.694   2.502   3.401
    1C        C  117   3.626   2.494   3.525
    1C        C  118   3.830   2.547   3.647
    1C        C  119   3.694   2.510   3.648
    1C        C  120   3.897   2.567   3.770
    1C        C  121   3.833   2.543   3.894
    1C        C  122   4.026   2.640   4.010
    1C        C  123   3.902   2.573   4.014
    1C        C  124   4.086   2.673   4.133
    1C        C  125   4.030   2.633   4.257
    1C        C  126   4.196   2.767   4.378
    1C        C  127   4.088   2.676   4.378
    1C        C  128   4.244   2.820   4.500
    1C        C  129   4.192   2.772   4.622
    1C        C  130   4.327   2.935   4.743
    1C        C  131   4.247   2.817   4.744
    1C        C  132   4.352   3.008   4.861
    1C        C  133   4.286   2.964   4.976
    1C        C  134   3.173   2.469   2.080
    1C        C  135   3.040   2.512   2.081
    1C        C  136   3.259   2.476   2.191
    1C        C  137   3.194   2.514   2.311
    1C        C  138   3.404   2.480   2.429
    1C        C  139   3.265   2.504   2.432
    1C        C  140   3.478   2.479   2.550
    1C        C  141   3.409   2.488   2.674
    1C        C  142   3.622   2.490   2.791
    1C        C  143   3.481   2.485   2.795
    1C        C  144   3.693   2.499   2.912
    1C        C  145   3.624   2.486   3.035
    1C        C  146   3.829   2.535   3.157
    1C        C  147   3.694   2.495   3.157
    1C        C  148   3.897   2.564   3.278
    1C        C  149   3.829   2.545   3.401
    1C        C  150   4.021   2.632   3.524
    1C        C  151   3.893   2.573   3.523
    1C        C  152   4.079   2.676   3.646
    1C        C  153   4.020   2.636   3.768
    1C        C  154   4.194   2.767   3.887
    1C        C  155   4.084   2.678   3.887
    1C        C  156   4.245   2.813   4.011
    1C        C  157   4.192   2.767   4.133
    1C        C  158   4.334   2.926   4.255
    1C        C  159   4.243   2.818   4.254
    1C        C  160   4.374   2.987   4.376
    1C        C  161   4.332   2.930   4.499
    1C        C  162   4.439   3.114   4.616
    1C        C  163   4.374   2.989   4.620
    1C        C  164   4.467   3.184   4.735
    1C        C  165   4.433   3.124   4.858
    1C        C  166   4.512   3.320   4.971
    1C        C  167   4.483   3.184   4.974
    1C        C  168   3.473   2.435   2.074
    1C        C  169   3.398   2.454   2.191
    1C        C  170   3.618   2.463   2.307
    1C        C  171   3.476   2.460   2.309
    1C        C  172   3.690   2.489   2.425
    1C        C  173   3.618   2.491   2.547
    1C        C  174   3.825   2.546   2.668
    1C        C  175   3.691   2.501   2.668
    1C        C  176   3.894   2.563   2.790
    1C        C  177   3.828   2.539   2.913
    1C        C  178   4.019   2.630   3.031
    1C        C  179   3.896   2.560   3.035
    1C        C  180   4.081   2.667   3.153
    1C        C  181   4.022   2.630   3.276
    1C        C  182   4.187   2.758   3.396
    1C        C  183   4.079   2.666   3.400
    1C        C  184   4.241   2.810   3.516
    1C        C  185   4.187   2.766   3.639
    1C        C  186   4.335   2.917   3.765
    1C        C  187   4.240   2.813   3.762
    1C        C  188   4.376   2.977   3.886
    1C        C  189   4.335   2.922   4.010
    1C        C  190   4.444   3.105   4.128
    1C        C  191   4.375   2.982   4.131
    1C        C  192   4.472   3.172   4.250
    1C        C  193   4.444   3.109   4.373
    1C        C  194   4.507   3.314   4.492
    1C        C  195   4.471   3.178   4.494
    1C        C  196   4.522   3.389   4.611
    1C        C  197   4.510   3.320   4.734
    1C        C  198   4.553   3.536   4.848
    1C        C  199   4.528   3.395   4.853
    1C        C  200   4.583   3.617   4.963
    1C        C  201   3.612   2.422   2.071
    1C        C  202   3.824   2.513   2.184
    1C        C  203   3.690   2.462   2.184
    1C        C  204   3.895   2.546   2.303
    1C        C  205   3.825   2.530   2.425
    1C        C  206   4.018   2.625   2.544
    1C        C  207   3.893   2.560   2.545
    1C        C  208   4.080   2.665   2.665
    1C        C  209   4.020   2.627   2.787
    1C        C  210   4.192   2.752   2.907
    1C        C  211   4.076   2.672   2.909
    1C        C  212   4.245   2.800   3.029
    1C        C  213   4.190   2.756   3.152
    1C        C  214   4.337   2.909   3.273
    1C        C  215   4.241   2.805   3.275
    1C        C  216   4.373   2.973   3.393
    1C        C  217   4.334   2.917   3.517
    1C        C  218   4.436   3.098   3.639
    1C        C  219   4.375   2.970   3.641
    1C        C  220   4.463   3.167   3.759
    1C        C  221   4.441   3.103   3.883
    1C        C  222   4.511   3.303   4.005
    1C        C  223   4.473   3.167   4.005
    1C        C  224   4.515   3.376   4.126
    1C        C  225   4.503   3.310   4.250
    1C        C  226   4.522   3.525   4.365
    1C        C  227   4.519   3.384   4.369
    1C        C  228   4.524   3.600   4.484
    1C        C  229   4.530   3.530   4.607
    1C        C  230   4.513   3.743   4.725
    1C        C  231   4.548   3.605   4.724
    1C        C  232   4.500   3.820   4.842
    1C        C  233   4.549   3.752   4.955
    1C        C  234   4.015   2.615   2.065
    1C        C  235   3.896   2.543   2.068
    1C        C  236   4.084   2.650   2.182
    1C        C  237   4.021   2.611   2.302
    1C        C  238   4.195   2.742   2.423
    1C        C  239   4.082   2.656   2.421
    1C        C  240   4.251   2.790   2.544
    1C        C  241   4.196   2.745   2.665
    1C        C  242   4.342   2.903   2.784
    1C        C  243   4.246   2.799   2.786
    1C        C  244   4.387   2.958   2.906
    1C        C  245   4.340   2.905   3.028
    1C        C  246   4.445   3.089   3.148
    1C        C  247   4.381   2.963   3.150
    1C        C  248   4.465   3.158   3.269
    1C        C  249   4.432   3.101   3.394
    1C        C  250   4.506   3.299   3.515
    1C        C  251   4.464   3.164   3.517
    1C        C  252   4.515   3.370   3.637
    1C        C  253   4.502   3.303   3.760
    1C        C  254   4.524   3.513   3.877
    1C        C  255   4.520   3.372   3.882
    1C        C  256   4.519   3.586   3.998
    1C        C  257   4.520   3.517   4.122
    1C        C  258   4.495   3.733   4.241
    1C        C  259   4.517   3.593   4.241
    1C        C  260   4.479   3.806   4.361
    1C        C  261   4.492   3.738   4.484
    1C        C  262   4.429   3.942   4.604
    1C        C  263   4.477   3.809   4.605
    1C        C  264   4.398   4.010   4.724
    1C        C  265   4.436   3.946   4.844
    1C        C  266   4.320   4.131   4.961
    1C        C  267   4.392   4.012   4.960
    1C        C  268   4.262   2.776   2.063
    1C        C  269   4.197   2.735   2.180
    1C        C  270   4.344   2.893   2.299
    1C        C  271   4.249   2.787   2.301
    1C        C  272   4.388   2.953   2.419
    1C        C  273   4.346   2.895   2.540
    1C        C  274   4.449   3.083   2.660
    1C        C  275   4.385   2.957   2.661
    1C        C  276   4.474   3.151   2.781
    1C        C  277   4.452   3.084   2.904
    1C        C  278   4.506   3.291   3.026
    1C        C  279   4.472   3.153   3.025
    1C        C  280   4.509   3.363   3.147
    1C        C  281   4.496   3.296   3.271
    1C        C  282   4.526   3.507   3.390
    1C        C  283   4.515   3.366   3.392
    1C        C  284   4.518   3.580   3.510
    1C        C  285   4.519   3.512   3.634
    1C        C  286   4.495   3.724   3.752
    1C        C  287   4.518   3.584   3.755
    1C        C  288   4.475   3.793   3.873
    1C        C  289   4.489   3.724   3.996
    1C        C  290   4.423   3.928   4.117
    1C        C  291   4.475   3.796   4.117
    1C        C  292   4.391   3.996   4.237
    1C        C  293   4.424   3.936   4.360
    1C        C  294   4.327   4.126   4.480
    1C        C  295   4.399   4.005   4.481
    1C        C  296   4.282   4.189   4.598
    1C        C  297   4.326   4.133   4.720
    1C        C  298   4.202   4.312   4.838
    1C        C  299   4.284   4.195   4.841
    1C        C  300   4.168   4.401   4.944
    1C        C  301   4.357   2.877   2.063
    1C        C  302   4.471   3.067   2.176
    1C        C  303   4.402   2.942   2.178
    1C        C  304   4.491   3.140   2.297
    1C        C  305   4.458   3.076   2.418
    1C        C  306   4.518   3.283   2.536
    1C        C  307   4.481   3.147   2.538
    1C        C  308   4.524   3.356   2.657
    1C        C  309   4.500   3.290   2.779
    1C        C  310   4.523   3.499   2.901
    1C        C  311   4.517   3.358   2.902
    1C        C  312   4.512   3.571   3.022
    1C        C  313   4.517   3.504   3.146
    1C        C  314   4.489   3.714   3.262
    1C        C  315   4.522   3.577   3.267
    1C        C  316   4.471   3.784   3.384
    1C        C  317   4.494   3.719   3.507
    1C        C  318   4.424   3.921   3.630
    1C        C  319   4.474   3.789   3.629
    1C        C  320   4.390   3.985   3.751
    1C        C  321   4.422   3.924   3.874
    1C        C  322   4.314   4.109   3.992
    1C        C  323   4.388   3.989   3.995
    1C        C  324   4.279   4.171   4.114
    1C        C  325   4.327   4.122   4.238
    1C        C  326   4.189   4.288   4.351
    1C        C  327   4.285   4.185   4.358
    1C        C  328   4.139   4.342   4.471
    1C        C  329   4.189   4.295   4.595
    1C        C  330   4.025   4.433   4.714
    1C        C  331   4.138   4.347   4.716
    1C        C  332   3.970   4.489   4.831
    1C        C  333   4.051   4.477   4.945
    1C        C  334   4.551   3.266   2.060
    1C        C  335   4.531   3.128   2.061
    1C        C  336   4.540   3.348   2.173
    1C        C  337   4.521   3.279   2.295
    1C        C  338   4.522   3.495   2.412
    1C        C  339   4.525   3.354   2.414
    1C        C  340   4.516   3.567   2.534
    1C        C  341   4.526   3.497   2.657
    1C        C  342   4.490   3.707   2.776
    1C        C  343   4.520   3.569   2.778
    1C        C  344   4.470   3.780   2.895
    1C        C  345   4.485   3.710   3.017
    1C        C  346   4.421   3.912   3.140
    1C        C  347   4.469   3.779   3.139
    1C        C  348   4.392   3.979   3.261
    1C        C  349   4.423   3.917   3.384
    1C        C  350   4.321   4.103   3.506
    1C        C  351   4.395   3.983   3.506
    1C        C  352   4.272   4.162   3.624
    1C        C  353   4.311   4.102   3.746
    1C        C  354   4.172   4.262   3.867
    1C        C  355   4.271   4.161   3.868
    1C        C  356   4.124   4.316   3.988
    1C        C  357   4.182   4.273   4.109
    1C        C  358   4.012   4.405   4.229
    1C        C  359   4.130   4.328   4.229
    1C        C  360   3.953   4.449   4.350
    1C        C  361   4.022   4.422   4.471
    1C        C  362   3.832   4.521   4.590
    1C        C  363   3.960   4.461   4.591
    1C        C  364   3.764   4.551   4.710
    1C        C  365   3.838   4.539   4.829
    1C        C  366   3.630   4.593   4.946
    1C        C  367   3.769   4.582   4.943
    1C        C  368   4.509   3.564   2.054
    1C        C  369   4.525   3.489   2.171
    1C        C  370   4.504   3.705   2.289
    1C        C  371   4.516   3.565   2.289
    1C        C  372   4.478   3.774   2.409
    1C        C  373   4.497   3.707   2.532
    1C        C  374   4.427   3.908   2.648
    1C        C  375   4.475   3.776   2.653
    1C        C  376   4.393   3.973   2.769
    1C        C  377   4.416   3.910   2.894
    1C        C  378   4.318   4.095   3.012
    1C        C  379   4.393   3.975   3.017
    1C        C  380   4.271   4.147   3.135
    1C        C  381   4.315   4.098   3.260
    1C        C  382   4.172   4.252   3.377
    1C        C  383   4.274   4.154   3.383
    1C        C  384   4.118   4.303   3.497
    1C        C  385   4.172   4.261   3.621
    1C        C  386   4.006   4.392   3.743
    1C        C  387   4.118   4.307   3.743
    1C        C  388   3.945   4.429   3.865
    1C        C  389   4.008   4.397   3.988
    1C        C  390   3.815   4.487   4.105
    1C        C  391   3.947   4.438   4.108
    1C        C  392   3.752   4.517   4.229
    1C        C  393   3.823   4.504   4.350
    1C        C  394   3.616   4.554   4.472
    1C        C  395   3.756   4.534   4.471
    1C        C  396   3.545   4.566   4.594
    1C        C  397   3.624   4.573   4.711
    1C        C  398   3.413   4.547   4.836
    1C        C  399   3.552   4.569   4.832
    1C        C  400   3.343   4.517   4.954
    1C        C  401   4.501   3.703   2.052
    1C        C  402   4.460   3.917   2.165
    1C        C  403   4.490   3.779   2.169
    1C        C  404   4.419   3.980   2.285
    1C        C  405   4.436   3.909   2.406
    1C        C  406   4.329   4.096   2.526
    1C        C  407   4.400   3.974   2.526
    1C        C  408   4.280   4.151   2.646
    1C        C  409   4.315   4.091   2.769
    1C        C  410   4.172   4.249   2.887
    1C        C  411   4.274   4.150   2.890
    1C        C  412   4.123   4.296   3.010
    1C        C  413   4.171   4.247   3.134
    1C        C  414   4.004   4.380   3.254
    1C        C  415   4.118   4.296   3.255
    1C        C  416   3.944   4.419   3.376
    1C        C  417   4.001   4.383   3.500
    1C        C  418   3.813   4.482   3.619
    1C        C  419   3.941   4.422   3.621
    1C        C  420   3.747   4.508   3.741
    1C        C  421   3.814   4.481   3.863
    1C        C  422   3.607   4.537   3.986
    1C        C  423   3.745   4.505   3.984
    1C        C  424   3.540   4.541   4.110
    1C        C  425   3.613   4.541   4.230
    1C        C  426   3.402   4.552   4.356
    1C        C  427   3.543   4.555   4.352
    1C        C  428   3.330   4.541   4.477
    1C        C  429   3.405   4.554   4.597
    1C        C  430   3.196   4.513   4.721
    1C        C  431   3.335   4.542   4.719
    1C        C  432   3.126   4.491   4.842
    1C        C  433   3.208   4.485   4.956
    1C        C  434   4.385   4.124   2.051
    1C        C  435   4.450   4.000   2.053
    1C        C  436   4.305   4.163   2.164
    1C        C  437   4.340   4.098   2.285
    1C        C  438   4.185   4.252   2.404
    1C        C  439   4.286   4.153   2.403
    1C        C  440   4.129   4.301   2.524
    1C        C  441   4.182   4.253   2.645
    1C        C  442   4.007   4.381   2.765
    1C        C  443   4.121   4.298   2.765
    1C        C  444   3.946   4.414   2.888
    1C        C  445   4.008   4.378   3.010
    1C        C  446   3.815   4.472   3.131
    1C        C  447   3.944   4.413   3.131
    1C        C  448   3.747   4.494   3.253
    1C        C  449   3.812   4.472   3.376
    1C        C  450   3.607   4.532   3.496
    1C        C  451   3.744   4.501   3.496
    1C        C  452   3.539   4.545   3.619
    1C        C  453   3.609   4.538   3.742
    1C        C  454   3.396   4.543   3.864
    1C        C  455   3.538   4.548   3.863
    1C        C  456   3.329   4.534   3.988
    1C        C  457   3.398   4.540   4.111
    1C        C  458   3.193   4.501   4.235
    1C        C  459   3.331   4.533   4.235
    1C        C  460   3.124   4.486   4.357
    1C        C  461   3.192   4.511   4.478
    1C        C  462   2.998   4.428   4.601
    1C        C  463   3.124   4.491   4.601
    1C        C  464   2.932   4.397   4.721
    1C        C  465   2.992   4.439   4.843
    1C        C  466   2.801   4.336   4.958
    1C        C  467   2.906   4.429   4.957
    1C        C  468   4.125   4.287   2.047
    1C        C  469   4.191   4.250   2.165
    1C        C  470   4.011   4.377   2.281
    1C        C  471   4.130   4.299   2.283
    1C        C  472   3.944   4.411   2.401
    1C        C  473   4.009   4.377   2.521
    1C        C  474   3.814   4.464   2.645
    1C        C  475   3.947   4.417   2.642
    1C        C  476   3.746   4.493   2.765
    1C        C  477   3.816   4.468   2.886
    1C        C  478   3.610   4.519   3.010
    1C        C  479   3.749   4.493   3.008
    1C        C  480   3.537   4.530   3.130
    1C        C  481   3.608   4.520   3.252
    1C        C  482   3.395   4.529   3.374
    1C        C  483   3.537   4.535   3.373
    1C        C  484   3.328   4.528   3.498
    1C        C  485   3.398   4.543   3.620
    1C        C  486   3.191   4.496   3.744
    1C        C  487   3.327   4.533   3.742
    1C        C  488   3.127   4.474   3.868
    1C        C  489   3.192   4.500   3.991
    1C        C  490   3.000   4.410   4.116
    1C        C  491   3.125   4.476   4.113
    1C        C  492   2.937   4.378   4.238
    1C        C  493   2.998   4.422   4.357
    1C        C  494   2.825   4.301   4.484
    1C        C  495   2.937   4.387   4.480
    1C        C  496   2.770   4.254   4.605
    1C        C  497   2.822   4.306   4.725
    1C        C  498   2.670   4.157   4.845
    1C        C  499   2.755   4.270   4.844
    1C        C  500   2.602   4.114   4.959
    1C        C  501   4.008   4.361   2.045
    1C        C  502   3.817   4.470   2.156
    1C        C  503   3.946   4.411   2.160
    1C        C  504   3.747   4.481   2.278
    1C        C  505   3.812   4.462   2.402
    1C        C  506   3.605   4.507   2.522
    1C        C  507   3.743   4.478   2.524
    1C        C  508   3.535   4.517   2.644
    1C        C  509   3.606   4.515   2.766
    1C        C  510   3.397   4.527   2.888
    1C        C  511   3.538   4.524   2.889
    1C        C  512   3.322   4.523   3.008
    1C        C  513   3.396   4.532   3.128
    1C        C  514   3.188   4.496   3.255
    1C        C  515   3.327   4.521   3.251
    1C        C  516   3.123   4.467   3.377
    1C        C  517   3.191   4.492   3.499
    1C        C  518   2.998   4.408   3.623
    1C        C  519   3.125   4.471   3.622
    1C        C  520   2.942   4.370   3.747
    1C        C  521   3.004   4.403   3.869
    1C        C  522   2.836   4.279   3.996
    1C        C  523   2.946   4.368   3.993
    1C        C  524   2.781   4.236   4.119
    1C        C  525   2.829   4.287   4.241
    1C        C  526   2.693   4.129   4.366
    1C        C  527   2.777   4.243   4.365
    1C        C  528   2.652   4.071   4.488
    1C        C  529   2.686   4.140   4.606
    1C        C  530   2.577   3.957   4.733
    1C        C  531   2.636   4.086   4.727
    1C        C  532   2.538   3.897   4.856
    1C        C  533   2.534   3.992   4.964
    1C        C  534   3.616   4.559   2.040
    1C        C  535   3.747   4.510   2.041
    1C        C  536   3.536   4.529   2.155
    1C        C  537   3.607   4.503   2.275
    1C        C  538   3.396   4.507   2.398
    1C        C  539   3.538   4.513   2.398
    1C        C  540   3.325   4.500   2.519
    1C        C  541   3.394   4.507   2.642
    1C        C  542   3.187   4.485   2.764
    1C        C  543   3.326   4.509   2.766
    1C        C  544   3.120   4.463   2.887
    1C        C  545   3.186   4.485   3.010
    1C        C  546   2.996   4.402   3.133
    1C        C  547   3.120   4.468   3.134
    1C        C  548   2.936   4.365   3.256
    1C        C  549   2.996   4.405   3.377
    1C        C  550   2.831   4.278   3.505
    1C        C  551   2.938   4.370   3.501
    1C        C  552   2.784   4.225   3.628
    1C        C  553   2.835   4.278   3.749
    1C        C  554   2.694   4.123   3.874
    1C        C  555   2.788   4.229   3.873
    1C        C  556   2.657   4.064   3.997
    1C        C  557   2.694   4.124   4.119
    1C        C  558   2.593   3.943   4.244
    1C        C  559   2.655   4.069   4.243
    1C        C  560   2.563   3.878   4.366
    1C        C  561   2.588   3.946   4.487
    1C        C  562   2.524   3.749   4.616
    1C        C  563   2.558   3.886   4.612
    1C        C  564   2.514   3.679   4.738
    1C        C  565   2.522   3.755   4.858
    1C        C  566   2.531   3.544   4.978
    1C        C  567   2.517   3.682   4.978
    1C        C  568   3.326   4.468   2.040
    1C        C  569   3.395   4.511   2.155
    1C        C  570   3.186   4.469   2.282
    1C        C  571   3.323   4.506   2.277
    1C        C  572   3.116   4.455   2.404
    1C        C  573   3.185   4.484   2.524
    1C        C  574   2.989   4.400   2.648
    1C        C  575   3.115   4.462   2.645
    1C        C  576   2.932   4.360   2.771
    1C        C  577   2.996   4.397   2.891
    1C        C  578   2.825   4.270   3.016
    1C        C  579   2.937   4.356   3.013
    1C        C  580   2.774   4.221   3.139
    1C        C  581   2.830   4.272   3.259
    1C        C  582   2.699   4.111   3.386
    1C        C  583   2.782   4.225   3.383
    1C        C  584   2.658   4.055   3.509
    1C        C  585   2.693   4.117   3.631
    1C        C  586   2.592   3.933   3.756
    1C        C  587   2.657   4.059   3.754
    1C        C  588   2.566   3.871   3.880
    1C        C  589   2.595   3.937   4.002
    1C        C  590   2.534   3.734   4.126
    1C        C  591   2.572   3.870   4.124
    1C        C  592   2.524   3.668   4.250
    1C        C  593   2.533   3.740   4.372
    1C        C  594   2.515   3.534   4.496
    1C        C  595   2.520   3.675   4.496
    1C        C  596   2.520   3.463   4.618
    1C        C  597   2.517   3.537   4.739
    1C        C  598   2.534   3.326   4.859
    1C        C  599   2.526   3.467   4.861
    1C        C  600   2.538   3.252   4.978
    1C        C  601   3.195   4.424   2.043
    1C        C  602   2.984   4.391   2.160
    1C        C  603   3.121   4.431   2.161
    1C        C  604   2.923   4.360   2.285
    1C        C  605   2.989   4.392   2.405
    1C        C  606   2.816   4.271   2.529
    1C        C  607   2.927   4.358   2.527
    1C        C  608   2.769   4.220   2.652
    1C        C  609   2.823   4.270   2.772
    1C        C  610   2.681   4.113   2.895
    1C        C  611   2.771   4.222   2.895
    1C        C  612   2.647   4.053   3.018
    1C        C  613   2.685   4.112   3.141
    1C        C  614   2.589   3.928   3.267
    1C        C  615   2.653   4.054   3.265
    1C        C  616   2.559   3.865   3.390
    1C        C  617   2.587   3.933   3.511
    1C        C  618   2.524   3.732   3.638
    1C        C  619   2.561   3.868   3.634
    1C        C  620   2.511   3.665   3.762
    1C        C  621   2.523   3.737   3.883
    1C        C  622   2.500   3.525   4.010
    1C        C  623   2.518   3.665   4.004
    1C        C  624   2.504   3.453   4.131
    1C        C  625   2.512   3.527   4.251
    1C        C  626   2.529   3.320   4.377
    1C        C  627   2.510   3.460   4.376
    1C        C  628   2.549   3.249   4.498
    1C        C  629   2.538   3.322   4.618
    1C        C  630   2.598   3.117   4.738
    1C        C  631   2.555   3.253   4.740
    1C        C  632   2.615   3.050   4.862
    1C        C  633   2.556   3.113   4.976
    1C        C  634   2.785   4.301   2.054
    1C        C  635   2.896   4.387   2.047
    1C        C  636   2.744   4.231   2.168
    1C        C  637   2.811   4.272   2.285
    1C        C  638   2.674   4.112   2.408
    1C        C  639   2.762   4.222   2.408
    1C        C  640   2.635   4.051   2.530
    1C        C  641   2.680   4.110   2.650
    1C        C  642   2.587   3.922   2.776
    1C        C  643   2.646   4.050   2.773
    1C        C  644   2.561   3.858   2.900
    1C        C  645   2.586   3.925   3.021
    1C        C  646   2.528   3.724   3.146
    1C        C  647   2.564   3.861   3.145
    1C        C  648   2.513   3.657   3.269
    1C        C  649   2.524   3.728   3.390
    1C        C  650   2.515   3.521   3.520
    1C        C  651   2.518   3.662   3.515
    1C        C  652   2.511   3.454   3.644
    1C        C  653   2.507   3.523   3.767
    1C        C  654   2.529   3.312   3.890
    1C        C  655   2.512   3.452   3.889
    1C        C  656   2.546   3.245   4.013
    1C        C  657   2.525   3.313   4.135
    1C        C  658   2.598   3.116   4.258
    1C        C  659   2.538   3.244   4.258
    1C        C  660   2.620   3.047   4.379
    1C        C  661   2.582   3.112   4.498
    1C        C  662   2.710   2.937   4.623
    1C        C  663   2.627   3.051   4.617
    1C        C  664   2.756   2.882   4.745
    1C        C  665   2.701   2.935   4.865
    1C        C  666   2.746   2.874   4.983
    1C        C  667   2.679   4.021   2.052
    1C        C  668   2.678   4.106   2.163
    1C        C  669   2.587   3.917   2.292
    1C        C  670   2.639   4.049   2.286
    1C        C  671   2.556   3.851   2.413
    1C        C  672   2.579   3.922   2.533
    1C        C  673   2.520   3.719   2.658
    1C        C  674   2.559   3.854   2.655
    1C        C  675   2.513   3.647   2.780
    1C        C  676   2.532   3.720   2.900
    1C        C  677   2.502   3.514   3.030
    1C        C  678   2.515   3.654   3.024
    1C        C  679   2.510   3.444   3.152
    1C        C  680   2.511   3.516   3.274
    1C        C  681   2.535   3.309   3.403
    1C        C  682   2.513   3.449   3.399
    1C        C  683   2.559   3.244   3.526
    1C        C  684   2.535   3.315   3.646
    1C        C  685   2.602   3.113   3.772
    1C        C  686   2.550   3.244   3.768
    1C        C  687   2.642   3.052   3.893
    1C        C  688   2.604   3.117   4.013
    1C        C  689   2.717   2.939   4.138
    1C        C  690   2.635   3.055   4.136
    1C        C  691   2.761   2.885   4.261
    1C        C  692   2.709   2.937   4.381
    1C        C  693   2.754   2.879   4.502
    1C        C  694   2.630   3.890   2.056
    1C        C  695   2.525   3.707   2.175
    1C        C  696   2.579   3.837   2.175
    1C        C  697   2.506   3.638   2.297
    1C        C  698   2.515   3.716   2.415
    1C        C  699   2.489   3.507   2.540
    1C        C  700   2.502   3.648   2.538
    1C        C  701   2.497   3.437   2.663
    1C        C  702   2.499   3.507   2.785
    1C        C  703   2.528   3.300   2.911
    1C        C  704   2.506   3.440   2.909
    1C        C  705   2.549   3.235   3.035
    1C        C  706   2.540   3.306   3.157
    1C        C  707   2.603   3.108   3.279
    1C        C  708   2.551   3.240   3.281
    1C        C  709   2.639   3.051   3.403
    1C        C  710   2.610   3.112   3.527
    1C        C  711   2.715   2.932   3.648
    1C        C  712   2.635   3.048   3.650
    1C        C  713   2.759   2.875   3.770
    1C        C  714   2.721   2.935   3.892
    1C        C  715   2.762   2.882   4.017
    1C        C  716   2.453   3.496   2.062
    1C        C  717   2.486   3.632   2.063
    1C        C  718   2.468   3.420   2.182
    1C        C  719   2.484   3.498   2.300
    1C        C  720   2.519   3.291   2.426
    1C        C  721   2.488   3.429   2.423
    1C        C  722   2.539   3.224   2.548
    1C        C  723   2.522   3.298   2.667
    1C        C  724   2.603   3.103   2.791
    1C        C  725   2.540   3.229   2.790
    1C        C  726   2.630   3.039   2.914
    1C        C  727   2.598   3.103   3.036
    1C        C  728   2.712   2.924   3.161
    1C        C  729   2.633   3.041   3.159
    1C        C  730   2.757   2.871   3.284
    1C        C  731   2.714   2.931   3.404
    1C        C  732   2.758   2.875   3.526
    1C        C  733   2.494   3.195   2.074
    1C        C  734   2.494   3.279   2.186
    1C        C  735   2.590   3.085   2.307
    1C        C  736   2.533   3.216   2.307
    1C        C  737   2.616   3.022   2.430
    1C        C  738   2.585   3.090   2.550
    1C        C  739   2.707   2.914   2.668
    1C        C  740   2.630   3.032   2.671
    1C        C  741   2.749   2.863   2.793
    1C        C  742   2.703   2.918   2.914
    1C        C  743   2.748   2.866   3.037
    1C        C  744   2.558   3.072   2.072
    1C        C  745   2.691   2.897   2.186
    1C        C  746   2.614   3.015   2.187
    1C        C  747   2.733   2.841   2.309
    1C        C  748   2.689   2.901   2.429
    1C        C  749   2.743   2.848   2.548
    1C        C  750   2.739   2.840   2.067
    1C        C  751   3.657   2.313   1.980
    1C        O  752   3.710   2.212   2.034
    1C        O  753   3.628   2.311   1.843
    1C        C  754   4.616   3.057   1.963
    1C        O  755   4.584   3.061   1.841
    1C        O  756   4.755   3.078   1.969
    1C        C  757   4.449   4.214   1.954
    1C        O  758   4.494   4.327   1.989
    1C        O  759   4.452   4.195   1.815
    1C        C  760   3.588   4.690   1.976
    1C        O  761   3.612   4.804   2.026
    1C        O  762   3.527   4.704   1.851
    1C        C  763   2.875   4.502   1.957
    1C        O  764   2.932   4.518   1.845
    1C        O  765   2.776   4.597   1.983
    1C        C  766   2.338   3.466   1.975
    1C        O  767   2.360   3.432   1.855
    1C        O  768   2.207   3.514   1.984
    1C        C  769   4.710   3.580   5.029
    1C        O  770   4.699   3.517   5.137
    1C        O  771   4.834   3.646   5.021
    1C        C  772   4.268   4.423   5.052
    1C        O  773   4.249   4.402   5.175
    1C        O  774   4.381   4.505   5.043
    1C        C  775   4.147   2.541   5.086
    1C        O  776   4.192   2.424   5.090
    1C        O  777   4.135   2.585   5.218
    1C        C  778   2.904   4.521   5.073
    1C        O  779   2.847   4.633   5.078
    1C        O  780   2.957   4.472   5.193
    1C        C  781   2.459   3.038   5.059
    1C        O  782   2.344   3.016   5.013
    1C        O  783   2.472   3.031   5.198
    1C        C  784   2.412   3.992   5.047
    1C        O  785   2.299   4.005   4.992
    1C        O  786   2.425   4.001   5.186
    1C        C  787   2.947   2.424   2.007
    1C        O  788   2.930   2.430   1.882
    1C        O  789   2.881   2.314   2.062
    1C        C  790   3.191   2.372   5.064
    1C        O  791   3.115   2.276   5.034
    1C        O  792   3.241   2.368   5.195
    1C        H  793   4.245   3.038   5.041
    1C        H  794   4.173   2.811   5.071
    1C        H  795   4.524   3.116   5.046
    1C        H  796   4.521   3.371   5.065
    1C        H  797   4.590   3.806   5.038
    1C        H  798   4.440   3.977   5.049
    1C        H  799   4.332   4.191   5.049
    1C        H  800   4.032   4.544   5.027
    1C        H  801   3.825   4.624   5.024
    1C        H  802   3.582   4.639   5.030
    1C        H  803   3.403   4.488   5.038
    1C        H  804   3.179   4.420   5.036
    1C        H  805   3.916   2.451   5.048
    1C        H  806   3.678   2.447   5.076
    1C        H  807   3.024   2.584   5.074
    1C        H  808   3.436   2.459   5.068
    1C        H  809   2.876   2.740   5.079
    1C        H  810   2.716   2.911   5.079
    1C        H  811   2.559   3.303   5.069
    1C        H  812   2.516   3.501   5.075
    1C        H  813   2.502   3.735   5.069
    1C        H  814   2.551   4.193   5.011
    1C        H  815   2.752   4.318   5.051
    1C        H  816   2.688   2.856   1.974
    1C        H  817   2.807   2.656   1.995
    1C        H  818   3.218   2.474   1.983
    1C        H  819   3.427   2.440   1.978
    1C        H  820   3.853   2.499   1.980
    1C        H  821   4.065   2.630   1.972
    1C        H  822   4.272   2.702   1.985
    1C        H  823   4.419   2.888   1.977
    1C        H  824   4.599   3.314   1.977
    1C        H  825   4.501   3.516   1.959
    1C        H  826   4.525   3.752   1.960
    1C        H  827   3.764   4.454   1.951
    1C        H  828   3.987   4.405   1.949
    1C        H  829   4.144   4.227   1.960
    1C        H  830   4.503   3.975   1.963
    1C        H  831   2.610   3.844   1.962
    1C        H  832   2.708   4.063   1.957
    1C        H  833   2.701   4.338   2.000
    1C        H  834   3.373   4.490   1.946
    1C        H  835   3.154   4.383   1.954
    1C        H  836   2.520   3.009   1.994
    1C        H  837   2.409   3.197   2.008
    1C        H  838   2.454   3.693   1.981
    2V3OU   H29  839   2.809   3.541   3.933
    2V3OU   C27  840   2.794   3.497   4.035
    2V3OU   H27  841   2.740   3.570   4.101
    2V3OU   H28  842   2.734   3.403   4.025
    2V3OU   O11  843   2.912   3.479   4.113
    2V3OU   C15  844   2.927   3.401   4.226
    2V3OU   C13  845   3.052   3.371   4.284
    2V3OU   C14  846   3.081   3.268   4.374
    2V3OU   C16  847   2.982   3.182   4.420
    2V3OU    H6  848   2.994   3.098   4.490
    2V3OU   C12  849   3.218   3.228   4.414
    2V3OU    O2  850   3.233   3.129   4.489
    2V3OU   C10  851   3.330   3.312   4.369
    2V3OU    C8  852   3.460   3.265   4.386
    2V3OU   O10  853   3.490   3.153   4.457
    2V3OU   H26  854   3.403   3.109   4.461
    2V3OU    C6  855   3.567   3.350   4.343
    2V3OU    C5  856   3.538   3.465   4.270
    2V3OU    C4  857   3.705   3.295   4.338
    2V3OU    H4  858   3.724   3.227   4.427
    2V3OU    H5  859   3.713   3.230   4.246
    2V3OU    C2  860   3.818   3.398   4.341
    2V3OU    O6  861   3.807   3.477   4.459
    2V3OU   H21  862   3.766   3.562   4.433
    2V3OU    C3  863   3.783   3.495   4.228
    2V3OU    H2  864   3.860   3.576   4.227
    2V3OU    H3  865   3.782   3.436   4.132
    2V3OU   C25  866   3.952   3.327   4.319
    2V3OU    O7  867   3.999   3.294   4.210
    2V3OU   C26  868   4.032   3.292   4.444
    2V3OU   H22  869   4.061   3.387   4.497
    2V3OU   H23  870   4.120   3.230   4.417
    2V3OU    O8  871   3.958   3.212   4.533
    2V3OU   H24  872   3.926   3.267   4.606
    2V3OU    C1  873   3.648   3.564   4.241
    2V3OU    H1  874   3.625   3.621   4.146
    2V3OU    O3  875   3.663   3.654   4.350
    2V3OU   C19  876   3.615   3.787   4.334
    2V3OU    H9  877   3.518   3.803   4.279
    2V3OU    O4  878   3.717   3.843   4.253
    2V3OU   C20  879   3.844   3.872   4.311
    2V3OU   H10  880   3.893   3.771   4.327
    2V3OU   C24  881   3.613   3.855   4.471
    2V3OU   H16  882   3.547   3.799   4.542
    2V3OU   H17  883   3.564   3.953   4.446
    2V3OU   C23  884   3.748   3.871   4.540
    2V3OU   H15  885   3.795   3.769   4.560
    2V3OU    N1  886   3.730   3.954   4.658
    2V3OU   H19  887   3.809   3.929   4.714
    2V3OU   H20  888   3.651   3.939   4.717
    2V3OU   C21  889   3.844   3.947   4.444
    2V3OU   H11  890   3.949   3.924   4.479
    2V3OU    O5  891   3.826   4.088   4.448
    2V3OU   H18  892   3.774   4.108   4.528
    2V3OU   C22  893   3.913   3.948   4.200
    2V3OU   H12  894   3.859   4.045   4.181
    2V3OU   H13  895   3.906   3.896   4.101
    2V3OU   H14  896   4.022   3.960   4.223
    2V3OU   C11  897   3.161   3.468   4.264
    2V3OU    O1  898   3.133   3.584   4.228
    2V3OU    C9  899   3.300   3.424   4.287
    2V3OU    C7  900   3.404   3.502   4.238
    2V3OU    O9  901   3.377   3.611   4.157
    2V3OU   H25  902   3.284   3.626   4.177
    2V3OU   C17  903   2.830   3.315   4.282
    2V3OU    H7  904   2.733   3.349   4.245
    2V3OU   C18  905   2.854   3.217   4.376
    2V3OU    H8  906   2.788   3.176   4.454
    3SOL     OW  907   3.157   4.310   5.268
    3SOL    HW1  908   3.076   4.367   5.261
    3SOL    HW2  909   3.216   4.343   5.342
    4SOL     OW  910   0.170   0.246   0.394
    4SOL    HW1  911   0.076   0.283   0.391
    4SOL    HW2  912   0.205   0.238   0.301
    5SOL     OW  913   4.906   1.348   2.289
    5SOL    HW1  914   4.919   1.296   2.204
    5SOL    HW2  915   4.947   1.438   2.278
    6SOL     OW  916   5.447   1.991   3.056
    6SOL    HW1  917   5.347   1.983   3.056
    6SOL    HW2  918   5.472   2.086   3.038
    7SOL     OW  919   1.026   4.292   4.792
    7SOL    HW1  920   1.049   4.210   4.740
    7SOL    HW2  921   1.082   4.369   4.760
    8SOL     OW  922   2.494   2.340   5.305
    8SOL    HW1  923   2.425   2.404   5.269
    8SOL    HW2  924   2.448   2.265   5.353
    9SOL     OW  925   6.705   1.483   6.094
    9SOL    HW1  926   6.769   1.488   6.016
    9SOL    HW2  927   6.735   1.546   6.166
   10SOL     OW  928   3.700   5.217   3.794
   10SOL    HW1  929   3.771   5.272   3.839
   10SOL    HW2  930   3.689   5.131   3.844
   11SOL     OW  931   2.062   0.298   0.108
   11SOL    HW1  932   2.076   0.396   0.094
   11SOL    HW2  933   1.979   0.283   0.160
   12SOL     OW  934   2.657   4.688   3.987
   12SOL    HW1  935   2.716   4.758   3.946
   12SOL    HW2  936   2.564   4.699   3.951
   13SOL     OW  937   3.596   6.277   2.899
   13SOL    HW1  938   3.663   6.250   2.968
   13SOL    HW2  939   3.513   6.309   2.945
   14SOL     OW  940   4.577   4.958   5.770
   14SOL    HW1  941   4.583   4.984   5.673
   14SOL    HW2  942   4.588   4.859   5.779
   15SOL     OW  943   0.176   6.095   6.379
   15SOL    HW1  944   0.201   6.191   6.383
   15SOL    HW2  945   0.134   6.068   6.466
   16SOL     OW  946   5.370   2.774   6.484
   16SOL    HW1  947   5.331   2.704   6.544
   16SOL    HW2  948   5.302   2.800   6.414
   17SOL     OW  949   6.036   0.451   5.751
   17SOL    HW1  950   5.956   0.473   5.808
   17SOL    HW2  951   6.117   0.446   5.809
   18SOL     OW  952   3.170   1.587   5.312
   18SOL    HW1  953   3.072   1.603   5.320
   18SOL    HW2  954   3.209   1.573   5.403
   19SOL     OW  955   0.701   2.284   2.698
   19SOL    HW1  956   0.750   2.368   2.673
   19SOL    HW2  957   0.711   2.217   2.624
   20SOL     OW  958   5.957   1.746   5.834
   20SOL    HW1  959   5.951   1.836   5.792
   20SOL    HW2  960   6.050   1.731   5.868
   21SOL     OW  961   3.275   6.703   2.489
   21SOL    HW1  962   3.252   6.692   2.586
   21SOL    HW2  963   3.197   6.676   2.432
   22SOL     OW  964   1.236   5.860   5.712
   22SOL    HW1  965   1.155   5.834   5.659
   22SOL    HW2  966   1.280   5.777   5.748
   23SOL     OW  967   4.643   4.554   2.702
   23SOL    HW1  968   4.715   4.496   2.740
   23SOL    HW2  969   4.634   4.636   2.759
   24SOL     OW  970   3.618   0.219   1.344
   24SOL    HW1  971   3.560   0.259   1.415
   24SOL    HW2  972   3.686   0.159   1.386
   25SOL     OW  973   3.115   6.908   3.820
   25SOL    HW1  974   3.058   6.866   3.749
   25SOL    HW2  975   3.124   7.006   3.802
   26SOL     OW  976   1.305   2.051   6.848
   26SOL    HW1  977   1.309   1.952   6.836
   26SOL    HW2  978   1.396   2.086   6.867
   27SOL     OW  979   0.553   1.196   2.696
   27SOL    HW1  980   0.562   1.102   2.729
   27SOL    HW2  981   0.492   1.198   2.617
   28SOL     OW  982   0.980   0.789   4.573
   28SOL    HW1  983   0.928   0.754   4.650
   28SOL    HW2  984   1.045   0.859   4.605
   29SOL     OW  985   6.022   0.964   1.060
   29SOL    HW1  986   6.119   0.947   1.079
   29SOL    HW2  987   5.981   1.012   1.138
   30SOL     OW  988   3.650   0.291   4.856
   30SOL    HW1  989   3.738   0.272   4.900
   30SOL    HW2  990   3.661   0.296   4.757
   31SOL     OW  991   0.145   1.893   5.132
   31SOL    HW1  992   0.164   1.963   5.201
   31SOL    HW2  993   0.182   1.923   5.043
   32SOL     OW  994   1.546   1.465   1.658
   32SOL    HW1  995   1.529   1.397   1.730
   32SOL    HW2  996   1.510   1.553   1.687
   33SOL     OW  997   0.011   3.770   5.194
   33SOL    HW1  998   7.013   3.863   5.225
   33SOL    HW2  999   0.082   3.773   5.124
   34SOL     OW 1000   2.058   5.194   4.889
   34SOL    HW1 1001   2.148   5.212   4.930
   34SOL    HW2 1002   2.060   5.218   4.792
   35SOL     OW 1003   3.819   2.334   5.735
   35SOL    HW1 1004   3.869   2.251   5.758
   35SOL    HW2 1005   3.733   2.310   5.690
   36SOL     OW 1006   5.038   1.398   4.145
   36SOL    HW1 1007   5.003   1.308   4.170
   36SOL    HW2 1008   5.101   1.390   4.068
   37SOL     OW 1009   2.199   1.254   3.645
   37SOL    HW1 1010   2.192   1.332   3.583
   37SOL    HW2 1011   2.272   1.271   3.711
   38SOL     OW 1012   1.914   4.578   1.776
   38SOL    HW1 1013   1.914   4.478   1.774
   38SOL    HW2 1014   1.859   4.613   1.700
   39SOL     OW 1015   6.155   4.534   6.720
   39SOL    HW1 1016   6.132   4.497   6.630
   39SOL    HW2 1017   6.206   4.619   6.709
   40SOL     OW 1018   3.456   0.264   5.994
   40SOL    HW1 1019   3.534   0.202   6.004
   40SOL    HW2 1020   3.437   0.280   5.897
   41SOL     OW 1021   6.112   4.202   2.474
   41SOL    HW1 1022   6.032   4.169   2.525
   41SOL    HW2 1023   6.170   4.124   2.451
   42SOL     OW 1024   2.996   6.409   4.769
   42SOL    HW1 1025   3.048   6.326   4.786
   42SOL    HW2 1026   2.899   6.387   4.762
   43SOL     OW 1027   4.015   6.602   4.496
   43SOL    HW1 1028   4.008   6.503   4.514
   43SOL    HW2 1029   4.044   6.616   4.401
   44SOL     OW 1030   6.120   3.164   5.150
   44SOL    HW1 1031   6.135   3.102   5.073
   44SOL    HW2 1032   6.109   3.257   5.117
   45SOL     OW 1033   4.404   5.746   1.911
   45SOL    HW1 1034   4.437   5.734   2.005
   45SOL    HW2 1035   4.429   5.837   1.879
   46SOL     OW 1036   0.551   2.984   4.414
   46SOL    HW1 1037   0.560   2.886   4.433
   46SOL    HW2 1038   0.642   3.027   4.417
   47SOL     OW 1039   5.161   4.006   1.719
   47SOL    HW1 1040   5.251   3.988   1.758
   47SOL    HW2 1041   5.170   4.045   1.628
   48SOL     OW 1042   0.317   3.016   6.916
   48SOL    HW1 1043   0.366   3.045   6.998
   48SOL    HW2 1044   0.229   3.063   6.912
   49SOL     OW 1045   4.988   2.594   0.545
   49SOL    HW1 1046   5.000   2.690   0.570
   49SOL    HW2 1047   5.045   2.573   0.466
   50SOL     OW 1048   6.139   1.456   5.987
   50SOL    HW1 1049   6.173   1.550   5.977
   50SOL    HW2 1050   6.217   1.395   6.004
   51SOL     OW 1051   2.284   5.088   2.424
   51SOL    HW1 1052   2.364   5.085   2.364
   51SOL    HW2 1053   2.315   5.105   2.518
   52SOL     OW 1054   5.482   2.658   1.112
   52SOL    HW1 1055   5.480   2.616   1.203
   52SOL    HW2 1056   5.560   2.622   1.060
   53SOL     OW 1057   5.080   0.245   3.441
   53SOL    HW1 1058   4.983   0.226   3.424
   53SOL    HW2 1059   5.132   0.160   3.437
   54SOL     OW 1060   5.841   6.384   0.493
   54SOL    HW1 1061   5.816   6.435   0.576
   54SOL    HW2 1062   5.834   6.444   0.414
   55SOL     OW 1063   2.138   2.479   6.385
   55SOL    HW1 1064   2.196   2.514   6.459
   55SOL    HW2 1065   2.195   2.449   6.309
   56SOL     OW 1066   1.545   1.825   0.791
   56SOL    HW1 1067   1.632   1.779   0.804
   56SOL    HW2 1068   1.491   1.820   0.875
   57SOL     OW 1069   3.737   0.439   6.773
   57SOL    HW1 1070   3.688   0.444   6.686
   57SOL    HW2 1071   3.697   0.503   6.838
   58SOL     OW 1072   0.758   1.063   6.197
   58SOL    HW1 1073   0.759   1.020   6.287
   58SOL    HW2 1074   0.689   1.136   6.196
   59SOL     OW 1075   6.410   3.424   6.279
   59SOL    HW1 1076   6.399   3.443   6.376
   59SOL    HW2 1077   6.345   3.353   6.251
   60SOL     OW 1078   6.057   1.026   3.750
   60SOL    HW1 1079   6.015   1.088   3.683
   60SOL    HW2 1080   6.017   1.040   3.840
   61SOL     OW 1081   0.423   1.195   4.554
   61SOL    HW1 1082   0.430   1.096   4.545
   61SOL    HW2 1083   0.456   1.239   4.470
   62SOL     OW 1084   1.457   1.324   1.878
   62SOL    HW1 1085   1.511   1.308   1.960
   62SOL    HW2 1086   1.437   1.237   1.832
   63SOL     OW 1087   4.307   6.834   3.999
   63SOL    HW1 1088   4.214   6.843   3.963
   63SOL    HW2 1089   4.373   6.861   3.929
   64SOL     OW 1090   0.918   3.477   6.534
   64SOL    HW1 1091   0.830   3.518   6.513
   64SOL    HW2 1092   0.929   3.469   6.633
   65SOL     OW 1093   0.037   6.989   5.617
   65SOL    HW1 1094   6.973   7.010   5.660
   65SOL    HW2 1095   0.109   6.983   5.687
   66SOL     OW 1096   3.200   0.404   2.764
   66SOL    HW1 1097   3.292   0.365   2.758
   66SOL    HW2 1098   3.160   0.408   2.672
   67SOL     OW 1099   0.214   2.384   7.013
   67SOL    HW1 1100   0.119   2.365   0.015
   67SOL    HW2 1101   0.275   2.359   0.064
   68SOL     OW 1102   0.064   1.414   5.838
   68SOL    HW1 1103   0.110   1.502   5.832
   68SOL    HW2 1104   0.117   1.352   5.896
   69SOL     OW 1105   1.426   4.619   6.243
   69SOL    HW1 1106   1.365   4.658   6.313
   69SOL    HW2 1107   1.372   4.595   6.163
   70SOL     OW 1108   5.352   3.785   4.749
   70SOL    HW1 1109   5.436   3.735   4.729
   70SOL    HW2 1110   5.360   3.830   4.838
   71SOL     OW 1111   4.668   1.867   4.302
   71SOL    HW1 1112   4.662   1.956   4.256
   71SOL    HW2 1113   4.746   1.817   4.267
   72SOL     OW 1114   0.314   1.026   2.892
   72SOL    HW1 1115   0.357   1.115   2.884
   72SOL    HW2 1116   0.377   0.955   2.860
   73SOL     OW 1117   3.274   0.801   7.023
   73SOL    HW1 1118   3.367   0.795   0.035
   73SOL    HW2 1119   3.263   0.886   6.971
   74SOL     OW 1120   2.161   1.677   6.198
   74SOL    HW1 1121   2.088   1.619   6.234
   74SOL    HW2 1122   2.249   1.649   6.235
   75SOL     OW 1123   4.364   1.695   1.357
   75SOL    HW1 1124   4.464   1.687   1.360
   75SOL    HW2 1125   4.335   1.767   1.419
   76SOL     OW 1126   2.784   4.199   6.063
   76SOL    HW1 1127   2.821   4.289   6.039
   76SOL    HW2 1128   2.750   4.154   5.981
   77SOL     OW 1129   1.770   5.414   4.307
   77SOL    HW1 1130   1.867   5.432   4.322
   77SOL    HW2 1131   1.716   5.490   4.344
   78SOL     OW 1132   4.054   1.244   0.870
   78SOL    HW1 1133   4.025   1.231   0.964
   78SOL    HW2 1134   4.032   1.162   0.817
   79SOL     OW 1135   2.298   5.610   1.958
   79SOL    HW1 1136   2.294   5.707   1.984
   79SOL    HW2 1137   2.382   5.594   1.906
   80SOL     OW 1138   4.824   2.068   4.811
   80SOL    HW1 1139   4.752   2.064   4.881
   80SOL    HW2 1140   4.799   2.137   4.742
   81SOL     OW 1141   1.920   0.302   0.750
   81SOL    HW1 1142   1.928   0.337   0.843
   81SOL    HW2 1143   1.824   0.279   0.732
   82SOL     OW 1144   0.312   6.220   2.448
   82SOL    HW1 1145   0.369   6.253   2.373
   82SOL    HW2 1146   0.369   6.204   2.529
   83SOL     OW 1147   6.760   1.739   5.771
   83SOL    HW1 1148   6.774   1.836   5.792
   83SOL    HW2 1149   6.843   1.688   5.795
   84SOL     OW 1150   6.059   3.016   3.516
   84SOL    HW1 1151   6.123   3.018   3.593
   84SOL    HW2 1152   6.076   3.095   3.457
   85SOL     OW 1153   1.719   6.864   3.998
   85SOL    HW1 1154   1.658   6.937   3.968
   85SOL    HW2 1155   1.669   6.799   4.055
   86SOL     OW 1156   6.293   1.206   6.903
   86SOL    HW1 1157   6.202   1.184   6.868
   86SOL    HW2 1158   6.287   1.238   6.998
   87SOL     OW 1159   4.471   4.357   6.900
   87SOL    HW1 1160   4.495   4.393   6.990
   87SOL    HW2 1161   4.540   4.383   6.834
   88SOL     OW 1162   2.933   2.221   5.592
   88SOL    HW1 1163   3.029   2.222   5.564
   88SOL    HW2 1164   2.893   2.311   5.575
   89SOL     OW 1165   3.081   3.956   2.277
   89SOL    HW1 1166   3.034   4.007   2.206
   89SOL    HW2 1167   3.180   3.969   2.268
   90SOL     OW 1168   4.543   4.409   2.974
   90SOL    HW1 1169   4.579   4.331   2.923
   90SOL    HW2 1170   4.474   4.456   2.919
   91SOL     OW 1171   6.189   5.909   5.789
   91SOL    HW1 1172   6.150   5.960   5.866
   91SOL    HW2 1173   6.211   5.971   5.715
   92SOL     OW 1174   5.089   4.056   0.354
   92SOL    HW1 1175   5.101   4.045   0.256
   92SOL    HW2 1176   5.029   3.984   0.390
   93SOL     OW 1177   3.334   3.420   1.183
   93SOL    HW1 1178   3.248   3.370   1.193
   93SOL    HW2 1179   3.352   3.473   1.267
   94SOL     OW 1180   2.462   0.138   6.685
   94SOL    HW1 1181   2.517   0.084   6.622
   94SOL    HW2 1182   2.385   0.084   6.718
   95SOL     OW 1183   0.490   0.486   4.465
   95SOL    HW1 1184   0.442   0.541   4.397
   95SOL    HW2 1185   0.425   0.449   4.531
   96SOL     OW 1186   5.017   5.176   0.196
   96SOL    HW1 1187   4.961   5.230   0.258
   96SOL    HW2 1188   5.003   5.208   0.102
   97SOL     OW 1189   1.845   4.564   5.266
   97SOL    HW1 1190   1.909   4.488   5.252
   97SOL    HW2 1191   1.887   4.633   5.325
   98SOL     OW 1192   0.596   2.476   1.725
   98SOL    HW1 1193   0.562   2.471   1.631
   98SOL    HW2 1194   0.526   2.441   1.787
   99SOL     OW 1195   3.694   3.684   3.182
   99SOL    HW1 1196   3.647   3.712   3.099
   99SOL    HW2 1197   3.783   3.644   3.158
  100SOL     OW 1198   7.012   6.947   3.891
  100SOL    HW1 1199   6.983   6.947   3.795
  100SOL    HW2 1200   0.073   7.001   3.900
  101SOL     OW 1201   0.783   4.831   2.133
  101SOL    HW1 1202   0.751   4.832   2.228
  101SOL    HW2 1203   0.708   4.803   2.074
  102SOL     OW 1204   2.405   5.968   2.211
  102SOL    HW1 1205   2.325   6.026   2.196
  102SOL    HW2 1206   2.387   5.906   2.287
  103SOL     OW 1207   1.814   1.180   2.400
  103SOL    HW1 1208   1.725   1.156   2.361
  103SOL    HW2 1209   1.809   1.179   2.499
  104SOL     OW 1210   0.977   4.625   2.303
  104SOL    HW1 1211   1.009   4.718   2.321
  104SOL    HW2 1212   0.887   4.612   2.345
  105SOL     OW 1213   5.292   1.086   6.417
  105SOL    HW1 1214   5.292   1.113   6.320
  105SOL    HW2 1215   5.201   1.054   6.443
  106SOL     OW 1216   4.909   4.952   1.600
  106SOL    HW1 1217   4.907   5.041   1.555
  106SOL    HW2 1218   4.819   4.932   1.640
  107SOL     OW 1219   6.594   1.121   0.582
  107SOL    HW1 1220   6.622   1.121   0.486
  107SOL    HW2 1221   6.502   1.082   0.590
  108SOL     OW 1222   2.689   0.354   4.520
  108SOL    HW1 1223   2.743   0.413   4.580
  108SOL    HW2 1224   2.599   0.394   4.506
  109SOL     OW 1225   3.333   0.678   2.687
  109SOL    HW1 1226   3.353   0.596   2.740
  109SOL    HW2 1227   3.299   0.652   2.597
  110SOL     OW 1228   2.441   4.417   5.226
  110SOL    HW1 1229   2.353   4.383   5.194
  110SOL    HW2 1230   2.481   4.351   5.289
  111SOL     OW 1231   6.569   1.466   2.541
  111SOL    HW1 1232   6.640   1.523   2.502
  111SOL    HW2 1233   6.569   1.476   2.641
  112SOL     OW 1234   4.256   6.109   6.830
  112SOL    HW1 1235   4.223   6.063   6.748
  112SOL    HW2 1236   4.254   6.046   6.907
  113SOL     OW 1237   6.508   5.389   2.925
  113SOL    HW1 1238   6.426   5.334   2.936
  113SOL    HW2 1239   6.490   5.465   2.863
  114SOL     OW 1240   1.349   4.879   3.091
  114SOL    HW1 1241   1.374   4.792   3.135
  114SOL    HW2 1242   1.384   4.955   3.146
  115SOL     OW 1243   5.907   1.183   3.529
  115SOL    HW1 1244   5.951   1.134   3.454
  115SOL    HW2 1245   5.809   1.163   3.529
  116SOL     OW 1246   0.301   6.062   1.056
  116SOL    HW1 1247   0.364   6.056   1.134
  116SOL    HW2 1248   0.254   5.975   1.045
  117SOL     OW 1249   3.132   1.714   6.971
  117SOL    HW1 1250   3.108   1.640   0.010
  117SOL    HW2 1251   3.055   1.778   6.965
  118SOL     OW 1252   1.422   1.431   3.312
  118SOL    HW1 1253   1.324   1.419   3.321
  118SOL    HW2 1254   1.448   1.523   3.342
  119SOL     OW 1255   7.010   6.992   0.241
  119SOL    HW1 1256   7.016   6.959   0.335
  119SOL    HW2 1257   0.079   7.008   0.205
  120SOL     OW 1258   4.620   0.521   5.056
  120SOL    HW1 1259   4.617   0.422   5.049
  120SOL    HW2 1260   4.657   0.560   4.972
  121SOL     OW 1261   1.180   4.016   0.265
  121SOL    HW1 1262   1.211   3.933   0.217
  121SOL    HW2 1263   1.252   4.046   0.328
  122SOL     OW 1264   1.307   4.413   0.037
  122SOL    HW1 1265   1.317   4.331   7.004
  122SOL    HW2 1266   1.392   4.430   0.086
  123SOL     OW 1267   1.537   0.936   1.675
  123SOL    HW1 1268   1.612   0.924   1.610
  123SOL    HW2 1269   1.486   0.851   1.683
  124SOL     OW 1270   3.250   2.378   0.787
  124SOL    HW1 1271   3.192   2.435   0.730
  124SOL    HW2 1272   3.258   2.287   0.746
  125SOL     OW 1273   2.972   2.548   6.962
  125SOL    HW1 1274   3.041   2.507   7.021
  125SOL    HW2 1275   3.011   2.563   6.871
  126SOL     OW 1276   2.898   3.348   3.332
  126SOL    HW1 1277   2.801   3.354   3.354
  126SOL    HW2 1278   2.909   3.325   3.235
  127SOL     OW 1279   6.787   5.884   5.466
  127SOL    HW1 1280   6.708   5.885   5.528
  127SOL    HW2 1281   6.756   5.860   5.374
  128SOL     OW 1282   5.067   3.702   2.232
  128SOL    HW1 1283   5.021   3.615   2.243
  128SOL    HW2 1284   5.032   3.768   2.299
  129SOL     OW 1285   2.301   5.456   1.010
  129SOL    HW1 1286   2.308   5.553   1.033
  129SOL    HW2 1287   2.349   5.402   1.079
  130SOL     OW 1288   6.032   1.846   4.134
  130SOL    HW1 1289   6.099   1.877   4.202
  130SOL    HW2 1290   5.946   1.894   4.147
  131SOL     OW 1291   6.527   1.179   3.994
  131SOL    HW1 1292   6.481   1.205   4.078
  131SOL    HW2 1293   6.541   1.260   3.937
  132SOL     OW 1294   3.291   4.195   1.570
  132SOL    HW1 1295   3.209   4.243   1.600
  132SOL    HW2 1296   3.350   4.176   1.649
  133SOL     OW 1297   5.309   0.785   3.901
  133SOL    HW1 1298   5.357   0.736   3.973
  133SOL    HW2 1299   5.246   0.723   3.854
  134SOL     OW 1300   6.466   0.623   2.175
  134SOL    HW1 1301   6.392   0.677   2.136
  134SOL    HW2 1302   6.535   0.683   2.215
  135SOL     OW 1303   4.895   3.435   4.443
  135SOL    HW1 1304   4.805   3.426   4.485
  135SOL    HW2 1305   4.935   3.344   4.430
  136SOL     OW 1306   2.527   6.023   5.000
  136SOL    HW1 1307   2.448   6.076   5.030
  136SOL    HW2 1308   2.507   5.925   5.007
  137SOL     OW 1309   3.990   1.165   4.677
  137SOL    HW1 1310   3.998   1.264   4.686
  137SOL    HW2 1311   4.014   1.137   4.584
  138SOL     OW 1312   0.651   5.620   3.533
  138SOL    HW1 1313   0.589   5.679   3.481
  138SOL    HW2 1314   0.724   5.675   3.573
  139SOL     OW 1315   2.179   5.520   6.694
  139SOL    HW1 1316   2.090   5.504   6.651
  139SOL    HW2 1317   2.249   5.528   6.624
  140SOL     OW 1318   2.063   0.139   3.210
  140SOL    HW1 1319   2.137   0.074   3.227
  140SOL    HW2 1320   1.985   0.118   3.270
  141SOL     OW 1321   6.551   3.373   0.215
  141SOL    HW1 1322   6.537   3.402   0.120
  141SOL    HW2 1323   6.634   3.317   0.220
  142SOL     OW 1324   1.521   4.390   1.520
  142SOL    HW1 1325   1.519   4.488   1.502
  142SOL    HW2 1326   1.504   4.374   1.617
  143SOL     OW 1327   5.645   6.455   1.426
  143SOL    HW1 1328   5.650   6.523   1.500
  143SOL    HW2 1329   5.727   6.398   1.428
  144SOL     OW 1330   3.147   4.942   4.035
  144SOL    HW1 1331   3.162   4.955   4.133
  144SOL    HW2 1332   3.194   5.013   3.984
  145SOL     OW 1333   0.260   4.278   2.438
  145SOL    HW1 1334   0.328   4.350   2.428
  145SOL    HW2 1335   0.265   4.241   2.531
  146SOL     OW 1336   5.972   1.212   6.083
  146SOL    HW1 1337   6.056   1.263   6.068
  146SOL    HW2 1338   5.926   1.198   5.995
  147SOL     OW 1339   5.225   1.205   4.769
  147SOL    HW1 1340   5.155   1.172   4.706
  147SOL    HW2 1341   5.284   1.271   4.721
  148SOL     OW 1342   1.285   4.887   1.654
  148SOL    HW1 1343   1.315   4.837   1.736
  148SOL    HW2 1344   1.185   4.891   1.653
  149SOL     OW 1345   2.601   2.102   5.264
  149SOL    HW1 1346   2.622   2.073   5.358
  149SOL    HW2 1347   2.568   2.197   5.266
  150SOL     OW 1348   4.054   1.766   5.624
  150SOL    HW1 1349   4.120   1.711   5.675
  150SOL    HW2 1350   4.059   1.741   5.527
  151SOL     OW 1351   3.999   1.956   0.855
  151SOL    HW1 1352   3.979   1.870   0.809
  151SOL    HW2 1353   3.928   1.975   0.922
  152SOL     OW 1354   0.627   1.556   6.959
  152SOL    HW1 1355   0.669   1.588   6.874
  152SOL    HW2 1356   0.553   1.492   6.937
  153SOL     OW 1357   2.991   0.889   3.109
  153SOL    HW1 1358   3.016   0.986   3.105
  153SOL    HW2 1359   3.025   0.842   3.028
  154SOL     OW 1360   6.418   2.303   0.857
  154SOL    HW1 1361   6.394   2.256   0.942
  154SOL    HW2 1362   6.516   2.319   0.854
  155SOL     OW 1363   0.033   0.210   1.693
  155SOL    HW1 1364   0.001   0.249   1.780
  155SOL    HW2 1365   0.004   0.114   1.688
  156SOL     OW 1366   5.449   1.028   0.700
  156SOL    HW1 1367   5.376   0.988   0.645
  156SOL    HW2 1368   5.447   0.991   0.792
  157SOL     OW 1369   5.425   3.323   0.166
  157SOL    HW1 1370   5.516   3.361   0.151
  157SOL    HW2 1371   5.430   3.251   0.235
  158SOL     OW 1372   1.184   2.645   2.311
  158SOL    HW1 1373   1.190   2.694   2.224
  158SOL    HW2 1374   1.169   2.711   2.385
  159SOL     OW 1375   4.888   5.095   0.591
  159SOL    HW1 1376   4.861   5.186   0.625
  159SOL    HW2 1377   4.822   5.027   0.623
  160SOL     OW 1378   5.931   0.243   0.846
  160SOL    HW1 1379   5.849   0.275   0.799
  160SOL    HW2 1380   5.990   0.321   0.867
  161SOL     OW 1381   1.152   6.869   1.042
  161SOL    HW1 1382   1.130   6.948   1.099
  161SOL    HW2 1383   1.102   6.789   1.076
  162SOL     OW 1384   2.295   6.431   0.309
  162SOL    HW1 1385   2.369   6.468   0.366
  162SOL    HW2 1386   2.243   6.365   0.363
  163SOL     OW 1387   6.925   4.630   3.064
  163SOL    HW1 1388   6.888   4.723   3.055
  163SOL    HW2 1389   6.976   4.607   2.981
  164SOL     OW 1390   2.002   2.215   3.101
  164SOL    HW1 1391   1.991   2.314   3.086
  164SOL    HW2 1392   1.918   2.168   3.077
  165SOL     OW 1393   0.093   5.334   2.222
  165SOL    HW1 1394   0.001   5.360   2.252
  165SOL    HW2 1395   0.131   5.267   2.286
  166SOL     OW 1396   6.241   3.974   1.344
  166SOL    HW1 1397   6.333   4.010   1.325
  166SOL    HW2 1398   6.228   3.968   1.443
  167SOL     OW 1399   5.096   1.569   6.836
  167SOL    HW1 1400   5.167   1.579   6.906
  167SOL    HW2 1401   5.138   1.538   6.750
  168SOL     OW 1402   4.147   3.325   1.980
  168SOL    HW1 1403   4.128   3.415   1.940
  168SOL    HW2 1404   4.216   3.278   1.926
  169SOL     OW 1405   6.166   3.040   0.715
  169SOL    HW1 1406   6.179   3.122   0.660
  169SOL    HW2 1407   6.175   2.959   0.656
  170SOL     OW 1408   1.171   5.788   2.914
  170SOL    HW1 1409   1.215   5.698   2.905
  170SOL    HW2 1410   1.241   5.855   2.939
  171SOL     OW 1411   1.555   3.366   6.899
  171SOL    HW1 1412   1.592   3.455   6.871
  171SOL    HW2 1413   1.586   3.295   6.836
  172SOL     OW 1414   5.818   2.254   1.706
  172SOL    HW1 1415   5.779   2.198   1.779
  172SOL    HW2 1416   5.907   2.216   1.679
  173SOL     OW 1417   5.823   1.044   5.095
  173SOL    HW1 1418   5.894   1.107   5.063
  173SOL    HW2 1419   5.863   0.977   5.157
  174SOL     OW 1420   5.117   5.293   5.386
  174SOL    HW1 1421   5.214   5.283   5.360
  174SOL    HW2 1422   5.065   5.217   5.348
  175SOL     OW 1423   2.176   0.979   0.781
  175SOL    HW1 1424   2.185   1.074   0.751
  175SOL    HW2 1425   2.265   0.934   0.778
  176SOL     OW 1426   5.173   4.753   2.854
  176SOL    HW1 1427   5.083   4.713   2.837
  176SOL    HW2 1428   5.214   4.781   2.767
  177SOL     OW 1429   5.035   1.909   4.741
  177SOL    HW1 1430   4.974   1.854   4.683
  177SOL    HW2 1431   4.986   1.990   4.773
  178SOL     OW 1432   2.392   5.576   5.139
  178SOL    HW1 1433   2.378   5.643   5.067
  178SOL    HW2 1434   2.322   5.587   5.210
  179SOL     OW 1435   4.057   5.538   0.213
  179SOL    HW1 1436   4.106   5.497   0.290
  179SOL    HW2 1437   4.119   5.544   0.135
  180SOL     OW 1438   3.527   0.067   1.040
  180SOL    HW1 1439   3.547   0.123   1.120
  180SOL    HW2 1440   3.447   0.010   1.057
  181SOL     OW 1441   3.051   2.496   5.340
  181SOL    HW1 1442   2.962   2.488   5.295
  181SOL    HW2 1443   3.118   2.439   5.292
  182SOL     OW 1444   5.250   3.545   0.757
  182SOL    HW1 1445   5.230   3.609   0.832
  182SOL    HW2 1446   5.236   3.592   0.670
  183SOL     OW 1447   4.062   2.234   4.339
  183SOL    HW1 1448   4.076   2.262   4.434
  183SOL    HW2 1449   3.964   2.229   4.320
  184SOL     OW 1450   1.008   5.892   3.785
  184SOL    HW1 1451   0.974   5.881   3.692
  184SOL    HW2 1452   1.073   5.819   3.806
  185SOL     OW 1453   0.830   1.824   4.380
  185SOL    HW1 1454   0.756   1.768   4.343
  185SOL    HW2 1455   0.903   1.832   4.311
  186SOL     OW 1456   6.025   6.273   4.024
  186SOL    HW1 1457   6.047   6.176   4.019
  186SOL    HW2 1458   5.970   6.290   4.106
  187SOL     OW 1459   4.395   5.300   2.459
  187SOL    HW1 1460   4.416   5.386   2.505
  187SOL    HW2 1461   4.338   5.243   2.519
  188SOL     OW 1462   2.013   2.482   3.044
  188SOL    HW1 1463   1.975   2.570   3.072
  188SOL    HW2 1464   2.111   2.480   3.064
  189SOL     OW 1465   6.182   4.938   6.879
  189SOL    HW1 1466   6.282   4.948   6.881
  189SOL    HW2 1467   6.140   5.028   6.867
  190SOL     OW 1468   6.144   5.250   6.887
  190SOL    HW1 1469   6.236   5.262   6.923
  190SOL    HW2 1470   6.093   5.336   6.896
  191SOL     OW 1471   6.859   1.063   6.023
  191SOL    HW1 1472   6.892   0.971   6.042
  191SOL    HW2 1473   6.883   1.088   5.929
  192SOL     OW 1474   0.732   4.103   1.593
  192SOL    HW1 1475   0.768   4.144   1.509
  192SOL    HW2 1476   0.637   4.076   1.579
  193SOL     OW 1477   3.463   4.150   6.056
  193SOL    HW1 1478   3.411   4.148   5.971
  193SOL    HW2 1479   3.507   4.240   6.066
  194SOL     OW 1480   3.850   6.608   1.761
  194SOL    HW1 1481   3.859   6.601   1.661
  194SOL    HW2 1482   3.904   6.686   1.794
  195SOL     OW 1483   2.996   0.724   2.664
  195SOL    HW1 1484   3.055   0.691   2.590
  195SOL    HW2 1485   2.901   0.726   2.633
  196SOL     OW 1486   2.711   1.114   6.618
  196SOL    HW1 1487   2.770   1.036   6.635
  196SOL    HW2 1488   2.663   1.102   6.531
  197SOL     OW 1489   2.091   5.954   6.292
  197SOL    HW1 1490   2.046   5.962   6.203
  197SOL    HW2 1491   2.060   5.870   6.338
  198SOL     OW 1492   4.531   5.854   0.907
  198SOL    HW1 1493   4.474   5.895   0.836
  198SOL    HW2 1494   4.497   5.883   0.997
  199SOL     OW 1495   6.680   1.616   2.237
  199SOL    HW1 1496   6.639   1.528   2.216
  199SOL    HW2 1497   6.607   1.684   2.251
  200SOL     OW 1498   1.539   3.373   2.027
  200SOL    HW1 1499   1.442   3.395   2.017
  200SOL    HW2 1500   1.549   3.297   2.091
  201SOL     OW 1501   2.806   0.663   6.516
  201SOL    HW1 1502   2.802   0.593   6.587
  201SOL    HW2 1503   2.879   0.642   6.452
  202SOL     OW 1504   5.011   6.761   4.694
  202SOL    HW1 1505   4.958   6.677   4.705
  202SOL    HW2 1506   5.108   6.741   4.703
  203SOL     OW 1507   5.139   2.831   6.322
  203SOL    HW1 1508   5.089   2.745   6.308
  203SOL    HW2 1509   5.138   2.883   6.237
  204SOL     OW 1510   0.643   0.162   0.582
  204SOL    HW1 1511   0.650   0.063   0.569
  204SOL    HW2 1512   0.547   0.190   0.580
  205SOL     OW 1513   0.785   1.622   1.168
  205SOL    HW1 1514   0.852   1.667   1.226
  205SOL    HW2 1515   0.821   1.613   1.075
  206SOL     OW 1516   0.479   4.416   1.537
  206SOL    HW1 1517   0.487   4.473   1.455
  206SOL    HW2 1518   0.383   4.393   1.552
  207SOL     OW 1519   4.499   0.407   5.396
  207SOL    HW1 1520   4.473   0.438   5.488
  207SOL    HW2 1521   4.446   0.456   5.328
  208SOL     OW 1522   5.107   4.728   5.985
  208SOL    HW1 1523   5.118   4.821   6.021
  208SOL    HW2 1524   5.175   4.713   5.913
  209SOL     OW 1525   0.564   5.863   5.690
  209SOL    HW1 1526   0.512   5.945   5.715
  209SOL    HW2 1527   0.652   5.864   5.738
  210SOL     OW 1528   4.287   2.268   2.173
  210SOL    HW1 1529   4.260   2.291   2.080
  210SOL    HW2 1530   4.321   2.351   2.219
  211SOL     OW 1531   0.757   0.548   2.916
  211SOL    HW1 1532   0.792   0.570   2.825
  211SOL    HW2 1533   0.832   0.516   2.974
  212SOL     OW 1534   1.396   4.853   2.629
  212SOL    HW1 1535   1.459   4.785   2.667
  212SOL    HW2 1536   1.405   4.938   2.680
  213SOL     OW 1537   4.946   1.335   6.405
  213SOL    HW1 1538   4.846   1.338   6.402
  213SOL    HW2 1539   4.983   1.422   6.372
  214SOL     OW 1540   1.587   6.342   3.279
  214SOL    HW1 1541   1.608   6.381   3.368
  214SOL    HW2 1542   1.660   6.365   3.214
  215SOL     OW 1543   3.838   3.673   1.810
  215SOL    HW1 1544   3.762   3.732   1.837
  215SOL    HW2 1545   3.838   3.662   1.710
  216SOL     OW 1546   1.484   6.819   5.336
  216SOL    HW1 1547   1.545   6.898   5.327
  216SOL    HW2 1548   1.434   6.826   5.423
  217SOL     OW 1549   1.722   2.702   4.286
  217SOL    HW1 1550   1.765   2.682   4.374
  217SOL    HW2 1551   1.761   2.786   4.248
  218SOL     OW 1552   1.810   2.348   4.923
  218SOL    HW1 1553   1.741   2.406   4.879
  218SOL    HW2 1554   1.900   2.390   4.912
  219SOL     OW 1555   3.433   3.900   6.452
  219SOL    HW1 1556   3.343   3.874   6.416
  219SOL    HW2 1557   3.469   3.977   6.399
  220SOL     OW 1558   2.851   6.107   0.340
  220SOL    HW1 1559   2.793   6.099   0.258
  220SOL    HW2 1560   2.832   6.194   0.386
  221SOL     OW 1561   5.103   3.777   3.635
  221SOL    HW1 1562   5.003   3.783   3.639
  221SOL    HW2 1563   5.131   3.681   3.628
  222SOL     OW 1564   1.375   5.541   5.304
  222SOL    HW1 1565   1.377   5.640   5.321
  222SOL    HW2 1566   1.373   5.524   5.206
  223SOL     OW 1567   0.608   3.206   1.422
  223SOL    HW1 1568   0.663   3.268   1.479
  223SOL    HW2 1569   0.592   3.248   1.333
  224SOL     OW 1570   2.926   2.183   2.857
  224SOL    HW1 1571   2.971   2.120   2.793
  224SOL    HW2 1572   2.975   2.182   2.944
  225SOL     OW 1573   5.999   1.049   0.018
  225SOL    HW1 1574   6.036   1.141   0.007
  225SOL    HW2 1575   5.908   1.044   7.000
  226SOL     OW 1576   0.285   0.195   0.136
  226SOL    HW1 1577   0.344   0.268   0.104
  226SOL    HW2 1578   0.212   0.179   0.069
  227SOL     OW 1579   1.361   4.225   3.448
  227SOL    HW1 1580   1.409   4.151   3.495
  227SOL    HW2 1581   1.264   4.202   3.439
  228SOL     OW 1582   3.985   6.933   4.687
  228SOL    HW1 1583   3.923   6.872   4.638
  228SOL    HW2 1584   4.036   6.989   4.621
  229SOL     OW 1585   5.863   5.776   1.634
  229SOL    HW1 1586   5.937   5.803   1.696
  229SOL    HW2 1587   5.900   5.750   1.545
  230SOL     OW 1588   2.037   4.255   3.789
  230SOL    HW1 1589   2.060   4.288   3.697
  230SOL    HW2 1590   1.986   4.169   3.783
  231SOL     OW 1591   5.983   3.045   6.256
  231SOL    HW1 1592   6.015   2.967   6.202
  231SOL    HW2 1593   5.995   3.025   6.354
  232SOL     OW 1594   1.170   3.065   6.445
  232SOL    HW1 1595   1.244   3.068   6.377
  232SOL    HW2 1596   1.210   3.065   6.537
  233SOL     OW 1597   2.037   0.932   5.016
  233SOL    HW1 1598   1.975   0.867   4.971
  233SOL    HW2 1599   2.113   0.882   5.057
  234SOL     OW 1600   2.820   4.931   6.399
  234SOL    HW1 1601   2.725   4.903   6.407
  234SOL    HW2 1602   2.844   4.944   6.303
  235SOL     OW 1603   3.470   3.372   3.009
  235SOL    HW1 1604   3.558   3.347   3.049
  235SOL    HW2 1605   3.417   3.425   3.075
  236SOL     OW 1606   6.753   2.946   6.851
  236SOL    HW1 1607   6.848   2.961   6.824
  236SOL    HW2 1608   6.743   2.853   6.885
  237SOL     OW 1609   0.341   6.716   1.147
  237SOL    HW1 1610   0.315   6.801   1.101
  237SOL    HW2 1611   0.368   6.737   1.242
  238SOL     OW 1612   5.796   3.354   1.367
  238SOL    HW1 1613   5.860   3.277   1.377
  238SOL    HW2 1614   5.732   3.353   1.444
  239SOL     OW 1615   6.586   5.762   0.024
  239SOL    HW1 1616   6.592   5.803   0.115
  239SOL    HW2 1617   6.490   5.754   7.021
  240SOL     OW 1618   0.622   3.434   5.941
  240SOL    HW1 1619   0.691   3.495   5.901
  240SOL    HW2 1620   0.647   3.411   6.035
  241SOL     OW 1621   0.862   0.986   3.528
  241SOL    HW1 1622   0.835   0.891   3.548
  241SOL    HW2 1623   0.941   1.010   3.585
  242SOL     OW 1624   1.288   3.030   5.355
  242SOL    HW1 1625   1.287   2.936   5.321
  242SOL    HW2 1626   1.374   3.074   5.330
  243SOL     OW 1627   4.717   0.281   6.398
  243SOL    HW1 1628   4.738   0.253   6.491
  243SOL    HW2 1629   4.617   0.283   6.386
  244SOL     OW 1630   4.661   2.384   4.297
  244SOL    HW1 1631   4.693   2.295   4.265
  244SOL    HW2 1632   4.641   2.442   4.219
  245SOL     OW 1633   6.541   2.504   4.543
  245SOL    HW1 1634   6.469   2.566   4.574
  245SOL    HW2 1635   6.513   2.460   4.458
  246SOL     OW 1636   5.437   3.960   3.820
  246SOL    HW1 1637   5.496   3.975   3.900
  246SOL    HW2 1638   5.347   3.929   3.851
  247SOL     OW 1639   2.598   1.410   2.973
  247SOL    HW1 1640   2.582   1.432   2.877
  247SOL    HW2 1641   2.637   1.318   2.979
  248SOL     OW 1642   4.814   2.282   4.653
  248SOL    HW1 1643   4.789   2.366   4.604
  248SOL    HW2 1644   4.900   2.247   4.616
  249SOL     OW 1645   3.009   6.524   5.023
  249SOL    HW1 1646   3.102   6.561   5.032
  249SOL    HW2 1647   2.996   6.489   4.930
  250SOL     OW 1648   5.638   1.968   5.486
  250SOL    HW1 1649   5.540   1.956   5.502
  250SOL    HW2 1650   5.678   2.016   5.564
  251SOL     OW 1651   4.468   3.305   6.091
  251SOL    HW1 1652   4.527   3.229   6.118
  251SOL    HW2 1653   4.422   3.341   6.171
  252SOL     OW 1654   0.425   1.544   5.574
  252SOL    HW1 1655   0.369   1.478   5.523
  252SOL    HW2 1656   0.466   1.499   5.653
  253SOL     OW 1657   1.868   3.786   1.238
  253SOL    HW1 1658   1.769   3.795   1.254
  253SOL    HW2 1659   1.916   3.792   1.325
  254SOL     OW 1660   6.446   2.748   4.626
  254SOL    HW1 1661   6.544   2.768   4.619
  254SOL    HW2 1662   6.405   2.805   4.696
  255SOL     OW 1663   3.140   2.201   3.934
  255SOL    HW1 1664   3.181   2.217   3.845
  255SOL    HW2 1665   3.208   2.163   3.997
  256SOL     OW 1666   6.426   5.327   6.950
  256SOL    HW1 1667   6.440   5.420   6.917
  256SOL    HW2 1668   6.445   5.323   0.025
  257SOL     OW 1669   3.042   5.311   5.841
  257SOL    HW1 1670   3.094   5.247   5.785
  257SOL    HW2 1671   2.976   5.360   5.783
  258SOL     OW 1672   4.799   4.109   4.998
  258SOL    HW1 1673   4.781   4.074   4.906
  258SOL    HW2 1674   4.877   4.171   4.996
  259SOL     OW 1675   1.499   3.006   2.856
  259SOL    HW1 1676   1.477   2.944   2.782
  259SOL    HW2 1677   1.596   2.995   2.881
  260SOL     OW 1678   4.830   0.827   6.792
  260SOL    HW1 1679   4.771   0.896   6.834
  260SOL    HW2 1680   4.906   0.873   6.745
  261SOL     OW 1681   0.785   3.374   1.632
  261SOL    HW1 1682   0.825   3.349   1.720
  261SOL    HW2 1683   0.745   3.466   1.639
  262SOL     OW 1684   1.344   3.187   2.317
  262SOL    HW1 1685   1.442   3.172   2.306
  262SOL    HW2 1686   1.328   3.281   2.348
  263SOL     OW 1687   0.286   2.212   4.331
  263SOL    HW1 1688   0.317   2.286   4.390
  263SOL    HW2 1689   0.186   2.208   4.333
  264SOL     OW 1690   0.532   3.262   5.268
  264SOL    HW1 1691   0.470   3.305   5.202
  264SOL    HW2 1692   0.544   3.166   5.245
  265SOL     OW 1693   4.646   4.576   4.184
  265SOL    HW1 1694   4.746   4.585   4.186
  265SOL    HW2 1695   4.620   4.486   4.220
  266SOL     OW 1696   3.452   1.923   0.122
  266SOL    HW1 1697   3.497   1.836   0.148
  266SOL    HW2 1698   3.521   1.994   0.115
  267SOL     OW 1699   1.697   2.569   0.120
  267SOL    HW1 1700   1.702   2.568   0.020
  267SOL    HW2 1701   1.701   2.663   0.152
  268SOL     OW 1702   4.372   4.624   4.407
  268SOL    HW1 1703   4.335   4.532   4.418
  268SOL    HW2 1704   4.457   4.633   4.460
  269SOL     OW 1705   1.486   1.735   6.351
  269SOL    HW1 1706   1.490   1.638   6.376
  269SOL    HW2 1707   1.571   1.762   6.307
  270SOL     OW 1708   5.381   0.976   2.408
  270SOL    HW1 1709   5.478   0.966   2.382
  270SOL    HW2 1710   5.324   0.958   2.328
  271SOL     OW 1711   2.121   1.107   1.207
  271SOL    HW1 1712   2.205   1.070   1.245
  271SOL    HW2 1713   2.142   1.186   1.150
  272SOL     OW 1714   3.928   5.452   4.691
  272SOL    HW1 1715   4.018   5.416   4.714
  272SOL    HW2 1716   3.858   5.384   4.714
  273SOL     OW 1717   1.088   5.437   4.715
  273SOL    HW1 1718   1.096   5.353   4.662
  273SOL    HW2 1719   1.072   5.414   4.811
  274SOL     OW 1720   5.532   2.834   3.558
  274SOL    HW1 1721   5.607   2.770   3.544
  274SOL    HW2 1722   5.467   2.828   3.482
  275SOL     OW 1723   0.666   6.147   6.257
  275SOL    HW1 1724   0.614   6.065   6.234
  275SOL    HW2 1725   0.610   6.228   6.237
  276SOL     OW 1726   6.969   5.273   3.530
  276SOL    HW1 1727   6.945   5.304   3.438
  276SOL    HW2 1728   6.919   5.188   3.550
  277SOL     OW 1729   3.152   0.874   5.223
  277SOL    HW1 1730   3.154   0.788   5.274
  277SOL    HW2 1731   3.205   0.943   5.271
  278SOL     OW 1732   5.472   4.564   2.533
  278SOL    HW1 1733   5.570   4.554   2.550
  278SOL    HW2 1734   5.421   4.501   2.592
  279SOL     OW 1735   0.151   2.600   3.279
  279SOL    HW1 1736   0.239   2.557   3.297
  279SOL    HW2 1737   0.132   2.669   3.349
  280SOL     OW 1738   4.967   6.497   3.879
  280SOL    HW1 1739   5.051   6.544   3.906
  280SOL    HW2 1740   4.909   6.486   3.960
  281SOL     OW 1741   3.872   5.711   4.077
  281SOL    HW1 1742   3.962   5.719   4.121
  281SOL    HW2 1743   3.875   5.756   3.987
  282SOL     OW 1744   4.231   1.568   5.679
  282SOL    HW1 1745   4.320   1.579   5.723
  282SOL    HW2 1746   4.243   1.540   5.584
  283SOL     OW 1747   5.992   0.102   5.160
  283SOL    HW1 1748   6.082   0.060   5.144
  283SOL    HW2 1749   5.947   0.119   5.073
  284SOL     OW 1750   0.362   4.707   4.775
  284SOL    HW1 1751   0.459   4.692   4.790
  284SOL    HW2 1752   0.330   4.649   4.700
  285SOL     OW 1753   5.601   6.877   0.093
  285SOL    HW1 1754   5.541   6.953   0.118
  285SOL    HW2 1755   5.646   6.896   0.006
  286SOL     OW 1756   3.473   5.267   4.770
  286SOL    HW1 1757   3.404   5.269   4.843
  286SOL    HW2 1758   3.464   5.182   4.719
  287SOL     OW 1759   1.816   5.720   6.126
  287SOL    HW1 1760   1.873   5.797   6.096
  287SOL    HW2 1761   1.744   5.704   6.058
  288SOL     OW 1762   4.559   0.554   1.055
  288SOL    HW1 1763   4.639   0.525   1.001
  288SOL    HW2 1764   4.479   0.500   1.027
  289SOL     OW 1765   1.194   5.580   5.697
  289SOL    HW1 1766   1.119   5.602   5.634
  289SOL    HW2 1767   1.269   5.539   5.645
  290SOL     OW 1768   4.292   0.396   2.652
  290SOL    HW1 1769   4.255   0.324   2.593
  290SOL    HW2 1770   4.217   0.444   2.696
  291SOL     OW 1771   4.213   0.402   4.054
  291SOL    HW1 1772   4.309   0.381   4.074
  291SOL    HW2 1773   4.207   0.473   3.984
  292SOL     OW 1774   3.717   0.319   3.854
  292SOL    HW1 1775   3.731   0.259   3.933
  292SOL    HW2 1776   3.804   0.332   3.806
  293SOL     OW 1777   4.452   6.636   2.601
  293SOL    HW1 1778   4.484   6.622   2.508
  293SOL    HW2 1779   4.366   6.586   2.615
  294SOL     OW 1780   5.539   6.932   5.648
  294SOL    HW1 1781   5.482   6.922   5.730
  294SOL    HW2 1782   5.558   6.842   5.609
  295SOL     OW 1783   1.145   2.353   5.134
  295SOL    HW1 1784   1.049   2.355   5.162
  295SOL    HW2 1785   1.177   2.259   5.130
  296SOL     OW 1786   6.448   1.694   1.481
  296SOL    HW1 1787   6.476   1.629   1.410
  296SOL    HW2 1788   6.496   1.781   1.468
  297SOL     OW 1789   5.238   5.297   3.883
  297SOL    HW1 1790   5.187   5.320   3.801
  297SOL    HW2 1791   5.249   5.379   3.940
  298SOL     OW 1792   4.628   0.672   0.700
  298SOL    HW1 1793   4.535   0.675   0.664
  298SOL    HW2 1794   4.649   0.758   0.747
  299SOL     OW 1795   3.480   2.007   0.561
  299SOL    HW1 1796   3.464   2.011   0.462
  299SOL    HW2 1797   3.577   1.990   0.579
  300SOL     OW 1798   3.396   1.237   2.311
  300SOL    HW1 1799   3.311   1.274   2.273
  300SOL    HW2 1800   3.386   1.138   2.325
  301SOL     OW 1801   5.206   6.485   1.456
  301SOL    HW1 1802   5.218   6.491   1.357
  301SOL    HW2 1803   5.253   6.561   1.500
  302SOL     OW 1804   6.853   6.700   1.509
  302SOL    HW1 1805   6.773   6.675   1.563
  302SOL    HW2 1806   6.851   6.797   1.487
  303SOL     OW 1807   5.953   5.796   2.410
  303SOL    HW1 1808   5.916   5.709   2.379
  303SOL    HW2 1809   5.878   5.861   2.424
  304SOL     OW 1810   1.772   0.094   5.744
  304SOL    HW1 1811   1.841   0.024   5.761
  304SOL    HW2 1812   1.793   0.175   5.798
  305SOL     OW 1813   1.174   3.170   1.348
  305SOL    HW1 1814   1.114   3.119   1.410
  305SOL    HW2 1815   1.261   3.187   1.394
  306SOL     OW 1816   6.961   0.713   2.240
  306SOL    HW1 1817   7.023   0.721   2.161
  306SOL    HW2 1818   7.000   0.762   2.318
  307SOL     OW 1819   3.333   3.356   0.647
  307SOL    HW1 1820   3.329   3.423   0.722
  307SOL    HW2 1821   3.352   3.266   0.684
  308SOL     OW 1822   5.643   2.040   4.461
  308SOL    HW1 1823   5.709   1.970   4.434
  308SOL    HW2 1824   5.691   2.128   4.469
  309SOL     OW 1825   0.602   6.748   0.131
  309SOL    HW1 1826   0.664   6.826   0.123
  309SOL    HW2 1827   0.643   6.669   0.085
  310SOL     OW 1828   5.997   6.601   4.297
  310SOL    HW1 1829   6.097   6.589   4.296
  310SOL    HW2 1830   5.953   6.512   4.296
  311SOL     OW 1831   2.642   4.912   2.460
  311SOL    HW1 1832   2.684   4.953   2.379
  311SOL    HW2 1833   2.589   4.982   2.508
  312SOL     OW 1834   4.675   2.629   3.768
  312SOL    HW1 1835   4.613   2.597   3.697
  312SOL    HW2 1836   4.769   2.628   3.734
  313SOL     OW 1837   3.393   3.461   2.576
  313SOL    HW1 1838   3.323   3.532   2.566
  313SOL    HW2 1839   3.461   3.471   2.503
  314SOL     OW 1840   1.944   5.764   5.466
  314SOL    HW1 1841   1.898   5.680   5.439
  314SOL    HW2 1842   1.946   5.770   5.566
  315SOL     OW 1843   6.581   1.093   3.180
  315SOL    HW1 1844   6.588   1.104   3.279
  315SOL    HW2 1845   6.660   1.040   3.147
  316SOL     OW 1846   4.664   1.956   5.355
  316SOL    HW1 1847   4.705   1.974   5.445
  316SOL    HW2 1848   4.566   1.978   5.358
  317SOL     OW 1849   1.823   1.401   1.899
  317SOL    HW1 1850   1.873   1.328   1.854
  317SOL    HW2 1851   1.777   1.458   1.830
  318SOL     OW 1852   6.851   0.105   6.519
  318SOL    HW1 1853   6.772   0.045   6.508
  318SOL    HW2 1854   6.828   0.196   6.485
  319SOL     OW 1855   0.363   2.492   2.878
  319SOL    HW1 1856   0.267   2.519   2.878
  319SOL    HW2 1857   0.373   2.403   2.834
  320SOL     OW 1858   5.908   2.479   6.553
  320SOL    HW1 1859   5.814   2.508   6.572
  320SOL    HW2 1860   5.970   2.557   6.564
  321SOL     OW 1861   3.597   3.331   0.320
  321SOL    HW1 1862   3.635   3.354   0.230
  321SOL    HW2 1863   3.614   3.406   0.384
  322SOL     OW 1864   3.709   3.288   5.458
  322SOL    HW1 1865   3.709   3.246   5.367
  322SOL    HW2 1866   3.781   3.356   5.463
  323SOL     OW 1867   0.815   2.817   3.815
  323SOL    HW1 1868   0.716   2.811   3.822
  323SOL    HW2 1869   0.841   2.827   3.719
  324SOL     OW 1870   2.530   6.738   3.226
  324SOL    HW1 1871   2.543   6.779   3.135
  324SOL    HW2 1872   2.505   6.809   3.291
  325SOL     OW 1873   1.560   3.467   2.465
  325SOL    HW1 1874   1.580   3.419   2.551
  325SOL    HW2 1875   1.461   3.481   2.457
  326SOL     OW 1876   1.942   4.445   6.649
  326SOL    HW1 1877   2.037   4.457   6.618
  326SOL    HW2 1878   1.942   4.412   6.743
  327SOL     OW 1879   2.518   4.642   2.467
  327SOL    HW1 1880   2.580   4.716   2.492
  327SOL    HW2 1881   2.549   4.599   2.382
  328SOL     OW 1882   2.325   4.372   1.592
  328SOL    HW1 1883   2.269   4.302   1.636
  328SOL    HW2 1884   2.283   4.398   1.505
  329SOL     OW 1885   3.001   4.055   0.065
  329SOL    HW1 1886   3.071   3.989   0.090
  329SOL    HW2 1887   2.925   4.008   0.020
  330SOL     OW 1888   4.299   6.256   0.177
  330SOL    HW1 1889   4.370   6.320   0.207
  330SOL    HW2 1890   4.210   6.287   0.212
  331SOL     OW 1891   5.227   4.795   0.767
  331SOL    HW1 1892   5.194   4.794   0.673
  331SOL    HW2 1893   5.273   4.708   0.788
  332SOL     OW 1894   5.513   1.758   3.764
  332SOL    HW1 1895   5.498   1.856   3.773
  332SOL    HW2 1896   5.498   1.730   3.669
  333SOL     OW 1897   4.121   0.876   5.141
  333SOL    HW1 1898   4.039   0.931   5.156
  333SOL    HW2 1899   4.179   0.920   5.073
  334SOL     OW 1900   3.524   2.745   1.683
  334SOL    HW1 1901   3.522   2.651   1.718
  334SOL    HW2 1902   3.521   2.743   1.583
  335SOL     OW 1903   4.463   0.108   6.635
  335SOL    HW1 1904   4.436   0.154   6.719
  335SOL    HW2 1905   4.547   0.056   6.651
  336SOL     OW 1906   3.000   1.722   2.746
  336SOL    HW1 1907   2.965   1.713   2.653
  336SOL    HW2 1908   3.079   1.662   2.759
  337SOL     OW 1909   2.020   2.390   6.125
  337SOL    HW1 1910   1.953   2.341   6.070
  337SOL    HW2 1911   2.082   2.325   6.168
  338SOL     OW 1912   3.732   3.196   0.876
  338SOL    HW1 1913   3.747   3.271   0.812
  338SOL    HW2 1914   3.653   3.216   0.934
  339SOL     OW 1915   4.428   5.018   4.270
  339SOL    HW1 1916   4.347   4.960   4.269
  339SOL    HW2 1917   4.504   4.970   4.313
  340SOL     OW 1918   5.216   3.737   5.190
  340SOL    HW1 1919   5.129   3.781   5.215
  340SOL    HW2 1920   5.265   3.712   5.274
  341SOL     OW 1921   6.012   5.798   4.645
  341SOL    HW1 1922   5.942   5.793   4.574
  341SOL    HW2 1923   6.001   5.721   4.708
  342SOL     OW 1924   4.649   3.382   0.746
  342SOL    HW1 1925   4.746   3.368   0.764
  342SOL    HW2 1926   4.595   3.351   0.824
  343SOL     OW 1927   0.271   6.055   2.695
  343SOL    HW1 1928   0.195   6.101   2.741
  343SOL    HW2 1929   0.356   6.106   2.711
  344SOL     OW 1930   0.927   1.896   2.167
  344SOL    HW1 1931   0.999   1.930   2.107
  344SOL    HW2 1932   0.964   1.886   2.260
  345SOL     OW 1933   6.752   2.223   4.073
  345SOL    HW1 1934   6.671   2.164   4.070
  345SOL    HW2 1935   6.827   2.180   4.023
  346SOL     OW 1936   1.633   0.138   2.682
  346SOL    HW1 1937   1.551   0.102   2.726
  346SOL    HW2 1938   1.609   0.218   2.627
  347SOL     OW 1939   2.513   5.657   6.470
  347SOL    HW1 1940   2.428   5.680   6.518
  347SOL    HW2 1941   2.590   5.690   6.524
  348SOL     OW 1942   4.439   5.143   2.981
  348SOL    HW1 1943   4.487   5.130   3.068
  348SOL    HW2 1944   4.462   5.233   2.943
  349SOL     OW 1945   6.603   4.462   2.522
  349SOL    HW1 1946   6.574   4.387   2.581
  349SOL    HW2 1947   6.609   4.430   2.427
  350SOL     OW 1948   3.202   2.956   0.358
  350SOL    HW1 1949   3.263   3.031   0.334
  350SOL    HW2 1950   3.111   2.993   0.380
  351SOL     OW 1951   2.914   3.075   0.753
  351SOL    HW1 1952   2.858   2.993   0.762
  351SOL    HW2 1953   2.877   3.147   0.812
  352SOL     OW 1954   4.280   6.482   3.651
  352SOL    HW1 1955   4.182   6.493   3.669
  352SOL    HW2 1956   4.293   6.431   3.566
  353SOL     OW 1957   3.227   0.196   6.132
  353SOL    HW1 1958   3.297   0.227   6.069
  353SOL    HW2 1959   3.262   0.201   6.226
  354SOL     OW 1960   5.166   2.499   0.349
  354SOL    HW1 1961   5.244   2.510   0.287
  354SOL    HW2 1962   5.085   2.475   0.296
  355SOL     OW 1963   1.909   3.121   2.379
  355SOL    HW1 1964   1.836   3.053   2.383
  355SOL    HW2 1965   1.898   3.186   2.453
  356SOL     OW 1966   1.980   0.676   4.605
  356SOL    HW1 1967   1.923   0.758   4.603
  356SOL    HW2 1968   2.017   0.658   4.514
  357SOL     OW 1969   0.662   6.028   4.267
  357SOL    HW1 1970   0.762   6.036   4.265
  357SOL    HW2 1971   0.632   6.009   4.361
  358SOL     OW 1972   4.228   6.524   0.706
  358SOL    HW1 1973   4.254   6.581   0.627
  358SOL    HW2 1974   4.129   6.525   0.716
  359SOL     OW 1975   3.587   0.737   1.578
  359SOL    HW1 1976   3.492   0.755   1.551
  359SOL    HW2 1977   3.649   0.773   1.509
  360SOL     OW 1978   1.394   4.169   4.251
  360SOL    HW1 1979   1.487   4.132   4.239
  360SOL    HW2 1980   1.387   4.213   4.341
  361SOL     OW 1981   6.797   6.130   2.962
  361SOL    HW1 1982   6.833   6.037   2.950
  361SOL    HW2 1983   6.852   6.194   2.908
  362SOL     OW 1984   3.477   4.037   0.619
  362SOL    HW1 1985   3.560   4.091   0.618
  362SOL    HW2 1986   3.428   4.047   0.533
  363SOL     OW 1987   6.136   4.355   3.194
  363SOL    HW1 1988   6.085   4.440   3.204
  363SOL    HW2 1989   6.074   4.277   3.208
  364SOL     OW 1990   0.653   4.873   6.587
  364SOL    HW1 1991   0.705   4.862   6.672
  364SOL    HW2 1992   0.561   4.835   6.599
  365SOL     OW 1993   3.946   1.441   1.417
  365SOL    HW1 1994   3.867   1.455   1.476
  365SOL    HW2 1995   3.987   1.352   1.437
  366SOL     OW 1996   5.284   2.401   6.839
  366SOL    HW1 1997   5.364   2.341   6.837
  366SOL    HW2 1998   5.225   2.377   6.916
  367SOL     OW 1999   5.724   2.655   5.954
  367SOL    HW1 2000   5.674   2.580   5.911
  367SOL    HW2 2001   5.716   2.648   6.053
  368SOL     OW 2002   6.630   2.345   5.740
  368SOL    HW1 2003   6.535   2.352   5.710
  368SOL    HW2 2004   6.691   2.364   5.663
  369SOL     OW 2005   6.045   4.451   2.888
  369SOL    HW1 2006   5.975   4.393   2.930
  369SOL    HW2 2007   6.079   4.406   2.805
  370SOL     OW 2008   1.028   1.962   3.928
  370SOL    HW1 2009   0.970   2.042   3.939
  370SOL    HW2 2010   1.009   1.897   4.001
  371SOL     OW 2011   2.236   4.253   6.832
  371SOL    HW1 2012   2.282   4.322   6.887
  371SOL    HW2 2013   2.283   4.244   6.744
  372SOL     OW 2014   1.722   0.194   4.973
  372SOL    HW1 2015   1.663   0.125   4.931
  372SOL    HW2 2016   1.777   0.151   5.045
  373SOL     OW 2017   5.314   6.286   5.196
  373SOL    HW1 2018   5.395   6.308   5.141
  373SOL    HW2 2019   5.326   6.322   5.288
  374SOL     OW 2020   2.309   2.121   2.899
  374SOL    HW1 2021   2.346   2.064   2.827
  374SOL    HW2 2022   2.273   2.064   2.972
  375SOL     OW 2023   0.658   4.648   4.727
  375SOL    HW1 2024   0.724   4.709   4.771
  375SOL    HW2 2025   0.696   4.555   4.725
  376SOL     OW 2026   1.418   1.977   5.289
  376SOL    HW1 2027   1.390   1.999   5.382
  376SOL    HW2 2028   1.349   1.919   5.245
  377SOL     OW 2029   2.288   2.706   6.855
  377SOL    HW1 2030   2.330   2.629   6.904
  377SOL    HW2 2031   2.227   2.755   6.917
  378SOL     OW 2032   3.987   1.659   6.391
  378SOL    HW1 2033   4.075   1.707   6.394
  378SOL    HW2 2034   3.951   1.651   6.484
  379SOL     OW 2035   5.163   2.797   0.184
  379SOL    HW1 2036   5.125   2.804   0.276
  379SOL    HW2 2037   5.172   2.889   0.145
  380SOL     OW 2038   3.116   1.236   0.532
  380SOL    HW1 2039   3.106   1.259   0.629
  380SOL    HW2 2040   3.163   1.310   0.485
  381SOL     OW 2041   1.351   3.852   4.142
  381SOL    HW1 2042   1.332   3.845   4.239
  381SOL    HW2 2043   1.448   3.874   4.128
  382SOL     OW 2044   5.874   0.707   0.151
  382SOL    HW1 2045   5.810   0.631   0.162
  382SOL    HW2 2046   5.933   0.689   0.072
  383SOL     OW 2047   4.159   3.039   0.479
  383SOL    HW1 2048   4.098   3.006   0.551
  383SOL    HW2 2049   4.237   2.977   0.470
  384SOL     OW 2050   0.146   5.372   4.229
  384SOL    HW1 2051   0.121   5.284   4.271
  384SOL    HW2 2052   0.246   5.381   4.227
  385SOL     OW 2053   3.489   6.158   5.837
  385SOL    HW1 2054   3.585   6.132   5.830
  385SOL    HW2 2055   3.478   6.253   5.810
  386SOL     OW 2056   3.745   0.168   4.077
  386SOL    HW1 2057   3.704   0.188   4.166
  386SOL    HW2 2058   3.841   0.195   4.078
  387SOL     OW 2059   1.135   5.588   1.959
  387SOL    HW1 2060   1.057   5.544   2.004
  387SOL    HW2 2061   1.172   5.526   1.890
  388SOL     OW 2062   1.750   2.081   6.460
  388SOL    HW1 2063   1.787   2.116   6.545
  388SOL    HW2 2064   1.802   2.000   6.432
  389SOL     OW 2065   3.387   3.437   2.228
  389SOL    HW1 2066   3.406   3.364   2.162
  389SOL    HW2 2067   3.461   3.440   2.296
  390SOL     OW 2068   3.198   0.975   3.438
  390SOL    HW1 2069   3.168   0.896   3.384
  390SOL    HW2 2070   3.289   0.957   3.475
  391SOL     OW 2071   2.468   2.846   6.709
  391SOL    HW1 2072   2.545   2.782   6.704
  391SOL    HW2 2073   2.394   2.806   6.763
  392SOL     OW 2074   1.334   4.108   0.457
  392SOL    HW1 2075   1.404   4.177   0.472
  392SOL    HW2 2076   1.244   4.147   0.476
  393SOL     OW 2077   0.034   4.470   5.347
  393SOL    HW1 2078   0.059   4.526   5.426
  393SOL    HW2 2079   6.973   4.505   5.306
  394SOL     OW 2080   0.075   0.858   6.834
  394SOL    HW1 2081   0.162   0.888   6.875
  394SOL    HW2 2082   0.021   0.938   6.810
  395SOL     OW 2083   5.002   3.978   3.362
  395SOL    HW1 2084   5.052   3.997   3.277
  395SOL    HW2 2085   5.045   4.027   3.437
  396SOL     OW 2086   3.919   4.003   1.945
  396SOL    HW1 2087   4.005   3.957   1.922
  396SOL    HW2 2088   3.843   3.938   1.935
  397SOL     OW 2089   4.036   2.476   5.663
  397SOL    HW1 2090   4.061   2.458   5.568
  397SOL    HW2 2091   3.955   2.423   5.687
  398SOL     OW 2092   0.253   6.518   2.101
  398SOL    HW1 2093   0.293   6.577   2.031
  398SOL    HW2 2094   0.317   6.443   2.122
  399SOL     OW 2095   4.846   6.674   2.682
  399SOL    HW1 2096   4.838   6.767   2.719
  399SOL    HW2 2097   4.817   6.608   2.752
  400SOL     OW 2098   6.512   6.476   5.404
  400SOL    HW1 2099   6.484   6.450   5.312
  400SOL    HW2 2100   6.604   6.442   5.422
  401SOL     OW 2101   4.921   0.887   5.335
  401SOL    HW1 2102   4.827   0.919   5.329
  401SOL    HW2 2103   4.923   0.787   5.337
  402SOL     OW 2104   6.068   6.905   3.095
  402SOL    HW1 2105   6.136   6.840   3.126
  402SOL    HW2 2106   6.026   6.872   3.011
  403SOL     OW 2107   4.249   2.244   5.279
  403SOL    HW1 2108   4.158   2.205   5.291
  403SOL    HW2 2109   4.244   2.322   5.217
  404SOL     OW 2110   1.650   6.126   4.399
  404SOL    HW1 2111   1.706   6.045   4.384
  404SOL    HW2 2112   1.693   6.205   4.356
  405SOL     OW 2113   1.656   3.714   1.827
  405SOL    HW1 2114   1.643   3.754   1.736
  405SOL    HW2 2115   1.744   3.742   1.863
  406SOL     OW 2116   0.834   3.568   3.668
  406SOL    HW1 2117   0.880   3.656   3.657
  406SOL    HW2 2118   0.781   3.548   3.586
  407SOL     OW 2119   1.999   0.298   3.816
  407SOL    HW1 2120   1.975   0.385   3.772
  407SOL    HW2 2121   2.084   0.309   3.867
  408SOL     OW 2122   1.160   1.377   3.308
  408SOL    HW1 2123   1.117   1.380   3.398
  408SOL    HW2 2124   1.091   1.357   3.239
  409SOL     OW 2125   6.100   2.921   1.295
  409SOL    HW1 2126   6.109   2.893   1.391
  409SOL    HW2 2127   6.187   2.906   1.249
  410SOL     OW 2128   2.154   0.248   6.877
  410SOL    HW1 2129   2.128   0.170   6.821
  410SOL    HW2 2130   2.091   0.256   6.954
  411SOL     OW 2131   6.074   6.714   6.609
  411SOL    HW1 2132   6.005   6.735   6.539
  411SOL    HW2 2133   6.063   6.620   6.640
  412SOL     OW 2134   5.049   6.646   3.671
  412SOL    HW1 2135   5.005   6.580   3.732
  412SOL    HW2 2136   4.993   6.729   3.665
  413SOL     OW 2137   5.383   5.158   2.019
  413SOL    HW1 2138   5.423   5.146   1.928
  413SOL    HW2 2139   5.310   5.091   2.033
  414SOL     OW 2140   3.620   5.032   4.005
  414SOL    HW1 2141   3.703   4.989   4.040
  414SOL    HW2 2142   3.556   4.962   3.975
  415SOL     OW 2143   1.067   6.199   6.496
  415SOL    HW1 2144   1.115   6.163   6.416
  415SOL    HW2 2145   1.129   6.197   6.575
  416SOL     OW 2146   5.065   5.277   4.136
  416SOL    HW1 2147   5.056   5.226   4.221
  416SOL    HW2 2148   5.060   5.213   4.059
  417SOL     OW 2149   2.506   5.379   0.663
  417SOL    HW1 2150   2.520   5.462   0.718
  417SOL    HW2 2151   2.415   5.381   0.622
  418SOL     OW 2152   4.173   5.744   1.785
  418SOL    HW1 2153   4.243   5.725   1.854
  418SOL    HW2 2154   4.112   5.665   1.776
  419SOL     OW 2155   1.671   0.478   1.379
  419SOL    HW1 2156   1.631   0.569   1.389
  419SOL    HW2 2157   1.598   0.411   1.370
  420SOL     OW 2158   6.290   2.535   0.779
  420SOL    HW1 2159   6.318   2.448   0.821
  420SOL    HW2 2160   6.274   2.603   0.851
  421SOL     OW 2161   6.870   4.646   5.878
  421SOL    HW1 2162   6.778   4.655   5.840
  421SOL    HW2 2163   6.937   4.655   5.805
  422SOL     OW 2164   5.477   4.660   0.445
  422SOL    HW1 2165   5.502   4.563   0.438
  422SOL    HW2 2166   5.400   4.679   0.384
  423SOL     OW 2167   0.723   2.940   0.143
  423SOL    HW1 2168   0.746   2.863   0.203
  423SOL    HW2 2169   0.638   2.982   0.175
  424SOL     OW 2170   3.058   3.375   1.406
  424SOL    HW1 2171   3.022   3.332   1.488
  424SOL    HW2 2172   3.141   3.427   1.428
  425SOL     OW 2173   6.503   1.268   1.921
  425SOL    HW1 2174   6.428   1.249   1.859
  425SOL    HW2 2175   6.518   1.366   1.927
  426SOL     OW 2176   4.648   2.550   4.043
  426SOL    HW1 2177   4.619   2.565   3.948
  426SOL    HW2 2178   4.739   2.589   4.056
  427SOL     OW 2179   5.543   4.997   3.054
  427SOL    HW1 2180   5.501   4.907   3.041
  427SOL    HW2 2181   5.602   5.018   2.977
  428SOL     OW 2182   4.490   0.085   4.666
  428SOL    HW1 2183   4.528   0.020   4.600
  428SOL    HW2 2184   4.564   0.139   4.706
  429SOL     OW 2185   2.842   3.744   1.326
  429SOL    HW1 2186   2.800   3.834   1.331
  429SOL    HW2 2187   2.900   3.730   1.406
  430SOL     OW 2188   0.178   0.153   3.944
  430SOL    HW1 2189   0.266   0.168   3.989
  430SOL    HW2 2190   0.193   0.113   3.853
  431SOL     OW 2191   4.041   0.256   0.829
  431SOL    HW1 2192   3.965   0.278   0.890
  431SOL    HW2 2193   4.088   0.174   0.861
  432SOL     OW 2194   6.575   2.025   2.073
  432SOL    HW1 2195   6.594   2.088   2.148
  432SOL    HW2 2196   6.638   2.042   1.997
  433SOL     OW 2197   3.158   6.431   4.456
  433SOL    HW1 2198   3.205   6.431   4.368
  433SOL    HW2 2199   3.150   6.525   4.490
  434SOL     OW 2200   3.691   5.684   2.064
  434SOL    HW1 2201   3.777   5.702   2.113
  434SOL    HW2 2202   3.614   5.696   2.127
  435SOL     OW 2203   4.412   2.003   5.308
  435SOL    HW1 2204   4.382   1.934   5.242
  435SOL    HW2 2205   4.360   2.087   5.294
  436SOL     OW 2206   3.334   5.996   1.038
  436SOL    HW1 2207   3.429   6.018   1.019
  436SOL    HW2 2208   3.281   6.080   1.051
  437SOL     OW 2209   0.640   0.068   6.475
  437SOL    HW1 2210   0.717   0.010   6.503
  437SOL    HW2 2211   0.559   0.011   6.460
  438SOL     OW 2212   2.127   2.995   1.970
  438SOL    HW1 2213   2.072   2.984   1.887
  438SOL    HW2 2214   2.209   2.938   1.963
  439SOL     OW 2215   6.054   4.623   3.221
  439SOL    HW1 2216   6.139   4.664   3.187
  439SOL    HW2 2217   6.037   4.654   3.314
  440SOL     OW 2218   1.283   1.338   5.086
  440SOL    HW1 2219   1.367   1.284   5.075
  440SOL    HW2 2220   1.250   1.329   5.179
  441SOL     OW 2221   1.409   2.693   3.860
  441SOL    HW1 2222   1.343   2.635   3.909
  441SOL    HW2 2223   1.401   2.787   3.893
  442SOL     OW 2224   2.532   5.223   6.585
  442SOL    HW1 2225   2.543   5.245   6.488
  442SOL    HW2 2226   2.621   5.227   6.630
  443SOL     OW 2227   0.312   4.206   4.381
  443SOL    HW1 2228   0.289   4.221   4.477
  443SOL    HW2 2229   0.275   4.118   4.352
  444SOL     OW 2230   5.342   1.965   5.884
  444SOL    HW1 2231   5.243   1.958   5.901
  444SOL    HW2 2232   5.380   1.874   5.875
  445SOL     OW 2233   1.539   5.274   3.099
  445SOL    HW1 2234   1.498   5.282   3.009
  445SOL    HW2 2235   1.508   5.189   3.142
  446SOL     OW 2236   3.858   4.929   4.046
  446SOL    HW1 2237   3.919   4.960   4.118
  446SOL    HW2 2238   3.901   4.855   3.994
  447SOL     OW 2239   0.546   2.710   7.000
  447SOL    HW1 2240   0.612   2.784   6.997
  447SOL    HW2 2241   0.593   2.623   7.010
  448SOL     OW 2242   2.879   0.638   4.501
  448SOL    HW1 2243   2.936   0.565   4.465
  448SOL    HW2 2244   2.936   0.714   4.531
  449SOL     OW 2245   4.263   0.743   4.573
  449SOL    HW1 2246   4.346   0.701   4.610
  449SOL    HW2 2247   4.263   0.841   4.594
  450SOL     OW 2248   1.324   5.958   4.036
  450SOL    HW1 2249   1.327   6.051   4.002
  450SOL    HW2 2250   1.404   5.907   4.003
  451SOL     OW 2251   2.238   1.946   3.721
  451SOL    HW1 2252   2.147   1.961   3.682
  451SOL    HW2 2253   2.279   2.034   3.745
  452SOL     OW 2254   6.154   6.264   1.331
  452SOL    HW1 2255   6.131   6.337   1.267
  452SOL    HW2 2256   6.247   6.278   1.366
  453SOL     OW 2257   3.534   0.998   4.847
  453SOL    HW1 2258   3.567   1.089   4.875
  453SOL    HW2 2259   3.607   0.950   4.799
  454SOL     OW 2260   6.895   4.908   6.097
  454SOL    HW1 2261   6.959   4.830   6.096
  454SOL    HW2 2262   6.867   4.929   6.004
  455SOL     OW 2263   5.989   2.865   2.957
  455SOL    HW1 2264   5.960   2.786   3.011
  455SOL    HW2 2265   6.041   2.927   3.016
  456SOL     OW 2266   5.643   6.251   4.268
  456SOL    HW1 2267   5.592   6.327   4.229
  456SOL    HW2 2268   5.579   6.180   4.299
  457SOL     OW 2269   1.882   3.716   3.547
  457SOL    HW1 2270   1.873   3.784   3.620
  457SOL    HW2 2271   1.959   3.655   3.567
  458SOL     OW 2272   4.208   5.373   3.629
  458SOL    HW1 2273   4.204   5.275   3.612
  458SOL    HW2 2274   4.176   5.422   3.547
  459SOL     OW 2275   1.908   0.081   5.173
  459SOL    HW1 2276   2.002   0.064   5.144
  459SOL    HW2 2277   1.908   0.142   5.253
  460SOL     OW 2278   1.582   0.045   3.895
  460SOL    HW1 2279   1.578   0.030   3.797
  460SOL    HW2 2280   1.595   0.143   3.914
  461SOL     OW 2281   6.115   6.973   5.755
  461SOL    HW1 2282   6.093   6.917   5.675
  461SOL    HW2 2283   6.191   6.930   5.804
  462SOL     OW 2284   3.581   2.558   6.114
  462SOL    HW1 2285   3.631   2.487   6.163
  462SOL    HW2 2286   3.645   2.623   6.074
  463SOL     OW 2287   6.694   5.446   3.471
  463SOL    HW1 2288   6.779   5.394   3.471
  463SOL    HW2 2289   6.632   5.408   3.540
  464SOL     OW 2290   2.042   2.710   6.059
  464SOL    HW1 2291   2.045   2.705   5.960
  464SOL    HW2 2292   2.028   2.618   6.097
  465SOL     OW 2293   0.870   2.473   4.940
  465SOL    HW1 2294   0.935   2.408   4.979
  465SOL    HW2 2295   0.828   2.526   5.014
  466SOL     OW 2296   1.354   5.593   2.846
  466SOL    HW1 2297   1.393   5.527   2.782
  466SOL    HW2 2298   1.427   5.636   2.899
  467SOL     OW 2299   1.605   1.331   0.256
  467SOL    HW1 2300   1.679   1.308   0.194
  467SOL    HW2 2301   1.591   1.430   0.257
  468SOL     OW 2302   3.643   6.406   0.022
  468SOL    HW1 2303   3.646   6.466   0.102
  468SOL    HW2 2304   3.721   6.343   0.025
  469SOL     OW 2305   3.106   4.719   0.394
  469SOL    HW1 2306   3.049   4.637   0.388
  469SOL    HW2 2307   3.053   4.799   0.366
  470SOL     OW 2308   4.308   0.115   2.263
  470SOL    HW1 2309   4.320   0.193   2.202
  470SOL    HW2 2310   4.309   0.031   2.210
  471SOL     OW 2311   2.175   2.392   3.996
  471SOL    HW1 2312   2.156   2.463   4.064
  471SOL    HW2 2313   2.144   2.304   4.029
  472SOL     OW 2314   5.113   3.619   6.520
  472SOL    HW1 2315   5.186   3.656   6.463
  472SOL    HW2 2316   5.081   3.690   6.583
  473SOL     OW 2317   1.051   3.054   2.581
  473SOL    HW1 2318   1.072   3.152   2.579
  473SOL    HW2 2319   1.122   3.004   2.532
  474SOL     OW 2320   5.295   5.400   4.256
  474SOL    HW1 2321   5.355   5.323   4.279
  474SOL    HW2 2322   5.216   5.366   4.203
  475SOL     OW 2323   5.748   0.846   6.617
  475SOL    HW1 2324   5.823   0.851   6.551
  475SOL    HW2 2325   5.662   0.867   6.572
  476SOL     OW 2326   6.827   3.940   3.260
  476SOL    HW1 2327   6.762   4.015   3.246
  476SOL    HW2 2328   6.883   3.930   3.177
  477SOL     OW 2329   1.644   4.571   4.055
  477SOL    HW1 2330   1.701   4.589   3.975
  477SOL    HW2 2331   1.693   4.510   4.118
  478SOL     OW 2332   3.155   0.295   1.858
  478SOL    HW1 2333   3.152   0.240   1.774
  478SOL    HW2 2334   3.071   0.280   1.910
  479SOL     OW 2335   4.262   2.241   6.246
  479SOL    HW1 2336   4.294   2.152   6.278
  479SOL    HW2 2337   4.300   2.313   6.304
  480SOL     OW 2338   1.920   1.238   0.340
  480SOL    HW1 2339   1.974   1.311   0.297
  480SOL    HW2 2340   1.870   1.274   0.418
  481SOL     OW 2341   1.855   0.628   0.306
  481SOL    HW1 2342   1.872   0.530   0.301
  481SOL    HW2 2343   1.765   0.644   0.346
  482SOL     OW 2344   4.637   5.033   3.161
  482SOL    HW1 2345   4.695   5.072   3.089
  482SOL    HW2 2346   4.676   4.946   3.192
  483SOL     OW 2347   6.836   1.475   1.849
  483SOL    HW1 2348   6.771   1.479   1.773
  483SOL    HW2 2349   6.868   1.568   1.871
  484SOL     OW 2350   1.372   3.019   4.834
  484SOL    HW1 2351   1.462   3.050   4.863
  484SOL    HW2 2352   1.302   3.059   4.893
  485SOL     OW 2353   3.878   5.160   2.956
  485SOL    HW1 2354   3.950   5.168   3.025
  485SOL    HW2 2355   3.901   5.087   2.892
  486SOL     OW 2356   6.860   2.145   0.498
  486SOL    HW1 2357   6.870   2.047   0.517
  486SOL    HW2 2358   6.766   2.173   0.517
  487SOL     OW 2359   1.403   1.479   1.423
  487SOL    HW1 2360   1.460   1.463   1.503
  487SOL    HW2 2361   1.314   1.435   1.436
  488SOL     OW 2362   0.105   1.378   2.365
  488SOL    HW1 2363   0.135   1.300   2.420
  488SOL    HW2 2364   0.139   1.462   2.405
  489SOL     OW 2365   2.929   6.148   6.355
  489SOL    HW1 2366   2.846   6.098   6.332
  489SOL    HW2 2367   2.908   6.246   6.363
  490SOL     OW 2368   6.904   5.770   3.228
  490SOL    HW1 2369   6.861   5.830   3.296
  490SOL    HW2 2370   7.002   5.761   3.248
  491SOL     OW 2371   0.389   3.291   2.453
  491SOL    HW1 2372   0.356   3.233   2.378
  491SOL    HW2 2373   0.316   3.353   2.481
  492SOL     OW 2374   2.625   0.360   5.872
  492SOL    HW1 2375   2.587   0.370   5.965
  492SOL    HW2 2376   2.704   0.419   5.862
  493SOL     OW 2377   4.846   6.038   5.144
  493SOL    HW1 2378   4.916   6.093   5.099
  493SOL    HW2 2379   4.889   5.962   5.192
  494SOL     OW 2380   6.713   0.888   6.831
  494SOL    HW1 2381   6.734   0.791   6.846
  494SOL    HW2 2382   6.614   0.899   6.822
  495SOL     OW 2383   5.082   6.012   3.509
  495SOL    HW1 2384   5.054   6.006   3.413
  495SOL    HW2 2385   5.176   6.045   3.514
  496SOL     OW 2386   4.977   3.643   1.764
  496SOL    HW1 2387   4.994   3.601   1.853
  496SOL    HW2 2388   5.064   3.669   1.723
  497SOL     OW 2389   3.298   1.043   4.334
  497SOL    HW1 2390   3.370   1.004   4.392
  497SOL    HW2 2391   3.337   1.070   4.246
  498SOL     OW 2392   2.168   3.957   1.547
  498SOL    HW1 2393   2.133   4.000   1.464
  498SOL    HW2 2394   2.171   4.025   1.620
  499SOL     OW 2395   2.628   0.298   4.120
  499SOL    HW1 2396   2.618   0.222   4.057
  499SOL    HW2 2397   2.694   0.274   4.191
  500SOL     OW 2398   0.469   3.486   4.264
  500SOL    HW1 2399   0.426   3.413   4.212
  500SOL    HW2 2400   0.460   3.572   4.213
  501SOL     OW 2401   2.764   5.826   0.501
  501SOL    HW1 2402   2.712   5.764   0.442
  501SOL    HW2 2403   2.742   5.921   0.476
  502SOL     OW 2404   6.600   3.941   0.054
  502SOL    HW1 2405   6.681   3.903   0.009
  502SOL    HW2 2406   6.581   3.891   0.138
  503SOL     OW 2407   6.385   5.542   6.753
  503SOL    HW1 2408   6.467   5.569   6.703
  503SOL    HW2 2409   6.311   5.524   6.689
  504SOL     OW 2410   1.972   5.508   3.055
  504SOL    HW1 2411   2.002   5.499   2.960
  504SOL    HW2 2412   2.000   5.597   3.090
  505SOL     OW 2413   3.291   6.636   4.977
  505SOL    HW1 2414   3.390   6.638   4.982
  505SOL    HW2 2415   3.261   6.664   4.886
  506SOL     OW 2416   1.504   5.412   4.818
  506SOL    HW1 2417   1.458   5.331   4.854
  506SOL    HW2 2418   1.447   5.454   4.747
  507SOL     OW 2419   3.350   6.760   3.159
  507SOL    HW1 2420   3.375   6.708   3.241
  507SOL    HW2 2421   3.280   6.709   3.108
  508SOL     OW 2422   6.866   3.876   2.264
  508SOL    HW1 2423   6.947   3.822   2.242
  508SOL    HW2 2424   6.823   3.840   2.346
  509SOL     OW 2425   3.246   0.975   1.997
  509SOL    HW1 2426   3.250   1.063   2.045
  509SOL    HW2 2427   3.285   0.986   1.906
  510SOL     OW 2428   6.085   4.750   0.356
  510SOL    HW1 2429   6.091   4.651   0.344
  510SOL    HW2 2430   6.020   4.788   0.290
  511SOL     OW 2431   0.686   1.259   5.970
  511SOL    HW1 2432   0.694   1.160   5.957
  511SOL    HW2 2433   0.592   1.282   5.998
  512SOL     OW 2434   6.396   2.757   0.032
  512SOL    HW1 2435   6.411   2.840   0.086
  512SOL    HW2 2436   6.415   2.775   6.959
  513SOL     OW 2437   5.885   5.976   3.443
  513SOL    HW1 2438   5.897   6.069   3.410
  513SOL    HW2 2439   5.974   5.932   3.452
  514SOL     OW 2440   6.432   2.581   4.178
  514SOL    HW1 2441   6.494   2.658   4.196
  514SOL    HW2 2442   6.475   2.496   4.209
  515SOL     OW 2443   1.993   0.918   6.806
  515SOL    HW1 2444   1.965   0.865   6.886
  515SOL    HW2 2445   2.078   0.966   6.827
  516SOL     OW 2446   2.814   4.695   1.660
  516SOL    HW1 2447   2.819   4.622   1.728
  516SOL    HW2 2448   2.764   4.662   1.580
  517SOL     OW 2449   4.610   5.217   2.302
  517SOL    HW1 2450   4.648   5.126   2.320
  517SOL    HW2 2451   4.535   5.234   2.365
  518SOL     OW 2452   2.245   2.475   2.609
  518SOL    HW1 2453   2.202   2.493   2.521
  518SOL    HW2 2454   2.342   2.501   2.604
  519SOL     OW 2455   0.841   0.977   4.452
  519SOL    HW1 2456   0.781   0.919   4.398
  519SOL    HW2 2457   0.900   0.920   4.509
  520SOL     OW 2458   6.107   4.501   0.189
  520SOL    HW1 2459   6.106   4.578   0.126
  520SOL    HW2 2460   6.190   4.447   0.174
  521SOL     OW 2461   6.873   3.530   5.634
  521SOL    HW1 2462   6.919   3.575   5.557
  521SOL    HW2 2463   6.785   3.494   5.603
  522SOL     OW 2464   3.733   3.181   5.212
  522SOL    HW1 2465   3.763   3.086   5.204
  522SOL    HW2 2466   3.758   3.231   5.129
  523SOL     OW 2467   0.663   5.276   1.355
  523SOL    HW1 2468   0.751   5.320   1.334
  523SOL    HW2 2469   0.661   5.251   1.452
  524SOL     OW 2470   0.201   1.322   0.765
  524SOL    HW1 2471   0.235   1.270   0.844
  524SOL    HW2 2472   0.273   1.328   0.696
  525SOL     OW 2473   1.578   3.376   6.365
  525SOL    HW1 2474   1.518   3.373   6.285
  525SOL    HW2 2475   1.668   3.410   6.338
  526SOL     OW 2476   4.500   6.117   4.311
  526SOL    HW1 2477   4.491   6.115   4.212
  526SOL    HW2 2478   4.461   6.033   4.350
  527SOL     OW 2479   6.679   3.168   7.010
  527SOL    HW1 2480   6.717   3.090   6.960
  527SOL    HW2 2481   6.743   3.196   0.058
  528SOL     OW 2482   1.061   1.616   3.743
  528SOL    HW1 2483   1.140   1.555   3.755
  528SOL    HW2 2484   1.084   1.689   3.679
  529SOL     OW 2485   1.097   6.780   3.987
  529SOL    HW1 2486   1.176   6.719   3.980
  529SOL    HW2 2487   1.112   6.861   3.930
  530SOL     OW 2488   3.158   2.992   4.974
  530SOL    HW1 2489   3.228   3.006   4.905
  530SOL    HW2 2490   3.084   2.937   4.935
  531SOL     OW 2491   0.722   0.076   2.920
  531SOL    HW1 2492   0.675   0.154   2.880
  531SOL    HW2 2493   0.821   0.087   2.911
  532SOL     OW 2494   1.080   2.213   6.899
  532SOL    HW1 2495   1.161   2.156   6.912
  532SOL    HW2 2496   1.048   2.246   6.987
  533SOL     OW 2497   4.748   0.232   3.643
  533SOL    HW1 2498   4.847   0.219   3.649
  533SOL    HW2 2499   4.717   0.206   3.551
  534SOL     OW 2500   5.303   6.052   2.567
  534SOL    HW1 2501   5.257   6.084   2.650
  534SOL    HW2 2502   5.256   6.088   2.487
  535SOL     OW 2503   0.639   3.293   4.846
  535SOL    HW1 2504   0.608   3.388   4.852
  535SOL    HW2 2505   0.705   3.275   4.919
  536SOL     OW 2506   6.790   5.182   1.629
  536SOL    HW1 2507   6.859   5.186   1.556
  536SOL    HW2 2508   6.708   5.137   1.594
  537SOL     OW 2509   1.677   6.451   3.998
  537SOL    HW1 2510   1.654   6.528   4.058
  537SOL    HW2 2511   1.777   6.444   3.990
  538SOL     OW 2512   1.134   4.138   2.588
  538SOL    HW1 2513   1.233   4.144   2.576
  538SOL    HW2 2514   1.096   4.231   2.593
  539SOL     OW 2515   1.129   6.685   0.550
  539SOL    HW1 2516   1.173   6.681   0.639
  539SOL    HW2 2517   1.032   6.709   0.562
  540SOL     OW 2518   1.059   0.462   2.888
  540SOL    HW1 2519   1.007   0.465   2.803
  540SOL    HW2 2520   1.135   0.397   2.879
  541SOL     OW 2521   3.851   6.111   4.308
  541SOL    HW1 2522   3.778   6.167   4.269
  541SOL    HW2 2523   3.827   6.015   4.300
  542SOL     OW 2524   6.518   0.190   6.986
  542SOL    HW1 2525   6.495   0.146   0.049
  542SOL    HW2 2526   6.617   0.193   6.976
  543SOL     OW 2527   1.642   4.313   5.516
  543SOL    HW1 2528   1.666   4.216   5.517
  543SOL    HW2 2529   1.595   4.337   5.600
  544SOL     OW 2530   2.528   3.994   0.659
  544SOL    HW1 2531   2.428   3.997   0.660
  544SOL    HW2 2532   2.558   3.925   0.593
  545SOL     OW 2533   2.932   0.555   3.066
  545SOL    HW1 2534   2.871   0.562   3.145
  545SOL    HW2 2535   2.999   0.483   3.082
  546SOL     OW 2536   1.795   3.392   0.689
  546SOL    HW1 2537   1.713   3.338   0.670
  546SOL    HW2 2538   1.868   3.331   0.719
  547SOL     OW 2539   3.100   1.249   6.750
  547SOL    HW1 2540   3.186   1.229   6.798
  547SOL    HW2 2541   3.032   1.180   6.773
  548SOL     OW 2542   3.623   2.888   2.702
  548SOL    HW1 2543   3.609   2.854   2.609
  548SOL    HW2 2544   3.546   2.860   2.759
  549SOL     OW 2545   4.668   3.386   1.223
  549SOL    HW1 2546   4.700   3.385   1.318
  549SOL    HW2 2547   4.702   3.468   1.177
  550SOL     OW 2548   6.308   4.374   3.405
  550SOL    HW1 2549   6.354   4.462   3.392
  550SOL    HW2 2550   6.244   4.359   3.330
  551SOL     OW 2551   1.281   0.842   1.495
  551SOL    HW1 2552   1.184   0.860   1.478
  551SOL    HW2 2553   1.290   0.774   1.568
  552SOL     OW 2554   4.972   4.647   0.122
  552SOL    HW1 2555   4.874   4.643   0.101
  552SOL    HW2 2556   5.016   4.716   0.065
  553SOL     OW 2557   1.998   6.653   2.187
  553SOL    HW1 2558   1.923   6.588   2.195
  553SOL    HW2 2559   2.037   6.648   2.095
  554SOL     OW 2560   5.681   6.565   5.300
  554SOL    HW1 2561   5.754   6.632   5.286
  554SOL    HW2 2562   5.650   6.568   5.395
  555SOL     OW 2563   2.367   5.405   2.884
  555SOL    HW1 2564   2.340   5.350   2.964
  555SOL    HW2 2565   2.317   5.373   2.804
  556SOL     OW 2566   5.643   2.562   3.532
  556SOL    HW1 2567   5.677   2.472   3.557
  556SOL    HW2 2568   5.571   2.553   3.463
  557SOL     OW 2569   0.414   4.946   0.337
  557SOL    HW1 2570   0.359   4.927   0.419
  557SOL    HW2 2571   0.432   4.860   0.289
  558SOL     OW 2572   2.931   3.687   4.897
  558SOL    HW1 2573   2.879   3.682   4.982
  558SOL    HW2 2574   2.943   3.595   4.859
  559SOL     OW 2575   6.661   5.568   6.646
  559SOL    HW1 2576   6.650   5.655   6.694
  559SOL    HW2 2577   6.746   5.571   6.593
  560SOL     OW 2578   4.446   5.505   0.496
  560SOL    HW1 2579   4.436   5.417   0.542
  560SOL    HW2 2580   4.432   5.494   0.398
  561SOL     OW 2581   6.319   1.041   0.540
  561SOL    HW1 2582   6.289   1.137   0.535
  561SOL    HW2 2583   6.238   0.981   0.538
  562SOL     OW 2584   4.880   1.037   5.982
  562SOL    HW1 2585   4.912   1.131   5.995
  562SOL    HW2 2586   4.790   1.025   6.024
  563SOL     OW 2587   2.235   0.039   2.876
  563SOL    HW1 2588   2.293   7.017   2.808
  563SOL    HW2 2589   2.258   0.004   2.967
  564SOL     OW 2590   2.942   1.841   6.468
  564SOL    HW1 2591   2.904   1.791   6.390
  564SOL    HW2 2592   2.868   1.869   6.529
  565SOL     OW 2593   3.591   3.516   5.807
  565SOL    HW1 2594   3.597   3.486   5.712
  565SOL    HW2 2595   3.495   3.513   5.837
  566SOL     OW 2596   6.121   4.184   4.449
  566SOL    HW1 2597   6.186   4.250   4.413
  566SOL    HW2 2598   6.028   4.218   4.435
  567SOL     OW 2599   3.806   4.011   2.676
  567SOL    HW1 2600   3.756   4.034   2.592
  567SOL    HW2 2601   3.749   4.031   2.755
  568SOL     OW 2602   3.491   2.469   0.428
  568SOL    HW1 2603   3.443   2.382   0.434
  568SOL    HW2 2604   3.432   2.537   0.385
  569SOL     OW 2605   1.218   3.782   0.077
  569SOL    HW1 2606   1.260   3.743   7.018
  569SOL    HW2 2607   1.243   3.728   0.157
  570SOL     OW 2608   2.290   6.492   6.766
  570SOL    HW1 2609   2.305   6.432   6.688
  570SOL    HW2 2610   2.375   6.500   6.819
  571SOL     OW 2611   3.017   0.213   2.876
  571SOL    HW1 2612   2.959   0.209   2.794
  571SOL    HW2 2613   3.089   0.281   2.861
  572SOL     OW 2614   2.431   4.756   5.900
  572SOL    HW1 2615   2.465   4.804   5.980
  572SOL    HW2 2616   2.494   4.683   5.875
  573SOL     OW 2617   4.830   1.458   5.263
  573SOL    HW1 2618   4.840   1.372   5.313
  573SOL    HW2 2619   4.758   1.448   5.194
  574SOL     OW 2620   2.778   2.279   3.597
  574SOL    HW1 2621   2.756   2.259   3.692
  574SOL    HW2 2622   2.761   2.376   3.579
  575SOL     OW 2623   6.357   3.029   6.902
  575SOL    HW1 2624   6.407   2.959   6.850
  575SOL    HW2 2625   6.401   3.042   6.990
  576SOL     OW 2626   1.304   2.203   2.446
  576SOL    HW1 2627   1.252   2.191   2.531
  576SOL    HW2 2628   1.258   2.271   2.388
  577SOL     OW 2629   1.858   0.977   3.270
  577SOL    HW1 2630   1.815   0.932   3.349
  577SOL    HW2 2631   1.956   0.958   3.271
  578SOL     OW 2632   6.981   4.225   3.212
  578SOL    HW1 2633   6.932   4.207   3.297
  578SOL    HW2 2634   6.922   4.278   3.150
  579SOL     OW 2635   2.561   3.200   1.324
  579SOL    HW1 2636   2.466   3.231   1.316
  579SOL    HW2 2637   2.622   3.279   1.329
  580SOL     OW 2638   0.753   4.531   6.914
  580SOL    HW1 2639   0.751   4.499   6.819
  580SOL    HW2 2640   0.663   4.566   6.939
  581SOL     OW 2641   3.125   3.368   2.269
  581SOL    HW1 2642   3.117   3.285   2.215
  581SOL    HW2 2643   3.218   3.405   2.262
  582SOL     OW 2644   6.100   5.113   2.633
  582SOL    HW1 2645   6.178   5.126   2.571
  582SOL    HW2 2646   6.044   5.196   2.634
  583SOL     OW 2647   2.308   5.396   6.207
  583SOL    HW1 2648   2.225   5.449   6.223
  583SOL    HW2 2649   2.291   5.328   6.136
  584SOL     OW 2650   1.160   4.700   5.982
  584SOL    HW1 2651   1.141   4.693   5.884
  584SOL    HW2 2652   1.178   4.796   6.006
  585SOL     OW 2653   6.096   2.837   6.110
  585SOL    HW1 2654   6.152   2.790   6.179
  585SOL    HW2 2655   6.076   2.775   6.035
  586SOL     OW 2656   3.324   0.781   6.369
  586SOL    HW1 2657   3.324   0.690   6.410
  586SOL    HW2 2658   3.232   0.821   6.376
  587SOL     OW 2659   2.800   2.410   5.255
  587SOL    HW1 2660   2.752   2.401   5.342
  587SOL    HW2 2661   2.735   2.407   5.180
  588SOL     OW 2662   2.495   5.110   0.770
  588SOL    HW1 2663   2.509   5.203   0.735
  588SOL    HW2 2664   2.455   5.053   0.698
  589SOL     OW 2665   3.717   5.364   1.345
  589SOL    HW1 2666   3.777   5.286   1.364
  589SOL    HW2 2667   3.695   5.411   1.431
  590SOL     OW 2668   5.828   2.877   1.240
  590SOL    HW1 2669   5.809   2.803   1.304
  590SOL    HW2 2670   5.926   2.894   1.236
  591SOL     OW 2671   4.194   6.187   3.962
  591SOL    HW1 2672   4.182   6.093   3.929
  591SOL    HW2 2673   4.255   6.237   3.900
  592SOL     OW 2674   3.950   0.272   1.240
  592SOL    HW1 2675   3.879   0.341   1.226
  592SOL    HW2 2676   4.026   0.312   1.292
  593SOL     OW 2677   4.588   2.224   3.548
  593SOL    HW1 2678   4.650   2.198   3.622
  593SOL    HW2 2679   4.612   2.174   3.465
  594SOL     OW 2680   4.672   2.061   6.223
  594SOL    HW1 2681   4.764   2.033   6.194
  594SOL    HW2 2682   4.657   2.157   6.199
  595SOL     OW 2683   5.178   7.011   3.411
  595SOL    HW1 2684   5.249   6.974   3.470
  595SOL    HW2 2685   5.129   6.937   3.365
  596SOL     OW 2686   1.116   3.835   2.037
  596SOL    HW1 2687   1.206   3.856   1.998
  596SOL    HW2 2688   1.097   3.897   2.113
  597SOL     OW 2689   4.824   0.037   5.861
  597SOL    HW1 2690   4.919   0.014   5.840
  597SOL    HW2 2691   4.766   6.981   5.844
  598SOL     OW 2692   3.313   4.133   6.834
  598SOL    HW1 2693   3.408   4.157   6.854
  598SOL    HW2 2694   3.305   4.034   6.828
  599SOL     OW 2695   1.703   6.535   3.040
  599SOL    HW1 2696   1.676   6.628   3.014
  599SOL    HW2 2697   1.662   6.470   2.976
  600SOL     OW 2698   1.251   1.218   1.205
  600SOL    HW1 2699   1.259   1.195   1.108
  600SOL    HW2 2700   1.313   1.160   1.258
  601SOL     OW 2701   3.538   6.701   4.445
  601SOL    HW1 2702   3.510   6.742   4.359
  601SOL    HW2 2703   3.529   6.602   4.439
  602SOL     OW 2704   1.239   2.503   0.086
  602SOL    HW1 2705   1.161   2.441   0.093
  602SOL    HW2 2706   1.211   2.586   0.038
  603SOL     OW 2707   4.187   1.884   3.499
  603SOL    HW1 2708   4.240   1.963   3.532
  603SOL    HW2 2709   4.092   1.911   3.483
  604SOL     OW 2710   0.500   3.767   1.390
  604SOL    HW1 2711   0.420   3.803   1.344
  604SOL    HW2 2712   0.582   3.787   1.337
  605SOL     OW 2713   6.772   5.315   2.913
  605SOL    HW1 2714   6.778   5.222   2.949
  605SOL    HW2 2715   6.677   5.347   2.918
  606SOL     OW 2716   4.774   0.422   5.783
  606SOL    HW1 2717   4.864   0.414   5.826
  606SOL    HW2 2718   4.753   0.338   5.733
  607SOL     OW 2719   5.399   0.747   5.562
  607SOL    HW1 2720   5.384   0.841   5.529
  607SOL    HW2 2721   5.319   0.718   5.615
  608SOL     OW 2722   4.019   6.374   0.159
  608SOL    HW1 2723   4.006   6.454   0.100
  608SOL    HW2 2724   4.045   6.405   0.250
  609SOL     OW 2725   3.489   3.480   3.901
  609SOL    HW1 2726   3.518   3.384   3.911
  609SOL    HW2 2727   3.570   3.538   3.889
  610SOL     OW 2728   5.007   2.163   2.275
  610SOL    HW1 2729   4.953   2.101   2.332
  610SOL    HW2 2730   5.027   2.119   2.187
  611SOL     OW 2731   1.469   0.573   6.411
  611SOL    HW1 2732   1.465   0.644   6.482
  611SOL    HW2 2733   1.529   0.603   6.337
  612SOL     OW 2734   3.983   5.845   5.552
  612SOL    HW1 2735   3.962   5.811   5.644
  612SOL    HW2 2736   3.918   5.807   5.486
  613SOL     OW 2737   4.459   6.693   5.453
  613SOL    HW1 2738   4.461   6.626   5.527
  613SOL    HW2 2739   4.446   6.784   5.491
  614SOL     OW 2740   5.874   4.317   1.211
  614SOL    HW1 2741   5.919   4.229   1.196
  614SOL    HW2 2742   5.940   4.391   1.199
  615SOL     OW 2743   0.613   1.779   1.495
  615SOL    HW1 2744   0.593   1.863   1.445
  615SOL    HW2 2745   0.688   1.795   1.559
  616SOL     OW 2746   5.976   1.577   2.989
  616SOL    HW1 2747   5.997   1.481   3.009
  616SOL    HW2 2748   5.935   1.584   2.898
  617SOL     OW 2749   6.969   3.475   6.717
  617SOL    HW1 2750   6.900   3.539   6.750
  617SOL    HW2 2751   6.924   3.392   6.684
  618SOL     OW 2752   6.523   3.403   0.798
  618SOL    HW1 2753   6.455   3.330   0.804
  618SOL    HW2 2754   6.511   3.453   0.713
  619SOL     OW 2755   4.079   6.968   6.848
  619SOL    HW1 2756   3.979   6.957   6.852
  619SOL    HW2 2757   4.103   0.037   6.877
  620SOL     OW 2758   5.900   2.698   1.001
  620SOL    HW1 2759   5.880   2.766   1.071
  620SOL    HW2 2760   5.940   2.743   0.921
  621SOL     OW 2761   1.512   0.287   5.272
  621SOL    HW1 2762   1.525   0.359   5.204
  621SOL    HW2 2763   1.414   0.272   5.287
  622SOL     OW 2764   0.107   1.625   5.153
  622SOL    HW1 2765   0.116   1.724   5.149
  622SOL    HW2 2766   0.154   1.590   5.234
  623SOL     OW 2767   0.452   6.718   5.211
  623SOL    HW1 2768   0.379   6.741   5.147
  623SOL    HW2 2769   0.422   6.737   5.304
  624SOL     OW 2770   6.413   0.995   0.274
  624SOL    HW1 2771   6.480   0.923   0.255
  624SOL    HW2 2772   6.407   1.009   0.373
  625SOL     OW 2773   1.746   2.048   0.920
  625SOL    HW1 2774   1.752   2.009   1.012
  625SOL    HW2 2775   1.828   2.024   0.868
  626SOL     OW 2776   0.603   5.933   2.616
  626SOL    HW1 2777   0.567   5.946   2.708
  626SOL    HW2 2778   0.541   5.873   2.564
  627SOL     OW 2779   6.566   6.541   0.884
  627SOL    HW1 2780   6.585   6.450   0.921
  627SOL    HW2 2781   6.646   6.599   0.896
  628SOL     OW 2782   5.654   3.856   5.081
  628SOL    HW1 2783   5.722   3.923   5.113
  628SOL    HW2 2784   5.650   3.780   5.145
  629SOL     OW 2785   0.746   1.097   6.733
  629SOL    HW1 2786   0.759   1.194   6.714
  629SOL    HW2 2787   0.810   1.043   6.678
  630SOL     OW 2788   0.439   2.460   0.559
  630SOL    HW1 2789   0.480   2.436   0.647
  630SOL    HW2 2790   0.504   2.516   0.507
  631SOL     OW 2791   3.928   1.561   4.544
  631SOL    HW1 2792   3.829   1.566   4.558
  631SOL    HW2 2793   3.969   1.503   4.614
  632SOL     OW 2794   4.602   2.695   0.398
  632SOL    HW1 2795   4.701   2.690   0.408
  632SOL    HW2 2796   4.578   2.679   0.302
  633SOL     OW 2797   3.565   4.393   6.580
  633SOL    HW1 2798   3.647   4.427   6.534
  633SOL    HW2 2799   3.585   4.382   6.678
  634SOL     OW 2800   3.568   3.280   2.742
  634SOL    HW1 2801   3.559   3.281   2.841
  634SOL    HW2 2802   3.511   3.354   2.703
  635SOL     OW 2803   4.684   6.731   0.233
  635SOL    HW1 2804   4.600   6.786   0.225
  635SOL    HW2 2805   4.702   6.712   0.330
  636SOL     OW 2806   2.766   0.008   5.973
  636SOL    HW1 2807   2.858   0.040   5.952
  636SOL    HW2 2808   2.724   6.994   5.890
  637SOL     OW 2809   6.841   2.730   2.436
  637SOL    HW1 2810   6.872   2.796   2.505
  637SOL    HW2 2811   6.748   2.701   2.457
  638SOL     OW 2812   5.776   4.018   3.786
  638SOL    HW1 2813   5.831   3.934   3.780
  638SOL    HW2 2814   5.711   4.020   3.710
  639SOL     OW 2815   5.053   4.464   3.216
  639SOL    HW1 2816   5.034   4.434   3.122
  639SOL    HW2 2817   5.059   4.383   3.276
  640SOL     OW 2818   6.693   4.871   3.358
  640SOL    HW1 2819   6.734   4.809   3.425
  640SOL    HW2 2820   6.644   4.818   3.289
  641SOL     OW 2821   0.850   4.790   4.869
  641SOL    HW1 2822   0.813   4.826   4.954
  641SOL    HW2 2823   0.947   4.813   4.862
  642SOL     OW 2824   1.542   2.953   4.587
  642SOL    HW1 2825   1.473   2.987   4.651
  642SOL    HW2 2826   1.498   2.904   4.512
  643SOL     OW 2827   6.186   0.287   6.402
  643SOL    HW1 2828   6.203   0.213   6.468
  643SOL    HW2 2829   6.220   0.259   6.312
  644SOL     OW 2830   1.385   0.594   4.578
  644SOL    HW1 2831   1.340   0.647   4.650
  644SOL    HW2 2832   1.323   0.583   4.501
  645SOL     OW 2833   3.209   5.590   4.358
  645SOL    HW1 2834   3.141   5.519   4.337
  645SOL    HW2 2835   3.243   5.578   4.451
  646SOL     OW 2836   3.895   0.297   4.560
  646SOL    HW1 2837   3.981   0.258   4.527
  646SOL    HW2 2838   3.911   0.346   4.645
  647SOL     OW 2839   5.652   1.558   4.932
  647SOL    HW1 2840   5.562   1.586   4.899
  647SOL    HW2 2841   5.723   1.604   4.880
  648SOL     OW 2842   6.828   4.212   3.454
  648SOL    HW1 2843   6.735   4.205   3.419
  648SOL    HW2 2844   6.859   4.122   3.483
  649SOL     OW 2845   2.084   3.781   0.862
  649SOL    HW1 2846   2.078   3.725   0.779
  649SOL    HW2 2847   2.098   3.722   0.941
  650SOL     OW 2848   6.510   5.271   0.485
  650SOL    HW1 2849   6.500   5.253   0.387
  650SOL    HW2 2850   6.532   5.368   0.499
  651SOL     OW 2851   1.568   0.692   5.737
  651SOL    HW1 2852   1.538   0.770   5.681
  651SOL    HW2 2853   1.514   0.611   5.713
  652SOL     OW 2854   4.390   6.813   2.793
  652SOL    HW1 2855   4.434   6.749   2.730
  652SOL    HW2 2856   4.349   6.888   2.741
  653SOL     OW 2857   0.782   5.997   0.161
  653SOL    HW1 2858   0.822   6.086   0.183
  653SOL    HW2 2859   0.754   5.951   0.245
  654SOL     OW 2860   0.295   6.320   6.291
  654SOL    HW1 2861   0.206   6.365   6.297
  654SOL    HW2 2862   0.349   6.341   6.372
  655SOL     OW 2863   6.833   5.459   2.032
  655SOL    HW1 2864   6.858   5.470   2.129
  655SOL    HW2 2865   6.782   5.539   2.002
  656SOL     OW 2866   1.773   6.372   6.974
  656SOL    HW1 2867   1.851   6.377   6.911
  656SOL    HW2 2868   1.691   6.347   6.923
  657SOL     OW 2869   3.177   4.032   0.932
  657SOL    HW1 2870   3.144   3.983   0.852
  657SOL    HW2 2871   3.271   4.061   0.918
  658SOL     OW 2872   1.275   3.932   5.243
  658SOL    HW1 2873   1.195   3.962   5.191
  658SOL    HW2 2874   1.358   3.956   5.192
  659SOL     OW 2875   2.730   6.354   4.724
  659SOL    HW1 2876   2.699   6.330   4.632
  659SOL    HW2 2877   2.697   6.445   4.748
  660SOL     OW 2878   4.657   4.724   2.943
  660SOL    HW1 2879   4.691   4.739   3.036
  660SOL    HW2 2880   4.594   4.797   2.918
  661SOL     OW 2881   4.838   4.061   4.722
  661SOL    HW1 2882   4.821   4.037   4.626
  661SOL    HW2 2883   4.933   4.092   4.731
  662SOL     OW 2884   4.453   0.968   5.422
  662SOL    HW1 2885   4.357   0.949   5.442
  662SOL    HW2 2886   4.503   0.881   5.415
  663SOL     OW 2887   0.046   4.632   0.330
  663SOL    HW1 2888   0.119   4.569   0.357
  663SOL    HW2 2889   0.064   4.665   0.237
  664SOL     OW 2890   1.576   5.583   6.585
  664SOL    HW1 2891   1.508   5.590   6.512
  664SOL    HW2 2892   1.612   5.490   6.588
  665SOL     OW 2893   4.019   5.245   0.770
  665SOL    HW1 2894   4.019   5.238   0.870
  665SOL    HW2 2895   3.925   5.261   0.738
  666SOL     OW 2896   4.497   2.487   0.875
  666SOL    HW1 2897   4.421   2.550   0.891
  666SOL    HW2 2898   4.473   2.423   0.803
  667SOL     OW 2899   0.084   3.988   3.748
  667SOL    HW1 2900   0.118   4.078   3.772
  667SOL    HW2 2901   0.033   3.950   3.825
  668SOL     OW 2902   5.024   5.805   6.925
  668SOL    HW1 2903   4.992   5.846   6.839
  668SOL    HW2 2904   5.120   5.830   6.939
  669SOL     OW 2905   2.595   6.023   3.076
  669SOL    HW1 2906   2.511   6.076   3.064
  669SOL    HW2 2907   2.581   5.930   3.040
  670SOL     OW 2908   3.144   3.194   2.073
  670SOL    HW1 2909   3.187   3.227   1.988
  670SOL    HW2 2910   3.046   3.211   2.069
  671SOL     OW 2911   2.449   6.157   6.837
  671SOL    HW1 2912   2.506   6.091   6.886
  671SOL    HW2 2913   2.507   6.221   6.786
  672SOL     OW 2914   0.794   4.383   1.957
  672SOL    HW1 2915   0.777   4.356   1.862
  672SOL    HW2 2916   0.861   4.321   1.997
  673SOL     OW 2917   4.906   0.298   1.543
  673SOL    HW1 2918   4.849   0.304   1.626
  673SOL    HW2 2919   4.865   0.233   1.479
  674SOL     OW 2920   6.680   3.043   4.136
  674SOL    HW1 2921   6.605   3.000   4.086
  674SOL    HW2 2922   6.727   3.109   4.076
  675SOL     OW 2923   0.237   1.202   5.387
  675SOL    HW1 2924   0.329   1.215   5.423
  675SOL    HW2 2925   0.236   1.121   5.327
  676SOL     OW 2926   2.981   5.116   3.446
  676SOL    HW1 2927   3.053   5.050   3.468
  676SOL    HW2 2928   3.002   5.159   3.358
  677SOL     OW 2929   6.024   1.245   6.546
  677SOL    HW1 2930   6.056   1.296   6.626
  677SOL    HW2 2931   6.011   1.307   6.469
  678SOL     OW 2932   1.583   1.438   5.330
  678SOL    HW1 2933   1.529   1.483   5.259
  678SOL    HW2 2934   1.676   1.423   5.297
  679SOL     OW 2935   4.732   1.165   4.346
  679SOL    HW1 2936   4.825   1.132   4.329
  679SOL    HW2 2937   4.669   1.087   4.346
  680SOL     OW 2938   5.920   4.973   6.126
  680SOL    HW1 2939   5.893   4.879   6.108
  680SOL    HW2 2940   5.852   5.017   6.184
  681SOL     OW 2941   6.519   0.308   0.892
  681SOL    HW1 2942   6.586   0.381   0.879
  681SOL    HW2 2943   6.467   0.324   0.976
  682SOL     OW 2944   1.717   6.554   6.486
  682SOL    HW1 2945   1.803   6.574   6.533
  682SOL    HW2 2946   1.665   6.638   6.474
  683SOL     OW 2947   3.569   0.896   5.951
  683SOL    HW1 2948   3.502   0.897   6.026
  683SOL    HW2 2949   3.552   0.974   5.891
  684SOL     OW 2950   6.258   1.230   6.383
  684SOL    HW1 2951   6.347   1.270   6.403
  684SOL    HW2 2952   6.192   1.258   6.453
  685SOL     OW 2953   5.284   6.415   5.450
  685SOL    HW1 2954   5.231   6.462   5.521
  685SOL    HW2 2955   5.317   6.482   5.384
  686SOL     OW 2956   5.498   3.514   2.779
  686SOL    HW1 2957   5.568   3.579   2.749
  686SOL    HW2 2958   5.438   3.492   2.701
  687SOL     OW 2959   6.969   2.611   5.294
  687SOL    HW1 2960   6.873   2.619   5.321
  687SOL    HW2 2961   6.979   2.537   5.227
  688SOL     OW 2962   1.535   3.673   0.316
  688SOL    HW1 2963   1.442   3.657   0.285
  688SOL    HW2 2964   1.541   3.763   0.358
  689SOL     OW 2965   0.799   4.136   5.515
  689SOL    HW1 2966   0.860   4.191   5.571
  689SOL    HW2 2967   0.827   4.141   5.419
  690SOL     OW 2968   0.602   3.216   3.644
  690SOL    HW1 2969   0.506   3.189   3.638
  690SOL    HW2 2970   0.654   3.143   3.688
  691SOL     OW 2971   2.352   1.701   6.433
  691SOL    HW1 2972   2.334   1.796   6.457
  691SOL    HW2 2973   2.277   1.643   6.464
  692SOL     OW 2974   3.441   6.372   3.992
  692SOL    HW1 2975   3.377   6.357   4.067
  692SOL    HW2 2976   3.436   6.468   3.963
  693SOL     OW 2977   6.347   1.424   3.186
  693SOL    HW1 2978   6.292   1.386   3.260
  693SOL    HW2 2979   6.443   1.429   3.215
  694SOL     OW 2980   3.122   6.144   2.439
  694SOL    HW1 2981   3.221   6.137   2.449
  694SOL    HW2 2982   3.079   6.151   2.529
  695SOL     OW 2983   4.538   5.069   6.263
  695SOL    HW1 2984   4.455   5.060   6.208
  695SOL    HW2 2985   4.598   4.992   6.244
  696SOL     OW 2986   3.512   5.250   1.768
  696SOL    HW1 2987   3.455   5.330   1.786
  696SOL    HW2 2988   3.510   5.189   1.847
  697SOL     OW 2989   1.512   2.297   5.053
  697SOL    HW1 2990   1.535   2.294   5.150
  697SOL    HW2 2991   1.470   2.211   5.025
  698SOL     OW 2992   5.437   0.429   5.854
  698SOL    HW1 2993   5.451   0.528   5.852
  698SOL    HW2 2994   5.474   0.388   5.771
  699SOL     OW 2995   0.371   4.140   0.366
  699SOL    HW1 2996   0.358   4.042   0.354
  699SOL    HW2 2997   0.462   4.166   0.335
  700SOL     OW 2998   3.320   1.833   4.200
  700SOL    HW1 2999   3.413   1.851   4.168
  700SOL    HW2 3000   3.322   1.814   4.299
  701SOL     OW 3001   6.853   4.371   5.609
  701SOL    HW1 3002   6.920   4.442   5.629
  701SOL    HW2 3003   6.761   4.409   5.617
  702SOL     OW 3004   5.780   6.046   5.658
  702SOL    HW1 3005   5.718   6.083   5.726
  702SOL    HW2 3006   5.829   5.967   5.695
  703SOL     OW 3007   4.270   3.833   6.573
  703SOL    HW1 3008   4.227   3.845   6.662
  703SOL    HW2 3009   4.200   3.838   6.501
  704SOL     OW 3010   1.764   1.526   6.166
  704SOL    HW1 3011   1.758   1.497   6.070
  704SOL    HW2 3012   1.745   1.624   6.172
  705SOL     OW 3013   5.036   0.032   3.657
  705SOL    HW1 3014   5.102   0.015   3.584
  705SOL    HW2 3015   4.959   6.992   3.649
  706SOL     OW 3016   4.255   2.052   3.236
  706SOL    HW1 3017   4.199   2.104   3.172
  706SOL    HW2 3018   4.262   2.102   3.322
  707SOL     OW 3019   4.526   0.452   2.829
  707SOL    HW1 3020   4.449   0.449   2.766
  707SOL    HW2 3021   4.511   0.523   2.898
  708SOL     OW 3022   4.399   0.421   1.587
  708SOL    HW1 3023   4.468   0.366   1.540
  708SOL    HW2 3024   4.413   0.517   1.565
  709SOL     OW 3025   1.472   5.458   0.627
  709SOL    HW1 3026   1.503   5.406   0.547
  709SOL    HW2 3027   1.543   5.524   0.653
  710SOL     OW 3028   3.898   2.971   2.634
  710SOL    HW1 3029   3.857   2.956   2.724
  710SOL    HW2 3030   3.834   2.942   2.563
  711SOL     OW 3031   0.813   1.802   6.108
  711SOL    HW1 3032   0.763   1.888   6.116
  711SOL    HW2 3033   0.900   1.809   6.156
  712SOL     OW 3034   2.226   4.248   0.661
  712SOL    HW1 3035   2.234   4.151   0.682
  712SOL    HW2 3036   2.262   4.302   0.738
  713SOL     OW 3037   3.330   3.492   0.224
  713SOL    HW1 3038   3.387   3.419   0.187
  713SOL    HW2 3039   3.385   3.575   0.232
  714SOL     OW 3040   0.154   5.127   4.867
  714SOL    HW1 3041   0.060   5.139   4.898
  714SOL    HW2 3042   0.183   5.209   4.817
  715SOL     OW 3043   5.153   6.180   0.983
  715SOL    HW1 3044   5.221   6.106   0.979
  715SOL    HW2 3045   5.061   6.141   0.987
  716SOL     OW 3046   1.016   6.727   0.809
  716SOL    HW1 3047   0.973   6.716   0.899
  716SOL    HW2 3048   1.046   6.822   0.799
  717SOL     OW 3049   5.687   5.106   6.225
  717SOL    HW1 3050   5.601   5.089   6.176
  717SOL    HW2 3051   5.729   5.190   6.189
  718SOL     OW 3052   4.692   2.039   5.607
  718SOL    HW1 3053   4.789   2.014   5.616
  718SOL    HW2 3054   4.674   2.120   5.663
  719SOL     OW 3055   6.319   2.555   1.150
  719SOL    HW1 3056   6.221   2.546   1.169
  719SOL    HW2 3057   6.363   2.606   1.223
  720SOL     OW 3058   3.814   0.939   6.029
  720SOL    HW1 3059   3.853   0.848   6.045
  720SOL    HW2 3060   3.719   0.930   6.000
  721SOL     OW 3061   1.692   0.254   4.263
  721SOL    HW1 3062   1.783   0.250   4.222
  721SOL    HW2 3063   1.695   0.312   4.345
  722SOL     OW 3064   2.964   6.982   5.382
  722SOL    HW1 3065   2.994   6.923   5.307
  722SOL    HW2 3066   3.002   0.050   5.370
  723SOL     OW 3067   2.130   3.444   2.772
  723SOL    HW1 3068   2.101   3.506   2.845
  723SOL    HW2 3069   2.113   3.350   2.799
  724SOL     OW 3070   1.165   1.430   4.345
  724SOL    HW1 3071   1.112   1.399   4.424
  724SOL    HW2 3072   1.102   1.447   4.269
  725SOL     OW 3073   2.920   5.456   1.580
  725SOL    HW1 3074   2.855   5.477   1.507
  725SOL    HW2 3075   2.986   5.388   1.546
  726SOL     OW 3076   3.813   4.337   0.931
  726SOL    HW1 3077   3.911   4.355   0.945
  726SOL    HW2 3078   3.762   4.369   1.011
  727SOL     OW 3079   4.855   5.371   5.794
  727SOL    HW1 3080   4.853   5.278   5.832
  727SOL    HW2 3081   4.791   5.377   5.718
  728SOL     OW 3082   0.347   3.508   5.398
  728SOL    HW1 3083   0.282   3.434   5.381
  728SOL    HW2 3084   0.344   3.573   5.321
  729SOL     OW 3085   2.288   1.197   0.467
  729SOL    HW1 3086   2.206   1.146   0.496
  729SOL    HW2 3087   2.351   1.135   0.420
  730SOL     OW 3088   5.751   0.115   3.623
  730SOL    HW1 3089   5.834   0.110   3.568
  730SOL    HW2 3090   5.763   0.181   3.697
  731SOL     OW 3091   6.298   3.433   5.933
  731SOL    HW1 3092   6.395   3.425   5.958
  731SOL    HW2 3093   6.283   3.387   5.846
  732SOL     OW 3094   0.354   3.540   1.094
  732SOL    HW1 3095   0.436   3.590   1.123
  732SOL    HW2 3096   0.275   3.575   1.145
  733SOL     OW 3097   5.723   4.358   5.054
  733SOL    HW1 3098   5.674   4.280   5.093
  733SOL    HW2 3099   5.814   4.363   5.093
  734SOL     OW 3100   6.587   4.701   2.639
  734SOL    HW1 3101   6.562   4.634   2.569
  734SOL    HW2 3102   6.574   4.794   2.603
  735SOL     OW 3103   3.536   3.019   1.201
  735SOL    HW1 3104   3.527   3.016   1.300
  735SOL    HW2 3105   3.576   2.933   1.169
  736SOL     OW 3106   6.331   6.084   2.571
  736SOL    HW1 3107   6.268   6.052   2.642
  736SOL    HW2 3108   6.351   6.181   2.585
  737SOL     OW 3109   4.109   2.420   6.611
  737SOL    HW1 3110   4.089   2.407   6.708
  737SOL    HW2 3111   4.026   2.449   6.564
  738SOL     OW 3112   2.111   4.273   2.461
  738SOL    HW1 3113   2.081   4.281   2.556
  738SOL    HW2 3114   2.188   4.210   2.455
  739SOL     OW 3115   4.237   6.405   5.137
  739SOL    HW1 3116   4.313   6.467   5.152
  739SOL    HW2 3117   4.236   6.376   5.041
  740SOL     OW 3118   4.934   6.910   0.440
  740SOL    HW1 3119   4.935   6.826   0.495
  740SOL    HW2 3120   4.944   6.989   0.500
  741SOL     OW 3121   1.939   6.280   3.224
  741SOL    HW1 3122   1.880   6.240   3.295
  741SOL    HW2 3123   1.952   6.377   3.243
  742SOL     OW 3124   2.438   6.565   1.643
  742SOL    HW1 3125   2.416   6.630   1.570
  742SOL    HW2 3126   2.510   6.604   1.701
  743SOL     OW 3127   1.665   3.981   4.450
  743SOL    HW1 3128   1.703   3.932   4.529
  743SOL    HW2 3129   1.662   3.919   4.371
  744SOL     OW 3130   5.821   0.120   6.264
  744SOL    HW1 3131   5.907   0.126   6.215
  744SOL    HW2 3132   5.803   0.207   6.311
  745SOL     OW 3133   0.768   4.990   4.660
  745SOL    HW1 3134   0.799   4.969   4.567
  745SOL    HW2 3135   0.821   4.937   4.726
  746SOL     OW 3136   0.776   5.580   5.883
  746SOL    HW1 3137   0.694   5.543   5.928
  746SOL    HW2 3138   0.750   5.656   5.824
  747SOL     OW 3139   4.701   5.459   4.922
  747SOL    HW1 3140   4.694   5.498   5.014
  747SOL    HW2 3141   4.637   5.382   4.914
  748SOL     OW 3142   3.615   5.480   2.970
  748SOL    HW1 3143   3.568   5.506   3.054
  748SOL    HW2 3144   3.553   5.490   2.892
  749SOL     OW 3145   6.443   3.524   4.675
  749SOL    HW1 3146   6.343   3.522   4.672
  749SOL    HW2 3147   6.473   3.591   4.743
  750SOL     OW 3148   2.106   2.952   0.715
  750SOL    HW1 3149   2.096   2.894   0.796
  750SOL    HW2 3150   2.204   2.964   0.695
  751SOL     OW 3151   3.951   1.769   6.052
  751SOL    HW1 3152   3.904   1.706   6.114
  751SOL    HW2 3153   4.049   1.768   6.072
  752SOL     OW 3154   4.308   2.432   1.653
  752SOL    HW1 3155   4.227   2.489   1.641
  752SOL    HW2 3156   4.350   2.413   1.564
  753SOL     OW 3157   1.878   2.946   4.262
  753SOL    HW1 3158   1.949   3.016   4.256
  753SOL    HW2 3159   1.829   2.955   4.349
  754SOL     OW 3160   5.337   2.827   6.826
  754SOL    HW1 3161   5.421   2.877   6.805
  754SOL    HW2 3162   5.320   2.758   6.755
  755SOL     OW 3163   1.558   5.636   5.977
  755SOL    HW1 3164   1.516   5.545   5.977
  755SOL    HW2 3165   1.490   5.705   5.999
  756SOL     OW 3166   3.820   0.045   1.174
  756SOL    HW1 3167   3.819   0.059   1.075
  756SOL    HW2 3168   3.873   0.117   1.218
  757SOL     OW 3169   0.137   6.086   3.128
  757SOL    HW1 3170   0.141   6.070   3.227
  757SOL    HW2 3171   0.077   6.164   3.110
  758SOL     OW 3172   4.120   0.656   1.834
  758SOL    HW1 3173   4.113   0.584   1.765
  758SOL    HW2 3174   4.198   0.715   1.812
  759SOL     OW 3175   0.522   0.731   0.603
  759SOL    HW1 3176   0.514   0.724   0.504
  759SOL    HW2 3177   0.435   0.763   0.642
  760SOL     OW 3178   4.352   0.570   6.270
  760SOL    HW1 3179   4.437   0.519   6.284
  760SOL    HW2 3180   4.276   0.506   6.260
  761SOL     OW 3181   5.703   3.883   5.602
  761SOL    HW1 3182   5.778   3.817   5.590
  761SOL    HW2 3183   5.632   3.842   5.659
  762SOL     OW 3184   1.971   6.917   4.837
  762SOL    HW1 3185   1.931   6.916   4.746
  762SOL    HW2 3186   1.935   6.840   4.890
  763SOL     OW 3187   3.764   5.021   6.465
  763SOL    HW1 3188   3.863   5.024   6.460
  763SOL    HW2 3189   3.736   4.989   6.555
  764SOL     OW 3190   4.290   0.439   3.548
  764SOL    HW1 3191   4.317   0.343   3.542
  764SOL    HW2 3192   4.348   0.486   3.614
  765SOL     OW 3193   1.257   6.637   1.314
  765SOL    HW1 3194   1.312   6.565   1.271
  765SOL    HW2 3195   1.165   6.635   1.276
  766SOL     OW 3196   0.880   2.497   1.041
  766SOL    HW1 3197   0.905   2.593   1.059
  766SOL    HW2 3198   0.937   2.437   1.097
  767SOL     OW 3199   6.195   5.615   2.769
  767SOL    HW1 3200   6.227   5.661   2.686
  767SOL    HW2 3201   6.103   5.648   2.792
  768SOL     OW 3202   2.687   6.584   2.179
  768SOL    HW1 3203   2.703   6.552   2.273
  768SOL    HW2 3204   2.708   6.682   2.173
  769SOL     OW 3205   3.192   0.875   4.582
  769SOL    HW1 3206   3.236   0.964   4.596
  769SOL    HW2 3207   3.255   0.813   4.536
  770SOL     OW 3208   1.759   4.636   2.962
  770SOL    HW1 3209   1.850   4.612   2.927
  770SOL    HW2 3210   1.770   4.698   3.040
  771SOL     OW 3211   2.613   5.583   2.608
  771SOL    HW1 3212   2.563   5.664   2.578
  771SOL    HW2 3213   2.557   5.532   2.674
  772SOL     OW 3214   6.703   5.204   0.650
  772SOL    HW1 3215   6.625   5.223   0.590
  772SOL    HW2 3216   6.738   5.290   0.687
  773SOL     OW 3217   0.209   4.060   3.316
  773SOL    HW1 3218   0.119   4.102   3.304
  773SOL    HW2 3219   0.265   4.118   3.374
  774SOL     OW 3220   0.951   1.125   2.633
  774SOL    HW1 3221   0.988   1.140   2.724
  774SOL    HW2 3222   0.965   1.207   2.577
  775SOL     OW 3223   1.131   1.730   3.117
  775SOL    HW1 3224   1.046   1.711   3.069
  775SOL    HW2 3225   1.118   1.718   3.215
  776SOL     OW 3226   6.446   1.032   5.465
  776SOL    HW1 3227   6.434   0.934   5.476
  776SOL    HW2 3228   6.360   1.079   5.488
  777SOL     OW 3229   3.265   5.749   0.974
  777SOL    HW1 3230   3.330   5.677   0.997
  777SOL    HW2 3231   3.298   5.836   1.009
  778SOL     OW 3232   3.543   1.590   3.289
  778SOL    HW1 3233   3.524   1.638   3.374
  778SOL    HW2 3234   3.461   1.541   3.259
  779SOL     OW 3235   0.775   1.999   2.555
  779SOL    HW1 3236   0.854   1.938   2.550
  779SOL    HW2 3237   0.783   2.070   2.486
  780SOL     OW 3238   6.522   3.588   4.043
  780SOL    HW1 3239   6.426   3.617   4.048
  780SOL    HW2 3240   6.528   3.489   4.055
  781SOL     OW 3241   5.368   1.877   6.482
  781SOL    HW1 3242   5.411   1.912   6.565
  781SOL    HW2 3243   5.422   1.906   6.402
  782SOL     OW 3244   0.442   3.863   6.952
  782SOL    HW1 3245   0.534   3.828   6.939
  782SOL    HW2 3246   0.375   3.794   6.923
  783SOL     OW 3247   3.883   4.688   0.924
  783SOL    HW1 3248   3.956   4.625   0.897
  783SOL    HW2 3249   3.860   4.673   1.020
  784SOL     OW 3250   5.446   6.574   6.583
  784SOL    HW1 3251   5.427   6.669   6.559
  784SOL    HW2 3252   5.370   6.538   6.638
  785SOL     OW 3253   6.433   2.672   3.172
  785SOL    HW1 3254   6.447   2.770   3.160
  785SOL    HW2 3255   6.521   2.625   3.165
  786SOL     OW 3256   1.529   1.382   1.204
  786SOL    HW1 3257   1.471   1.414   1.278
  786SOL    HW2 3258   1.625   1.379   1.234
  787SOL     OW 3259   3.236   1.180   6.423
  787SOL    HW1 3260   3.181   1.257   6.456
  787SOL    HW2 3261   3.180   1.098   6.416
  788SOL     OW 3262   2.768   1.944   4.987
  788SOL    HW1 3263   2.802   2.035   4.965
  788SOL    HW2 3264   2.755   1.936   5.085
  789SOL     OW 3265   5.129   3.906   0.640
  789SOL    HW1 3266   5.127   3.808   0.620
  789SOL    HW2 3267   5.203   3.948   0.587
  790SOL     OW 3268   2.790   0.747   3.875
  790SOL    HW1 3269   2.829   0.786   3.792
  790SOL    HW2 3270   2.788   0.817   3.947
  791SOL     OW 3271   3.340   6.326   3.071
  791SOL    HW1 3272   3.346   6.326   3.170
  791SOL    HW2 3273   3.316   6.418   3.039
  792SOL     OW 3274   0.434   0.353   1.729
  792SOL    HW1 3275   0.496   0.430   1.713
  792SOL    HW2 3276   0.359   0.384   1.787
  793SOL     OW 3277   4.427   6.009   2.679
  793SOL    HW1 3278   4.342   6.043   2.638
  793SOL    HW2 3279   4.502   6.069   2.653
  794SOL     OW 3280   2.930   3.424   4.783
  794SOL    HW1 3281   2.873   3.364   4.726
  794SOL    HW2 3282   3.003   3.370   4.824
  795SOL     OW 3283   3.209   6.089   5.093
  795SOL    HW1 3284   3.176   6.060   5.003
  795SOL    HW2 3285   3.309   6.086   5.094
  796SOL     OW 3286   1.115   2.057   6.344
  796SOL    HW1 3287   1.199   2.073   6.396
  796SOL    HW2 3288   1.069   2.144   6.328
  797SOL     OW 3289   4.638   2.301   2.305
  797SOL    HW1 3290   4.629   2.260   2.214
  797SOL    HW2 3291   4.719   2.264   2.351
  798SOL     OW 3292   4.656   6.825   1.540
  798SOL    HW1 3293   4.716   6.747   1.527
  798SOL    HW2 3294   4.674   6.866   1.630
  799SOL     OW 3295   6.013   1.649   4.391
  799SOL    HW1 3296   6.074   1.728   4.402
  799SOL    HW2 3297   6.009   1.624   4.294
  800SOL     OW 3298   5.683   1.018   2.300
  800SOL    HW1 3299   5.732   1.098   2.335
  800SOL    HW2 3300   5.714   0.998   2.207
  801SOL     OW 3301   2.152   3.356   3.600
  801SOL    HW1 3302   2.061   3.323   3.576
  801SOL    HW2 3303   2.174   3.436   3.544
  802SOL     OW 3304   4.369   0.384   0.935
  802SOL    HW1 3305   4.270   0.389   0.946
  802SOL    HW2 3306   4.392   0.332   0.854
  803SOL     OW 3307   0.397   5.372   4.756
  803SOL    HW1 3308   0.368   5.305   4.688
  803SOL    HW2 3309   0.465   5.331   4.817
  804SOL     OW 3310   6.212   6.017   6.668
  804SOL    HW1 3311   6.162   6.006   6.582
  804SOL    HW2 3312   6.170   5.960   6.738
  805SOL     OW 3313   3.267   1.929   5.368
  805SOL    HW1 3314   3.250   2.011   5.423
  805SOL    HW2 3315   3.241   1.847   5.420
  806SOL     OW 3316   4.603   0.830   4.296
  806SOL    HW1 3317   4.541   0.889   4.347
  806SOL    HW2 3318   4.682   0.807   4.353
  807SOL     OW 3319   0.592   1.735   4.300
  807SOL    HW1 3320   0.545   1.823   4.302
  807SOL    HW2 3321   0.529   1.664   4.331
  808SOL     OW 3322   4.688   3.508   6.500
  808SOL    HW1 3323   4.665   3.420   6.541
  808SOL    HW2 3324   4.610   3.571   6.509
  809SOL     OW 3325   0.560   4.556   1.319
  809SOL    HW1 3326   0.609   4.491   1.260
  809SOL    HW2 3327   0.511   4.622   1.262
  810SOL     OW 3328   3.578   2.567   1.301
  810SOL    HW1 3329   3.671   2.535   1.317
  810SOL    HW2 3330   3.517   2.488   1.289
  811SOL     OW 3331   4.137   5.739   4.218
  811SOL    HW1 3332   4.188   5.825   4.217
  811SOL    HW2 3333   4.130   5.705   4.311
  812SOL     OW 3334   1.032   1.456   1.566
  812SOL    HW1 3335   1.095   1.380   1.549
  812SOL    HW2 3336   0.955   1.449   1.503
  813SOL     OW 3337   4.065   5.216   4.847
  813SOL    HW1 3338   3.992   5.252   4.905
  813SOL    HW2 3339   4.057   5.117   4.840
  814SOL     OW 3340   5.654   6.169   3.142
  814SOL    HW1 3341   5.706   6.195   3.223
  814SOL    HW2 3342   5.659   6.243   3.074
  815SOL     OW 3343   7.006   3.237   3.111
  815SOL    HW1 3344   0.040   3.293   3.051
  815SOL    HW2 3345   6.933   3.293   3.149
  816SOL     OW 3346   6.992   6.881   0.482
  816SOL    HW1 3347   6.975   6.955   0.547
  816SOL    HW2 3348   6.937   6.801   0.508
  817SOL     OW 3349   2.652   3.892   1.605
  817SOL    HW1 3350   2.632   3.949   1.526
  817SOL    HW2 3351   2.566   3.862   1.647
  818SOL     OW 3352   6.278   3.138   1.638
  818SOL    HW1 3353   6.247   3.052   1.598
  818SOL    HW2 3354   6.227   3.155   1.723
  819SOL     OW 3355   5.619   3.496   3.162
  819SOL    HW1 3356   5.718   3.491   3.158
  819SOL    HW2 3357   5.590   3.586   3.194
  820SOL     OW 3358   2.609   2.588   6.610
  820SOL    HW1 3359   2.671   2.638   6.549
  820SOL    HW2 3360   2.663   2.530   6.671
  821SOL     OW 3361   2.051   4.524   0.724
  821SOL    HW1 3362   2.142   4.531   0.763
  821SOL    HW2 3363   2.002   4.610   0.738
  822SOL     OW 3364   1.205   4.500   4.716
  822SOL    HW1 3365   1.191   4.586   4.668
  822SOL    HW2 3366   1.248   4.518   4.804
  823SOL     OW 3367   5.057   4.378   6.740
  823SOL    HW1 3368   4.988   4.385   6.812
  823SOL    HW2 3369   5.035   4.302   6.679
  824SOL     OW 3370   5.203   0.926   5.120
  824SOL    HW1 3371   5.280   0.936   5.183
  824SOL    HW2 3372   5.177   1.016   5.084
  825SOL     OW 3373   1.576   3.776   1.296
  825SOL    HW1 3374   1.492   3.796   1.246
  825SOL    HW2 3375   1.583   3.678   1.312
  826SOL     OW 3376   5.470   2.923   0.015
  826SOL    HW1 3377   5.509   3.008   7.004
  826SOL    HW2 3378   5.405   2.887   6.971
  827SOL     OW 3379   3.283   5.772   5.988
  827SOL    HW1 3380   3.255   5.698   5.927
  827SOL    HW2 3381   3.207   5.797   6.048
  828SOL     OW 3382   5.748   6.965   5.829
  828SOL    HW1 3383   5.682   6.987   5.757
  828SOL    HW2 3384   5.840   6.958   5.790
  829SOL     OW 3385   3.117   4.022   4.139
  829SOL    HW1 3386   3.093   4.119   4.142
  829SOL    HW2 3387   3.067   3.973   4.210
  830SOL     OW 3388   4.924   4.888   6.368
  830SOL    HW1 3389   5.023   4.871   6.365
  830SOL    HW2 3390   4.899   4.921   6.458
  831SOL     OW 3391   6.591   1.399   5.266
  831SOL    HW1 3392   6.501   1.391   5.224
  831SOL    HW2 3393   6.646   1.465   5.215
  832SOL     OW 3394   2.577   0.725   0.954
  832SOL    HW1 3395   2.582   0.671   1.038
  832SOL    HW2 3396   2.610   0.670   0.877
  833SOL     OW 3397   0.679   4.825   6.193
  833SOL    HW1 3398   0.666   4.853   6.098
  833SOL    HW2 3399   0.748   4.883   6.235
  834SOL     OW 3400   3.051   3.391   1.120
  834SOL    HW1 3401   3.070   3.469   1.061
  834SOL    HW2 3402   3.044   3.422   1.215
  835SOL     OW 3403   3.180   0.189   4.180
  835SOL    HW1 3404   3.176   0.100   4.226
  835SOL    HW2 3405   3.247   0.247   4.226
  836SOL     OW 3406   3.407   6.896   7.004
  836SOL    HW1 3407   3.494   6.942   6.983
  836SOL    HW2 3408   3.335   6.933   6.945
  837SOL     OW 3409   5.543   6.520   6.912
  837SOL    HW1 3410   5.614   6.459   6.878
  837SOL    HW2 3411   5.559   6.613   6.878
  838SOL     OW 3412   1.408   0.292   4.848
  838SOL    HW1 3413   1.406   0.282   4.749
  838SOL    HW2 3414   1.501   0.309   4.879
  839SOL     OW 3415   2.622   2.349   1.947
  839SOL    HW1 3416   2.659   2.367   1.855
  839SOL    HW2 3417   2.698   2.345   2.012
  840SOL     OW 3418   6.014   0.014   6.116
  840SOL    HW1 3419   5.997   6.944   6.149
  840SOL    HW2 3420   6.001   0.017   6.017
  841SOL     OW 3421   5.091   4.918   0.518
  841SOL    HW1 3422   5.017   4.981   0.541
  841SOL    HW2 3423   5.158   4.966   0.461
  842SOL     OW 3424   4.861   4.877   4.347
  842SOL    HW1 3425   4.933   4.880   4.417
  842SOL    HW2 3426   4.773   4.900   4.389
  843SOL     OW 3427   3.738   1.932   6.295
  843SOL    HW1 3428   3.834   1.956   6.284
  843SOL    HW2 3429   3.681   2.012   6.275
  844SOL     OW 3430   4.715   0.011   1.217
  844SOL    HW1 3431   4.666   0.065   1.149
  844SOL    HW2 3432   4.650   6.980   1.270
  845SOL     OW 3433   6.187   3.456   5.010
  845SOL    HW1 3434   6.170   3.498   4.921
  845SOL    HW2 3435   6.156   3.518   5.083
  846SOL     OW 3436   3.759   1.810   0.082
  846SOL    HW1 3437   3.721   1.876   0.146
  846SOL    HW2 3438   3.789   1.728   0.132
  847SOL     OW 3439   0.110   3.721   0.166
  847SOL    HW1 3440   0.133   3.693   0.073
  847SOL    HW2 3441   0.071   3.644   0.216
  848SOL     OW 3442   6.353   1.406   6.705
  848SOL    HW1 3443   6.343   1.314   6.742
  848SOL    HW2 3444   6.328   1.472   6.776
  849SOL     OW 3445   1.099   4.628   5.710
  849SOL    HW1 3446   1.070   4.541   5.750
  849SOL    HW2 3447   1.165   4.612   5.637
  850SOL     OW 3448   5.207   1.362   3.923
  850SOL    HW1 3449   5.216   1.322   3.831
  850SOL    HW2 3450   5.255   1.304   3.989
  851SOL     OW 3451   0.293   1.320   1.311
  851SOL    HW1 3452   0.260   1.394   1.370
  851SOL    HW2 3453   0.372   1.276   1.353
  852SOL     OW 3454   1.987   2.605   0.704
  852SOL    HW1 3455   1.977   2.506   0.690
  852SOL    HW2 3456   1.972   2.652   0.617
  853SOL     OW 3457   1.656   4.137   2.263
  853SOL    HW1 3458   1.593   4.065   2.236
  853SOL    HW2 3459   1.639   4.219   2.208
  854SOL     OW 3460   4.707   5.735   2.509
  854SOL    HW1 3461   4.760   5.820   2.506
  854SOL    HW2 3462   4.769   5.657   2.511
  855SOL     OW 3463   0.126   0.086   0.732
  855SOL    HW1 3464   0.196   0.139   0.779
  855SOL    HW2 3465   0.166   0.001   0.697
  856SOL     OW 3466   1.594   1.996   5.078
  856SOL    HW1 3467   1.523   1.978   5.146
  856SOL    HW2 3468   1.666   2.051   5.120
  857SOL     OW 3469   5.653   4.803   1.136
  857SOL    HW1 3470   5.641   4.763   1.227
  857SOL    HW2 3471   5.564   4.835   1.102
  858SOL     OW 3472   2.555   4.248   1.362
  858SOL    HW1 3473   2.459   4.227   1.384
  858SOL    HW2 3474   2.612   4.230   1.442
  859SOL     OW 3475   4.930   5.159   6.792
  859SOL    HW1 3476   4.970   5.228   6.852
  859SOL    HW2 3477   4.977   5.160   6.704
  860SOL     OW 3478   4.298   4.327   1.231
  860SOL    HW1 3479   4.217   4.335   1.288
  860SOL    HW2 3480   4.305   4.408   1.172
  861SOL     OW 3481   2.294   0.419   4.787
  861SOL    HW1 3482   2.330   0.510   4.807
  861SOL    HW2 3483   2.370   0.354   4.779
  862SOL     OW 3484   6.793   4.769   5.438
  862SOL    HW1 3485   6.878   4.800   5.481
  862SOL    HW2 3486   6.780   4.671   5.458
  863SOL     OW 3487   1.373   0.917   0.842
  863SOL    HW1 3488   1.440   0.972   0.792
  863SOL    HW2 3489   1.312   0.872   0.777
  864SOL     OW 3490   4.964   4.253   3.862
  864SOL    HW1 3491   5.042   4.277   3.920
  864SOL    HW2 3492   4.917   4.337   3.834
  865SOL     OW 3493   1.709   6.386   5.205
  865SOL    HW1 3494   1.619   6.385   5.249
  865SOL    HW2 3495   1.700   6.417   5.110
  866SOL     OW 3496   1.815   2.949   0.987
  866SOL    HW1 3497   1.765   2.922   1.069
  866SOL    HW2 3498   1.904   2.985   1.013
  867SOL     OW 3499   4.311   3.034   1.078
  867SOL    HW1 3500   4.358   2.982   1.150
  867SOL    HW2 3501   4.283   2.971   1.005
  868SOL     OW 3502   5.541   6.155   1.377
  868SOL    HW1 3503   5.487   6.122   1.453
  868SOL    HW2 3504   5.538   6.255   1.374
  869SOL     OW 3505   7.008   5.420   2.998
  869SOL    HW1 3506   0.020   5.486   2.931
  869SOL    HW2 3507   6.918   5.388   2.968
  870SOL     OW 3508   5.977   3.585   0.100
  870SOL    HW1 3509   5.973   3.569   0.199
  870SOL    HW2 3510   5.895   3.633   0.071
  871SOL     OW 3511   6.106   3.194   1.840
  871SOL    HW1 3512   6.013   3.229   1.854
  871SOL    HW2 3513   6.160   3.209   1.922
  872SOL     OW 3514   6.074   4.422   4.129
  872SOL    HW1 3515   6.168   4.414   4.160
  872SOL    HW2 3516   6.034   4.331   4.119
  873SOL     OW 3517   5.024   0.049   3.971
  873SOL    HW1 3518   5.013   0.140   4.011
  873SOL    HW2 3519   5.046   0.057   3.874
  874SOL     OW 3520   1.390   4.374   5.350
  874SOL    HW1 3521   1.469   4.422   5.313
  874SOL    HW2 3522   1.419   4.311   5.421
  875SOL     OW 3523   4.577   3.647   1.413
  875SOL    HW1 3524   4.626   3.729   1.444
  875SOL    HW2 3525   4.619   3.566   1.453
  876SOL     OW 3526   0.544   5.367   3.543
  876SOL    HW1 3527   0.450   5.390   3.568
  876SOL    HW2 3528   0.587   5.445   3.499
  877SOL     OW 3529   3.715   4.960   6.720
  877SOL    HW1 3530   3.753   4.869   6.703
  877SOL    HW2 3531   3.615   4.956   6.719
  878SOL     OW 3532   4.373   6.248   6.226
  878SOL    HW1 3533   4.415   6.330   6.187
  878SOL    HW2 3534   4.358   6.181   6.153
  879SOL     OW 3535   3.521   1.824   2.291
  879SOL    HW1 3536   3.573   1.904   2.263
  879SOL    HW2 3537   3.428   1.851   2.316
  880SOL     OW 3538   3.029   4.920   6.901
  880SOL    HW1 3539   2.954   4.921   6.834
  880SOL    HW2 3540   3.106   4.972   6.865
  881SOL     OW 3541   4.033   4.502   5.324
  881SOL    HW1 3542   4.123   4.466   5.301
  881SOL    HW2 3543   4.028   4.518   5.423
  882SOL     OW 3544   1.699   1.122   3.993
  882SOL    HW1 3545   1.739   1.207   3.958
  882SOL    HW2 3546   1.617   1.144   4.046
  883SOL     OW 3547   5.058   5.569   5.003
  883SOL    HW1 3548   5.001   5.636   5.050
  883SOL    HW2 3549   5.026   5.477   5.025
  884SOL     OW 3550   0.462   3.800   1.830
  884SOL    HW1 3551   0.377   3.841   1.864
  884SOL    HW2 3552   0.535   3.868   1.836
  885SOL     OW 3553   5.465   5.967   6.787
  885SOL    HW1 3554   5.487   6.061   6.759
  885SOL    HW2 3555   5.540   5.906   6.764
  886SOL     OW 3556   4.337   0.560   0.317
  886SOL    HW1 3557   4.265   0.609   0.366
  886SOL    HW2 3558   4.345   0.597   0.224
  887SOL     OW 3559   4.357   6.763   5.006
  887SOL    HW1 3560   4.360   6.863   4.993
  887SOL    HW2 3561   4.309   6.721   4.929
  888SOL     OW 3562   6.363   6.422   3.530
  888SOL    HW1 3563   6.377   6.470   3.617
  888SOL    HW2 3564   6.315   6.336   3.546
  889SOL     OW 3565   0.518   6.635   6.336
  889SOL    HW1 3566   0.424   6.624   6.303
  889SOL    HW2 3567   0.555   6.721   6.301
  890SOL     OW 3568   2.810   4.854   2.007
  890SOL    HW1 3569   2.810   4.754   2.006
  890SOL    HW2 3570   2.795   4.888   1.914
  891SOL     OW 3571   5.547   3.783   1.260
  891SOL    HW1 3572   5.507   3.705   1.308
  891SOL    HW2 3573   5.504   3.867   1.294
  892SOL     OW 3574   3.680   3.863   0.563
  892SOL    HW1 3575   3.703   3.874   0.466
  892SOL    HW2 3576   3.589   3.900   0.580
  893SOL     OW 3577   2.467   1.355   1.642
  893SOL    HW1 3578   2.555   1.354   1.596
  893SOL    HW2 3579   2.476   1.313   1.733
  894SOL     OW 3580   2.108   3.730   4.192
  894SOL    HW1 3581   2.091   3.639   4.229
  894SOL    HW2 3582   2.138   3.791   4.265
  895SOL     OW 3583   2.185   6.195   4.925
  895SOL    HW1 3584   2.141   6.267   4.979
  895SOL    HW2 3585   2.168   6.106   4.968
  896SOL     OW 3586   5.281   5.785   2.674
  896SOL    HW1 3587   5.238   5.700   2.644
  896SOL    HW2 3588   5.272   5.854   2.602
  897SOL     OW 3589   4.895   1.050   0.291
  897SOL    HW1 3590   4.883   1.143   0.254
  897SOL    HW2 3591   4.918   1.056   0.388
  898SOL     OW 3592   4.427   6.091   3.332
  898SOL    HW1 3593   4.387   6.039   3.407
  898SOL    HW2 3594   4.430   6.034   3.249
  899SOL     OW 3595   0.752   5.209   6.951
  899SOL    HW1 3596   0.713   5.301   6.949
  899SOL    HW2 3597   0.808   5.199   0.010
  900SOL     OW 3598   5.274   5.791   1.746
  900SOL    HW1 3599   5.288   5.826   1.838
  900SOL    HW2 3600   5.284   5.691   1.746
  901SOL     OW 3601   0.003   1.338   4.844
  901SOL    HW1 3602   0.064   1.318   4.767
  901SOL    HW2 3603   0.054   1.331   4.930
  902SOL     OW 3604   0.575   1.286   6.247
  902SOL    HW1 3605   0.634   1.365   6.264
  902SOL    HW2 3606   0.516   1.305   6.169
  903SOL     OW 3607   6.526   4.076   6.850
  903SOL    HW1 3608   6.562   4.026   6.928
  903SOL    HW2 3609   6.601   4.124   6.803
  904SOL     OW 3610   2.013   2.156   4.387
  904SOL    HW1 3611   1.934   2.141   4.448
  904SOL    HW2 3612   2.050   2.247   4.403
  905SOL     OW 3613   4.808   2.946   6.724
  905SOL    HW1 3614   4.823   2.980   6.631
  905SOL    HW2 3615   4.833   3.017   6.789
  906SOL     OW 3616   0.537   4.028   6.114
  906SOL    HW1 3617   0.545   3.932   6.141
  906SOL    HW2 3618   0.528   4.034   6.014
  907SOL     OW 3619   5.783   3.044   3.544
  907SOL    HW1 3620   5.879   3.019   3.544
  907SOL    HW2 3621   5.773   3.139   3.575
  908SOL     OW 3622   1.315   6.691   4.152
  908SOL    HW1 3623   1.226   6.722   4.184
  908SOL    HW2 3624   1.327   6.594   4.176
  909SOL     OW 3625   2.504   1.251   1.157
  909SOL    HW1 3626   2.481   1.164   1.199
  909SOL    HW2 3627   2.603   1.266   1.163
  910SOL     OW 3628   2.375   0.505   0.641
  910SOL    HW1 3629   2.281   0.505   0.675
  910SOL    HW2 3630   2.382   0.445   0.561
  911SOL     OW 3631   6.656   5.543   1.401
  911SOL    HW1 3632   6.578   5.501   1.352
  911SOL    HW2 3633   6.626   5.629   1.443
  912SOL     OW 3634   6.784   0.734   5.109
  912SOL    HW1 3635   6.795   0.649   5.161
  912SOL    HW2 3636   6.694   0.735   5.066
  913SOL     OW 3637   2.384   0.658   3.722
  913SOL    HW1 3638   2.432   0.746   3.714
  913SOL    HW2 3639   2.446   0.584   3.698
  914SOL     OW 3640   2.647   5.767   5.646
  914SOL    HW1 3641   2.656   5.788   5.743
  914SOL    HW2 3642   2.738   5.750   5.608
  915SOL     OW 3643   0.574   3.352   1.198
  915SOL    HW1 3644   0.658   3.406   1.209
  915SOL    HW2 3645   0.591   3.276   1.136
  916SOL     OW 3646   1.469   2.527   2.553
  916SOL    HW1 3647   1.444   2.483   2.466
  916SOL    HW2 3648   1.484   2.456   2.622
  917SOL     OW 3649   4.123   0.475   1.610
  917SOL    HW1 3650   4.088   0.550   1.554
  917SOL    HW2 3651   4.223   0.478   1.610
  918SOL     OW 3652   2.741   6.157   0.089
  918SOL    HW1 3653   2.774   6.177   7.020
  918SOL    HW2 3654   2.689   6.234   0.124
  919SOL     OW 3655   1.492   6.235   1.856
  919SOL    HW1 3656   1.591   6.219   1.858
  919SOL    HW2 3657   1.472   6.328   1.886
  920SOL     OW 3658   1.676   0.050   3.101
  920SOL    HW1 3659   1.691   0.134   3.048
  920SOL    HW2 3660   1.738   7.002   3.069
  921SOL     OW 3661   4.961   4.669   3.964
  921SOL    HW1 3662   5.048   4.647   3.921
  921SOL    HW2 3663   4.890   4.607   3.929
  922SOL     OW 3664   3.273   2.638   6.538
  922SOL    HW1 3665   3.336   2.669   6.609
  922SOL    HW2 3666   3.281   2.699   6.458
  923SOL     OW 3667   3.087   5.669   0.722
  923SOL    HW1 3668   3.057   5.724   0.644
  923SOL    HW2 3669   3.150   5.723   0.779
  924SOL     OW 3670   5.229   3.465   2.281
  924SOL    HW1 3671   5.137   3.440   2.313
  924SOL    HW2 3672   5.263   3.395   2.218
  925SOL     OW 3673   6.750   1.525   5.475
  925SOL    HW1 3674   6.672   1.506   5.415
  925SOL    HW2 3675   6.782   1.618   5.458
  926SOL     OW 3676   6.052   0.889   6.793
  926SOL    HW1 3677   6.003   0.949   6.856
  926SOL    HW2 3678   5.987   0.831   6.745
  927SOL     OW 3679   5.117   3.998   4.270
  927SOL    HW1 3680   5.120   3.905   4.232
  927SOL    HW2 3681   5.196   4.049   4.238
  928SOL     OW 3682   2.122   0.007   0.810
  928SOL    HW1 3683   2.047   6.971   0.839
  928SOL    HW2 3684   2.123   0.090   0.867
  929SOL     OW 3685   6.943   2.125   1.052
  929SOL    HW1 3686   6.887   2.201   1.087
  929SOL    HW2 3687   6.933   2.119   0.953
  930SOL     OW 3688   6.949   5.763   4.700
  930SOL    HW1 3689   6.951   5.670   4.662
  930SOL    HW2 3690   0.006   5.776   4.759
  931SOL     OW 3691   0.248   3.812   3.632
  931SOL    HW1 3692   0.216   3.890   3.686
  931SOL    HW2 3693   0.348   3.815   3.625
  932SOL     OW 3694   2.735   6.607   1.494
  932SOL    HW1 3695   2.725   6.656   1.581
  932SOL    HW2 3696   2.645   6.590   1.455
  933SOL     OW 3697   0.933   5.380   2.017
  933SOL    HW1 3698   0.880   5.392   2.101
  933SOL    HW2 3699   0.877   5.406   1.938
  934SOL     OW 3700   2.501   0.880   4.589
  934SOL    HW1 3701   2.547   0.841   4.509
  934SOL    HW2 3702   2.402   0.864   4.582
  935SOL     OW 3703   5.280   3.544   5.628
  935SOL    HW1 3704   5.230   3.555   5.714
  935SOL    HW2 3705   5.246   3.464   5.580
  936SOL     OW 3706   0.967   0.139   6.447
  936SOL    HW1 3707   0.901   0.070   6.477
  936SOL    HW2 3708   1.037   0.096   6.390
  937SOL     OW 3709   5.131   2.338   5.239
  937SOL    HW1 3710   5.056   2.383   5.191
  937SOL    HW2 3711   5.111   2.240   5.248
  938SOL     OW 3712   0.346   4.795   5.978
  938SOL    HW1 3713   0.325   4.885   6.016
  938SOL    HW2 3714   0.324   4.724   6.045
  939SOL     OW 3715   5.227   1.406   5.465
  939SOL    HW1 3716   5.234   1.421   5.367
  939SOL    HW2 3717   5.282   1.327   5.491
  940SOL     OW 3718   6.384   2.572   2.616
  940SOL    HW1 3719   6.413   2.592   2.710
  940SOL    HW2 3720   6.285   2.586   2.608
  941SOL     OW 3721   6.565   0.869   4.005
  941SOL    HW1 3722   6.553   0.867   3.906
  941SOL    HW2 3723   6.589   0.962   4.034
  942SOL     OW 3724   5.064   0.867   4.505
  942SOL    HW1 3725   5.074   0.845   4.408
  942SOL    HW2 3726   5.155   0.877   4.546
  943SOL     OW 3727   0.617   3.312   3.202
  943SOL    HW1 3728   0.656   3.228   3.163
  943SOL    HW2 3729   0.591   3.374   3.129
  944SOL     OW 3730   6.334   3.051   6.623
  944SOL    HW1 3731   6.251   3.023   6.671
  944SOL    HW2 3732   6.337   3.008   6.533
  945SOL     OW 3733   6.312   4.632   5.125
  945SOL    HW1 3734   6.245   4.558   5.118
  945SOL    HW2 3735   6.277   4.703   5.187
  946SOL     OW 3736   5.765   2.584   6.225
  946SOL    HW1 3737   5.699   2.509   6.234
  946SOL    HW2 3738   5.856   2.552   6.252
  947SOL     OW 3739   2.895   3.499   5.321
  947SOL    HW1 3740   2.844   3.438   5.262
  947SOL    HW2 3741   2.868   3.594   5.303
  948SOL     OW 3742   4.235   1.428   0.827
  948SOL    HW1 3743   4.245   1.435   0.728
  948SOL    HW2 3744   4.171   1.355   0.850
  949SOL     OW 3745   6.748   6.042   6.445
  949SOL    HW1 3746   6.778   6.026   6.539
  949SOL    HW2 3747   6.732   6.139   6.431
  950SOL     OW 3748   4.433   4.873   2.883
  950SOL    HW1 3749   4.434   4.970   2.907
  950SOL    HW2 3750   4.388   4.860   2.795
  951SOL     OW 3751   1.965   0.588   1.837
  951SOL    HW1 3752   2.039   0.654   1.853
  951SOL    HW2 3753   1.951   0.577   1.739
  952SOL     OW 3754   5.908   1.276   1.963
  952SOL    HW1 3755   5.838   1.343   1.986
  952SOL    HW2 3756   5.996   1.305   2.000
  953SOL     OW 3757   5.102   5.547   5.430
  953SOL    HW1 3758   5.132   5.453   5.413
  953SOL    HW2 3759   5.177   5.600   5.469
  954SOL     OW 3760   5.542   0.084   0.445
  954SOL    HW1 3761   5.445   0.073   0.424
  954SOL    HW2 3762   5.556   0.167   0.499
  955SOL     OW 3763   0.977   5.362   3.457
  955SOL    HW1 3764   0.934   5.354   3.546
  955SOL    HW2 3765   0.993   5.459   3.437
  956SOL     OW 3766   0.677   2.009   2.160
  956SOL    HW1 3767   0.647   1.987   2.068
  956SOL    HW2 3768   0.763   1.964   2.179
  957SOL     OW 3769   1.545   4.588   4.533
  957SOL    HW1 3770   1.643   4.572   4.524
  957SOL    HW2 3771   1.530   4.667   4.593
  958SOL     OW 3772   4.744   2.614   0.836
  958SOL    HW1 3773   4.830   2.574   0.868
  958SOL    HW2 3774   4.669   2.548   0.850
  959SOL     OW 3775   2.840   4.779   3.194
  959SOL    HW1 3776   2.790   4.804   3.111
  959SOL    HW2 3777   2.939   4.787   3.177
  960SOL     OW 3778   0.307   5.864   4.158
  960SOL    HW1 3779   0.344   5.775   4.131
  960SOL    HW2 3780   0.338   5.934   4.093
  961SOL     OW 3781   5.014   6.407   3.137
  961SOL    HW1 3782   4.935   6.350   3.116
  961SOL    HW2 3783   5.018   6.483   3.073
  962SOL     OW 3784   1.504   1.216   3.688
  962SOL    HW1 3785   1.452   1.143   3.733
  962SOL    HW2 3786   1.548   1.179   3.606
  963SOL     OW 3787   5.776   1.000   6.845
  963SOL    HW1 3788   5.761   0.945   6.763
  963SOL    HW2 3789   5.757   1.096   6.824
  964SOL     OW 3790   6.189   3.421   0.910
  964SOL    HW1 3791   6.245   3.504   0.921
  964SOL    HW2 3792   6.134   3.429   0.827
  965SOL     OW 3793   5.725   1.716   0.610
  965SOL    HW1 3794   5.631   1.692   0.634
  965SOL    HW2 3795   5.789   1.667   0.669
  966SOL     OW 3796   6.142   1.823   2.158
  966SOL    HW1 3797   6.219   1.885   2.143
  966SOL    HW2 3798   6.134   1.760   2.080
  967SOL     OW 3799   1.689   5.437   0.861
  967SOL    HW1 3800   1.693   5.531   0.825
  967SOL    HW2 3801   1.593   5.412   0.878
  968SOL     OW 3802   4.541   2.443   2.044
  968SOL    HW1 3803   4.491   2.467   2.127
  968SOL    HW2 3804   4.513   2.504   1.969
  969SOL     OW 3805   3.824   5.753   6.069
  969SOL    HW1 3806   3.726   5.761   6.053
  969SOL    HW2 3807   3.863   5.843   6.090
  970SOL     OW 3808   4.818   1.225   4.977
  970SOL    HW1 3809   4.893   1.168   5.010
  970SOL    HW2 3810   4.776   1.182   4.897
  971SOL     OW 3811   0.490   1.577   2.924
  971SOL    HW1 3812   0.533   1.487   2.932
  971SOL    HW2 3813   0.405   1.578   2.977
  972SOL     OW 3814   5.715   3.532   0.958
  972SOL    HW1 3815   5.813   3.529   0.981
  972SOL    HW2 3816   5.664   3.481   1.027
  973SOL     OW 3817   0.324   4.674   6.226
  973SOL    HW1 3818   0.409   4.658   6.276
  973SOL    HW2 3819   0.247   4.675   6.290
  974SOL     OW 3820   4.243   0.572   2.077
  974SOL    HW1 3821   4.304   0.532   2.009
  974SOL    HW2 3822   4.178   0.633   2.031
  975SOL     OW 3823   1.730   5.754   6.753
  975SOL    HW1 3824   1.810   5.700   6.778
  975SOL    HW2 3825   1.665   5.697   6.702
  976SOL     OW 3826   6.274   3.067   2.840
  976SOL    HW1 3827   6.336   3.131   2.795
  976SOL    HW2 3828   6.237   3.003   2.772
  977SOL     OW 3829   2.410   1.344   3.807
  977SOL    HW1 3830   2.395   1.432   3.851
  977SOL    HW2 3831   2.497   1.305   3.839
  978SOL     OW 3832   4.842   4.049   5.264
  978SOL    HW1 3833   4.817   4.054   5.167
  978SOL    HW2 3834   4.829   3.956   5.298
  979SOL     OW 3835   6.613   1.556   3.009
  979SOL    HW1 3836   6.618   1.608   3.094
  979SOL    HW2 3837   6.687   1.585   2.948
  980SOL     OW 3838   4.898   1.839   3.434
  980SOL    HW1 3839   4.925   1.759   3.488
  980SOL    HW2 3840   4.817   1.817   3.380
  981SOL     OW 3841   1.638   1.463   4.914
  981SOL    HW1 3842   1.636   1.497   4.820
  981SOL    HW2 3843   1.579   1.520   4.971
  982SOL     OW 3844   2.373   2.444   3.824
  982SOL    HW1 3845   2.307   2.443   3.898
  982SOL    HW2 3846   2.391   2.538   3.796
  983SOL     OW 3847   5.963   2.645   3.570
  983SOL    HW1 3848   5.939   2.589   3.491
  983SOL    HW2 3849   5.895   2.631   3.643
  984SOL     OW 3850   3.701   0.675   4.596
  984SOL    HW1 3851   3.759   0.611   4.545
  984SOL    HW2 3852   3.703   0.651   4.693
  985SOL     OW 3853   5.221   4.872   6.348
  985SOL    HW1 3854   5.257   4.951   6.397
  985SOL    HW2 3855   5.282   4.794   6.363
  986SOL     OW 3856   5.455   5.508   0.161
  986SOL    HW1 3857   5.392   5.575   0.200
  986SOL    HW2 3858   5.549   5.528   0.191
  987SOL     OW 3859   4.170   6.140   1.184
  987SOL    HW1 3860   4.266   6.163   1.198
  987SOL    HW2 3861   4.155   6.116   1.088
  988SOL     OW 3862   3.851   2.713   1.718
  988SOL    HW1 3863   3.773   2.765   1.683
  988SOL    HW2 3864   3.823   2.620   1.741
  989SOL     OW 3865   0.096   0.703   5.454
  989SOL    HW1 3866   0.051   0.664   5.534
  989SOL    HW2 3867   0.174   0.759   5.483
  990SOL     OW 3868   4.725   0.311   3.069
  990SOL    HW1 3869   4.665   0.390   3.072
  990SOL    HW2 3870   4.820   0.342   3.058
  991SOL     OW 3871   1.831   2.149   5.118
  991SOL    HW1 3872   1.851   2.183   5.209
  991SOL    HW2 3873   1.804   2.225   5.059
  992SOL     OW 3874   1.022   3.679   1.113
  992SOL    HW1 3875   1.103   3.671   1.171
  992SOL    HW2 3876   1.020   3.770   1.071
  993SOL     OW 3877   2.038   5.639   2.495
  993SOL    HW1 3878   2.053   5.588   2.410
  993SOL    HW2 3879   1.957   5.602   2.541
  994SOL     OW 3880   3.756   3.667   2.721
  994SOL    HW1 3881   3.726   3.709   2.634
  994SOL    HW2 3882   3.851   3.692   2.739
  995SOL     OW 3883   2.684   2.060   6.138
  995SOL    HW1 3884   2.719   2.025   6.051
  995SOL    HW2 3885   2.760   2.076   6.201
  996SOL     OW 3886   1.744   4.147   4.066
  996SOL    HW1 3887   1.833   4.138   4.022
  996SOL    HW2 3888   1.742   4.230   4.121
  997SOL     OW 3889   6.678   0.556   1.259
  997SOL    HW1 3890   6.598   0.599   1.218
  997SOL    HW2 3891   6.649   0.482   1.320
  998SOL     OW 3892   4.843   6.772   4.048
  998SOL    HW1 3893   4.928   6.797   4.094
  998SOL    HW2 3894   4.824   6.675   4.064
  999SOL     OW 3895   5.353   5.038   0.855
  999SOL    HW1 3896   5.311   4.948   0.846
  999SOL    HW2 3897   5.400   5.046   0.943
 1000SOL     OW 3898   1.322   0.987   2.469
 1000SOL    HW1 3899   1.386   1.055   2.504
 1000SOL    HW2 3900   1.239   1.032   2.438
 1001SOL     OW 3901   5.932   6.702   0.059
 1001SOL    HW1 3902   5.892   6.738   6.998
 1001SOL    HW2 3903   6.006   6.638   0.037
 1002SOL     OW 3904   5.874   2.107   6.330
 1002SOL    HW1 3905   5.818   2.168   6.386
 1002SOL    HW2 3906   5.937   2.056   6.389
 1003SOL     OW 3907   2.391   6.604   2.057
 1003SOL    HW1 3908   2.472   6.601   2.116
 1003SOL    HW2 3909   2.363   6.699   2.044
 1004SOL     OW 3910   6.847   0.408   1.112
 1004SOL    HW1 3911   6.940   0.438   1.091
 1004SOL    HW2 3912   6.796   0.484   1.153
 1005SOL     OW 3913   0.177   1.321   3.261
 1005SOL    HW1 3914   0.159   1.251   3.192
 1005SOL    HW2 3915   0.276   1.334   3.271
 1006SOL     OW 3916   1.792   5.935   1.757
 1006SOL    HW1 3917   1.825   5.847   1.791
 1006SOL    HW2 3918   1.739   5.920   1.673
 1007SOL     OW 3919   6.075   0.549   4.226
 1007SOL    HW1 3920   6.080   0.453   4.198
 1007SOL    HW2 3921   6.163   0.577   4.262
 1008SOL     OW 3922   1.918   3.043   4.748
 1008SOL    HW1 3923   1.878   2.958   4.782
 1008SOL    HW2 3924   2.015   3.048   4.774
 1009SOL     OW 3925   0.325   6.396   4.046
 1009SOL    HW1 3926   0.367   6.486   4.033
 1009SOL    HW2 3927   0.258   6.401   4.120
 1010SOL     OW 3928   3.675   2.325   6.268
 1010SOL    HW1 3929   3.743   2.290   6.332
 1010SOL    HW2 3930   3.588   2.277   6.283
 1011SOL     OW 3931   2.875   5.067   2.600
 1011SOL    HW1 3932   2.927   5.021   2.529
 1011SOL    HW2 3933   2.827   5.145   2.560
 1012SOL     OW 3934   6.829   6.178   0.355
 1012SOL    HW1 3935   6.916   6.227   0.364
 1012SOL    HW2 3936   6.811   6.159   0.258
 1013SOL     OW 3937   0.379   0.984   6.208
 1013SOL    HW1 3938   0.343   1.052   6.271
 1013SOL    HW2 3939   0.306   0.921   6.182
 1014SOL     OW 3940   5.009   5.331   6.970
 1014SOL    HW1 3941   4.970   5.420   6.946
 1014SOL    HW2 3942   5.105   5.328   6.942
 1015SOL     OW 3943   1.873   6.794   5.195
 1015SOL    HW1 3944   1.851   6.748   5.109
 1015SOL    HW2 3945   1.843   6.889   5.190
 1016SOL     OW 3946   2.556   3.462   0.517
 1016SOL    HW1 3947   2.558   3.539   0.581
 1016SOL    HW2 3948   2.530   3.495   0.426
 1017SOL     OW 3949   4.397   2.708   0.716
 1017SOL    HW1 3950   4.488   2.749   0.727
 1017SOL    HW2 3951   4.398   2.643   0.641
 1018SOL     OW 3952   1.732   3.259   3.695
 1018SOL    HW1 3953   1.692   3.350   3.704
 1018SOL    HW2 3954   1.806   3.261   3.628
 1019SOL     OW 3955   1.548   0.858   0.534
 1019SOL    HW1 3956   1.573   0.832   0.627
 1019SOL    HW2 3957   1.605   0.935   0.505
 1020SOL     OW 3958   1.177   0.062   1.207
 1020SOL    HW1 3959   1.090   0.083   1.251
 1020SOL    HW2 3960   1.252   0.092   1.266
 1021SOL     OW 3961   6.089   0.748   0.893
 1021SOL    HW1 3962   6.129   0.804   0.821
 1021SOL    HW2 3963   6.052   0.808   0.964
 1022SOL     OW 3964   3.811   4.404   6.096
 1022SOL    HW1 3965   3.855   4.327   6.141
 1022SOL    HW2 3966   3.745   4.446   6.158
 1023SOL     OW 3967   6.192   0.162   1.810
 1023SOL    HW1 3968   6.156   0.214   1.732
 1023SOL    HW2 3969   6.162   0.067   1.804
 1024SOL     OW 3970   6.045   3.189   3.842
 1024SOL    HW1 3971   6.080   3.126   3.773
 1024SOL    HW2 3972   6.053   3.147   3.933
 1025SOL     OW 3973   3.440   4.097   0.880
 1025SOL    HW1 3974   3.426   4.195   0.894
 1025SOL    HW2 3975   3.446   4.078   0.782
 1026SOL     OW 3976   1.507   2.201   1.260
 1026SOL    HW1 3977   1.553   2.277   1.213
 1026SOL    HW2 3978   1.570   2.125   1.272
 1027SOL     OW 3979   2.406   6.425   0.998
 1027SOL    HW1 3980   2.310   6.435   1.027
 1027SOL    HW2 3981   2.411   6.358   0.924
 1028SOL     OW 3982   4.120   5.845   0.330
 1028SOL    HW1 3983   4.025   5.846   0.363
 1028SOL    HW2 3984   4.122   5.826   0.232
 1029SOL     OW 3985   1.903   0.322   0.324
 1029SOL    HW1 3986   1.804   0.312   0.327
 1029SOL    HW2 3987   1.946   0.239   0.361
 1030SOL     OW 3988   4.005   2.930   1.792
 1030SOL    HW1 3989   3.970   2.837   1.800
 1030SOL    HW2 3990   4.099   2.927   1.759
 1031SOL     OW 3991   4.830   5.299   0.351
 1031SOL    HW1 3992   4.755   5.238   0.375
 1031SOL    HW2 3993   4.835   5.373   0.419
 1032SOL     OW 3994   1.594   1.845   4.596
 1032SOL    HW1 3995   1.558   1.762   4.640
 1032SOL    HW2 3996   1.651   1.894   4.661
 1033SOL     OW 3997   1.704   6.748   1.376
 1033SOL    HW1 3998   1.655   6.745   1.463
 1033SOL    HW2 3999   1.768   6.825   1.377
 1034SOL     OW 4000   1.264   5.794   5.004
 1034SOL    HW1 4001   1.233   5.836   4.919
 1034SOL    HW2 4002   1.282   5.865   5.071
 1035SOL     OW 4003   2.585   1.599   3.557
 1035SOL    HW1 4004   2.519   1.651   3.612
 1035SOL    HW2 4005   2.676   1.639   3.568
 1036SOL     OW 4006   3.183   0.367   1.399
 1036SOL    HW1 4007   3.168   0.465   1.386
 1036SOL    HW2 4008   3.281   0.348   1.398
 1037SOL     OW 4009   2.141   0.811   1.741
 1037SOL    HW1 4010   2.227   0.818   1.690
 1037SOL    HW2 4011   2.147   0.867   1.824
 1038SOL     OW 4012   1.004   0.596   5.501
 1038SOL    HW1 4013   0.963   0.526   5.560
 1038SOL    HW2 4014   0.948   0.678   5.502
 1039SOL     OW 4015   4.214   3.134   5.694
 1039SOL    HW1 4016   4.214   3.168   5.788
 1039SOL    HW2 4017   4.158   3.052   5.688
 1040SOL     OW 4018   5.036   2.846   2.301
 1040SOL    HW1 4019   5.103   2.919   2.289
 1040SOL    HW2 4020   5.007   2.813   2.211
 1041SOL     OW 4021   6.673   6.905   4.197
 1041SOL    HW1 4022   6.591   6.876   4.147
 1041SOL    HW2 4023   6.693   7.001   4.176
 1042SOL     OW 4024   3.368   4.889   2.323
 1042SOL    HW1 4025   3.337   4.795   2.308
 1042SOL    HW2 4026   3.392   4.900   2.420
 1043SOL     OW 4027   4.567   1.200   5.539
 1043SOL    HW1 4028   4.658   1.165   5.563
 1043SOL    HW2 4029   4.507   1.124   5.517
 1044SOL     OW 4030   4.724   3.939   1.787
 1044SOL    HW1 4031   4.694   3.851   1.749
 1044SOL    HW2 4032   4.651   4.006   1.776
 1045SOL     OW 4033   2.700   6.510   1.926
 1045SOL    HW1 4034   2.670   6.510   2.021
 1045SOL    HW2 4035   2.800   6.514   1.923
 1046SOL     OW 4036   2.025   7.006   0.114
 1046SOL    HW1 4037   1.977   0.069   0.099
 1046SOL    HW2 4038   1.963   6.930   0.094
 1047SOL     OW 4039   1.332   6.003   2.740
 1047SOL    HW1 4040   1.277   5.986   2.822
 1047SOL    HW2 4041   1.301   5.945   2.665
 1048SOL     OW 4042   4.656   5.800   5.528
 1048SOL    HW1 4043   4.620   5.807   5.436
 1048SOL    HW2 4044   4.746   5.756   5.526
 1049SOL     OW 4045   6.710   4.809   4.606
 1049SOL    HW1 4046   6.769   4.860   4.669
 1049SOL    HW2 4047   6.638   4.764   4.658
 1050SOL     OW 4048   3.246   5.262   0.947
 1050SOL    HW1 4049   3.293   5.330   1.002
 1050SOL    HW2 4050   3.197   5.308   0.872
 1051SOL     OW 4051   3.259   5.221   0.371
 1051SOL    HW1 4052   3.178   5.212   0.314
 1051SOL    HW2 4053   3.287   5.317   0.376
 1052SOL     OW 4054   4.455   0.004   3.766
 1052SOL    HW1 4055   4.438   0.067   3.842
 1052SOL    HW2 4056   4.385   0.015   3.697
 1053SOL     OW 4057   5.144   5.506   3.063
 1053SOL    HW1 4058   5.203   5.425   3.068
 1053SOL    HW2 4059   5.202   5.588   3.059
 1054SOL     OW 4060   3.232   4.882   5.677
 1054SOL    HW1 4061   3.330   4.899   5.667
 1054SOL    HW2 4062   3.211   4.789   5.649
 1055SOL     OW 4063   5.697   7.019   4.246
 1055SOL    HW1 4064   5.750   0.042   4.317
 1055SOL    HW2 4065   5.744   6.935   4.218
 1056SOL     OW 4066   2.114   6.074   5.701
 1056SOL    HW1 4067   2.036   6.014   5.688
 1056SOL    HW2 4068   2.096   6.162   5.658
 1057SOL     OW 4069   3.182   3.636   2.549
 1057SOL    HW1 4070   3.138   3.549   2.571
 1057SOL    HW2 4071   3.125   3.687   2.485
 1058SOL     OW 4072   5.102   1.318   2.076
 1058SOL    HW1 4073   5.067   1.402   2.034
 1058SOL    HW2 4074   5.136   1.338   2.167
 1059SOL     OW 4075   2.529   0.794   1.279
 1059SOL    HW1 4076   2.470   0.729   1.232
 1059SOL    HW2 4077   2.599   0.745   1.330
 1060SOL     OW 4078   0.302   2.980   4.702
 1060SOL    HW1 4079   0.259   2.890   4.717
 1060SOL    HW2 4080   0.329   2.988   4.606
 1061SOL     OW 4081   4.907   3.867   1.432
 1061SOL    HW1 4082   4.973   3.938   1.409
 1061SOL    HW2 4083   4.931   3.827   1.520
 1062SOL     OW 4084   6.497   5.096   6.365
 1062SOL    HW1 4085   6.439   5.089   6.446
 1062SOL    HW2 4086   6.444   5.078   6.283
 1063SOL     OW 4087   1.154   4.327   1.405
 1063SOL    HW1 4088   1.200   4.396   1.349
 1063SOL    HW2 4089   1.165   4.237   1.362
 1064SOL     OW 4090   0.974   4.203   2.047
 1064SOL    HW1 4091   1.019   4.120   2.080
 1064SOL    HW2 4092   1.015   4.232   1.960
 1065SOL     OW 4093   4.791   0.569   4.537
 1065SOL    HW1 4094   4.877   0.534   4.500
 1065SOL    HW2 4095   4.790   0.669   4.531
 1066SOL     OW 4096   5.608   0.969   4.192
 1066SOL    HW1 4097   5.527   0.937   4.242
 1066SOL    HW2 4098   5.681   0.901   4.201
 1067SOL     OW 4099   1.483   2.695   0.615
 1067SOL    HW1 4100   1.567   2.749   0.623
 1067SOL    HW2 4101   1.492   2.632   0.537
 1068SOL     OW 4102   5.711   4.303   2.078
 1068SOL    HW1 4103   5.719   4.248   1.995
 1068SOL    HW2 4104   5.737   4.398   2.059
 1069SOL     OW 4105   4.878   5.119   1.192
 1069SOL    HW1 4106   4.888   5.139   1.289
 1069SOL    HW2 4107   4.849   5.024   1.180
 1070SOL     OW 4108   1.392   1.138   0.220
 1070SOL    HW1 4109   1.395   1.040   0.201
 1070SOL    HW2 4110   1.483   1.178   0.207
 1071SOL     OW 4111   3.799   0.256   3.039
 1071SOL    HW1 4112   3.890   0.239   3.079
 1071SOL    HW2 4113   3.741   0.176   3.055
 1072SOL     OW 4114   1.593   5.870   1.587
 1072SOL    HW1 4115   1.590   5.770   1.589
 1072SOL    HW2 4116   1.508   5.906   1.625
 1073SOL     OW 4117   3.574   5.825   2.641
 1073SOL    HW1 4118   3.659   5.853   2.687
 1073SOL    HW2 4119   3.498   5.878   2.678
 1074SOL     OW 4120   1.970   5.040   1.442
 1074SOL    HW1 4121   1.916   5.107   1.493
 1074SOL    HW2 4122   1.909   4.977   1.395
 1075SOL     OW 4123   4.817   6.223   3.362
 1075SOL    HW1 4124   4.740   6.220   3.299
 1075SOL    HW2 4125   4.814   6.308   3.415
 1076SOL     OW 4126   0.763   4.392   4.769
 1076SOL    HW1 4127   0.702   4.312   4.775
 1076SOL    HW2 4128   0.857   4.361   4.756
 1077SOL     OW 4129   6.192   6.675   0.391
 1077SOL    HW1 4130   6.135   6.726   0.456
 1077SOL    HW2 4131   6.282   6.718   0.385
 1078SOL     OW 4132   2.103   0.648   2.400
 1078SOL    HW1 4133   2.014   0.668   2.442
 1078SOL    HW2 4134   2.151   0.579   2.454
 1079SOL     OW 4135   2.035   5.528   2.782
 1079SOL    HW1 4136   2.075   5.603   2.730
 1079SOL    HW2 4137   2.047   5.442   2.731
 1080SOL     OW 4138   1.915   4.432   3.479
 1080SOL    HW1 4139   1.899   4.377   3.397
 1080SOL    HW2 4140   1.903   4.529   3.457
 1081SOL     OW 4141   0.125   0.427   5.118
 1081SOL    HW1 4142   0.163   0.466   5.034
 1081SOL    HW2 4143   0.111   0.499   5.185
 1082SOL     OW 4144   2.135   0.224   5.915
 1082SOL    HW1 4145   2.098   0.264   5.831
 1082SOL    HW2 4146   2.187   0.142   5.893
 1083SOL     OW 4147   3.741   3.949   1.249
 1083SOL    HW1 4148   3.725   3.946   1.348
 1083SOL    HW2 4149   3.676   3.890   1.203
 1084SOL     OW 4150   6.336   5.867   1.200
 1084SOL    HW1 4151   6.387   5.823   1.274
 1084SOL    HW2 4152   6.243   5.885   1.230
 1085SOL     OW 4153   2.157   4.748   3.431
 1085SOL    HW1 4154   2.201   4.685   3.494
 1085SOL    HW2 4155   2.222   4.819   3.402
 1086SOL     OW 4156   6.939   5.424   3.290
 1086SOL    HW1 4157   7.006   5.398   3.220
 1086SOL    HW2 4158   6.884   5.502   3.257
 1087SOL     OW 4159   5.213   2.621   5.661
 1087SOL    HW1 4160   5.309   2.645   5.650
 1087SOL    HW2 4161   5.164   2.636   5.575
 1088SOL     OW 4162   6.074   4.772   3.500
 1088SOL    HW1 4163   6.055   4.858   3.452
 1088SOL    HW2 4164   6.038   4.777   3.593
 1089SOL     OW 4165   1.090   6.871   4.788
 1089SOL    HW1 4166   1.151   6.937   4.831
 1089SOL    HW2 4167   1.028   6.919   4.726
 1090SOL     OW 4168   2.794   1.587   3.881
 1090SOL    HW1 4169   2.797   1.640   3.796
 1090SOL    HW2 4170   2.768   1.493   3.861
 1091SOL     OW 4171   1.857   2.625   4.507
 1091SOL    HW1 4172   1.941   2.679   4.502
 1091SOL    HW2 4173   1.810   2.645   4.593
 1092SOL     OW 4174   2.618   3.612   1.253
 1092SOL    HW1 4175   2.707   3.639   1.290
 1092SOL    HW2 4176   2.557   3.691   1.252
 1093SOL     OW 4177   2.069   2.225   2.758
 1093SOL    HW1 4178   2.115   2.305   2.719
 1093SOL    HW2 4179   2.097   2.214   2.853
 1094SOL     OW 4180   0.843   6.829   2.670
 1094SOL    HW1 4181   0.927   6.831   2.723
 1094SOL    HW2 4182   0.765   6.820   2.732
 1095SOL     OW 4183   6.650   2.065   5.858
 1095SOL    HW1 4184   6.643   2.152   5.810
 1095SOL    HW2 4185   6.565   2.046   5.907
 1096SOL     OW 4186   3.762   4.903   1.744
 1096SOL    HW1 4187   3.689   4.863   1.800
 1096SOL    HW2 4188   3.826   4.832   1.716
 1097SOL     OW 4189   0.801   4.701   4.294
 1097SOL    HW1 4190   0.717   4.704   4.348
 1097SOL    HW2 4191   0.807   4.613   4.247
 1098SOL     OW 4192   5.498   2.742   0.639
 1098SOL    HW1 4193   5.547   2.655   0.645
 1098SOL    HW2 4194   5.503   2.789   0.727
 1099SOL     OW 4195   4.274   1.008   4.662
 1099SOL    HW1 4196   4.251   1.050   4.750
 1099SOL    HW2 4197   4.206   1.034   4.594
 1100SOL     OW 4198   1.952   1.861   6.447
 1100SOL    HW1 4199   2.037   1.899   6.411
 1100SOL    HW2 4200   1.965   1.833   6.542
 1101SOL     OW 4201   5.469   2.863   0.893
 1101SOL    HW1 4202   5.462   2.963   0.901
 1101SOL    HW2 4203   5.387   2.821   0.930
 1102SOL     OW 4204   2.222   4.737   2.973
 1102SOL    HW1 4205   2.135   4.745   2.926
 1102SOL    HW2 4206   2.214   4.671   3.048
 1103SOL     OW 4207   3.144   1.209   1.260
 1103SOL    HW1 4208   3.153   1.248   1.169
 1103SOL    HW2 4209   3.090   1.125   1.255
 1104SOL     OW 4210   1.594   3.613   6.492
 1104SOL    HW1 4211   1.652   3.670   6.433
 1104SOL    HW2 4212   1.570   3.529   6.443
 1105SOL     OW 4213   4.974   3.691   5.947
 1105SOL    HW1 4214   4.879   3.695   5.980
 1105SOL    HW2 4215   5.005   3.784   5.926
 1106SOL     OW 4216   1.190   1.769   0.524
 1106SOL    HW1 4217   1.166   1.844   0.586
 1106SOL    HW2 4218   1.176   1.682   0.572
 1107SOL     OW 4219   0.753   0.654   6.577
 1107SOL    HW1 4220   0.671   0.701   6.545
 1107SOL    HW2 4221   0.735   0.613   6.667
 1108SOL     OW 4222   2.820   0.474   6.054
 1108SOL    HW1 4223   2.802   0.556   6.109
 1108SOL    HW2 4224   2.766   0.397   6.090
 1109SOL     OW 4225   4.564   5.527   4.664
 1109SOL    HW1 4226   4.654   5.511   4.704
 1109SOL    HW2 4227   4.560   5.621   4.628
 1110SOL     OW 4228   2.905   1.723   2.487
 1110SOL    HW1 4229   2.808   1.698   2.485
 1110SOL    HW2 4230   2.915   1.820   2.464
 1111SOL     OW 4231   5.799   6.184   0.282
 1111SOL    HW1 4232   5.772   6.099   0.328
 1111SOL    HW2 4233   5.835   6.248   0.349
 1112SOL     OW 4234   6.011   0.804   2.949
 1112SOL    HW1 4235   5.952   0.774   2.874
 1112SOL    HW2 4236   6.103   0.768   2.935
 1113SOL     OW 4237   6.079   3.201   2.478
 1113SOL    HW1 4238   6.080   3.233   2.572
 1113SOL    HW2 4239   5.990   3.219   2.437
 1114SOL     OW 4240   4.583   0.802   6.032
 1114SOL    HW1 4241   4.508   0.829   5.971
 1114SOL    HW2 4242   4.613   0.710   6.009
 1115SOL     OW 4243   3.805   3.300   6.733
 1115SOL    HW1 4244   3.865   3.241   6.787
 1115SOL    HW2 4245   3.860   3.365   6.681
 1116SOL     OW 4246   5.651   5.616   4.605
 1116SOL    HW1 4247   5.688   5.538   4.655
 1116SOL    HW2 4248   5.670   5.606   4.508
 1117SOL     OW 4249   2.609   2.562   1.132
 1117SOL    HW1 4250   2.679   2.529   1.069
 1117SOL    HW2 4251   2.578   2.487   1.190
 1118SOL     OW 4252   1.774   4.915   1.960
 1118SOL    HW1 4253   1.834   4.942   1.884
 1118SOL    HW2 4254   1.829   4.872   2.032
 1119SOL     OW 4255   3.845   4.368   1.264
 1119SOL    HW1 4256   3.920   4.317   1.223
 1119SOL    HW2 4257   3.822   4.328   1.353
 1120SOL     OW 4258   5.580   6.025   5.481
 1120SOL    HW1 4259   5.615   6.057   5.394
 1120SOL    HW2 4260   5.645   6.045   5.554
 1121SOL     OW 4261   4.982   3.995   2.584
 1121SOL    HW1 4262   4.925   4.077   2.586
 1121SOL    HW2 4263   5.063   4.013   2.527
 1122SOL     OW 4264   5.257   3.359   6.436
 1122SOL    HW1 4265   5.349   3.356   6.475
 1122SOL    HW2 4266   5.205   3.434   6.479
 1123SOL     OW 4267   4.798   1.269   2.526
 1123SOL    HW1 4268   4.818   1.318   2.441
 1123SOL    HW2 4269   4.826   1.324   2.604
 1124SOL     OW 4270   6.523   4.101   5.022
 1124SOL    HW1 4271   6.608   4.058   4.992
 1124SOL    HW2 4272   6.454   4.031   5.038
 1125SOL     OW 4273   2.140   1.521   4.759
 1125SOL    HW1 4274   2.208   1.587   4.727
 1125SOL    HW2 4275   2.164   1.430   4.726
 1126SOL     OW 4276   5.450   0.077   0.119
 1126SOL    HW1 4277   5.429   0.071   0.217
 1126SOL    HW2 4278   5.421   0.166   0.085
 1127SOL     OW 4279   4.079   5.256   5.473
 1127SOL    HW1 4280   4.097   5.227   5.567
 1127SOL    HW2 4281   4.038   5.180   5.422
 1128SOL     OW 4282   4.751   2.589   5.286
 1128SOL    HW1 4283   4.728   2.661   5.220
 1128SOL    HW2 4284   4.720   2.617   5.377
 1129SOL     OW 4285   3.988   6.799   0.481
 1129SOL    HW1 4286   4.058   6.842   0.425
 1129SOL    HW2 4287   3.922   6.751   0.423
 1130SOL     OW 4288   1.670   3.480   0.972
 1130SOL    HW1 4289   1.684   3.415   0.897
 1130SOL    HW2 4290   1.711   3.568   0.947
 1131SOL     OW 4291   0.743   6.515   6.023
 1131SOL    HW1 4292   0.714   6.481   5.934
 1131SOL    HW2 4293   0.843   6.513   6.028
 1132SOL     OW 4294   4.609   0.440   6.691
 1132SOL    HW1 4295   4.637   0.382   6.767
 1132SOL    HW2 4296   4.689   0.466   6.637
 1133SOL     OW 4297   6.548   1.868   0.561
 1133SOL    HW1 4298   6.465   1.865   0.505
 1133SOL    HW2 4299   6.628   1.860   0.502
 1134SOL     OW 4300   5.490   1.606   0.720
 1134SOL    HW1 4301   5.505   1.508   0.737
 1134SOL    HW2 4302   5.482   1.654   0.807
 1135SOL     OW 4303   2.838   1.351   2.705
 1135SOL    HW1 4304   2.762   1.410   2.729
 1135SOL    HW2 4305   2.810   1.287   2.634
 1136SOL     OW 4306   3.308   5.029   5.155
 1136SOL    HW1 4307   3.226   4.985   5.192
 1136SOL    HW2 4308   3.301   5.129   5.165
 1137SOL     OW 4309   0.591   3.277   7.016
 1137SOL    HW1 4310   0.527   3.325   6.957
 1137SOL    HW2 4311   0.546   3.197   0.034
 1138SOL     OW 4312   1.077   1.817   6.238
 1138SOL    HW1 4313   1.168   1.784   6.211
 1138SOL    HW2 4314   1.087   1.901   6.291
 1139SOL     OW 4315   2.267   6.396   1.805
 1139SOL    HW1 4316   2.218   6.329   1.749
 1139SOL    HW2 4317   2.312   6.462   1.746
 1140SOL     OW 4318   4.020   1.892   2.329
 1140SOL    HW1 4319   3.989   1.861   2.419
 1140SOL    HW2 4320   4.008   1.818   2.263
 1141SOL     OW 4321   6.448   5.537   6.419
 1141SOL    HW1 4322   6.357   5.507   6.390
 1141SOL    HW2 4323   6.442   5.628   6.459
 1142SOL     OW 4324   4.607   0.374   4.547
 1142SOL    HW1 4325   4.652   0.285   4.548
 1142SOL    HW2 4326   4.674   0.444   4.522
 1143SOL     OW 4327   2.945   2.015   2.424
 1143SOL    HW1 4328   2.873   2.078   2.451
 1143SOL    HW2 4329   2.993   2.053   2.344
 1144SOL     OW 4330   6.904   4.949   4.738
 1144SOL    HW1 4331   6.917   4.914   4.831
 1144SOL    HW2 4332   6.992   4.967   4.696
 1145SOL     OW 4333   0.301   4.474   3.307
 1145SOL    HW1 4334   0.307   4.396   3.368
 1145SOL    HW2 4335   0.210   4.515   3.312
 1146SOL     OW 4336   5.028   0.741   0.995
 1146SOL    HW1 4337   5.030   0.655   0.945
 1146SOL    HW2 4338   4.990   0.725   1.087
 1147SOL     OW 4339   0.812   4.742   0.348
 1147SOL    HW1 4340   0.770   4.655   0.321
 1147SOL    HW2 4341   0.891   4.725   0.407
 1148SOL     OW 4342   2.860   6.692   0.658
 1148SOL    HW1 4343   2.946   6.686   0.609
 1148SOL    HW2 4344   2.799   6.757   0.613
 1149SOL     OW 4345   5.513   3.790   2.979
 1149SOL    HW1 4346   5.498   3.781   3.078
 1149SOL    HW2 4347   5.433   3.756   2.930
 1150SOL     OW 4348   1.682   4.033   1.087
 1150SOL    HW1 4349   1.752   4.036   1.016
 1150SOL    HW2 4350   1.613   4.103   1.068
 1151SOL     OW 4351   5.220   5.985   6.650
 1151SOL    HW1 4352   5.288   5.989   6.723
 1151SOL    HW2 4353   5.131   5.963   6.690
 1152SOL     OW 4354   0.777   6.484   5.496
 1152SOL    HW1 4355   0.779   6.510   5.593
 1152SOL    HW2 4356   0.682   6.484   5.464
 1153SOL     OW 4357   2.347   6.865   2.041
 1153SOL    HW1 4358   2.367   6.888   2.136
 1153SOL    HW2 4359   2.297   6.940   1.998
 1154SOL     OW 4360   0.065   3.187   2.112
 1154SOL    HW1 4361   0.053   3.117   2.183
 1154SOL    HW2 4362   0.140   3.248   2.137
 1155SOL     OW 4363   3.538   5.403   6.574
 1155SOL    HW1 4364   3.507   5.393   6.479
 1155SOL    HW2 4365   3.638   5.397   6.577
 1156SOL     OW 4366   2.179   0.537   4.417
 1156SOL    HW1 4367   2.275   0.554   4.440
 1156SOL    HW2 4368   2.140   0.471   4.482
 1157SOL     OW 4369   6.003   2.102   4.583
 1157SOL    HW1 4370   5.950   2.167   4.638
 1157SOL    HW2 4371   5.967   2.100   4.490
 1158SOL     OW 4372   6.434   5.484   5.934
 1158SOL    HW1 4373   6.378   5.568   5.933
 1158SOL    HW2 4374   6.427   5.442   6.024
 1159SOL     OW 4375   4.899   0.656   3.166
 1159SOL    HW1 4376   4.952   0.597   3.227
 1159SOL    HW2 4377   4.812   0.680   3.209
 1160SOL     OW 4378   3.642   3.904   1.522
 1160SOL    HW1 4379   3.683   3.822   1.561
 1160SOL    HW2 4380   3.542   3.898   1.526
 1161SOL     OW 4381   4.886   0.133   5.338
 1161SOL    HW1 4382   4.985   0.139   5.343
 1161SOL    HW2 4383   4.846   0.172   5.422
 1162SOL     OW 4384   3.932   2.928   0.879
 1162SOL    HW1 4385   3.947   3.025   0.862
 1162SOL    HW2 4386   3.840   2.902   0.850
 1163SOL     OW 4387   5.684   2.897   2.121
 1163SOL    HW1 4388   5.656   2.990   2.148
 1163SOL    HW2 4389   5.636   2.872   2.037
 1164SOL     OW 4390   5.461   2.735   3.835
 1164SOL    HW1 4391   5.410   2.774   3.911
 1164SOL    HW2 4392   5.490   2.808   3.773
 1165SOL     OW 4393   2.082   4.575   3.814
 1165SOL    HW1 4394   2.054   4.667   3.788
 1165SOL    HW2 4395   2.153   4.543   3.752
 1166SOL     OW 4396   4.069   0.925   6.904
 1166SOL    HW1 4397   4.091   0.829   6.918
 1166SOL    HW2 4398   4.073   0.947   6.806
 1167SOL     OW 4399   2.805   0.483   6.734
 1167SOL    HW1 4400   2.737   0.429   6.685
 1167SOL    HW2 4401   2.844   0.429   6.808
 1168SOL     OW 4402   6.012   6.579   2.314
 1168SOL    HW1 4403   6.045   6.512   2.249
 1168SOL    HW2 4404   5.940   6.634   2.271
 1169SOL     OW 4405   6.803   3.279   0.205
 1169SOL    HW1 4406   6.835   3.206   0.267
 1169SOL    HW2 4407   6.861   3.359   0.215
 1170SOL     OW 4408   4.400   0.833   2.162
 1170SOL    HW1 4409   4.326   0.771   2.186
 1170SOL    HW2 4410   4.484   0.805   2.209
 1171SOL     OW 4411   2.219   5.394   0.569
 1171SOL    HW1 4412   2.263   5.388   0.480
 1171SOL    HW2 4413   2.127   5.355   0.564
 1172SOL     OW 4414   3.621   4.122   3.119
 1172SOL    HW1 4415   3.536   4.070   3.126
 1172SOL    HW2 4416   3.629   4.184   3.197
 1173SOL     OW 4417   3.037   0.050   5.943
 1173SOL    HW1 4418   3.085   6.988   5.963
 1173SOL    HW2 4419   3.074   0.123   6.001
 1174SOL     OW 4420   3.023   5.420   0.771
 1174SOL    HW1 4421   3.052   5.516   0.766
 1174SOL    HW2 4422   2.959   5.401   0.696
 1175SOL     OW 4423   4.921   3.586   0.029
 1175SOL    HW1 4424   4.842   3.618   7.000
 1175SOL    HW2 4425   5.003   3.594   6.996
 1176SOL     OW 4426   5.880   4.566   0.670
 1176SOL    HW1 4427   5.976   4.537   0.669
 1176SOL    HW2 4428   5.827   4.510   0.606
 1177SOL     OW 4429   0.151   1.512   5.390
 1177SOL    HW1 4430   0.088   1.438   5.415
 1177SOL    HW2 4431   0.112   1.600   5.417
 1178SOL     OW 4432   3.952   3.341   1.394
 1178SOL    HW1 4433   3.982   3.248   1.373
 1178SOL    HW2 4434   3.863   3.358   1.353
 1179SOL     OW 4435   3.207   5.107   0.614
 1179SOL    HW1 4436   3.255   5.125   0.528
 1179SOL    HW2 4437   3.108   5.111   0.599
 1180SOL     OW 4438   2.842   0.417   3.417
 1180SOL    HW1 4439   2.893   0.440   3.499
 1180SOL    HW2 4440   2.831   0.499   3.360
 1181SOL     OW 4441   0.470   3.068   4.901
 1181SOL    HW1 4442   0.419   3.031   4.823
 1181SOL    HW2 4443   0.514   3.153   4.875
 1182SOL     OW 4444   2.059   4.908   3.160
 1182SOL    HW1 4445   1.968   4.889   3.195
 1182SOL    HW2 4446   2.058   4.901   3.060
 1183SOL     OW 4447   3.973   5.253   2.673
 1183SOL    HW1 4448   3.890   5.302   2.650
 1183SOL    HW2 4449   3.955   5.154   2.675
 1184SOL     OW 4450   3.520   1.990   5.019
 1184SOL    HW1 4451   3.435   2.016   5.065
 1184SOL    HW2 4452   3.594   1.988   5.085
 1185SOL     OW 4453   2.260   0.066   0.458
 1185SOL    HW1 4454   2.278   0.004   0.534
 1185SOL    HW2 4455   2.172   0.111   0.473
 1186SOL     OW 4456   6.249   6.666   6.153
 1186SOL    HW1 4457   6.270   6.575   6.189
 1186SOL    HW2 4458   6.313   6.732   6.192
 1187SOL     OW 4459   5.963   5.819   4.999
 1187SOL    HW1 4460   5.975   5.915   4.972
 1187SOL    HW2 4461   5.903   5.814   5.079
 1188SOL     OW 4462   3.125   6.800   6.344
 1188SOL    HW1 4463   3.185   6.830   6.418
 1188SOL    HW2 4464   3.030   6.823   6.366
 1189SOL     OW 4465   5.399   1.085   2.002
 1189SOL    HW1 4466   5.420   1.162   2.063
 1189SOL    HW2 4467   5.367   1.120   1.914
 1190SOL     OW 4468   4.467   4.872   4.770
 1190SOL    HW1 4469   4.387   4.863   4.711
 1190SOL    HW2 4470   4.449   4.825   4.857
 1191SOL     OW 4471   3.883   5.569   5.340
 1191SOL    HW1 4472   3.981   5.563   5.360
 1191SOL    HW2 4473   3.865   5.651   5.286
 1192SOL     OW 4474   5.787   5.019   3.271
 1192SOL    HW1 4475   5.790   5.111   3.310
 1192SOL    HW2 4476   5.697   5.002   3.231
 1193SOL     OW 4477   6.753   0.644   4.220
 1193SOL    HW1 4478   6.784   0.635   4.125
 1193SOL    HW2 4479   6.830   0.632   4.282
 1194SOL     OW 4480   0.224   1.651   0.965
 1194SOL    HW1 4481   0.149   1.587   0.952
 1194SOL    HW2 4482   0.189   1.737   1.003
 1195SOL     OW 4483   5.981   2.194   0.483
 1195SOL    HW1 4484   5.885   2.184   0.511
 1195SOL    HW2 4485   6.038   2.213   0.563
 1196SOL     OW 4486   0.073   4.772   2.059
 1196SOL    HW1 4487   0.111   4.710   2.128
 1196SOL    HW2 4488   0.087   4.867   2.089
 1197SOL     OW 4489   3.610   5.880   5.637
 1197SOL    HW1 4490   3.623   5.796   5.690
 1197SOL    HW2 4491   3.516   5.912   5.649
 1198SOL     OW 4492   2.391   2.687   2.248
 1198SOL    HW1 4493   2.357   2.620   2.182
 1198SOL    HW2 4494   2.452   2.751   2.202
 1199SOL     OW 4495   3.890   2.994   2.938
 1199SOL    HW1 4496   3.935   2.942   2.865
 1199SOL    HW2 4497   3.799   2.957   2.954
 1200SOL     OW 4498   4.182   3.518   5.051
 1200SOL    HW1 4499   4.179   3.593   5.117
 1200SOL    HW2 4500   4.184   3.556   4.958
 1201SOL     OW 4501   0.409   1.117   4.173
 1201SOL    HW1 4502   0.482   1.171   4.216
 1201SOL    HW2 4503   0.434   1.097   4.078
 1202SOL     OW 4504   6.108   0.717   5.621
 1202SOL    HW1 4505   6.139   0.624   5.639
 1202SOL    HW2 4506   6.070   0.756   5.704
 1203SOL     OW 4507   5.739   6.821   1.067
 1203SOL    HW1 4508   5.814   6.874   1.026
 1203SOL    HW2 4509   5.750   6.725   1.043
 1204SOL     OW 4510   4.013   1.196   0.129
 1204SOL    HW1 4511   4.088   1.163   0.072
 1204SOL    HW2 4512   3.970   1.119   0.176
 1205SOL     OW 4513   4.400   3.405   6.322
 1205SOL    HW1 4514   4.328   3.344   6.355
 1205SOL    HW2 4515   4.456   3.435   6.400
 1206SOL     OW 4516   1.195   2.068   5.015
 1206SOL    HW1 4517   1.114   2.062   4.957
 1206SOL    HW2 4518   1.277   2.060   4.958
 1207SOL     OW 4519   0.118   6.847   0.936
 1207SOL    HW1 4520   0.152   6.842   0.842
 1207SOL    HW2 4521   0.072   6.761   0.960
 1208SOL     OW 4522   3.459   4.087   2.623
 1208SOL    HW1 4523   3.493   4.018   2.687
 1208SOL    HW2 4524   3.374   4.126   2.658
 1209SOL     OW 4525   5.716   6.834   4.555
 1209SOL    HW1 4526   5.805   6.814   4.516
 1209SOL    HW2 4527   5.716   6.926   4.596
 1210SOL     OW 4528   4.577   6.691   3.377
 1210SOL    HW1 4529   4.608   6.596   3.370
 1210SOL    HW2 4530   4.568   6.729   3.285
 1211SOL     OW 4531   1.771   3.725   3.133
 1211SOL    HW1 4532   1.790   3.777   3.049
 1211SOL    HW2 4533   1.749   3.630   3.109
 1212SOL     OW 4534   6.916   1.977   5.818
 1212SOL    HW1 4535   6.925   1.920   5.900
 1212SOL    HW2 4536   6.832   2.032   5.826
 1213SOL     OW 4537   5.860   3.370   4.907
 1213SOL    HW1 4538   5.935   3.432   4.928
 1213SOL    HW2 4539   5.774   3.411   4.937
 1214SOL     OW 4540   1.195   3.155   4.987
 1214SOL    HW1 4541   1.168   3.210   4.909
 1214SOL    HW2 4542   1.132   3.172   5.064
 1215SOL     OW 4543   1.904   4.786   2.167
 1215SOL    HW1 4544   1.991   4.828   2.194
 1215SOL    HW2 4545   1.918   4.689   2.148
 1216SOL     OW 4546   0.512   0.147   1.290
 1216SOL    HW1 4547   0.605   0.112   1.288
 1216SOL    HW2 4548   0.488   0.172   1.384
 1217SOL     OW 4549   2.108   6.362   0.773
 1217SOL    HW1 4550   2.065   6.291   0.830
 1217SOL    HW2 4551   2.108   6.332   0.678
 1218SOL     OW 4552   0.468   3.535   4.870
 1218SOL    HW1 4553   0.533   3.602   4.905
 1218SOL    HW2 4554   0.404   3.509   4.942
 1219SOL     OW 4555   4.557   4.667   1.357
 1219SOL    HW1 4556   4.555   4.567   1.358
 1219SOL    HW2 4557   4.563   4.699   1.262
 1220SOL     OW 4558   5.225   3.724   2.920
 1220SOL    HW1 4559   5.225   3.740   2.821
 1220SOL    HW2 4560   5.229   3.626   2.938
 1221SOL     OW 4561   5.663   4.008   6.550
 1221SOL    HW1 4562   5.680   3.916   6.587
 1221SOL    HW2 4563   5.585   4.004   6.488
 1222SOL     OW 4564   6.959   0.579   0.738
 1222SOL    HW1 4565   0.014   0.522   0.761
 1222SOL    HW2 4566   6.885   0.522   0.703
 1223SOL     OW 4567   5.099   1.040   0.650
 1223SOL    HW1 4568   5.011   1.087   0.653
 1223SOL    HW2 4569   5.086   0.949   0.611
 1224SOL     OW 4570   3.537   5.947   0.253
 1224SOL    HW1 4571   3.634   5.949   0.227
 1224SOL    HW2 4572   3.529   5.926   0.351
 1225SOL     OW 4573   4.276   2.669   1.334
 1225SOL    HW1 4574   4.181   2.700   1.322
 1225SOL    HW2 4575   4.278   2.569   1.334
 1226SOL     OW 4576   5.218   6.457   0.911
 1226SOL    HW1 4577   5.213   6.437   1.009
 1226SOL    HW2 4578   5.196   6.374   0.859
 1227SOL     OW 4579   6.029   5.030   5.852
 1227SOL    HW1 4580   5.974   5.051   5.932
 1227SOL    HW2 4581   6.112   4.982   5.879
 1228SOL     OW 4582   3.662   3.174   0.541
 1228SOL    HW1 4583   3.634   3.230   0.463
 1228SOL    HW2 4584   3.581   3.147   0.593
 1229SOL     OW 4585   1.550   6.563   1.627
 1229SOL    HW1 4586   1.469   6.598   1.672
 1229SOL    HW2 4587   1.628   6.624   1.645
 1230SOL     OW 4588   5.299   5.931   2.935
 1230SOL    HW1 4589   5.386   5.966   2.900
 1230SOL    HW2 4590   5.260   5.868   2.868
 1231SOL     OW 4591   1.405   2.410   6.090
 1231SOL    HW1 4592   1.433   2.334   6.031
 1231SOL    HW2 4593   1.435   2.392   6.183
 1232SOL     OW 4594   4.814   0.848   5.054
 1232SOL    HW1 4595   4.862   0.885   4.974
 1232SOL    HW2 4596   4.878   0.842   5.131
 1233SOL     OW 4597   1.344   5.499   3.172
 1233SOL    HW1 4598   1.359   5.590   3.211
 1233SOL    HW2 4599   1.432   5.455   3.154
 1234SOL     OW 4600   6.963   2.312   6.321
 1234SOL    HW1 4601   6.915   2.400   6.314
 1234SOL    HW2 4602   6.924   2.248   6.254
 1235SOL     OW 4603   6.456   4.605   0.014
 1235SOL    HW1 4604   6.425   4.556   6.956
 1235SOL    HW2 4605   6.475   4.700   7.013
 1236SOL     OW 4606   3.730   2.183   0.541
 1236SOL    HW1 4607   3.662   2.256   0.547
 1236SOL    HW2 4608   3.821   2.223   0.532
 1237SOL     OW 4609   1.709   6.407   4.937
 1237SOL    HW1 4610   1.626   6.364   4.900
 1237SOL    HW2 4611   1.789   6.365   4.895
 1238SOL     OW 4612   0.467   6.704   3.458
 1238SOL    HW1 4613   0.546   6.690   3.517
 1238SOL    HW2 4614   0.454   6.625   3.399
 1239SOL     OW 4615   6.654   5.750   4.457
 1239SOL    HW1 4616   6.618   5.674   4.512
 1239SOL    HW2 4617   6.712   5.714   4.384
 1240SOL     OW 4618   5.972   5.094   2.342
 1240SOL    HW1 4619   6.002   5.132   2.255
 1240SOL    HW2 4620   6.051   5.080   2.402
 1241SOL     OW 4621   0.198   4.369   4.737
 1241SOL    HW1 4622   0.098   4.379   4.746
 1241SOL    HW2 4623   0.233   4.444   4.681
 1242SOL     OW 4624   2.262   3.274   0.519
 1242SOL    HW1 4625   2.300   3.360   0.483
 1242SOL    HW2 4626   2.332   3.226   0.572
 1243SOL     OW 4627   0.567   1.661   4.674
 1243SOL    HW1 4628   0.549   1.758   4.659
 1243SOL    HW2 4629   0.521   1.631   4.758
 1244SOL     OW 4630   5.264   6.909   5.401
 1244SOL    HW1 4631   5.314   6.995   5.393
 1244SOL    HW2 4632   5.213   6.892   5.317
 1245SOL     OW 4633   5.103   5.704   1.333
 1245SOL    HW1 4634   5.119   5.786   1.278
 1245SOL    HW2 4635   5.005   5.697   1.354
 1246SOL     OW 4636   3.713   0.922   2.169
 1246SOL    HW1 4637   3.782   0.865   2.213
 1246SOL    HW2 4638   3.675   0.872   2.091
 1247SOL     OW 4639   6.173   0.104   4.729
 1247SOL    HW1 4640   6.260   0.106   4.779
 1247SOL    HW2 4641   6.154   0.194   4.690
 1248SOL     OW 4642   1.048   6.364   3.859
 1248SOL    HW1 4643   1.036   6.344   3.957
 1248SOL    HW2 4644   0.976   6.425   3.828
 1249SOL     OW 4645   0.103   4.658   1.799
 1249SOL    HW1 4646   0.094   4.732   1.733
 1249SOL    HW2 4647   0.071   4.689   1.888
 1250SOL     OW 4648   6.454   3.109   4.567
 1250SOL    HW1 4649   6.428   3.078   4.658
 1250SOL    HW2 4650   6.554   3.102   4.557
 1251SOL     OW 4651   2.424   0.497   2.794
 1251SOL    HW1 4652   2.376   0.583   2.804
 1251SOL    HW2 4653   2.361   0.421   2.809
 1252SOL     OW 4654   3.207   5.376   6.454
 1252SOL    HW1 4655   3.252   5.442   6.514
 1252SOL    HW2 4656   3.260   5.291   6.452
 1253SOL     OW 4657   2.712   0.639   1.663
 1253SOL    HW1 4658   2.721   0.616   1.759
 1253SOL    HW2 4659   2.659   0.724   1.654
 1254SOL     OW 4660   6.006   2.617   3.136
 1254SOL    HW1 4661   6.025   2.673   3.217
 1254SOL    HW2 4662   6.072   2.542   3.131
 1255SOL     OW 4663   5.629   2.804   5.490
 1255SOL    HW1 4664   5.598   2.725   5.543
 1255SOL    HW2 4665   5.655   2.878   5.552
 1256SOL     OW 4666   0.160   5.887   2.948
 1256SOL    HW1 4667   0.208   5.908   2.863
 1256SOL    HW2 4668   0.175   5.961   3.015
 1257SOL     OW 4669   0.358   4.539   4.140
 1257SOL    HW1 4670   0.327   4.448   4.113
 1257SOL    HW2 4671   0.458   4.539   4.152
 1258SOL     OW 4672   2.428   5.647   2.981
 1258SOL    HW1 4673   2.345   5.695   3.010
 1258SOL    HW2 4674   2.403   5.571   2.920
 1259SOL     OW 4675   3.326   6.503   5.220
 1259SOL    HW1 4676   3.426   6.507   5.226
 1259SOL    HW2 4677   3.294   6.554   5.141
 1260SOL     OW 4678   3.432   1.145   1.412
 1260SOL    HW1 4679   3.495   1.154   1.490
 1260SOL    HW2 4680   3.384   1.232   1.398
 1261SOL     OW 4681   0.066   4.105   6.943
 1261SOL    HW1 4682   0.089   4.165   6.867
 1261SOL    HW2 4683   0.097   4.147   0.005
 1262SOL     OW 4684   4.610   4.985   1.370
 1262SOL    HW1 4685   4.573   4.897   1.401
 1262SOL    HW2 4686   4.693   4.969   1.317
 1263SOL     OW 4687   6.710   1.793   0.753
 1263SOL    HW1 4688   6.671   1.736   0.825
 1263SOL    HW2 4689   6.639   1.819   0.688
 1264SOL     OW 4690   0.856   4.017   2.383
 1264SOL    HW1 4691   0.894   3.982   2.468
 1264SOL    HW2 4692   0.762   3.985   2.373
 1265SOL     OW 4693   6.584   4.720   3.162
 1265SOL    HW1 4694   6.578   4.620   3.161
 1265SOL    HW2 4695   6.554   4.756   3.073
 1266SOL     OW 4696   2.343   0.761   3.959
 1266SOL    HW1 4697   2.372   0.854   3.937
 1266SOL    HW2 4698   2.369   0.699   3.885
 1267SOL     OW 4699   5.759   5.677   1.354
 1267SOL    HW1 4700   5.844   5.730   1.350
 1267SOL    HW2 4701   5.720   5.682   1.446
 1268SOL     OW 4702   4.790   2.233   6.611
 1268SOL    HW1 4703   4.768   2.292   6.533
 1268SOL    HW2 4704   4.873   2.268   6.655
 1269SOL     OW 4705   5.743   6.018   5.216
 1269SOL    HW1 4706   5.791   5.938   5.249
 1269SOL    HW2 4707   5.777   6.100   5.263
 1270SOL     OW 4708   2.183   3.886   4.391
 1270SOL    HW1 4709   2.160   3.911   4.485
 1270SOL    HW2 4710   2.245   3.955   4.353
 1271SOL     OW 4711   3.388   1.752   3.448
 1271SOL    HW1 4712   3.378   1.728   3.545
 1271SOL    HW2 4713   3.301   1.785   3.412
 1272SOL     OW 4714   6.909   6.151   1.160
 1272SOL    HW1 4715   6.833   6.211   1.180
 1272SOL    HW2 4716   6.990   6.181   1.210
 1273SOL     OW 4717   1.818   4.187   0.003
 1273SOL    HW1 4718   1.863   4.247   6.959
 1273SOL    HW2 4719   1.818   4.233   0.092
 1274SOL     OW 4720   6.573   3.106   1.839
 1274SOL    HW1 4721   6.661   3.113   1.793
 1274SOL    HW2 4722   6.499   3.125   1.774
 1275SOL     OW 4723   3.938   0.189   3.464
 1275SOL    HW1 4724   3.903   0.266   3.411
 1275SOL    HW2 4725   4.029   0.164   3.430
 1276SOL     OW 4726   6.915   0.549   3.426
 1276SOL    HW1 4727   6.989   0.568   3.361
 1276SOL    HW2 4728   6.922   0.612   3.504
 1277SOL     OW 4729   0.141   0.252   4.704
 1277SOL    HW1 4730   0.226   0.199   4.694
 1277SOL    HW2 4731   0.066   0.190   4.729
 1278SOL     OW 4732   1.532   1.136   5.401
 1278SOL    HW1 4733   1.539   1.228   5.361
 1278SOL    HW2 4734   1.622   1.108   5.434
 1279SOL     OW 4735   2.278   6.813   0.430
 1279SOL    HW1 4736   2.251   6.904   0.399
 1279SOL    HW2 4737   2.360   6.783   0.380
 1280SOL     OW 4738   2.510   6.212   3.606
 1280SOL    HW1 4739   2.469   6.283   3.549
 1280SOL    HW2 4740   2.599   6.244   3.639
 1281SOL     OW 4741   0.740   5.710   2.925
 1281SOL    HW1 4742   0.783   5.655   2.996
 1281SOL    HW2 4743   0.804   5.780   2.893
 1282SOL     OW 4744   0.634   1.205   0.387
 1282SOL    HW1 4745   0.718   1.243   0.349
 1282SOL    HW2 4746   0.584   1.157   0.315
 1283SOL     OW 4747   5.367   2.477   5.005
 1283SOL    HW1 4748   5.389   2.435   5.093
 1283SOL    HW2 4749   5.302   2.419   4.955
 1284SOL     OW 4750   3.695   3.640   1.557
 1284SOL    HW1 4751   3.695   3.541   1.563
 1284SOL    HW2 4752   3.758   3.670   1.485
 1285SOL     OW 4753   5.777   3.549   6.444
 1285SOL    HW1 4754   5.829   3.620   6.396
 1285SOL    HW2 4755   5.717   3.591   6.512
 1286SOL     OW 4756   5.038   4.507   2.628
 1286SOL    HW1 4757   4.961   4.473   2.683
 1286SOL    HW2 4758   5.004   4.539   2.540
 1287SOL     OW 4759   5.034   4.033   6.085
 1287SOL    HW1 4760   5.066   3.986   6.002
 1287SOL    HW2 4761   4.949   3.991   6.116
 1288SOL     OW 4762   6.341   3.632   0.997
 1288SOL    HW1 4763   6.279   3.676   1.062
 1288SOL    HW2 4764   6.428   3.611   1.042
 1289SOL     OW 4765   0.367   6.237   1.895
 1289SOL    HW1 4766   0.432   6.180   1.945
 1289SOL    HW2 4767   0.282   6.187   1.882
 1290SOL     OW 4768   0.977   0.634   0.243
 1290SOL    HW1 4769   1.047   0.629   0.171
 1290SOL    HW2 4770   0.899   0.687   0.210
 1291SOL     OW 4771   0.670   3.743   5.708
 1291SOL    HW1 4772   0.589   3.718   5.760
 1291SOL    HW2 4773   0.712   3.661   5.669
 1292SOL     OW 4774   6.287   5.083   2.418
 1292SOL    HW1 4775   6.367   5.142   2.412
 1292SOL    HW2 4776   6.300   5.003   2.358
 1293SOL     OW 4777   2.391   1.301   6.456
 1293SOL    HW1 4778   2.467   1.251   6.414
 1293SOL    HW2 4779   2.321   1.236   6.485
 1294SOL     OW 4780   0.963   3.445   0.985
 1294SOL    HW1 4781   0.982   3.534   1.027
 1294SOL    HW2 4782   1.029   3.378   1.017
 1295SOL     OW 4783   6.432   3.726   2.526
 1295SOL    HW1 4784   6.370   3.716   2.448
 1295SOL    HW2 4785   6.406   3.807   2.579
 1296SOL     OW 4786   4.039   0.266   5.330
 1296SOL    HW1 4787   4.090   0.306   5.254
 1296SOL    HW2 4788   4.100   0.209   5.385
 1297SOL     OW 4789   6.009   0.630   6.129
 1297SOL    HW1 4790   6.028   0.708   6.188
 1297SOL    HW2 4791   6.081   0.561   6.140
 1298SOL     OW 4792   6.359   3.631   3.217
 1298SOL    HW1 4793   6.315   3.555   3.169
 1298SOL    HW2 4794   6.454   3.638   3.185
 1299SOL     OW 4795   0.805   3.700   2.664
 1299SOL    HW1 4796   0.852   3.612   2.657
 1299SOL    HW2 4797   0.861   3.771   2.622
 1300SOL     OW 4798   3.467   4.071   2.050
 1300SOL    HW1 4799   3.422   4.060   2.139
 1300SOL    HW2 4800   3.400   4.057   1.977
 1301SOL     OW 4801   0.518   6.174   2.638
 1301SOL    HW1 4802   0.577   6.095   2.623
 1301SOL    HW2 4803   0.552   6.252   2.586
 1302SOL     OW 4804   3.049   0.065   4.887
 1302SOL    HW1 4805   2.958   0.023   4.888
 1302SOL    HW2 4806   3.063   0.116   4.971
 1303SOL     OW 4807   4.604   2.082   0.736
 1303SOL    HW1 4808   4.623   2.066   0.833
 1303SOL    HW2 4809   4.537   2.156   0.727
 1304SOL     OW 4810   1.533   1.381   6.608
 1304SOL    HW1 4811   1.543   1.393   6.510
 1304SOL    HW2 4812   1.496   1.290   6.628
 1305SOL     OW 4813   5.617   4.959   6.648
 1305SOL    HW1 4814   5.523   4.981   6.621
 1305SOL    HW2 4815   5.637   5.003   6.736
 1306SOL     OW 4816   0.936   4.493   5.251
 1306SOL    HW1 4817   1.014   4.545   5.284
 1306SOL    HW2 4818   0.929   4.503   5.152
 1307SOL     OW 4819   1.567   2.430   4.800
 1307SOL    HW1 4820   1.540   2.366   4.729
 1307SOL    HW2 4821   1.518   2.408   4.885
 1308SOL     OW 4822   4.388   5.380   4.494
 1308SOL    HW1 4823   4.344   5.308   4.546
 1308SOL    HW2 4824   4.448   5.433   4.554
 1309SOL     OW 4825   5.495   3.225   5.644
 1309SOL    HW1 4826   5.566   3.162   5.612
 1309SOL    HW2 4827   5.487   3.302   5.581
 1310SOL     OW 4828   6.760   3.970   4.938
 1310SOL    HW1 4829   6.854   4.003   4.931
 1310SOL    HW2 4830   6.759   3.883   4.987
 1311SOL     OW 4831   6.492   6.539   4.107
 1311SOL    HW1 4832   6.519   6.559   4.201
 1311SOL    HW2 4833   6.468   6.442   4.100
 1312SOL     OW 4834   0.942   0.439   6.477
 1312SOL    HW1 4835   0.859   0.492   6.459
 1312SOL    HW2 4836   0.920   0.342   6.472
 1313SOL     OW 4837   1.494   4.925   5.259
 1313SOL    HW1 4838   1.560   4.923   5.184
 1313SOL    HW2 4839   1.542   4.945   5.345
 1314SOL     OW 4840   2.587   1.925   5.691
 1314SOL    HW1 4841   2.531   1.946   5.611
 1314SOL    HW2 4842   2.543   1.850   5.742
 1315SOL     OW 4843   0.746   0.773   0.163
 1315SOL    HW1 4844   0.713   0.743   0.074
 1315SOL    HW2 4845   0.776   0.869   0.157
 1316SOL     OW 4846   2.139   6.945   3.722
 1316SOL    HW1 4847   2.054   6.995   3.708
 1316SOL    HW2 4848   2.138   6.901   3.812
 1317SOL     OW 4849   0.895   3.863   4.550
 1317SOL    HW1 4850   0.928   3.794   4.485
 1317SOL    HW2 4851   0.851   3.818   4.628
 1318SOL     OW 4852   6.681   0.478   0.441
 1318SOL    HW1 4853   6.654   0.502   0.534
 1318SOL    HW2 4854   6.601   0.445   0.391
 1319SOL     OW 4855   6.413   1.462   7.017
 1319SOL    HW1 4856   6.321   1.433   0.021
 1319SOL    HW2 4857   6.416   1.562   7.016
 1320SOL     OW 4858   6.235   3.844   0.519
 1320SOL    HW1 4859   6.296   3.920   0.539
 1320SOL    HW2 4860   6.289   3.765   0.489
 1321SOL     OW 4861   4.365   2.524   6.221
 1321SOL    HW1 4862   4.362   2.475   6.308
 1321SOL    HW2 4863   4.277   2.569   6.205
 1322SOL     OW 4864   5.324   0.983   3.415
 1322SOL    HW1 4865   5.333   1.007   3.511
 1322SOL    HW2 4866   5.228   0.986   3.388
 1323SOL     OW 4867   5.509   1.671   5.276
 1323SOL    HW1 4868   5.518   1.747   5.211
 1323SOL    HW2 4869   5.534   1.585   5.232
 1324SOL     OW 4870   1.036   2.988   1.842
 1324SOL    HW1 4871   1.026   3.078   1.884
 1324SOL    HW2 4872   1.130   2.956   1.855
 1325SOL     OW 4873   2.014   0.079   2.269
 1325SOL    HW1 4874   2.066   7.020   2.291
 1325SOL    HW2 4875   2.036   0.150   2.336
 1326SOL     OW 4876   5.239   2.998   4.808
 1326SOL    HW1 4877   5.338   2.981   4.815
 1326SOL    HW2 4878   5.221   3.096   4.816
 1327SOL     OW 4879   3.080   4.843   3.049
 1327SOL    HW1 4880   3.055   4.843   2.952
 1327SOL    HW2 4881   3.179   4.846   3.058
 1328SOL     OW 4882   1.249   2.657   1.150
 1328SOL    HW1 4883   1.210   2.623   1.236
 1328SOL    HW2 4884   1.176   2.694   1.093
 1329SOL     OW 4885   6.944   2.062   0.235
 1329SOL    HW1 4886   6.911   2.084   0.327
 1329SOL    HW2 4887   0.021   2.064   0.234
 1330SOL     OW 4888   6.287   1.239   1.191
 1330SOL    HW1 4889   6.265   1.170   1.121
 1330SOL    HW2 4890   6.372   1.213   1.237
 1331SOL     OW 4891   4.537   2.048   3.002
 1331SOL    HW1 4892   4.600   2.048   3.080
 1331SOL    HW2 4893   4.468   1.976   3.015
 1332SOL     OW 4894   3.691   0.010   0.083
 1332SOL    HW1 4895   3.773   6.976   0.082
 1332SOL    HW2 4896   3.702   0.086   0.019
 1333SOL     OW 4897   3.762   3.365   5.946
 1333SOL    HW1 4898   3.689   3.432   5.932
 1333SOL    HW2 4899   3.833   3.378   5.877
 1334SOL     OW 4900   0.055   2.428   4.830
 1334SOL    HW1 4901   0.054   2.397   4.735
 1334SOL    HW2 4902   7.014   2.504   4.841
 1335SOL     OW 4903   2.922   6.772   3.083
 1335SOL    HW1 4904   2.899   6.838   3.155
 1335SOL    HW2 4905   2.880   6.802   2.997
 1336SOL     OW 4906   1.546   1.457   6.337
 1336SOL    HW1 4907   1.633   1.466   6.289
 1336SOL    HW2 4908   1.476   1.422   6.274
 1337SOL     OW 4909   0.709   1.583   4.965
 1337SOL    HW1 4910   0.676   1.519   4.895
 1337SOL    HW2 4911   0.718   1.674   4.926
 1338SOL     OW 4912   4.626   2.958   5.740
 1338SOL    HW1 4913   4.690   2.885   5.764
 1338SOL    HW2 4914   4.545   2.952   5.798
 1339SOL     OW 4915   0.489   6.784   0.395
 1339SOL    HW1 4916   0.543   6.735   0.326
 1339SOL    HW2 4917   0.406   6.732   0.416
 1340SOL     OW 4918   0.984   1.217   2.151
 1340SOL    HW1 4919   0.923   1.171   2.086
 1340SOL    HW2 4920   0.985   1.315   2.133
 1341SOL     OW 4921   4.165   0.098   5.896
 1341SOL    HW1 4922   4.244   0.139   5.941
 1341SOL    HW2 4923   4.168   7.022   5.909
 1342SOL     OW 4924   1.623   4.761   6.047
 1342SOL    HW1 4925   1.650   4.690   5.982
 1342SOL    HW2 4926   1.569   4.720   6.120
 1343SOL     OW 4927   3.686   6.152   2.417
 1343SOL    HW1 4928   3.652   6.217   2.486
 1343SOL    HW2 4929   3.626   6.156   2.336
 1344SOL     OW 4930   6.896   3.994   3.592
 1344SOL    HW1 4931   6.979   3.988   3.648
 1344SOL    HW2 4932   6.817   3.963   3.646
 1345SOL     OW 4933   1.335   1.862   3.470
 1345SOL    HW1 4934   1.239   1.841   3.449
 1345SOL    HW2 4935   1.352   1.959   3.449
 1346SOL     OW 4936   1.447   0.122   3.219
 1346SOL    HW1 4937   1.541   0.116   3.186
 1346SOL    HW2 4938   1.441   0.194   3.288
 1347SOL     OW 4939   6.332   6.488   3.811
 1347SOL    HW1 4940   6.274   6.570   3.817
 1347SOL    HW2 4941   6.332   6.441   3.899
 1348SOL     OW 4942   5.932   5.779   3.088
 1348SOL    HW1 4943   5.876   5.714   3.139
 1348SOL    HW2 4944   5.967   5.849   3.151
 1349SOL     OW 4945   4.830   2.807   6.183
 1349SOL    HW1 4946   4.911   2.757   6.213
 1349SOL    HW2 4947   4.838   2.903   6.207
 1350SOL     OW 4948   3.844   4.579   0.147
 1350SOL    HW1 4949   3.828   4.503   0.083
 1350SOL    HW2 4950   3.843   4.665   0.096
 1351SOL     OW 4951   0.300   1.972   2.842
 1351SOL    HW1 4952   0.343   1.891   2.802
 1351SOL    HW2 4953   0.354   2.053   2.820
 1352SOL     OW 4954   0.592   1.003   3.046
 1352SOL    HW1 4955   0.568   0.979   3.140
 1352SOL    HW2 4956   0.546   0.941   2.982
 1353SOL     OW 4957   6.407   4.153   6.039
 1353SOL    HW1 4958   6.401   4.197   5.950
 1353SOL    HW2 4959   6.379   4.057   6.032
 1354SOL     OW 4960   0.215   2.099   0.314
 1354SOL    HW1 4961   0.263   2.111   0.227
 1354SOL    HW2 4962   0.211   2.186   0.362
 1355SOL     OW 4963   5.769   2.865   5.785
 1355SOL    HW1 4964   5.768   2.867   5.885
 1355SOL    HW2 4965   5.784   2.772   5.754
 1356SOL     OW 4966   3.126   3.544   3.927
 1356SOL    HW1 4967   3.088   3.592   4.007
 1356SOL    HW2 4968   3.069   3.562   3.848
 1357SOL     OW 4969   2.003   3.891   5.550
 1357SOL    HW1 4970   1.970   3.798   5.534
 1357SOL    HW2 4971   2.103   3.893   5.544
 1358SOL     OW 4972   3.646   1.393   5.952
 1358SOL    HW1 4973   3.672   1.375   6.047
 1358SOL    HW2 4974   3.706   1.342   5.891
 1359SOL     OW 4975   6.765   4.964   1.355
 1359SOL    HW1 4976   6.692   5.018   1.397
 1359SOL    HW2 4977   6.737   4.934   1.264
 1360SOL     OW 4978   3.990   3.808   2.534
 1360SOL    HW1 4979   4.052   3.754   2.591
 1360SOL    HW2 4980   3.960   3.888   2.585
 1361SOL     OW 4981   6.829   6.827   6.137
 1361SOL    HW1 4982   6.778   6.913   6.150
 1361SOL    HW2 4983   6.807   6.788   6.048
 1362SOL     OW 4984   2.976   3.882   4.315
 1362SOL    HW1 4985   2.948   3.878   4.411
 1362SOL    HW2 4986   2.972   3.790   4.275
 1363SOL     OW 4987   6.433   6.074   3.604
 1363SOL    HW1 4988   6.519   6.116   3.576
 1363SOL    HW2 4989   6.416   5.992   3.549
 1364SOL     OW 4990   0.437   2.280   0.134
 1364SOL    HW1 4991   0.470   2.197   0.089
 1364SOL    HW2 4992   0.501   2.355   0.116
 1365SOL     OW 4993   0.773   3.504   5.643
 1365SOL    HW1 4994   0.717   3.479   5.564
 1365SOL    HW2 4995   0.833   3.428   5.667
 1366SOL     OW 4996   0.296   4.261   1.156
 1366SOL    HW1 4997   0.208   4.224   1.186
 1366SOL    HW2 4998   0.366   4.238   1.223
 1367SOL     OW 4999   1.107   5.626   2.633
 1367SOL    HW1 5000   1.182   5.671   2.583
 1367SOL    HW2 5001   1.093   5.672   2.721
 1368SOL     OW 5002   0.152   0.872   4.080
 1368SOL    HW1 5003   0.081   0.941   4.061
 1368SOL    HW2 5004   0.160   0.858   4.178
 1369SOL     OW 5005   2.560   6.724   2.518
 1369SOL    HW1 5006   2.583   6.636   2.477
 1369SOL    HW2 5007   2.643   6.768   2.553
 1370SOL     OW 5008   5.600   2.267   3.967
 1370SOL    HW1 5009   5.568   2.304   4.054
 1370SOL    HW2 5010   5.543   2.302   3.893
 1371SOL     OW 5011   4.733   1.699   4.859
 1371SOL    HW1 5012   4.722   1.790   4.900
 1371SOL    HW2 5013   4.801   1.647   4.911
 1372SOL     OW 5014   0.500   2.327   0.778
 1372SOL    HW1 5015   0.478   2.234   0.806
 1372SOL    HW2 5016   0.565   2.367   0.843
 1373SOL     OW 5017   4.683   2.278   0.073
 1373SOL    HW1 5018   4.711   2.255   0.166
 1373SOL    HW2 5019   4.595   2.235   0.053
 1374SOL     OW 5020   4.925   3.840   0.394
 1374SOL    HW1 5021   4.949   3.768   0.329
 1374SOL    HW2 5022   4.946   3.809   0.487
 1375SOL     OW 5023   0.346   0.007   6.868
 1375SOL    HW1 5024   0.279   6.957   6.880
 1375SOL    HW2 5025   0.298   0.091   6.842
 1376SOL     OW 5026   3.566   4.756   5.615
 1376SOL    HW1 5027   3.530   4.781   5.525
 1376SOL    HW2 5028   3.609   4.836   5.657
 1377SOL     OW 5029   1.165   3.553   3.538
 1377SOL    HW1 5030   1.135   3.638   3.581
 1377SOL    HW2 5031   1.092   3.518   3.479
 1378SOL     OW 5032   5.475   2.604   5.643
 1378SOL    HW1 5033   5.433   2.533   5.587
 1378SOL    HW2 5034   5.504   2.565   5.730
 1379SOL     OW 5035   4.106   5.689   3.409
 1379SOL    HW1 5036   4.203   5.674   3.389
 1379SOL    HW2 5037   4.080   5.639   3.492
 1380SOL     OW 5038   0.180   6.012   3.392
 1380SOL    HW1 5039   0.247   6.072   3.435
 1380SOL    HW2 5040   0.137   5.955   3.461
 1381SOL     OW 5041   5.566   1.847   7.010
 1381SOL    HW1 5042   5.558   1.825   0.084
 1381SOL    HW2 5043   5.582   1.945   6.999
 1382SOL     OW 5044   5.142   3.167   1.116
 1382SOL    HW1 5045   5.079   3.134   1.186
 1382SOL    HW2 5046   5.095   3.229   1.054
 1383SOL     OW 5047   0.955   0.360   1.558
 1383SOL    HW1 5048   1.004   0.402   1.634
 1383SOL    HW2 5049   0.871   0.317   1.591
 1384SOL     OW 5050   4.698   6.822   2.293
 1384SOL    HW1 5051   4.771   6.808   2.227
 1384SOL    HW2 5052   4.737   6.849   2.381
 1385SOL     OW 5053   2.878   4.887   3.881
 1385SOL    HW1 5054   2.892   4.873   3.783
 1385SOL    HW2 5055   2.966   4.894   3.926
 1386SOL     OW 5056   3.179   0.715   3.824
 1386SOL    HW1 5057   3.116   0.653   3.872
 1386SOL    HW2 5058   3.152   0.809   3.842
 1387SOL     OW 5059   3.798   5.631   3.095
 1387SOL    HW1 5060   3.729   5.574   3.049
 1387SOL    HW2 5061   3.881   5.577   3.109
 1388SOL     OW 5062   6.491   0.228   1.952
 1388SOL    HW1 5063   6.511   0.304   2.013
 1388SOL    HW2 5064   6.575   0.177   1.933
 1389SOL     OW 5065   6.376   0.919   4.263
 1389SOL    HW1 5066   6.384   0.832   4.214
 1389SOL    HW2 5067   6.313   0.979   4.215
 1390SOL     OW 5068   0.096   3.838   6.810
 1390SOL    HW1 5069   0.174   3.776   6.819
 1390SOL    HW2 5070   0.103   3.912   6.876
 1391SOL     OW 5071   6.405   6.542   4.936
 1391SOL    HW1 5072   6.422   6.501   5.026
 1391SOL    HW2 5073   6.492   6.559   4.891
 1392SOL     OW 5074   5.661   6.183   5.870
 1392SOL    HW1 5075   5.572   6.138   5.864
 1392SOL    HW2 5076   5.685   6.196   5.966
 1393SOL     OW 5077   6.537   4.922   5.063
 1393SOL    HW1 5078   6.531   4.823   5.058
 1393SOL    HW2 5079   6.554   4.949   5.158
 1394SOL     OW 5080   3.670   4.899   5.964
 1394SOL    HW1 5081   3.630   4.947   5.887
 1394SOL    HW2 5082   3.598   4.871   6.027
 1395SOL     OW 5083   2.544   4.347   5.560
 1395SOL    HW1 5084   2.546   4.275   5.490
 1395SOL    HW2 5085   2.621   4.409   5.547
 1396SOL     OW 5086   0.929   1.154   5.071
 1396SOL    HW1 5087   0.863   1.203   5.127
 1396SOL    HW2 5088   0.951   1.208   4.990
 1397SOL     OW 5089   0.183   0.070   3.689
 1397SOL    HW1 5090   0.091   0.037   3.670
 1397SOL    HW2 5091   0.250   7.023   3.665
 1398SOL     OW 5092   3.101   0.574   6.583
 1398SOL    HW1 5093   3.071   0.624   6.664
 1398SOL    HW2 5094   3.059   0.614   6.502
 1399SOL     OW 5095   3.804   5.465   0.326
 1399SOL    HW1 5096   3.784   5.368   0.310
 1399SOL    HW2 5097   3.883   5.492   0.271
 1400SOL     OW 5098   0.505   1.913   3.297
 1400SOL    HW1 5099   0.414   1.877   3.318
 1400SOL    HW2 5100   0.567   1.890   3.372
 1401SOL     OW 5101   6.159   0.757   4.854
 1401SOL    HW1 5102   6.125   0.714   4.938
 1401SOL    HW2 5103   6.236   0.816   4.876
 1402SOL     OW 5104   6.659   3.777   6.291
 1402SOL    HW1 5105   6.570   3.820   6.307
 1402SOL    HW2 5106   6.648   3.698   6.231
 1403SOL     OW 5107   2.548   2.596   1.459
 1403SOL    HW1 5108   2.604   2.669   1.420
 1403SOL    HW2 5109   2.466   2.636   1.500
 1404SOL     OW 5110   6.308   6.858   0.739
 1404SOL    HW1 5111   6.314   6.958   0.736
 1404SOL    HW2 5112   6.212   6.830   0.737
 1405SOL     OW 5113   2.632   3.496   1.009
 1405SOL    HW1 5114   2.568   3.420   1.005
 1405SOL    HW2 5115   2.633   3.535   1.101
 1406SOL     OW 5116   0.567   5.504   0.671
 1406SOL    HW1 5117   0.593   5.595   0.638
 1406SOL    HW2 5118   0.540   5.510   0.768
 1407SOL     OW 5119   0.150   2.803   2.424
 1407SOL    HW1 5120   0.191   2.838   2.508
 1407SOL    HW2 5121   0.215   2.741   2.379
 1408SOL     OW 5122   5.602   1.241   6.189
 1408SOL    HW1 5123   5.629   1.335   6.207
 1408SOL    HW2 5124   5.672   1.178   6.223
 1409SOL     OW 5125   6.943   0.229   5.096
 1409SOL    HW1 5126   6.984   0.274   5.176
 1409SOL    HW2 5127   6.953   0.288   5.016
 1410SOL     OW 5128   1.200   3.475   6.466
 1410SOL    HW1 5129   1.108   3.487   6.504
 1410SOL    HW2 5130   1.248   3.562   6.468
 1411SOL     OW 5131   3.459   6.754   1.084
 1411SOL    HW1 5132   3.467   6.677   1.021
 1411SOL    HW2 5133   3.374   6.804   1.066
 1412SOL     OW 5134   0.674   2.341   0.992
 1412SOL    HW1 5135   0.689   2.243   1.007
 1412SOL    HW2 5136   0.758   2.391   1.011
 1413SOL     OW 5137   1.298   2.006   5.541
 1413SOL    HW1 5138   1.379   2.009   5.600
 1413SOL    HW2 5139   1.215   2.006   5.597
 1414SOL     OW 5140   2.798   1.493   1.716
 1414SOL    HW1 5141   2.748   1.577   1.733
 1414SOL    HW2 5142   2.895   1.507   1.738
 1415SOL     OW 5143   2.388   1.382   4.420
 1415SOL    HW1 5144   2.288   1.388   4.414
 1415SOL    HW2 5145   2.429   1.463   4.378
 1416SOL     OW 5146   5.302   5.421   4.581
 1416SOL    HW1 5147   5.349   5.373   4.507
 1416SOL    HW2 5148   5.277   5.513   4.551
 1417SOL     OW 5149   3.052   2.072   0.367
 1417SOL    HW1 5150   3.066   2.169   0.349
 1417SOL    HW2 5151   2.954   2.051   0.365
 1418SOL     OW 5152   3.352   3.990   3.068
 1418SOL    HW1 5153   3.353   3.894   3.042
 1418SOL    HW2 5154   3.324   4.046   2.990
 1419SOL     OW 5155   2.746   5.973   4.742
 1419SOL    HW1 5156   2.671   5.985   4.807
 1419SOL    HW2 5157   2.730   6.030   4.662
 1420SOL     OW 5158   2.680   6.710   1.737
 1420SOL    HW1 5159   2.678   6.625   1.791
 1420SOL    HW2 5160   2.664   6.787   1.798
 1421SOL     OW 5161   2.314   4.925   3.697
 1421SOL    HW1 5162   2.250   4.999   3.717
 1421SOL    HW2 5163   2.370   4.949   3.618
 1422SOL     OW 5164   1.275   3.958   0.705
 1422SOL    HW1 5165   1.258   3.998   0.615
 1422SOL    HW2 5166   1.371   3.974   0.731
 1423SOL     OW 5167   5.288   6.689   3.490
 1423SOL    HW1 5168   5.381   6.657   3.505
 1423SOL    HW2 5169   5.229   6.657   3.564
 1424SOL     OW 5170   6.387   5.058   6.141
 1424SOL    HW1 5171   6.301   5.008   6.147
 1424SOL    HW2 5172   6.418   5.063   6.046
 1425SOL     OW 5173   1.691   5.524   5.171
 1425SOL    HW1 5174   1.695   5.439   5.117
 1425SOL    HW2 5175   1.596   5.549   5.186
 1426SOL     OW 5176   1.743   3.880   6.219
 1426SOL    HW1 5177   1.779   3.891   6.127
 1426SOL    HW2 5178   1.817   3.854   6.281
 1427SOL     OW 5179   0.432   0.132   3.376
 1427SOL    HW1 5180   0.414   0.035   3.360
 1427SOL    HW2 5181   0.347   0.180   3.397
 1428SOL     OW 5182   6.729   3.640   0.226
 1428SOL    HW1 5183   6.670   3.720   0.232
 1428SOL    HW2 5184   6.695   3.569   0.288
 1429SOL     OW 5185   4.261   1.802   6.763
 1429SOL    HW1 5186   4.351   1.823   6.800
 1429SOL    HW2 5187   4.265   1.717   6.710
 1430SOL     OW 5188   1.424   4.881   3.473
 1430SOL    HW1 5189   1.463   4.871   3.564
 1430SOL    HW2 5190   1.326   4.858   3.475
 1431SOL     OW 5191   2.570   2.071   0.819
 1431SOL    HW1 5192   2.663   2.100   0.838
 1431SOL    HW2 5193   2.551   2.079   0.721
 1432SOL     OW 5194   2.315   1.631   2.306
 1432SOL    HW1 5195   2.311   1.575   2.389
 1432SOL    HW2 5196   2.312   1.728   2.331
 1433SOL     OW 5197   4.546   0.909   5.058
 1433SOL    HW1 5198   4.637   0.872   5.076
 1433SOL    HW2 5199   4.542   1.004   5.090
 1434SOL     OW 5200   0.407   0.005   5.698
 1434SOL    HW1 5201   0.396   6.953   5.633
 1434SOL    HW2 5202   0.413   6.992   5.791
 1435SOL     OW 5203   6.410   0.120   2.916
 1435SOL    HW1 5204   6.419   0.051   2.987
 1435SOL    HW2 5205   6.501   0.155   2.892
 1436SOL     OW 5206   5.223   4.057   6.615
 1436SOL    HW1 5207   5.191   4.072   6.522
 1436SOL    HW2 5208   5.149   4.019   6.670
 1437SOL     OW 5209   2.987   2.076   4.258
 1437SOL    HW1 5210   2.945   1.993   4.220
 1437SOL    HW2 5211   2.980   2.150   4.192
 1438SOL     OW 5212   2.501   6.238   1.156
 1438SOL    HW1 5213   2.480   6.313   1.093
 1438SOL    HW2 5214   2.600   6.229   1.166
 1439SOL     OW 5215   6.456   5.748   1.551
 1439SOL    HW1 5216   6.506   5.785   1.473
 1439SOL    HW2 5217   6.464   5.811   1.628
 1440SOL     OW 5218   3.147   2.823   6.963
 1440SOL    HW1 5219   3.066   2.848   7.017
 1440SOL    HW2 5220   3.118   2.781   6.877
 1441SOL     OW 5221   6.930   0.601   3.950
 1441SOL    HW1 5222   7.000   0.542   3.989
 1441SOL    HW2 5223   6.894   0.560   3.867
 1442SOL     OW 5224   0.475   5.411   6.637
 1442SOL    HW1 5225   0.471   5.434   6.734
 1442SOL    HW2 5226   0.399   5.349   6.615
 1443SOL     OW 5227   0.377   3.175   4.451
 1443SOL    HW1 5228   0.387   3.251   4.515
 1443SOL    HW2 5229   0.465   3.128   4.441
 1444SOL     OW 5230   4.884   5.508   0.558
 1444SOL    HW1 5231   4.813   5.579   0.558
 1444SOL    HW2 5232   4.849   5.427   0.605
 1445SOL     OW 5233   1.412   2.752   3.107
 1445SOL    HW1 5234   1.469   2.833   3.120
 1445SOL    HW2 5235   1.337   2.754   3.173
 1446SOL     OW 5236   6.095   1.746   0.177
 1446SOL    HW1 5237   5.999   1.776   0.178
 1446SOL    HW2 5238   6.149   1.810   0.123
 1447SOL     OW 5239   5.911   6.344   4.270
 1447SOL    HW1 5240   5.955   6.279   4.332
 1447SOL    HW2 5241   5.815   6.320   4.259
 1448SOL     OW 5242   0.093   2.300   5.306
 1448SOL    HW1 5243   0.066   2.347   5.223
 1448SOL    HW2 5244   0.138   2.365   5.368
 1449SOL     OW 5245   1.285   2.590   6.439
 1449SOL    HW1 5246   1.221   2.633   6.376
 1449SOL    HW2 5247   1.362   2.651   6.456
 1450SOL     OW 5248   0.540   2.370   1.230
 1450SOL    HW1 5249   0.478   2.291   1.233
 1450SOL    HW2 5250   0.591   2.369   1.144
 1451SOL     OW 5251   0.809   6.783   2.397
 1451SOL    HW1 5252   0.811   6.805   2.494
 1451SOL    HW2 5253   0.899   6.749   2.369
 1452SOL     OW 5254   4.364   1.770   5.117
 1452SOL    HW1 5255   4.457   1.747   5.088
 1452SOL    HW2 5256   4.301   1.756   5.041
 1453SOL     OW 5257   0.210   3.932   5.964
 1453SOL    HW1 5258   0.290   3.987   5.941
 1453SOL    HW2 5259   0.127   3.983   5.942
 1454SOL     OW 5260   0.590   2.861   2.165
 1454SOL    HW1 5261   0.660   2.792   2.146
 1454SOL    HW2 5262   0.610   2.944   2.113
 1455SOL     OW 5263   1.471   0.288   1.362
 1455SOL    HW1 5264   1.372   0.283   1.374
 1455SOL    HW2 5265   1.506   0.197   1.338
 1456SOL     OW 5266   6.893   6.719   5.873
 1456SOL    HW1 5267   6.900   6.818   5.859
 1456SOL    HW2 5268   6.843   6.678   5.797
 1457SOL     OW 5269   0.425   6.824   1.388
 1457SOL    HW1 5270   0.432   6.733   1.429
 1457SOL    HW2 5271   0.330   6.855   1.392
 1458SOL     OW 5272   5.718   5.215   4.364
 1458SOL    HW1 5273   5.656   5.178   4.295
 1458SOL    HW2 5274   5.770   5.291   4.324
 1459SOL     OW 5275   3.833   6.253   6.122
 1459SOL    HW1 5276   3.923   6.243   6.166
 1459SOL    HW2 5277   3.844   6.242   6.023
 1460SOL     OW 5278   0.235   0.164   5.373
 1460SOL    HW1 5279   0.208   0.084   5.426
 1460SOL    HW2 5280   0.284   0.228   5.432
 1461SOL     OW 5281   6.123   4.135   2.934
 1461SOL    HW1 5282   6.175   4.208   2.978
 1461SOL    HW2 5283   6.087   4.073   3.003
 1462SOL     OW 5284   1.777   1.072   0.138
 1462SOL    HW1 5285   1.796   1.120   0.223
 1462SOL    HW2 5286   1.859   1.072   0.081
 1463SOL     OW 5287   0.452   4.954   6.298
 1463SOL    HW1 5288   0.518   4.880   6.285
 1463SOL    HW2 5289   0.369   4.934   6.246
 1464SOL     OW 5290   0.015   5.969   2.080
 1464SOL    HW1 5291   0.045   6.035   2.148
 1464SOL    HW2 5292   0.042   5.877   2.109
 1465SOL     OW 5293   1.928   0.534   3.715
 1465SOL    HW1 5294   1.835   0.538   3.680
 1465SOL    HW2 5295   1.975   0.620   3.692
 1466SOL     OW 5296   2.462   2.122   1.998
 1466SOL    HW1 5297   2.540   2.060   1.996
 1466SOL    HW2 5298   2.494   2.216   1.985
 1467SOL     OW 5299   1.855   1.466   3.093
 1467SOL    HW1 5300   1.871   1.534   3.021
 1467SOL    HW2 5301   1.868   1.374   3.056
 1468SOL     OW 5302   2.841   5.894   2.791
 1468SOL    HW1 5303   2.812   5.973   2.737
 1468SOL    HW2 5304   2.858   5.817   2.730
 1469SOL     OW 5305   0.444   0.518   2.188
 1469SOL    HW1 5306   0.508   0.576   2.139
 1469SOL    HW2 5307   0.415   0.443   2.128
 1470SOL     OW 5308   1.071   2.018   2.668
 1470SOL    HW1 5309   1.141   1.963   2.623
 1470SOL    HW2 5310   1.068   1.997   2.765
 1471SOL     OW 5311   0.763   0.329   0.814
 1471SOL    HW1 5312   0.740   0.281   0.729
 1471SOL    HW2 5313   0.770   0.427   0.797
 1472SOL     OW 5314   2.530   5.469   5.376
 1472SOL    HW1 5315   2.497   5.506   5.289
 1472SOL    HW2 5316   2.481   5.513   5.451
 1473SOL     OW 5317   3.893   5.232   5.051
 1473SOL    HW1 5318   3.849   5.143   5.036
 1473SOL    HW2 5319   3.845   5.281   5.123
 1474SOL     OW 5320   5.684   5.079   2.105
 1474SOL    HW1 5321   5.687   5.002   2.041
 1474SOL    HW2 5322   5.606   5.068   2.167
 1475SOL     OW 5323   5.473   0.873   1.595
 1475SOL    HW1 5324   5.375   0.862   1.614
 1475SOL    HW2 5325   5.519   0.785   1.604
 1476SOL     OW 5326   3.225   0.932   1.049
 1476SOL    HW1 5327   3.155   0.939   1.120
 1476SOL    HW2 5328   3.189   0.880   0.972
 1477SOL     OW 5329   3.046   6.813   6.051
 1477SOL    HW1 5330   3.119   6.753   6.019
 1477SOL    HW2 5331   3.059   6.832   6.149
 1478SOL     OW 5332   6.193   5.273   5.262
 1478SOL    HW1 5333   6.265   5.334   5.296
 1478SOL    HW2 5334   6.132   5.325   5.203
 1479SOL     OW 5335   1.902   2.466   1.000
 1479SOL    HW1 5336   1.921   2.409   0.920
 1479SOL    HW2 5337   1.874   2.557   0.969
 1480SOL     OW 5338   3.437   0.743   4.972
 1480SOL    HW1 5339   3.479   0.831   4.951
 1480SOL    HW2 5340   3.404   0.743   5.066
 1481SOL     OW 5341   6.204   2.772   6.815
 1481SOL    HW1 5342   6.301   2.778   6.793
 1481SOL    HW2 5343   6.192   2.725   6.903
 1482SOL     OW 5344   4.861   1.382   1.698
 1482SOL    HW1 5345   4.896   1.475   1.703
 1482SOL    HW2 5346   4.892   1.330   1.778
 1483SOL     OW 5347   4.927   2.020   6.214
 1483SOL    HW1 5348   5.004   1.985   6.160
 1483SOL    HW2 5349   4.961   2.057   6.300
 1484SOL     OW 5350   4.995   4.898   4.112
 1484SOL    HW1 5351   4.949   4.911   4.200
 1484SOL    HW2 5352   4.953   4.820   4.064
 1485SOL     OW 5353   3.607   0.936   4.268
 1485SOL    HW1 5354   3.526   0.975   4.225
 1485SOL    HW2 5355   3.636   0.994   4.345
 1486SOL     OW 5356   5.861   0.764   2.712
 1486SOL    HW1 5357   5.943   0.809   2.676
 1486SOL    HW2 5358   5.805   0.730   2.636
 1487SOL     OW 5359   0.321   2.289   6.781
 1487SOL    HW1 5360   0.285   2.325   6.867
 1487SOL    HW2 5361   0.420   2.299   6.779
 1488SOL     OW 5362   5.928   0.264   3.898
 1488SOL    HW1 5363   5.829   0.263   3.913
 1488SOL    HW2 5364   5.952   0.337   3.834
 1489SOL     OW 5365   4.239   4.463   6.003
 1489SOL    HW1 5366   4.277   4.539   5.950
 1489SOL    HW2 5367   4.217   4.495   6.095
 1490SOL     OW 5368   0.940   3.397   1.397
 1490SOL    HW1 5369   1.000   3.325   1.361
 1490SOL    HW2 5370   0.895   3.366   1.480
 1491SOL     OW 5371   5.855   4.803   2.666
 1491SOL    HW1 5372   5.818   4.711   2.669
 1491SOL    HW2 5373   5.840   4.842   2.575
 1492SOL     OW 5374   6.285   0.682   2.396
 1492SOL    HW1 5375   6.347   0.737   2.451
 1492SOL    HW2 5376   6.338   0.620   2.337
 1493SOL     OW 5377   3.761   6.650   6.100
 1493SOL    HW1 5378   3.854   6.621   6.078
 1493SOL    HW2 5379   3.755   6.749   6.097
 1494SOL     OW 5380   5.111   2.069   6.442
 1494SOL    HW1 5381   5.090   2.085   6.538
 1494SOL    HW2 5382   5.131   1.971   6.428
 1495SOL     OW 5383   0.596   3.451   5.443
 1495SOL    HW1 5384   0.595   3.380   5.373
 1495SOL    HW2 5385   0.504   3.487   5.454
 1496SOL     OW 5386   0.387   1.686   1.366
 1496SOL    HW1 5387   0.419   1.667   1.274
 1496SOL    HW2 5388   0.466   1.700   1.426
 1497SOL     OW 5389   5.150   3.228   2.516
 1497SOL    HW1 5390   5.201   3.188   2.592
 1497SOL    HW2 5391   5.055   3.244   2.544
 1498SOL     OW 5392   2.860   4.743   6.605
 1498SOL    HW1 5393   2.847   4.650   6.570
 1498SOL    HW2 5394   2.871   4.806   6.528
 1499SOL     OW 5395   0.883   2.330   5.245
 1499SOL    HW1 5396   0.891   2.337   5.344
 1499SOL    HW2 5397   0.832   2.247   5.221
 1500SOL     OW 5398   6.824   0.160   0.348
 1500SOL    HW1 5399   6.865   0.248   0.372
 1500SOL    HW2 5400   6.895   0.097   0.316
 1501SOL     OW 5401   4.985   2.373   6.750
 1501SOL    HW1 5402   5.029   2.286   6.727
 1501SOL    HW2 5403   5.040   2.422   6.818
 1502SOL     OW 5404   4.406   0.482   6.979
 1502SOL    HW1 5405   4.479   0.536   6.939
 1502SOL    HW2 5406   4.420   0.385   6.957
 1503SOL     OW 5407   1.099   2.557   1.911
 1503SOL    HW1 5408   1.029   2.547   1.982
 1503SOL    HW2 5409   1.153   2.473   1.906
 1504SOL     OW 5410   0.341   0.223   4.358
 1504SOL    HW1 5411   0.395   0.139   4.354
 1504SOL    HW2 5412   0.247   0.201   4.385
 1505SOL     OW 5413   4.707   0.152   4.855
 1505SOL    HW1 5414   4.753   0.090   4.791
 1505SOL    HW2 5415   4.757   0.154   4.941
 1506SOL     OW 5416   0.895   6.292   6.969
 1506SOL    HW1 5417   0.832   6.359   7.008
 1506SOL    HW2 5418   0.843   6.227   6.912
 1507SOL     OW 5419   0.135   1.787   6.079
 1507SOL    HW1 5420   0.177   1.747   6.160
 1507SOL    HW2 5421   0.154   1.729   6.000
 1508SOL     OW 5422   6.618   1.564   1.285
 1508SOL    HW1 5423   6.640   1.497   1.356
 1508SOL    HW2 5424   6.580   1.516   1.206
 1509SOL     OW 5425   3.843   1.573   4.927
 1509SOL    HW1 5426   3.794   1.547   5.010
 1509SOL    HW2 5427   3.872   1.669   4.933
 1510SOL     OW 5428   4.707   1.190   4.730
 1510SOL    HW1 5429   4.677   1.099   4.702
 1510SOL    HW2 5430   4.633   1.256   4.716
 1511SOL     OW 5431   4.135   3.456   3.708
 1511SOL    HW1 5432   4.150   3.393   3.784
 1511SOL    HW2 5433   4.155   3.409   3.622
 1512SOL     OW 5434   0.022   5.359   0.762
 1512SOL    HW1 5435   0.029   5.341   0.664
 1512SOL    HW2 5436   6.953   5.390   0.784
 1513SOL     OW 5437   3.951   0.491   4.770
 1513SOL    HW1 5438   3.980   0.424   4.839
 1513SOL    HW2 5439   3.885   0.555   4.810
 1514SOL     OW 5440   3.677   2.404   5.326
 1514SOL    HW1 5441   3.775   2.417   5.343
 1514SOL    HW2 5442   3.638   2.491   5.296
 1515SOL     OW 5443   5.447   1.926   2.449
 1515SOL    HW1 5444   5.398   2.003   2.408
 1515SOL    HW2 5445   5.466   1.858   2.378
 1516SOL     OW 5446   6.659   5.833   6.263
 1516SOL    HW1 5447   6.690   5.740   6.281
 1516SOL    HW2 5448   6.702   5.896   6.328
 1517SOL     OW 5449   4.382   6.078   2.975
 1517SOL    HW1 5450   4.417   6.075   2.881
 1517SOL    HW2 5451   4.313   6.006   2.987
 1518SOL     OW 5452   0.245   2.661   0.551
 1518SOL    HW1 5453   0.280   2.745   0.593
 1518SOL    HW2 5454   0.315   2.590   0.557
 1519SOL     OW 5455   6.892   4.978   1.794
 1519SOL    HW1 5456   6.843   5.053   1.749
 1519SOL    HW2 5457   6.826   4.912   1.830
 1520SOL     OW 5458   0.683   4.357   1.707
 1520SOL    HW1 5459   0.606   4.394   1.655
 1520SOL    HW2 5460   0.711   4.270   1.668
 1521SOL     OW 5461   1.849   4.159   6.446
 1521SOL    HW1 5462   1.762   4.109   6.450
 1521SOL    HW2 5463   1.883   4.173   6.539
 1522SOL     OW 5464   5.681   5.888   4.935
 1522SOL    HW1 5465   5.681   5.944   5.018
 1522SOL    HW2 5466   5.744   5.926   4.868
 1523SOL     OW 5467   4.330   6.013   0.114
 1523SOL    HW1 5468   4.426   6.024   0.088
 1523SOL    HW2 5469   4.296   6.097   0.156
 1524SOL     OW 5470   2.349   1.799   2.815
 1524SOL    HW1 5471   2.396   1.812   2.903
 1524SOL    HW2 5472   2.417   1.790   2.742
 1525SOL     OW 5473   6.494   3.724   0.672
 1525SOL    HW1 5474   6.480   3.681   0.583
 1525SOL    HW2 5475   6.584   3.698   0.708
 1526SOL     OW 5476   6.915   1.081   6.770
 1526SOL    HW1 5477   6.883   1.164   6.817
 1526SOL    HW2 5478   6.847   1.009   6.779
 1527SOL     OW 5479   4.426   1.189   4.942
 1527SOL    HW1 5480   4.448   1.257   5.011
 1527SOL    HW2 5481   4.337   1.148   4.962
 1528SOL     OW 5482   3.958   4.989   2.653
 1528SOL    HW1 5483   3.982   4.927   2.728
 1528SOL    HW2 5484   3.941   4.935   2.570
 1529SOL     OW 5485   4.392   0.053   0.411
 1529SOL    HW1 5486   4.483   0.080   0.443
 1529SOL    HW2 5487   4.358   0.121   0.347
 1530SOL     OW 5488   4.048   2.165   2.300
 1530SOL    HW1 5489   4.127   2.170   2.238
 1530SOL    HW2 5490   4.022   2.069   2.313
 1531SOL     OW 5491   4.395   6.799   5.862
 1531SOL    HW1 5492   4.379   6.784   5.959
 1531SOL    HW2 5493   4.308   6.818   5.816
 1532SOL     OW 5494   3.227   3.296   6.529
 1532SOL    HW1 5495   3.319   3.295   6.491
 1532SOL    HW2 5496   3.182   3.208   6.512
 1533SOL     OW 5497   5.941   4.718   6.512
 1533SOL    HW1 5498   5.937   4.743   6.609
 1533SOL    HW2 5499   5.878   4.776   6.460
 1534SOL     OW 5500   2.944   5.321   6.930
 1534SOL    HW1 5501   2.986   5.411   6.932
 1534SOL    HW2 5502   2.861   5.321   6.987
 1535SOL     OW 5503   5.189   6.392   4.405
 1535SOL    HW1 5504   5.200   6.342   4.319
 1535SOL    HW2 5505   5.229   6.340   4.480
 1536SOL     OW 5506   3.599   3.932   5.708
 1536SOL    HW1 5507   3.574   4.008   5.649
 1536SOL    HW2 5508   3.613   3.849   5.653
 1537SOL     OW 5509   4.610   5.921   3.677
 1537SOL    HW1 5510   4.616   6.017   3.704
 1537SOL    HW2 5511   4.676   5.868   3.729
 1538SOL     OW 5512   2.942   6.749   0.159
 1538SOL    HW1 5513   2.875   6.746   0.084
 1538SOL    HW2 5514   3.002   6.669   0.152
 1539SOL     OW 5515   4.891   4.179   1.776
 1539SOL    HW1 5516   4.847   4.091   1.764
 1539SOL    HW2 5517   4.990   4.168   1.778
 1540SOL     OW 5518   1.013   5.771   5.591
 1540SOL    HW1 5519   0.999   5.794   5.495
 1540SOL    HW2 5520   0.925   5.766   5.638
 1541SOL     OW 5521   3.463   2.864   4.196
 1541SOL    HW1 5522   3.401   2.939   4.174
 1541SOL    HW2 5523   3.442   2.830   4.288
 1542SOL     OW 5524   6.644   0.027   2.504
 1542SOL    HW1 5525   6.733   0.007   2.463
 1542SOL    HW2 5526   6.654   0.032   2.604
 1543SOL     OW 5527   3.088   5.175   5.355
 1543SOL    HW1 5528   3.005   5.203   5.403
 1543SOL    HW2 5529   3.126   5.253   5.305
 1544SOL     OW 5530   3.054   3.335   2.528
 1544SOL    HW1 5531   3.054   3.341   2.428
 1544SOL    HW2 5532   3.050   3.240   2.556
 1545SOL     OW 5533   5.050   0.903   3.419
 1545SOL    HW1 5534   5.088   0.810   3.417
 1545SOL    HW2 5535   5.032   0.933   3.325
 1546SOL     OW 5536   3.944   6.950   6.098
 1546SOL    HW1 5537   3.965   6.931   6.002
 1546SOL    HW2 5538   4.029   6.961   6.149
 1547SOL     OW 5539   1.793   4.156   2.501
 1547SOL    HW1 5540   1.751   4.148   2.411
 1547SOL    HW2 5541   1.745   4.225   2.555
 1548SOL     OW 5542   5.950   3.411   5.343
 1548SOL    HW1 5543   5.901   3.326   5.363
 1548SOL    HW2 5544   6.016   3.429   5.416
 1549SOL     OW 5545   3.908   1.526   2.118
 1549SOL    HW1 5546   3.933   1.618   2.087
 1549SOL    HW2 5547   3.847   1.533   2.196
 1550SOL     OW 5548   3.027   3.618   0.338
 1550SOL    HW1 5549   3.098   3.562   0.296
 1550SOL    HW2 5550   2.983   3.674   0.268
 1551SOL     OW 5551   2.257   4.285   6.211
 1551SOL    HW1 5552   2.258   4.295   6.111
 1551SOL    HW2 5553   2.281   4.191   6.235
 1552SOL     OW 5554   1.227   6.119   0.595
 1552SOL    HW1 5555   1.131   6.111   0.570
 1552SOL    HW2 5556   1.255   6.215   0.588
 1553SOL     OW 5557   0.243   2.046   6.076
 1553SOL    HW1 5558   0.216   1.951   6.093
 1553SOL    HW2 5559   0.237   2.099   6.161
 1554SOL     OW 5560   3.983   2.072   3.052
 1554SOL    HW1 5561   3.910   2.114   2.998
 1554SOL    HW2 5562   3.972   1.973   3.053
 1555SOL     OW 5563   4.933   2.439   0.205
 1555SOL    HW1 5564   4.860   2.508   0.202
 1555SOL    HW2 5565   4.893   2.349   0.219
 1556SOL     OW 5566   3.105   1.655   0.405
 1556SOL    HW1 5567   3.011   1.625   0.389
 1556SOL    HW2 5568   3.119   1.744   0.362
 1557SOL     OW 5569   2.361   2.009   5.533
 1557SOL    HW1 5570   2.307   2.060   5.467
 1557SOL    HW2 5571   2.302   1.945   5.582
 1558SOL     OW 5572   5.507   0.420   4.622
 1558SOL    HW1 5573   5.443   0.344   4.629
 1558SOL    HW2 5574   5.561   0.427   4.707
 1559SOL     OW 5575   0.978   2.615   6.908
 1559SOL    HW1 5576   1.009   2.544   6.844
 1559SOL    HW2 5577   1.051   2.683   6.920
 1560SOL     OW 5578   0.415   1.055   5.757
 1560SOL    HW1 5579   0.465   1.052   5.843
 1560SOL    HW2 5580   0.317   1.066   5.775
 1561SOL     OW 5581   6.515   6.747   3.920
 1561SOL    HW1 5582   6.513   6.670   3.983
 1561SOL    HW2 5583   6.609   6.762   3.889
 1562SOL     OW 5584   4.129   5.709   2.826
 1562SOL    HW1 5585   4.141   5.734   2.922
 1562SOL    HW2 5586   4.215   5.720   2.777
 1563SOL     OW 5587   2.143   0.163   5.549
 1563SOL    HW1 5588   2.214   0.207   5.494
 1563SOL    HW2 5589   2.095   0.232   5.603
 1564SOL     OW 5590   1.338   2.809   3.390
 1564SOL    HW1 5591   1.315   2.711   3.397
 1564SOL    HW2 5592   1.259   2.858   3.353
 1565SOL     OW 5593   4.260   4.641   3.808
 1565SOL    HW1 5594   4.332   4.590   3.762
 1565SOL    HW2 5595   4.284   4.654   3.904
 1566SOL     OW 5596   6.265   4.851   3.073
 1566SOL    HW1 5597   6.224   4.782   3.014
 1566SOL    HW2 5598   6.203   4.929   3.082
 1567SOL     OW 5599   6.258   6.081   0.655
 1567SOL    HW1 5600   6.179   6.142   0.654
 1567SOL    HW2 5601   6.235   5.995   0.610
 1568SOL     OW 5602   1.538   6.622   6.862
 1568SOL    HW1 5603   1.629   6.582   6.849
 1568SOL    HW2 5604   1.476   6.584   6.794
 1569SOL     OW 5605   4.389   6.324   3.471
 1569SOL    HW1 5606   4.395   6.249   3.406
 1569SOL    HW2 5607   4.467   6.320   3.534
 1570SOL     OW 5608   1.843   0.349   1.016
 1570SOL    HW1 5609   1.752   0.333   1.054
 1570SOL    HW2 5610   1.874   0.441   1.040
 1571SOL     OW 5611   5.169   2.503   1.293
 1571SOL    HW1 5612   5.118   2.469   1.213
 1571SOL    HW2 5613   5.242   2.564   1.262
 1572SOL     OW 5614   0.785   6.670   0.983
 1572SOL    HW1 5615   0.743   6.760   0.969
 1572SOL    HW2 5616   0.717   6.599   0.968
 1573SOL     OW 5617   5.345   3.056   2.047
 1573SOL    HW1 5618   5.277   3.130   2.048
 1573SOL    HW2 5619   5.298   2.968   2.049
 1574SOL     OW 5620   6.180   1.442   1.683
 1574SOL    HW1 5621   6.081   1.432   1.695
 1574SOL    HW2 5622   6.225   1.354   1.701
 1575SOL     OW 5623   3.948   1.306   0.495
 1575SOL    HW1 5624   4.036   1.263   0.516
 1575SOL    HW2 5625   3.923   1.368   0.569
 1576SOL     OW 5626   1.351   6.764   3.827
 1576SOL    HW1 5627   1.415   6.687   3.840
 1576SOL    HW2 5628   1.377   6.814   3.744
 1577SOL     OW 5629   3.106   1.345   4.477
 1577SOL    HW1 5630   3.048   1.264   4.477
 1577SOL    HW2 5631   3.050   1.426   4.457
 1578SOL     OW 5632   6.496   3.062   6.059
 1578SOL    HW1 5633   6.463   3.004   6.133
 1578SOL    HW2 5634   6.570   3.120   6.093
 1579SOL     OW 5635   0.117   1.367   2.834
 1579SOL    HW1 5636   0.055   1.313   2.891
 1579SOL    HW2 5637   0.169   1.430   2.892
 1580SOL     OW 5638   2.926   3.993   5.171
 1580SOL    HW1 5639   2.890   4.082   5.195
 1580SOL    HW2 5640   3.000   3.968   5.235
 1581SOL     OW 5641   0.220   3.799   5.021
 1581SOL    HW1 5642   0.224   3.713   4.970
 1581SOL    HW2 5643   0.312   3.823   5.052
 1582SOL     OW 5644   0.951   6.942   4.552
 1582SOL    HW1 5645   0.970   6.844   4.558
 1582SOL    HW2 5646   1.026   6.987   4.503
 1583SOL     OW 5647   1.219   4.566   3.307
 1583SOL    HW1 5648   1.233   4.510   3.389
 1583SOL    HW2 5649   1.301   4.564   3.251
 1584SOL     OW 5650   1.476   6.563   5.236
 1584SOL    HW1 5651   1.479   6.647   5.290
 1584SOL    HW2 5652   1.431   6.582   5.148
 1585SOL     OW 5653   5.905   1.947   3.362
 1585SOL    HW1 5654   5.850   1.885   3.418
 1585SOL    HW2 5655   5.934   1.899   3.279
 1586SOL     OW 5656   3.752   5.157   1.672
 1586SOL    HW1 5657   3.655   5.182   1.674
 1586SOL    HW2 5658   3.761   5.060   1.695
 1587SOL     OW 5659   2.576   6.318   6.504
 1587SOL    HW1 5660   2.567   6.415   6.530
 1587SOL    HW2 5661   2.603   6.265   6.584
 1588SOL     OW 5662   5.069   1.438   3.141
 1588SOL    HW1 5663   5.005   1.408   3.212
 1588SOL    HW2 5664   5.109   1.526   3.167
 1589SOL     OW 5665   5.906   3.787   1.711
 1589SOL    HW1 5666   5.836   3.859   1.706
 1589SOL    HW2 5667   5.964   3.802   1.791
 1590SOL     OW 5668   2.596   5.954   6.992
 1590SOL    HW1 5669   2.655   6.016   0.021
 1590SOL    HW2 5670   2.651   5.900   6.929
 1591SOL     OW 5671   6.991   5.170   2.476
 1591SOL    HW1 5672   0.019   5.180   2.561
 1591SOL    HW2 5673   6.916   5.237   2.475
 1592SOL     OW 5674   2.344   4.237   1.074
 1592SOL    HW1 5675   2.417   4.288   1.120
 1592SOL    HW2 5676   2.380   4.200   0.988
 1593SOL     OW 5677   0.864   6.299   4.318
 1593SOL    HW1 5678   0.796   6.341   4.378
 1593SOL    HW2 5679   0.840   6.203   4.302
 1594SOL     OW 5680   6.518   5.872   2.698
 1594SOL    HW1 5681   6.461   5.888   2.618
 1594SOL    HW2 5682   6.506   5.946   2.764
 1595SOL     OW 5683   1.423   5.083   6.821
 1595SOL    HW1 5684   1.483   5.041   6.753
 1595SOL    HW2 5685   1.471   5.088   6.909
 1596SOL     OW 5686   0.674   2.752   4.498
 1596SOL    HW1 5687   0.633   2.778   4.585
 1596SOL    HW2 5688   0.769   2.784   4.496
 1597SOL     OW 5689   1.981   6.411   6.793
 1597SOL    HW1 5690   1.961   6.323   6.750
 1597SOL    HW2 5691   2.078   6.433   6.782
 1598SOL     OW 5692   0.740   3.512   6.785
 1598SOL    HW1 5693   0.705   3.499   6.692
 1598SOL    HW2 5694   0.704   3.439   6.844
 1599SOL     OW 5695   4.519   4.338   5.999
 1599SOL    HW1 5696   4.486   4.245   6.011
 1599SOL    HW2 5697   4.472   4.399   6.064
 1600SOL     OW 5698   4.929   1.587   4.983
 1600SOL    HW1 5699   5.008   1.569   4.925
 1600SOL    HW2 5700   4.915   1.511   5.046
 1601SOL     OW 5701   0.193   4.676   4.342
 1601SOL    HW1 5702   0.189   4.764   4.294
 1601SOL    HW2 5703   0.193   4.602   4.275
 1602SOL     OW 5704   2.118   5.346   4.119
 1602SOL    HW1 5705   2.081   5.394   4.040
 1602SOL    HW2 5706   2.216   5.333   4.107
 1603SOL     OW 5707   6.468   6.066   2.884
 1603SOL    HW1 5708   6.388   6.020   2.922
 1603SOL    HW2 5709   6.446   6.162   2.867
 1604SOL     OW 5710   6.335   4.352   0.157
 1604SOL    HW1 5711   6.421   4.329   0.203
 1604SOL    HW2 5712   6.317   4.287   0.083
 1605SOL     OW 5713   6.261   6.089   2.198
 1605SOL    HW1 5714   6.277   6.185   2.176
 1605SOL    HW2 5715   6.234   6.081   2.294
 1606SOL     OW 5716   3.390   0.467   5.210
 1606SOL    HW1 5717   3.469   0.523   5.234
 1606SOL    HW2 5718   3.390   0.448   5.112
 1607SOL     OW 5719   3.606   2.433   0.662
 1607SOL    HW1 5720   3.696   2.477   0.667
 1607SOL    HW2 5721   3.562   2.456   0.575
 1608SOL     OW 5722   1.137   0.046   4.400
 1608SOL    HW1 5723   1.236   0.059   4.406
 1608SOL    HW2 5724   1.090   0.132   4.423
 1609SOL     OW 5725   4.651   0.309   0.595
 1609SOL    HW1 5726   4.745   0.319   0.628
 1609SOL    HW2 5727   4.630   0.382   0.530
 1610SOL     OW 5728   5.656   4.419   5.761
 1610SOL    HW1 5729   5.655   4.347   5.830
 1610SOL    HW2 5730   5.580   4.405   5.698
 1611SOL     OW 5731   3.122   3.858   2.000
 1611SOL    HW1 5732   3.064   3.791   2.047
 1611SOL    HW2 5733   3.103   3.855   1.902
 1612SOL     OW 5734   2.400   1.115   4.743
 1612SOL    HW1 5735   2.434   1.047   4.678
 1612SOL    HW2 5736   2.377   1.070   4.829
 1613SOL     OW 5737   1.905   5.620   1.549
 1613SOL    HW1 5738   1.813   5.649   1.523
 1613SOL    HW2 5739   1.902   5.528   1.586
 1614SOL     OW 5740   6.376   3.642   0.403
 1614SOL    HW1 5741   6.331   3.647   0.314
 1614SOL    HW2 5742   6.451   3.576   0.398
 1615SOL     OW 5743   6.506   5.354   0.841
 1615SOL    HW1 5744   6.457   5.282   0.793
 1615SOL    HW2 5745   6.549   5.316   0.923
 1616SOL     OW 5746   3.380   1.585   4.644
 1616SOL    HW1 5747   3.411   1.644   4.718
 1616SOL    HW2 5748   3.308   1.631   4.592
 1617SOL     OW 5749   5.927   0.661   1.771
 1617SOL    HW1 5750   6.015   0.614   1.779
 1617SOL    HW2 5751   5.866   0.607   1.712
 1618SOL     OW 5752   1.265   3.691   1.551
 1618SOL    HW1 5753   1.279   3.658   1.457
 1618SOL    HW2 5754   1.188   3.755   1.553
 1619SOL     OW 5755   1.060   2.451   3.013
 1619SOL    HW1 5756   1.001   2.384   2.969
 1619SOL    HW2 5757   1.132   2.404   3.064
 1620SOL     OW 5758   2.583   5.496   1.151
 1620SOL    HW1 5759   2.544   5.404   1.143
 1620SOL    HW2 5760   2.647   5.512   1.075
 1621SOL     OW 5761   0.948   1.354   0.522
 1621SOL    HW1 5762   0.935   1.273   0.579
 1621SOL    HW2 5763   0.925   1.332   0.427
 1622SOL     OW 5764   0.498   2.480   4.958
 1622SOL    HW1 5765   0.467   2.569   4.925
 1622SOL    HW2 5766   0.583   2.455   4.913
 1623SOL     OW 5767   2.350   3.240   5.545
 1623SOL    HW1 5768   2.326   3.260   5.450
 1623SOL    HW2 5769   2.298   3.300   5.606
 1624SOL     OW 5770   2.853   1.283   5.157
 1624SOL    HW1 5771   2.866   1.376   5.124
 1624SOL    HW2 5772   2.942   1.236   5.161
 1625SOL     OW 5773   1.415   5.225   1.546
 1625SOL    HW1 5774   1.409   5.304   1.485
 1625SOL    HW2 5775   1.324   5.203   1.581
 1626SOL     OW 5776   3.438   2.192   6.332
 1626SOL    HW1 5777   3.370   2.242   6.279
 1626SOL    HW2 5778   3.393   2.146   6.409
 1627SOL     OW 5779   6.540   2.687   3.603
 1627SOL    HW1 5780   6.471   2.670   3.673
 1627SOL    HW2 5781   6.619   2.732   3.644
 1628SOL     OW 5782   4.319   5.103   0.075
 1628SOL    HW1 5783   4.303   5.106   7.000
 1628SOL    HW2 5784   4.417   5.089   0.093
 1629SOL     OW 5785   2.843   1.465   4.230
 1629SOL    HW1 5786   2.756   1.415   4.224
 1629SOL    HW2 5787   2.832   1.555   4.187
 1630SOL     OW 5788   1.405   6.129   6.054
 1630SOL    HW1 5789   1.492   6.178   6.044
 1630SOL    HW2 5790   1.358   6.162   6.135
 1631SOL     OW 5791   0.197   1.509   6.390
 1631SOL    HW1 5792   0.124   1.488   6.325
 1631SOL    HW2 5793   0.257   1.578   6.351
 1632SOL     OW 5794   7.006   1.719   0.231
 1632SOL    HW1 5795   0.050   1.691   0.163
 1632SOL    HW2 5796   0.011   1.684   0.321
 1633SOL     OW 5797   4.803   2.307   3.935
 1633SOL    HW1 5798   4.840   2.276   4.022
 1633SOL    HW2 5799   4.766   2.399   3.945
 1634SOL     OW 5800   3.825   4.494   6.456
 1634SOL    HW1 5801   3.924   4.504   6.449
 1634SOL    HW2 5802   3.780   4.565   6.403
 1635SOL     OW 5803   6.791   5.541   5.654
 1635SOL    HW1 5804   6.798   5.504   5.562
 1635SOL    HW2 5805   6.781   5.466   5.720
 1636SOL     OW 5806   2.900   4.247   1.355
 1636SOL    HW1 5807   2.983   4.232   1.301
 1636SOL    HW2 5808   2.825   4.273   1.294
 1637SOL     OW 5809   0.057   0.472   2.855
 1637SOL    HW1 5810   0.052   0.421   2.941
 1637SOL    HW2 5811   0.107   0.419   2.787
 1638SOL     OW 5812   0.541   3.938   3.894
 1638SOL    HW1 5813   0.625   3.982   3.925
 1638SOL    HW2 5814   0.516   3.865   3.959
 1639SOL     OW 5815   4.088   0.190   3.007
 1639SOL    HW1 5816   4.061   0.126   2.936
 1639SOL    HW2 5817   4.186   0.180   3.025
 1640SOL     OW 5818   5.774   1.300   1.019
 1640SOL    HW1 5819   5.863   1.282   1.062
 1640SOL    HW2 5820   5.762   1.399   1.008
 1641SOL     OW 5821   5.424   2.574   4.151
 1641SOL    HW1 5822   5.469   2.485   4.140
 1641SOL    HW2 5823   5.398   2.609   4.061
 1642SOL     OW 5824   5.962   3.396   6.665
 1642SOL    HW1 5825   5.998   3.404   6.572
 1642SOL    HW2 5826   5.901   3.473   6.684
 1643SOL     OW 5827   2.914   4.912   4.245
 1643SOL    HW1 5828   3.012   4.900   4.231
 1643SOL    HW2 5829   2.889   5.008   4.229
 1644SOL     OW 5830   0.461   3.012   1.246
 1644SOL    HW1 5831   0.470   3.098   1.197
 1644SOL    HW2 5832   0.481   2.936   1.185
 1645SOL     OW 5833   2.482   6.155   5.641
 1645SOL    HW1 5834   2.429   6.073   5.660
 1645SOL    HW2 5835   2.543   6.138   5.564
 1646SOL     OW 5836   2.164   6.644   0.797
 1646SOL    HW1 5837   2.260   6.665   0.779
 1646SOL    HW2 5838   2.150   6.545   0.795
 1647SOL     OW 5839   6.071   2.630   4.857
 1647SOL    HW1 5840   6.130   2.628   4.775
 1647SOL    HW2 5841   5.975   2.628   4.829
 1648SOL     OW 5842   5.961   5.901   1.044
 1648SOL    HW1 5843   6.018   5.820   1.052
 1648SOL    HW2 5844   5.980   5.947   0.958
 1649SOL     OW 5845   4.424   6.856   4.258
 1649SOL    HW1 5846   4.386   6.855   4.165
 1649SOL    HW2 5847   4.446   6.763   4.286
 1650SOL     OW 5848   1.573   0.025   4.820
 1650SOL    HW1 5849   1.473   0.023   4.825
 1650SOL    HW2 5850   1.607   6.959   4.792
 1651SOL     OW 5851   0.573   0.857   2.084
 1651SOL    HW1 5852   0.613   0.946   2.106
 1651SOL    HW2 5853   0.484   0.848   2.129
 1652SOL     OW 5854   1.868   3.384   1.605
 1652SOL    HW1 5855   1.934   3.426   1.667
 1652SOL    HW2 5856   1.789   3.352   1.657
 1653SOL     OW 5857   0.646   6.909   0.978
 1653SOL    HW1 5858   0.553   6.935   0.951
 1653SOL    HW2 5859   0.652   6.905   1.078
 1654SOL     OW 5860   6.351   3.075   2.006
 1654SOL    HW1 5861   6.367   3.162   2.052
 1654SOL    HW2 5862   6.392   3.077   1.915
 1655SOL     OW 5863   6.101   2.890   5.031
 1655SOL    HW1 5864   6.022   2.949   5.010
 1655SOL    HW2 5865   6.105   2.815   4.965
 1656SOL     OW 5866   2.209   4.621   2.669
 1656SOL    HW1 5867   2.251   4.542   2.625
 1656SOL    HW2 5868   2.218   4.701   2.610
 1657SOL     OW 5869   6.788   0.889   4.296
 1657SOL    HW1 5870   6.709   0.948   4.313
 1657SOL    HW2 5871   6.758   0.806   4.249
 1658SOL     OW 5872   0.995   0.054   2.093
 1658SOL    HW1 5873   0.996   0.017   2.000
 1658SOL    HW2 5874   0.901   0.062   2.125
 1659SOL     OW 5875   4.067   1.148   5.490
 1659SOL    HW1 5876   3.977   1.105   5.487
 1659SOL    HW2 5877   4.069   1.216   5.564
 1660SOL     OW 5878   0.989   5.115   4.090
 1660SOL    HW1 5879   0.979   5.203   4.043
 1660SOL    HW2 5880   1.083   5.106   4.124
 1661SOL     OW 5881   3.147   1.326   2.217
 1661SOL    HW1 5882   3.140   1.373   2.305
 1661SOL    HW2 5883   3.136   1.392   2.143
 1662SOL     OW 5884   6.776   1.077   3.913
 1662SOL    HW1 5885   6.690   1.113   3.950
 1662SOL    HW2 5886   6.853   1.122   3.960
 1663SOL     OW 5887   3.127   0.782   2.892
 1663SOL    HW1 5888   3.081   0.761   2.805
 1663SOL    HW2 5889   3.195   0.711   2.911
 1664SOL     OW 5890   2.235   0.159   3.602
 1664SOL    HW1 5891   2.316   0.152   3.660
 1664SOL    HW2 5892   2.172   0.084   3.623
 1665SOL     OW 5893   0.357   1.150   2.521
 1665SOL    HW1 5894   0.274   1.125   2.570
 1665SOL    HW2 5895   0.344   1.134   2.423
 1666SOL     OW 5896   5.314   3.198   0.483
 1666SOL    HW1 5897   5.216   3.188   0.502
 1666SOL    HW2 5898   5.347   3.116   0.437
 1667SOL     OW 5899   6.062   6.959   1.380
 1667SOL    HW1 5900   6.074   6.915   1.291
 1667SOL    HW2 5901   6.072   0.034   1.370
 1668SOL     OW 5902   5.238   5.743   5.675
 1668SOL    HW1 5903   5.336   5.730   5.658
 1668SOL    HW2 5904   5.212   5.836   5.649
 1669SOL     OW 5905   6.573   6.268   6.624
 1669SOL    HW1 5906   6.633   6.297   6.549
 1669SOL    HW2 5907   6.511   6.342   6.647
 1670SOL     OW 5908   0.289   4.967   6.514
 1670SOL    HW1 5909   0.208   4.913   6.492
 1670SOL    HW2 5910   0.351   4.968   6.436
 1671SOL     OW 5911   4.368   3.057   0.746
 1671SOL    HW1 5912   4.299   3.009   0.801
 1671SOL    HW2 5913   4.401   2.996   0.674
 1672SOL     OW 5914   1.896   3.850   1.920
 1672SOL    HW1 5915   1.883   3.916   1.846
 1672SOL    HW2 5916   1.844   3.880   2.000
 1673SOL     OW 5917   6.632   2.063   4.532
 1673SOL    HW1 5918   6.569   2.127   4.575
 1673SOL    HW2 5919   6.613   1.970   4.564
 1674SOL     OW 5920   0.521   4.084   2.317
 1674SOL    HW1 5921   0.469   4.164   2.345
 1674SOL    HW2 5922   0.576   4.106   2.237
 1675SOL     OW 5923   4.408   0.083   5.754
 1675SOL    HW1 5924   4.407   0.175   5.715
 1675SOL    HW2 5925   4.461   0.083   5.838
 1676SOL     OW 5926   2.875   1.422   2.375
 1676SOL    HW1 5927   2.921   1.454   2.458
 1676SOL    HW2 5928   2.806   1.354   2.398
 1677SOL     OW 5929   4.068   3.083   5.314
 1677SOL    HW1 5930   3.998   3.026   5.271
 1677SOL    HW2 5931   4.077   3.169   5.262
 1678SOL     OW 5932   4.894   4.556   4.945
 1678SOL    HW1 5933   4.809   4.514   4.977
 1678SOL    HW2 5934   4.971   4.499   4.973
 1679SOL     OW 5935   2.103   3.136   5.068
 1679SOL    HW1 5936   2.048   3.053   5.070
 1679SOL    HW2 5937   2.198   3.112   5.046
 1680SOL     OW 5938   0.650   2.294   4.265
 1680SOL    HW1 5939   0.626   2.339   4.351
 1680SOL    HW2 5940   0.749   2.284   4.259
 1681SOL     OW 5941   6.131   5.990   1.338
 1681SOL    HW1 5942   6.137   6.006   1.436
 1681SOL    HW2 5943   6.109   6.075   1.291
 1682SOL     OW 5944   0.200   2.026   4.884
 1682SOL    HW1 5945   0.241   2.108   4.843
 1682SOL    HW2 5946   0.243   1.944   4.844
 1683SOL     OW 5947   3.893   5.765   0.939
 1683SOL    HW1 5948   3.917   5.812   1.024
 1683SOL    HW2 5949   3.961   5.693   0.921
 1684SOL     OW 5950   0.923   5.890   2.834
 1684SOL    HW1 5951   1.016   5.871   2.865
 1684SOL    HW2 5952   0.915   5.869   2.737
 1685SOL     OW 5953   2.619   0.947   6.108
 1685SOL    HW1 5954   2.552   0.941   6.181
 1685SOL    HW2 5955   2.573   0.945   6.020
 1686SOL     OW 5956   2.044   4.914   5.049
 1686SOL    HW1 5957   1.973   4.984   5.040
 1686SOL    HW2 5958   2.097   4.931   5.133
 1687SOL     OW 5959   2.495   2.969   1.556
 1687SOL    HW1 5960   2.514   3.055   1.509
 1687SOL    HW2 5961   2.578   2.937   1.603
 1688SOL     OW 5962   1.484   2.571   3.640
 1688SOL    HW1 5963   1.582   2.585   3.630
 1688SOL    HW2 5964   1.451   2.623   3.719
 1689SOL     OW 5965   4.619   0.775   2.282
 1689SOL    HW1 5966   4.713   0.765   2.249
 1689SOL    HW2 5967   4.607   0.723   2.367
 1690SOL     OW 5968   1.295   3.312   3.455
 1690SOL    HW1 5969   1.389   3.294   3.486
 1690SOL    HW2 5970   1.266   3.402   3.486
 1691SOL     OW 5971   5.295   3.974   3.584
 1691SOL    HW1 5972   5.373   3.986   3.646
 1691SOL    HW2 5973   5.247   3.890   3.607
 1692SOL     OW 5974   6.214   0.593   1.310
 1692SOL    HW1 5975   6.161   0.678   1.305
 1692SOL    HW2 5976   6.239   0.575   1.405
 1693SOL     OW 5977   0.373   1.851   2.508
 1693SOL    HW1 5978   0.407   1.840   2.415
 1693SOL    HW2 5979   0.450   1.869   2.570
 1694SOL     OW 5980   5.145   0.602   3.781
 1694SOL    HW1 5981   5.175   0.518   3.735
 1694SOL    HW2 5982   5.112   0.667   3.712
 1695SOL     OW 5983   2.640   1.511   5.835
 1695SOL    HW1 5984   2.635   1.466   5.924
 1695SOL    HW2 5985   2.735   1.540   5.819
 1696SOL     OW 5986   4.993   4.429   0.750
 1696SOL    HW1 5987   5.030   4.420   0.658
 1696SOL    HW2 5988   4.895   4.412   0.749
 1697SOL     OW 5989   5.506   5.938   2.177
 1697SOL    HW1 5990   5.446   5.869   2.135
 1697SOL    HW2 5991   5.495   5.934   2.277
 1698SOL     OW 5992   4.854   0.912   0.821
 1698SOL    HW1 5993   4.790   0.969   0.872
 1698SOL    HW2 5994   4.922   0.874   0.885
 1699SOL     OW 5995   2.906   1.506   1.077
 1699SOL    HW1 5996   3.000   1.507   1.113
 1699SOL    HW2 5997   2.889   1.590   1.026
 1700SOL     OW 5998   6.247   2.344   3.718
 1700SOL    HW1 5999   6.293   2.265   3.676
 1700SOL    HW2 6000   6.315   2.414   3.739
 1701SOL     OW 6001   5.479   3.493   5.860
 1701SOL    HW1 6002   5.485   3.415   5.922
 1701SOL    HW2 6003   5.388   3.497   5.820
 1702SOL     OW 6004   6.975   3.092   0.970
 1702SOL    HW1 6005   0.048   3.115   0.961
 1702SOL    HW2 6006   6.955   3.010   0.916
 1703SOL     OW 6007   4.067   3.396   2.851
 1703SOL    HW1 6008   4.083   3.349   2.764
 1703SOL    HW2 6009   4.063   3.329   2.925
 1704SOL     OW 6010   0.766   1.101   2.017
 1704SOL    HW1 6011   0.785   1.100   1.918
 1704SOL    HW2 6012   0.700   1.173   2.037
 1705SOL     OW 6013   3.676   2.135   1.547
 1705SOL    HW1 6014   3.606   2.205   1.563
 1705SOL    HW2 6015   3.692   2.083   1.631
 1706SOL     OW 6016   4.784   0.842   1.770
 1706SOL    HW1 6017   4.816   0.921   1.822
 1706SOL    HW2 6018   4.731   0.873   1.692
 1707SOL     OW 6019   4.670   2.163   2.788
 1707SOL    HW1 6020   4.627   2.161   2.878
 1707SOL    HW2 6021   4.667   2.072   2.746
 1708SOL     OW 6022   4.660   4.949   2.329
 1708SOL    HW1 6023   4.759   4.950   2.315
 1708SOL    HW2 6024   4.618   4.885   2.265
 1709SOL     OW 6025   2.727   5.931   1.726
 1709SOL    HW1 6026   2.711   5.834   1.711
 1709SOL    HW2 6027   2.673   5.984   1.660
 1710SOL     OW 6028   5.733   4.590   3.585
 1710SOL    HW1 6029   5.672   4.638   3.647
 1710SOL    HW2 6030   5.739   4.641   3.499
 1711SOL     OW 6031   1.402   4.349   4.551
 1711SOL    HW1 6032   1.472   4.418   4.572
 1711SOL    HW2 6033   1.313   4.381   4.582
 1712SOL     OW 6034   0.826   2.763   6.567
 1712SOL    HW1 6035   0.865   2.812   6.488
 1712SOL    HW2 6036   0.791   2.674   6.537
 1713SOL     OW 6037   3.827   2.487   1.359
 1713SOL    HW1 6038   3.848   2.429   1.280
 1713SOL    HW2 6039   3.858   2.442   1.443
 1714SOL     OW 6040   4.589   1.581   5.844
 1714SOL    HW1 6041   4.626   1.539   5.762
 1714SOL    HW2 6042   4.640   1.550   5.924
 1715SOL     OW 6043   6.680   3.742   2.446
 1715SOL    HW1 6044   6.594   3.747   2.497
 1715SOL    HW2 6045   6.694   3.649   2.413
 1716SOL     OW 6046   4.601   6.883   2.596
 1716SOL    HW1 6047   4.643   6.910   2.683
 1716SOL    HW2 6048   4.548   6.799   2.610
 1717SOL     OW 6049   1.991   6.788   6.139
 1717SOL    HW1 6050   2.015   6.734   6.220
 1717SOL    HW2 6051   1.911   6.844   6.160
 1718SOL     OW 6052   2.366   1.919   2.273
 1718SOL    HW1 6053   2.337   1.965   2.189
 1718SOL    HW2 6054   2.456   1.954   2.300
 1719SOL     OW 6055   2.167   4.296   1.266
 1719SOL    HW1 6056   2.232   4.256   1.202
 1719SOL    HW2 6057   2.202   4.383   1.300
 1720SOL     OW 6058   0.007   1.461   1.010
 1720SOL    HW1 6059   6.960   1.433   0.945
 1720SOL    HW2 6060   0.014   1.393   1.083
 1721SOL     OW 6061   0.984   6.567   3.264
 1721SOL    HW1 6062   1.072   6.605   3.294
 1721SOL    HW2 6063   0.957   6.610   3.178
 1722SOL     OW 6064   4.735   2.082   3.759
 1722SOL    HW1 6065   4.674   2.010   3.791
 1722SOL    HW2 6066   4.773   2.131   3.838
 1723SOL     OW 6067   6.680   2.846   2.858
 1723SOL    HW1 6068   6.599   2.799   2.823
 1723SOL    HW2 6069   6.756   2.834   2.794
 1724SOL     OW 6070   6.056   2.010   0.698
 1724SOL    HW1 6071   6.104   1.958   0.627
 1724SOL    HW2 6072   5.968   1.967   0.717
 1725SOL     OW 6073   2.714   4.867   0.056
 1725SOL    HW1 6074   2.695   4.945   7.020
 1725SOL    HW2 6075   2.803   4.828   0.032
 1726SOL     OW 6076   5.631   4.165   5.490
 1726SOL    HW1 6077   5.571   4.115   5.552
 1726SOL    HW2 6078   5.576   4.227   5.434
 1727SOL     OW 6079   3.556   3.113   4.717
 1727SOL    HW1 6080   3.606   3.032   4.747
 1727SOL    HW2 6081   3.559   3.120   4.618
 1728SOL     OW 6082   5.934   5.339   4.757
 1728SOL    HW1 6083   5.840   5.304   4.755
 1728SOL    HW2 6084   5.932   5.437   4.778
 1729SOL     OW 6085   2.191   3.917   3.569
 1729SOL    HW1 6086   2.164   3.821   3.584
 1729SOL    HW2 6087   2.129   3.959   3.503
 1730SOL     OW 6088   6.149   6.891   5.177
 1730SOL    HW1 6089   6.156   6.935   5.266
 1730SOL    HW2 6090   6.228   6.832   5.163
 1731SOL     OW 6091   0.130   5.160   1.960
 1731SOL    HW1 6092   0.212   5.146   2.014
 1731SOL    HW2 6093   0.051   5.122   2.008
 1732SOL     OW 6094   2.307   4.441   5.620
 1732SOL    HW1 6095   2.244   4.375   5.579
 1732SOL    HW2 6096   2.401   4.417   5.596
 1733SOL     OW 6097   1.035   3.639   2.385
 1733SOL    HW1 6098   1.010   3.545   2.405
 1733SOL    HW2 6099   0.954   3.690   2.357
 1734SOL     OW 6100   4.881   3.308   1.853
 1734SOL    HW1 6101   4.948   3.256   1.800
 1734SOL    HW2 6102   4.816   3.244   1.895
 1735SOL     OW 6103   6.004   5.772   1.397
 1735SOL    HW1 6104   6.038   5.848   1.342
 1735SOL    HW2 6105   6.079   5.711   1.420
 1736SOL     OW 6106   4.142   2.406   1.306
 1736SOL    HW1 6107   4.045   2.429   1.302
 1736SOL    HW2 6108   4.156   2.335   1.375
 1737SOL     OW 6109   2.945   1.112   4.504
 1737SOL    HW1 6110   2.954   1.061   4.589
 1737SOL    HW2 6111   2.975   1.054   4.427
 1738SOL     OW 6112   2.081   1.655   3.922
 1738SOL    HW1 6113   2.043   1.578   3.974
 1738SOL    HW2 6114   2.042   1.656   3.830
 1739SOL     OW 6115   5.434   2.282   5.542
 1739SOL    HW1 6116   5.411   2.185   5.537
 1739SOL    HW2 6117   5.521   2.294   5.590
 1740SOL     OW 6118   0.417   1.334   6.490
 1740SOL    HW1 6119   0.471   1.288   6.419
 1740SOL    HW2 6120   0.377   1.418   6.452
 1741SOL     OW 6121   2.121   0.621   4.055
 1741SOL    HW1 6122   2.033   0.652   4.021
 1741SOL    HW2 6123   2.194   0.678   4.017
 1742SOL     OW 6124   4.740   6.286   5.993
 1742SOL    HW1 6125   4.705   6.282   6.087
 1742SOL    HW2 6126   4.666   6.265   5.929
 1743SOL     OW 6127   1.904   2.048   2.426
 1743SOL    HW1 6128   1.959   1.965   2.432
 1743SOL    HW2 6129   1.848   2.046   2.343
 1744SOL     OW 6130   0.506   0.532   1.395
 1744SOL    HW1 6131   0.431   0.470   1.372
 1744SOL    HW2 6132   0.524   0.529   1.494
 1745SOL     OW 6133   6.613   0.591   3.678
 1745SOL    HW1 6134   6.571   0.505   3.650
 1745SOL    HW2 6135   6.702   0.573   3.721
 1746SOL     OW 6136   2.577   4.992   5.728
 1746SOL    HW1 6137   2.611   5.067   5.670
 1746SOL    HW2 6138   2.479   4.979   5.711
 1747SOL     OW 6139   5.688   1.205   3.213
 1747SOL    HW1 6140   5.592   1.200   3.241
 1747SOL    HW2 6141   5.717   1.301   3.209
 1748SOL     OW 6142   0.823   0.996   3.820
 1748SOL    HW1 6143   0.870   1.083   3.802
 1748SOL    HW2 6144   0.743   0.988   3.761
 1749SOL     OW 6145   2.656   0.026   5.415
 1749SOL    HW1 6146   2.735   6.988   5.418
 1749SOL    HW2 6147   2.603   0.017   5.499
 1750SOL     OW 6148   6.385   7.018   3.221
 1750SOL    HW1 6149   6.360   6.925   3.195
 1750SOL    HW2 6150   6.306   0.041   3.261
 1751SOL     OW 6151   4.113   5.717   4.724
 1751SOL    HW1 6152   4.028   5.697   4.771
 1751SOL    HW2 6153   4.185   5.658   4.759
 1752SOL     OW 6154   0.036   2.223   2.452
 1752SOL    HW1 6155   6.987   2.202   2.517
 1752SOL    HW2 6156   0.001   2.283   2.381
 1753SOL     OW 6157   7.020   2.678   0.874
 1753SOL    HW1 6158   0.014   2.660   0.971
 1753SOL    HW2 6159   0.057   2.621   0.818
 1754SOL     OW 6160   3.283   3.518   1.434
 1754SOL    HW1 6161   3.343   3.475   1.502
 1754SOL    HW2 6162   3.304   3.616   1.428
 1755SOL     OW 6163   5.769   5.864   2.695
 1755SOL    HW1 6164   5.698   5.845   2.628
 1755SOL    HW2 6165   5.818   5.947   2.670
 1756SOL     OW 6166   4.278   4.255   6.224
 1756SOL    HW1 6167   4.182   4.247   6.199
 1756SOL    HW2 6168   4.332   4.189   6.171
 1757SOL     OW 6169   2.466   5.150   4.927
 1757SOL    HW1 6170   2.407   5.169   5.006
 1757SOL    HW2 6171   2.415   5.165   4.843
 1758SOL     OW 6172   2.881   0.271   3.801
 1758SOL    HW1 6173   2.971   0.290   3.762
 1758SOL    HW2 6174   2.883   0.283   3.900
 1759SOL     OW 6175   1.236   5.083   5.751
 1759SOL    HW1 6176   1.315   5.113   5.698
 1759SOL    HW2 6177   1.197   5.001   5.709
 1760SOL     OW 6178   5.777   1.943   1.505
 1760SOL    HW1 6179   5.749   1.966   1.412
 1760SOL    HW2 6180   5.703   1.964   1.569
 1761SOL     OW 6181   0.262   0.713   0.738
 1761SOL    HW1 6182   0.163   0.700   0.732
 1761SOL    HW2 6183   0.282   0.801   0.781
 1762SOL     OW 6184   6.883   1.803   4.982
 1762SOL    HW1 6185   6.850   1.711   5.002
 1762SOL    HW2 6186   6.978   1.798   4.951
 1763SOL     OW 6187   1.623   3.718   3.904
 1763SOL    HW1 6188   1.539   3.664   3.910
 1763SOL    HW2 6189   1.607   3.808   3.944
 1764SOL     OW 6190   2.237   4.031   2.644
 1764SOL    HW1 6191   2.137   4.025   2.646
 1764SOL    HW2 6192   2.269   4.015   2.551
 1765SOL     OW 6193   3.695   2.047   6.891
 1765SOL    HW1 6194   3.790   2.051   6.859
 1765SOL    HW2 6195   3.633   2.047   6.812
 1766SOL     OW 6196   4.927   3.524   3.518
 1766SOL    HW1 6197   5.016   3.491   3.486
 1766SOL    HW2 6198   4.898   3.601   3.461
 1767SOL     OW 6199   6.407   3.883   3.101
 1767SOL    HW1 6200   6.319   3.864   3.057
 1767SOL    HW2 6201   6.440   3.801   3.147
 1768SOL     OW 6202   3.643   1.242   4.885
 1768SOL    HW1 6203   3.712   1.257   4.955
 1768SOL    HW2 6204   3.683   1.256   4.794
 1769SOL     OW 6205   4.435   2.428   4.921
 1769SOL    HW1 6206   4.354   2.423   4.979
 1769SOL    HW2 6207   4.413   2.393   4.830
 1770SOL     OW 6208   0.267   5.224   4.561
 1770SOL    HW1 6209   0.290   5.126   4.564
 1770SOL    HW2 6210   0.188   5.238   4.502
 1771SOL     OW 6211   2.278   5.208   6.969
 1771SOL    HW1 6212   2.321   5.298   6.956
 1771SOL    HW2 6213   2.178   5.218   6.961
 1772SOL     OW 6214   3.115   6.398   3.578
 1772SOL    HW1 6215   3.172   6.461   3.630
 1772SOL    HW2 6216   3.062   6.450   3.510
 1773SOL     OW 6217   2.751   4.493   6.123
 1773SOL    HW1 6218   2.801   4.572   6.158
 1773SOL    HW2 6219   2.717   4.512   6.031
 1774SOL     OW 6220   4.455   0.061   1.958
 1774SOL    HW1 6221   4.408   0.145   1.987
 1774SOL    HW2 6222   4.428   0.039   1.864
 1775SOL     OW 6223   1.066   4.565   3.883
 1775SOL    HW1 6224   0.973   4.603   3.879
 1775SOL    HW2 6225   1.060   4.467   3.902
 1776SOL     OW 6226   3.355   1.082   4.664
 1776SOL    HW1 6227   3.426   1.050   4.728
 1776SOL    HW2 6228   3.354   1.182   4.663
 1777SOL     OW 6229   3.392   5.324   5.622
 1777SOL    HW1 6230   3.308   5.272   5.636
 1777SOL    HW2 6231   3.417   5.371   5.707
 1778SOL     OW 6232   4.778   2.779   5.889
 1778SOL    HW1 6233   4.772   2.792   5.988
 1778SOL    HW2 6234   4.874   2.779   5.862
 1779SOL     OW 6235   4.600   0.943   4.705
 1779SOL    HW1 6236   4.611   0.924   4.803
 1779SOL    HW2 6237   4.503   0.943   4.682
 1780SOL     OW 6238   2.585   3.465   6.014
 1780SOL    HW1 6239   2.537   3.475   5.927
 1780SOL    HW2 6240   2.627   3.552   6.040
 1781SOL     OW 6241   4.357   5.758   3.918
 1781SOL    HW1 6242   4.373   5.791   4.011
 1781SOL    HW2 6243   4.325   5.663   3.922
 1782SOL     OW 6244   2.799   2.246   2.621
 1782SOL    HW1 6245   2.871   2.305   2.586
 1782SOL    HW2 6246   2.827   2.207   2.709
 1783SOL     OW 6247   1.300   3.916   6.360
 1783SOL    HW1 6248   1.223   3.980   6.359
 1783SOL    HW2 6249   1.370   3.946   6.296
 1784SOL     OW 6250   3.488   1.286   5.225
 1784SOL    HW1 6251   3.432   1.319   5.148
 1784SOL    HW2 6252   3.440   1.306   5.310
 1785SOL     OW 6253   6.024   5.549   3.731
 1785SOL    HW1 6254   5.941   5.575   3.682
 1785SOL    HW2 6255   6.013   5.571   3.828
 1786SOL     OW 6256   1.683   2.611   1.484
 1786SOL    HW1 6257   1.594   2.584   1.518
 1786SOL    HW2 6258   1.672   2.661   1.397
 1787SOL     OW 6259   2.423   1.123   4.428
 1787SOL    HW1 6260   2.331   1.086   4.414
 1787SOL    HW2 6261   2.418   1.222   4.443
 1788SOL     OW 6262   3.370   2.960   0.057
 1788SOL    HW1 6263   3.284   2.928   0.017
 1788SOL    HW2 6264   3.351   3.006   0.144
 1789SOL     OW 6265   6.171   1.623   2.468
 1789SOL    HW1 6266   6.168   1.681   2.387
 1789SOL    HW2 6267   6.088   1.568   2.473
 1790SOL     OW 6268   4.539   6.525   4.056
 1790SOL    HW1 6269   4.460   6.470   4.085
 1790SOL    HW2 6270   4.527   6.619   4.088
 1791SOL     OW 6271   6.995   1.596   3.863
 1791SOL    HW1 6272   0.030   1.566   3.787
 1791SOL    HW2 6273   0.030   1.628   3.939
 1792SOL     OW 6274   0.133   2.302   3.796
 1792SOL    HW1 6275   0.165   2.324   3.888
 1792SOL    HW2 6276   0.178   2.361   3.730
 1793SOL     OW 6277   6.980   6.917   3.608
 1793SOL    HW1 6278   7.022   6.910   3.518
 1793SOL    HW2 6279   6.886   6.950   3.598
 1794SOL     OW 6280   5.907   6.174   6.275
 1794SOL    HW1 6281   5.975   6.216   6.215
 1794SOL    HW2 6282   5.819   6.220   6.262
 1795SOL     OW 6283   0.117   3.089   2.367
 1795SOL    HW1 6284   0.121   3.147   2.448
 1795SOL    HW2 6285   0.116   2.993   2.395
 1796SOL     OW 6286   2.652   0.693   4.418
 1796SOL    HW1 6287   2.743   0.662   4.442
 1796SOL    HW2 6288   2.636   0.680   4.320
 1797SOL     OW 6289   1.147   0.746   6.269
 1797SOL    HW1 6290   1.243   0.774   6.262
 1797SOL    HW2 6291   1.142   0.662   6.323
 1798SOL     OW 6292   5.012   2.149   4.521
 1798SOL    HW1 6293   5.067   2.067   4.536
 1798SOL    HW2 6294   4.974   2.147   4.429
 1799SOL     OW 6295   6.345   1.604   6.272
 1799SOL    HW1 6296   6.410   1.664   6.319
 1799SOL    HW2 6297   6.349   1.512   6.311
 1800SOL     OW 6298   4.181   5.115   2.905
 1800SOL    HW1 6299   4.273   5.133   2.941
 1800SOL    HW2 6300   4.127   5.199   2.909
 1801SOL     OW 6301   0.660   0.815   2.466
 1801SOL    HW1 6302   0.661   0.882   2.391
 1801SOL    HW2 6303   0.742   0.825   2.521
 1802SOL     OW 6304   5.513   5.230   2.511
 1802SOL    HW1 6305   5.520   5.260   2.416
 1802SOL    HW2 6306   5.459   5.146   2.515
 1803SOL     OW 6307   0.050   6.059   6.983
 1803SOL    HW1 6308   0.092   6.070   0.050
 1803SOL    HW2 6309   0.112   6.010   6.923
 1804SOL     OW 6310   1.945   4.157   5.935
 1804SOL    HW1 6311   1.898   4.121   5.855
 1804SOL    HW2 6312   2.039   4.181   5.910
 1805SOL     OW 6313   6.595   3.735   5.660
 1805SOL    HW1 6314   6.508   3.783   5.676
 1805SOL    HW2 6315   6.652   3.743   5.741
 1806SOL     OW 6316   1.192   1.135   0.659
 1806SOL    HW1 6317   1.208   1.147   0.757
 1806SOL    HW2 6318   1.235   1.210   0.608
 1807SOL     OW 6319   4.931   2.388   6.112
 1807SOL    HW1 6320   4.977   2.303   6.136
 1807SOL    HW2 6321   4.976   2.429   6.032
 1808SOL     OW 6322   0.218   3.504   5.781
 1808SOL    HW1 6323   0.278   3.445   5.834
 1808SOL    HW2 6324   0.124   3.471   5.786
 1809SOL     OW 6325   2.178   3.379   4.487
 1809SOL    HW1 6326   2.113   3.412   4.419
 1809SOL    HW2 6327   2.261   3.434   4.485
 1810SOL     OW 6328   2.730   0.668   4.800
 1810SOL    HW1 6329   2.822   0.703   4.784
 1810SOL    HW2 6330   2.732   0.601   4.874
 1811SOL     OW 6331   4.486   4.569   3.665
 1811SOL    HW1 6332   4.544   4.490   3.686
 1811SOL    HW2 6333   4.493   4.591   3.568
 1812SOL     OW 6334   4.339   6.487   5.916
 1812SOL    HW1 6335   4.248   6.456   5.889
 1812SOL    HW2 6336   4.364   6.568   5.864
 1813SOL     OW 6337   5.468   5.263   0.257
 1813SOL    HW1 6338   5.434   5.340   0.202
 1813SOL    HW2 6339   5.393   5.199   0.274
 1814SOL     OW 6340   6.905   1.153   0.210
 1814SOL    HW1 6341   6.832   1.140   0.143
 1814SOL    HW2 6342   6.923   1.067   0.258
 1815SOL     OW 6343   6.027   2.598   1.834
 1815SOL    HW1 6344   5.964   2.588   1.757
 1815SOL    HW2 6345   6.001   2.678   1.889
 1816SOL     OW 6346   2.497   4.142   0.881
 1816SOL    HW1 6347   2.500   4.077   0.805
 1816SOL    HW2 6348   2.555   4.220   0.860
 1817SOL     OW 6349   3.163   6.926   3.355
 1817SOL    HW1 6350   3.245   6.930   3.412
 1817SOL    HW2 6351   3.185   6.961   3.264
 1818SOL     OW 6352   1.989   6.692   2.563
 1818SOL    HW1 6353   1.889   6.684   2.555
 1818SOL    HW2 6354   2.028   6.603   2.583
 1819SOL     OW 6355   0.184   5.394   1.651
 1819SOL    HW1 6356   0.099   5.393   1.704
 1819SOL    HW2 6357   0.165   5.362   1.558
 1820SOL     OW 6358   4.955   0.655   2.628
 1820SOL    HW1 6359   5.054   0.661   2.611
 1820SOL    HW2 6360   4.930   0.559   2.645
 1821SOL     OW 6361   2.549   0.871   1.739
 1821SOL    HW1 6362   2.501   0.837   1.658
 1821SOL    HW2 6363   2.512   0.826   1.821
 1822SOL     OW 6364   1.983   2.918   1.331
 1822SOL    HW1 6365   2.005   2.995   1.271
 1822SOL    HW2 6366   1.886   2.895   1.321
 1823SOL     OW 6367   2.861   5.868   3.475
 1823SOL    HW1 6368   2.845   5.787   3.419
 1823SOL    HW2 6369   2.786   5.932   3.463
 1824SOL     OW 6370   3.697   3.374   1.544
 1824SOL    HW1 6371   3.709   3.323   1.459
 1824SOL    HW2 6372   3.726   3.318   1.621
 1825SOL     OW 6373   1.380   1.783   4.160
 1825SOL    HW1 6374   1.407   1.705   4.218
 1825SOL    HW2 6375   1.376   1.866   4.216
 1826SOL     OW 6376   3.285   0.253   0.834
 1826SOL    HW1 6377   3.253   0.273   0.927
 1826SOL    HW2 6378   3.242   0.168   0.803
 1827SOL     OW 6379   0.299   6.175   1.497
 1827SOL    HW1 6380   0.256   6.262   1.471
 1827SOL    HW2 6381   0.233   6.120   1.547
 1828SOL     OW 6382   1.114   2.439   0.784
 1828SOL    HW1 6383   1.028   2.447   0.833
 1828SOL    HW2 6384   1.190   2.464   0.845
 1829SOL     OW 6385   3.042   0.615   3.554
 1829SOL    HW1 6386   3.099   0.660   3.486
 1829SOL    HW2 6387   3.014   0.682   3.623
 1830SOL     OW 6388   5.849   6.244   3.672
 1830SOL    HW1 6389   5.916   6.172   3.691
 1830SOL    HW2 6390   5.878   6.329   3.715
 1831SOL     OW 6391   5.925   0.242   2.345
 1831SOL    HW1 6392   5.854   0.304   2.379
 1831SOL    HW2 6393   6.010   0.257   2.396
 1832SOL     OW 6394   4.940   1.893   0.992
 1832SOL    HW1 6395   4.847   1.872   0.963
 1832SOL    HW2 6396   4.986   1.948   0.921
 1833SOL     OW 6397   5.388   0.394   6.569
 1833SOL    HW1 6398   5.436   0.385   6.482
 1833SOL    HW2 6399   5.452   0.382   6.645
 1834SOL     OW 6400   2.685   4.248   0.617
 1834SOL    HW1 6401   2.674   4.161   0.569
 1834SOL    HW2 6402   2.736   4.233   0.702
 1835SOL     OW 6403   0.123   3.717   2.276
 1835SOL    HW1 6404   0.189   3.687   2.207
 1835SOL    HW2 6405   0.169   3.774   2.344
 1836SOL     OW 6406   5.091   2.557   0.845
 1836SOL    HW1 6407   5.042   2.558   0.758
 1836SOL    HW2 6408   5.096   2.650   0.882
 1837SOL     OW 6409   1.333   1.394   4.706
 1837SOL    HW1 6410   1.416   1.423   4.656
 1837SOL    HW2 6411   1.302   1.469   4.765
 1838SOL     OW 6412   6.934   1.415   4.304
 1838SOL    HW1 6413   6.883   1.430   4.220
 1838SOL    HW2 6414   6.945   1.316   4.320
 1839SOL     OW 6415   5.419   2.855   5.314
 1839SOL    HW1 6416   5.368   2.774   5.283
 1839SOL    HW2 6417   5.487   2.828   5.382
 1840SOL     OW 6418   3.294   6.094   1.667
 1840SOL    HW1 6419   3.388   6.107   1.636
 1840SOL    HW2 6420   3.235   6.162   1.624
 1841SOL     OW 6421   2.489   0.896   3.721
 1841SOL    HW1 6422   2.460   0.946   3.639
 1841SOL    HW2 6423   2.556   0.950   3.771
 1842SOL     OW 6424   1.562   5.573   0.316
 1842SOL    HW1 6425   1.491   5.626   0.362
 1842SOL    HW2 6426   1.560   5.593   0.218
 1843SOL     OW 6427   6.565   2.360   3.848
 1843SOL    HW1 6428   6.530   2.278   3.803
 1843SOL    HW2 6429   6.659   2.345   3.877
 1844SOL     OW 6430   3.397   0.347   5.456
 1844SOL    HW1 6431   3.386   0.409   5.379
 1844SOL    HW2 6432   3.471   0.283   5.435
 1845SOL     OW 6433   2.467   0.283   5.031
 1845SOL    HW1 6434   2.532   0.266   5.105
 1845SOL    HW2 6435   2.457   0.382   5.017
 1846SOL     OW 6436   4.303   2.069   1.019
 1846SOL    HW1 6437   4.280   1.972   1.028
 1846SOL    HW2 6438   4.241   2.122   1.077
 1847SOL     OW 6439   1.583   1.082   6.462
 1847SOL    HW1 6440   1.559   1.164   6.410
 1847SOL    HW2 6441   1.514   1.067   6.533
 1848SOL     OW 6442   1.131   6.845   3.052
 1848SOL    HW1 6443   1.136   6.854   3.152
 1848SOL    HW2 6444   1.078   6.764   3.029
 1849SOL     OW 6445   3.845   2.574   0.739
 1849SOL    HW1 6446   3.848   2.659   0.685
 1849SOL    HW2 6447   3.939   2.542   0.755
 1850SOL     OW 6448   0.935   2.406   2.074
 1850SOL    HW1 6449   0.990   2.323   2.083
 1850SOL    HW2 6450   0.902   2.435   2.164
 1851SOL     OW 6451   6.823   2.642   1.281
 1851SOL    HW1 6452   6.908   2.615   1.235
 1851SOL    HW2 6453   6.755   2.669   1.213
 1852SOL     OW 6454   6.386   3.929   1.934
 1852SOL    HW1 6455   6.407   3.979   2.018
 1852SOL    HW2 6456   6.439   3.845   1.931
 1853SOL     OW 6457   0.087   2.832   2.933
 1853SOL    HW1 6458   0.099   2.736   2.907
 1853SOL    HW2 6459   0.106   2.890   2.854
 1854SOL     OW 6460   2.686   6.044   3.365
 1854SOL    HW1 6461   2.637   6.042   3.277
 1854SOL    HW2 6462   2.667   6.130   3.412
 1855SOL     OW 6463   5.414   3.036   6.246
 1855SOL    HW1 6464   5.481   2.967   6.218
 1855SOL    HW2 6465   5.423   3.054   6.344
 1856SOL     OW 6466   5.875   3.665   5.488
 1856SOL    HW1 6467   5.824   3.592   5.535
 1856SOL    HW2 6468   5.973   3.647   5.495
 1857SOL     OW 6469   4.220   1.259   5.287
 1857SOL    HW1 6470   4.141   1.292   5.234
 1857SOL    HW2 6471   4.189   1.189   5.352
 1858SOL     OW 6472   6.309   3.793   3.944
 1858SOL    HW1 6473   6.353   3.824   3.859
 1858SOL    HW2 6474   6.235   3.856   3.968
 1859SOL     OW 6475   4.923   1.875   2.834
 1859SOL    HW1 6476   4.965   1.790   2.865
 1859SOL    HW2 6477   4.824   1.868   2.841
 1860SOL     OW 6478   6.203   0.317   5.029
 1860SOL    HW1 6479   6.278   0.260   4.994
 1860SOL    HW2 6480   6.159   0.269   5.105
 1861SOL     OW 6481   5.895   0.239   2.080
 1861SOL    HW1 6482   5.799   0.260   2.060
 1861SOL    HW2 6483   5.907   0.232   2.179
 1862SOL     OW 6484   2.471   0.043   6.214
 1862SOL    HW1 6485   2.385   0.092   6.205
 1862SOL    HW2 6486   2.546   0.102   6.184
 1863SOL     OW 6487   1.418   2.207   2.064
 1863SOL    HW1 6488   1.392   2.154   1.983
 1863SOL    HW2 6489   1.486   2.156   2.117
 1864SOL     OW 6490   1.140   6.689   5.487
 1864SOL    HW1 6491   1.101   6.621   5.425
 1864SOL    HW2 6492   1.179   6.643   5.566
 1865SOL     OW 6493   3.379   6.687   6.249
 1865SOL    HW1 6494   3.431   6.770   6.229
 1865SOL    HW2 6495   3.286   6.710   6.276
 1866SOL     OW 6496   4.327   5.206   3.288
 1866SOL    HW1 6497   4.276   5.171   3.367
 1866SOL    HW2 6498   4.418   5.236   3.318
 1867SOL     OW 6499   0.217   4.380   0.395
 1867SOL    HW1 6500   0.159   4.357   0.472
 1867SOL    HW2 6501   0.283   4.307   0.380
 1868SOL     OW 6502   4.652   4.003   6.762
 1868SOL    HW1 6503   4.719   4.057   6.813
 1868SOL    HW2 6504   4.653   3.909   6.795
 1869SOL     OW 6505   6.087   2.925   5.730
 1869SOL    HW1 6506   6.136   2.971   5.804
 1869SOL    HW2 6507   6.011   2.872   5.767
 1870SOL     OW 6508   1.573   3.064   5.633
 1870SOL    HW1 6509   1.504   3.001   5.597
 1870SOL    HW2 6510   1.665   3.029   5.611
 1871SOL     OW 6511   0.240   0.614   0.344
 1871SOL    HW1 6512   0.247   0.518   0.371
 1871SOL    HW2 6513   0.326   0.643   0.302
 1872SOL     OW 6514   4.188   1.470   6.312
 1872SOL    HW1 6515   4.255   1.466   6.238
 1872SOL    HW2 6516   4.139   1.557   6.308
 1873SOL     OW 6517   5.348   1.321   5.735
 1873SOL    HW1 6518   5.277   1.251   5.729
 1873SOL    HW2 6519   5.435   1.282   5.706
 1874SOL     OW 6520   3.287   1.784   0.676
 1874SOL    HW1 6521   3.256   1.750   0.587
 1874SOL    HW2 6522   3.279   1.883   0.678
 1875SOL     OW 6523   6.888   0.726   0.058
 1875SOL    HW1 6524   6.826   0.655   0.025
 1875SOL    HW2 6525   6.839   0.787   0.121
 1876SOL     OW 6526   3.649   6.420   6.234
 1876SOL    HW1 6527   3.668   6.518   6.226
 1876SOL    HW2 6528   3.721   6.368   6.188
 1877SOL     OW 6529   0.226   0.316   2.295
 1877SOL    HW1 6530   0.285   0.372   2.237
 1877SOL    HW2 6531   0.273   0.231   2.318
 1878SOL     OW 6532   6.761   2.549   3.470
 1878SOL    HW1 6533   6.832   2.561   3.538
 1878SOL    HW2 6534   6.675   2.589   3.502
 1879SOL     OW 6535   1.146   4.832   3.898
 1879SOL    HW1 6536   1.119   4.737   3.912
 1879SOL    HW2 6537   1.224   4.835   3.835
 1880SOL     OW 6538   6.416   1.283   4.246
 1880SOL    HW1 6539   6.357   1.283   4.327
 1880SOL    HW2 6540   6.460   1.373   4.237
 1881SOL     OW 6541   5.884   2.437   2.683
 1881SOL    HW1 6542   5.794   2.399   2.664
 1881SOL    HW2 6543   5.916   2.405   2.772
 1882SOL     OW 6544   0.626   3.525   6.515
 1882SOL    HW1 6545   0.565   3.604   6.522
 1882SOL    HW2 6546   0.576   3.446   6.481
 1883SOL     OW 6547   0.905   2.200   3.979
 1883SOL    HW1 6548   0.927   2.204   4.077
 1883SOL    HW2 6549   0.875   2.290   3.948
 1884SOL     OW 6550   6.576   3.277   0.522
 1884SOL    HW1 6551   6.668   3.239   0.529
 1884SOL    HW2 6552   6.523   3.224   0.456
 1885SOL     OW 6553   1.589   2.415   6.309
 1885SOL    HW1 6554   1.565   2.494   6.365
 1885SOL    HW2 6555   1.572   2.331   6.360
 1886SOL     OW 6556   2.385   1.015   1.257
 1886SOL    HW1 6557   2.369   1.053   1.348
 1886SOL    HW2 6558   2.454   0.943   1.262
 1887SOL     OW 6559   0.884   5.322   5.193
 1887SOL    HW1 6560   0.854   5.314   5.289
 1887SOL    HW2 6561   0.806   5.351   5.137
 1888SOL     OW 6562   2.401   1.940   6.920
 1888SOL    HW1 6563   2.343   1.989   6.855
 1888SOL    HW2 6564   2.440   1.859   6.875
 1889SOL     OW 6565   0.475   2.945   6.013
 1889SOL    HW1 6566   0.451   2.867   6.071
 1889SOL    HW2 6567   0.480   2.914   5.918
 1890SOL     OW 6568   1.836   6.510   4.622
 1890SOL    HW1 6569   1.907   6.515   4.692
 1890SOL    HW2 6570   1.805   6.415   4.614
 1891SOL     OW 6571   5.357   2.181   2.106
 1891SOL    HW1 6572   5.334   2.100   2.161
 1891SOL    HW2 6573   5.272   2.220   2.069
 1892SOL     OW 6574   2.503   0.841   2.616
 1892SOL    HW1 6575   2.459   0.825   2.705
 1892SOL    HW2 6576   2.433   0.845   2.545
 1893SOL     OW 6577   3.465   3.099   6.864
 1893SOL    HW1 6578   3.471   3.050   6.951
 1893SOL    HW2 6579   3.379   3.149   6.860
 1894SOL     OW 6580   3.665   4.159   4.024
 1894SOL    HW1 6581   3.621   4.123   4.106
 1894SOL    HW2 6582   3.740   4.219   4.049
 1895SOL     OW 6583   5.211   0.824   1.668
 1895SOL    HW1 6584   5.162   0.877   1.737
 1895SOL    HW2 6585   5.175   0.847   1.577
 1896SOL     OW 6586   5.694   0.139   1.433
 1896SOL    HW1 6587   5.652   0.062   1.384
 1896SOL    HW2 6588   5.623   0.200   1.467
 1897SOL     OW 6589   1.829   5.313   1.732
 1897SOL    HW1 6590   1.900   5.376   1.765
 1897SOL    HW2 6591   1.845   5.222   1.770
 1898SOL     OW 6592   2.307   5.531   3.272
 1898SOL    HW1 6593   2.335   5.443   3.233
 1898SOL    HW2 6594   2.212   5.525   3.302
 1899SOL     OW 6595   1.241   0.889   2.143
 1899SOL    HW1 6596   1.297   0.898   2.061
 1899SOL    HW2 6597   1.300   0.890   2.224
 1900SOL     OW 6598   1.328   0.232   6.610
 1900SOL    HW1 6599   1.324   0.242   6.510
 1900SOL    HW2 6600   1.328   0.323   6.652
 1901SOL     OW 6601   1.703   1.789   1.215
 1901SOL    HW1 6602   1.692   1.886   1.236
 1901SOL    HW2 6603   1.615   1.742   1.226
 1902SOL     OW 6604   2.154   1.789   5.056
 1902SOL    HW1 6605   2.242   1.742   5.061
 1902SOL    HW2 6606   2.101   1.751   4.981
 1903SOL     OW 6607   6.834   3.459   2.532
 1903SOL    HW1 6608   6.785   3.372   2.536
 1903SOL    HW2 6609   6.861   3.478   2.438
 1904SOL     OW 6610   5.270   5.477   3.471
 1904SOL    HW1 6611   5.214   5.487   3.552
 1904SOL    HW2 6612   5.296   5.567   3.436
 1905SOL     OW 6613   1.049   0.002   3.583
 1905SOL    HW1 6614   1.113   0.009   3.507
 1905SOL    HW2 6615   1.100   7.008   3.668
 1906SOL     OW 6616   2.543   0.290   4.769
 1906SOL    HW1 6617   2.552   0.277   4.868
 1906SOL    HW2 6618   2.629   0.325   4.731
 1907SOL     OW 6619   3.620   1.134   1.631
 1907SOL    HW1 6620   3.647   1.210   1.690
 1907SOL    HW2 6621   3.666   1.050   1.662
 1908SOL     OW 6622   3.582   6.626   5.239
 1908SOL    HW1 6623   3.658   6.561   5.251
 1908SOL    HW2 6624   3.616   6.719   5.243
 1909SOL     OW 6625   0.129   3.801   2.682
 1909SOL    HW1 6626   0.205   3.817   2.746
 1909SOL    HW2 6627   0.148   3.849   2.596
 1910SOL     OW 6628   0.249   4.281   0.028
 1910SOL    HW1 6629   0.293   4.227   6.979
 1910SOL    HW2 6630   0.236   4.375   7.020
 1911SOL     OW 6631   6.820   3.660   4.775
 1911SOL    HW1 6632   6.862   3.671   4.685
 1911SOL    HW2 6633   6.724   3.687   4.770
 1912SOL     OW 6634   3.940   5.913   0.723
 1912SOL    HW1 6635   3.914   5.887   0.816
 1912SOL    HW2 6636   3.872   5.977   0.687
 1913SOL     OW 6637   2.615   6.585   4.775
 1913SOL    HW1 6638   2.633   6.625   4.686
 1913SOL    HW2 6639   2.674   6.628   4.844
 1914SOL     OW 6640   3.819   2.943   6.136
 1914SOL    HW1 6641   3.779   3.003   6.067
 1914SOL    HW2 6642   3.829   2.850   6.099
 1915SOL     OW 6643   3.256   2.043   5.109
 1915SOL    HW1 6644   3.197   2.123   5.095
 1915SOL    HW2 6645   3.246   2.010   5.202
 1916SOL     OW 6646   4.222   5.717   1.311
 1916SOL    HW1 6647   4.268   5.659   1.243
 1916SOL    HW2 6648   4.252   5.691   1.403
 1917SOL     OW 6649   2.443   3.183   6.645
 1917SOL    HW1 6650   2.399   3.112   6.591
 1917SOL    HW2 6651   2.501   3.141   6.715
 1918SOL     OW 6652   1.228   1.015   5.247
 1918SOL    HW1 6653   1.134   1.022   5.279
 1918SOL    HW2 6654   1.270   1.106   5.248
 1919SOL     OW 6655   1.824   0.874   1.505
 1919SOL    HW1 6656   1.884   0.813   1.557
 1919SOL    HW2 6657   1.767   0.820   1.443
 1920SOL     OW 6658   0.363   3.823   2.859
 1920SOL    HW1 6659   0.291   3.883   2.896
 1920SOL    HW2 6660   0.452   3.856   2.889
 1921SOL     OW 6661   1.559   3.740   6.030
 1921SOL    HW1 6662   1.538   3.830   5.991
 1921SOL    HW2 6663   1.633   3.748   6.096
 1922SOL     OW 6664   2.113   3.501   0.998
 1922SOL    HW1 6665   2.045   3.434   1.027
 1922SOL    HW2 6666   2.170   3.527   1.076
 1923SOL     OW 6667   4.229   0.804   5.619
 1923SOL    HW1 6668   4.141   0.834   5.656
 1923SOL    HW2 6669   4.214   0.766   5.527
 1924SOL     OW 6670   5.085   6.600   0.112
 1924SOL    HW1 6671   5.107   6.617   0.208
 1924SOL    HW2 6672   5.169   6.603   0.057
 1925SOL     OW 6673   1.981   4.933   1.043
 1925SOL    HW1 6674   1.904   4.871   1.027
 1925SOL    HW2 6675   1.952   5.005   1.106
 1926SOL     OW 6676   2.500   6.806   2.952
 1926SOL    HW1 6677   2.465   6.756   2.873
 1926SOL    HW2 6678   2.423   6.838   3.008
 1927SOL     OW 6679   2.843   4.510   0.602
 1927SOL    HW1 6680   2.769   4.446   0.625
 1927SOL    HW2 6681   2.916   4.503   0.670
 1928SOL     OW 6682   6.322   4.255   4.916
 1928SOL    HW1 6683   6.237   4.208   4.942
 1928SOL    HW2 6684   6.400   4.197   4.940
 1929SOL     OW 6685   2.112   0.103   1.531
 1929SOL    HW1 6686   2.193   0.078   1.477
 1929SOL    HW2 6687   2.038   0.130   1.469
 1930SOL     OW 6688   4.464   3.648   6.640
 1930SOL    HW1 6689   4.423   3.731   6.602
 1930SOL    HW2 6690   4.407   3.614   6.714
 1931SOL     OW 6691   1.428   2.599   1.632
 1931SOL    HW1 6692   1.470   2.683   1.666
 1931SOL    HW2 6693   1.349   2.622   1.575
 1932SOL     OW 6694   4.823   2.408   2.871
 1932SOL    HW1 6695   4.736   2.441   2.909
 1932SOL    HW2 6696   4.808   2.320   2.826
 1933SOL     OW 6697   1.587   3.248   0.292
 1933SOL    HW1 6698   1.500   3.245   0.341
 1933SOL    HW2 6699   1.659   3.279   0.355
 1934SOL     OW 6700   6.544   0.295   5.267
 1934SOL    HW1 6701   6.639   0.304   5.299
 1934SOL    HW2 6702   6.519   0.376   5.214
 1935SOL     OW 6703   4.598   5.816   3.416
 1935SOL    HW1 6704   4.554   5.728   3.436
 1935SOL    HW2 6705   4.611   5.866   3.501
 1936SOL     OW 6706   5.412   4.249   3.879
 1936SOL    HW1 6707   5.388   4.278   3.786
 1936SOL    HW2 6708   5.452   4.326   3.928
 1937SOL     OW 6709   4.421   6.044   0.500
 1937SOL    HW1 6710   4.476   5.979   0.449
 1937SOL    HW2 6711   4.479   6.120   0.531
 1938SOL     OW 6712   1.272   1.656   2.117
 1938SOL    HW1 6713   1.249   1.745   2.078
 1938SOL    HW2 6714   1.295   1.592   2.043
 1939SOL     OW 6715   6.997   6.831   4.167
 1939SOL    HW1 6716   6.977   6.860   4.073
 1939SOL    HW2 6717   6.983   6.732   4.174
 1940SOL     OW 6718   5.797   5.623   0.875
 1940SOL    HW1 6719   5.793   5.695   0.945
 1940SOL    HW2 6720   5.715   5.566   0.882
 1941SOL     OW 6721   1.459   2.839   4.329
 1941SOL    HW1 6722   1.387   2.815   4.263
 1941SOL    HW2 6723   1.514   2.758   4.348
 1942SOL     OW 6724   5.517   2.672   1.564
 1942SOL    HW1 6725   5.459   2.650   1.642
 1942SOL    HW2 6726   5.524   2.772   1.555
 1943SOL     OW 6727   1.874   6.848   3.083
 1943SOL    HW1 6728   1.917   6.762   3.056
 1943SOL    HW2 6729   1.911   6.878   3.171
 1944SOL     OW 6730   6.284   3.630   0.150
 1944SOL    HW1 6731   6.379   3.654   0.130
 1944SOL    HW2 6732   6.247   3.575   0.075
 1945SOL     OW 6733   4.245   5.598   0.019
 1945SOL    HW1 6734   4.318   5.666   0.018
 1945SOL    HW2 6735   4.269   5.522   6.982
 1946SOL     OW 6736   5.800   6.564   1.025
 1946SOL    HW1 6737   5.769   6.474   1.055
 1946SOL    HW2 6738   5.866   6.553   0.951
 1947SOL     OW 6739   5.708   6.409   4.511
 1947SOL    HW1 6740   5.674   6.378   4.422
 1947SOL    HW2 6741   5.643   6.473   4.551
 1948SOL     OW 6742   6.807   4.873   2.990
 1948SOL    HW1 6743   6.799   4.937   3.066
 1948SOL    HW2 6744   6.717   4.834   2.970
 1949SOL     OW 6745   3.582   3.504   6.468
 1949SOL    HW1 6746   3.652   3.433   6.468
 1949SOL    HW2 6747   3.622   3.591   6.438
 1950SOL     OW 6748   3.830   3.015   1.605
 1950SOL    HW1 6749   3.873   2.982   1.688
 1950SOL    HW2 6750   3.733   3.032   1.622
 1951SOL     OW 6751   6.576   4.658   6.673
 1951SOL    HW1 6752   6.584   4.568   6.629
 1951SOL    HW2 6753   6.483   4.692   6.663
 1952SOL     OW 6754   4.836   4.516   1.289
 1952SOL    HW1 6755   4.740   4.490   1.293
 1952SOL    HW2 6756   4.891   4.447   1.337
 1953SOL     OW 6757   6.050   1.485   5.426
 1953SOL    HW1 6758   5.987   1.477   5.503
 1953SOL    HW2 6759   6.144   1.487   5.460
 1954SOL     OW 6760   6.555   0.353   1.398
 1954SOL    HW1 6761   6.560   0.259   1.367
 1954SOL    HW2 6762   6.500   0.358   1.481
 1955SOL     OW 6763   0.381   0.205   3.061
 1955SOL    HW1 6764   0.458   0.251   3.106
 1955SOL    HW2 6765   0.330   0.152   3.129
 1956SOL     OW 6766   5.023   6.721   1.707
 1956SOL    HW1 6767   4.962   6.644   1.688
 1956SOL    HW2 6768   5.086   6.696   1.780
 1957SOL     OW 6769   5.187   4.380   3.984
 1957SOL    HW1 6770   5.261   4.322   3.949
 1957SOL    HW2 6771   5.203   4.475   3.956
 1958SOL     OW 6772   4.691   1.640   1.635
 1958SOL    HW1 6773   4.782   1.647   1.675
 1958SOL    HW2 6774   4.635   1.718   1.664
 1959SOL     OW 6775   1.188   6.984   3.827
 1959SOL    HW1 6776   1.250   6.920   3.873
 1959SOL    HW2 6777   1.196   0.051   3.870
 1960SOL     OW 6778   0.243   3.891   2.435
 1960SOL    HW1 6779   0.338   3.921   2.446
 1960SOL    HW2 6780   0.188   3.967   2.400
 1961SOL     OW 6781   6.601   4.168   4.380
 1961SOL    HW1 6782   6.699   4.168   4.402
 1961SOL    HW2 6783   6.547   4.167   4.464
 1962SOL     OW 6784   1.542   6.388   2.499
 1962SOL    HW1 6785   1.606   6.429   2.564
 1962SOL    HW2 6786   1.566   6.293   2.484
 1963SOL     OW 6787   1.034   1.460   1.935
 1963SOL    HW1 6788   1.122   1.506   1.924
 1963SOL    HW2 6789   1.027   1.386   1.868
 1964SOL     OW 6790   4.400   4.672   1.585
 1964SOL    HW1 6791   4.441   4.684   1.495
 1964SOL    HW2 6792   4.416   4.578   1.616
 1965SOL     OW 6793   1.788   3.016   4.515
 1965SOL    HW1 6794   1.856   3.025   4.587
 1965SOL    HW2 6795   1.699   2.991   4.555
 1966SOL     OW 6796   0.436   6.039   1.300
 1966SOL    HW1 6797   0.395   6.117   1.347
 1966SOL    HW2 6798   0.535   6.039   1.318
 1967SOL     OW 6799   5.682   2.917   3.776
 1967SOL    HW1 6800   5.666   2.992   3.841
 1967SOL    HW2 6801   5.695   2.955   3.685
 1968SOL     OW 6802   2.070   0.389   5.707
 1968SOL    HW1 6803   1.987   0.442   5.690
 1968SOL    HW2 6804   2.150   0.449   5.700
 1969SOL     OW 6805   3.099   1.326   0.788
 1969SOL    HW1 6806   3.115   1.425   0.791
 1969SOL    HW2 6807   3.130   1.284   0.873
 1970SOL     OW 6808   1.968   6.938   5.745
 1970SOL    HW1 6809   2.062   6.949   5.777
 1970SOL    HW2 6810   1.943   6.841   5.751
 1971SOL     OW 6811   7.002   0.851   5.255
 1971SOL    HW1 6812   6.904   0.839   5.236
 1971SOL    HW2 6813   0.005   0.791   5.331
 1972SOL     OW 6814   5.579   2.072   0.985
 1972SOL    HW1 6815   5.662   2.119   0.954
 1972SOL    HW2 6816   5.502   2.136   0.984
 1973SOL     OW 6817   2.915   4.021   1.052
 1973SOL    HW1 6818   2.908   3.952   1.124
 1973SOL    HW2 6819   2.992   3.999   0.991
 1974SOL     OW 6820   4.889   0.397   4.747
 1974SOL    HW1 6821   4.844   0.312   4.774
 1974SOL    HW2 6822   4.827   0.451   4.689
 1975SOL     OW 6823   2.016   2.196   4.098
 1975SOL    HW1 6824   2.029   2.126   4.027
 1975SOL    HW2 6825   1.989   2.151   4.184
 1976SOL     OW 6826   6.250   6.354   0.584
 1976SOL    HW1 6827   6.269   6.264   0.623
 1976SOL    HW2 6828   6.313   6.421   0.622
 1977SOL     OW 6829   2.051   3.417   5.479
 1977SOL    HW1 6830   1.980   3.363   5.524
 1977SOL    HW2 6831   2.053   3.394   5.381
 1978SOL     OW 6832   1.961   6.250   2.939
 1978SOL    HW1 6833   2.050   6.206   2.947
 1978SOL    HW2 6834   1.918   6.256   3.030
 1979SOL     OW 6835   5.285   4.892   6.938
 1979SOL    HW1 6836   5.341   4.967   6.971
 1979SOL    HW2 6837   5.341   4.830   6.883
 1980SOL     OW 6838   4.011   6.891   3.933
 1980SOL    HW1 6839   3.944   6.891   4.007
 1980SOL    HW2 6840   3.990   6.965   3.869
 1981SOL     OW 6841   5.836   3.494   2.280
 1981SOL    HW1 6842   5.778   3.452   2.210
 1981SOL    HW2 6843   5.832   3.441   2.364
 1982SOL     OW 6844   6.742   4.386   3.799
 1982SOL    HW1 6845   6.796   4.449   3.854
 1982SOL    HW2 6846   6.658   4.431   3.769
 1983SOL     OW 6847   1.923   6.975   1.655
 1983SOL    HW1 6848   1.891   7.011   1.743
 1983SOL    HW2 6849   1.998   0.008   1.622
 1984SOL     OW 6850   4.712   2.430   4.878
 1984SOL    HW1 6851   4.742   2.378   4.798
 1984SOL    HW2 6852   4.613   2.441   4.875
 1985SOL     OW 6853   6.951   5.887   2.652
 1985SOL    HW1 6854   0.023   5.857   2.645
 1985SOL    HW2 6855   6.930   5.907   2.748
 1986SOL     OW 6856   3.091   1.562   6.369
 1986SOL    HW1 6857   3.040   1.494   6.420
 1986SOL    HW2 6858   3.088   1.650   6.417
 1987SOL     OW 6859   2.220   2.025   3.154
 1987SOL    HW1 6860   2.149   2.096   3.153
 1987SOL    HW2 6861   2.244   2.003   3.248
 1988SOL     OW 6862   6.874   3.295   0.713
 1988SOL    HW1 6863   6.784   3.326   0.744
 1988SOL    HW2 6864   6.933   3.280   0.792
 1989SOL     OW 6865   1.830   5.528   5.406
 1989SOL    HW1 6866   1.764   5.527   5.481
 1989SOL    HW2 6867   1.783   5.506   5.320
 1990SOL     OW 6868   4.171   5.738   0.716
 1990SOL    HW1 6869   4.093   5.800   0.708
 1990SOL    HW2 6870   4.138   5.644   0.717
 1991SOL     OW 6871   2.596   6.063   0.522
 1991SOL    HW1 6872   2.549   5.995   0.579
 1991SOL    HW2 6873   2.547   6.073   0.435
 1992SOL     OW 6874   0.210   0.886   0.344
 1992SOL    HW1 6875   0.211   0.787   0.325
 1992SOL    HW2 6876   0.260   0.934   0.272
 1993SOL     OW 6877   3.677   1.803   5.948
 1993SOL    HW1 6878   3.761   1.819   6.000
 1993SOL    HW2 6879   3.606   1.768   6.008
 1994SOL     OW 6880   6.681   2.338   0.892
 1994SOL    HW1 6881   6.695   2.254   0.944
 1994SOL    HW2 6882   6.647   2.410   0.953
 1995SOL     OW 6883   5.494   3.116   3.663
 1995SOL    HW1 6884   5.560   3.186   3.689
 1995SOL    HW2 6885   5.542   3.037   3.625
 1996SOL     OW 6886   2.638   1.846   0.973
 1996SOL    HW1 6887   2.603   1.910   0.904
 1996SOL    HW2 6888   2.665   1.897   1.055
 1997SOL     OW 6889   3.897   1.880   4.292
 1997SOL    HW1 6890   3.928   1.832   4.210
 1997SOL    HW2 6891   3.908   1.978   4.279
 1998SOL     OW 6892   1.264   3.636   0.299
 1998SOL    HW1 6893   1.219   3.550   0.274
 1998SOL    HW2 6894   1.256   3.650   0.398
 1999SOL     OW 6895   1.475   0.038   6.067
 1999SOL    HW1 6896   1.511   0.127   6.096
 1999SOL    HW2 6897   1.443   7.011   6.148
 2000SOL     OW 6898   3.716   2.768   5.731
 2000SOL    HW1 6899   3.689   2.846   5.674
 2000SOL    HW2 6900   3.636   2.711   5.749
 2001SOL     OW 6901   2.054   1.238   1.448
 2001SOL    HW1 6902   2.110   1.321   1.451
 2001SOL    HW2 6903   2.087   1.179   1.374
 2002SOL     OW 6904   0.092   4.833   0.544
 2002SOL    HW1 6905   0.178   4.831   0.595
 2002SOL    HW2 6906   0.082   4.747   0.493
 2003SOL     OW 6907   6.884   4.928   2.497
 2003SOL    HW1 6908   6.915   5.020   2.471
 2003SOL    HW2 6909   6.857   4.878   2.415
 2004SOL     OW 6910   5.406   0.824   4.316
 2004SOL    HW1 6911   5.339   0.888   4.354
 2004SOL    HW2 6912   5.468   0.793   4.388
 2005SOL     OW 6913   6.811   4.700   0.676
 2005SOL    HW1 6914   6.893   4.649   0.699
 2005SOL    HW2 6915   6.825   4.797   0.699
 2006SOL     OW 6916   5.467   0.249   3.451
 2006SOL    HW1 6917   5.550   0.283   3.408
 2006SOL    HW2 6918   5.467   0.149   3.449
 2007SOL     OW 6919   5.049   4.896   0.970
 2007SOL    HW1 6920   5.081   4.840   0.893
 2007SOL    HW2 6921   5.048   4.840   1.053
 2008SOL     OW 6922   1.799   4.012   3.540
 2008SOL    HW1 6923   1.814   3.971   3.630
 2008SOL    HW2 6924   1.885   4.051   3.506
 2009SOL     OW 6925   4.841   6.919   2.806
 2009SOL    HW1 6926   4.855   6.976   2.725
 2009SOL    HW2 6927   4.811   6.977   2.883
 2010SOL     OW 6928   2.548   1.630   1.598
 2010SOL    HW1 6929   2.517   1.537   1.620
 2010SOL    HW2 6930   2.566   1.637   1.500
 2011SOL     OW 6931   0.872   0.665   4.782
 2011SOL    HW1 6932   0.779   0.661   4.747
 2011SOL    HW2 6933   0.885   0.750   4.834
 2012SOL     OW 6934   1.613   4.027   2.703
 2012SOL    HW1 6935   1.692   4.089   2.704
 2012SOL    HW2 6936   1.626   3.959   2.631
 2013SOL     OW 6937   5.607   3.225   4.127
 2013SOL    HW1 6938   5.548   3.146   4.143
 2013SOL    HW2 6939   5.679   3.227   4.197
 2014SOL     OW 6940   2.904   6.960   3.284
 2014SOL    HW1 6941   2.838   6.953   3.359
 2014SOL    HW2 6942   2.996   6.969   3.321
 2015SOL     OW 6943   2.322   6.852   1.061
 2015SOL    HW1 6944   2.237   6.811   1.029
 2015SOL    HW2 6945   2.388   6.780   1.082
 2016SOL     OW 6946   1.687   5.727   5.769
 2016SOL    HW1 6947   1.644   5.677   5.843
 2016SOL    HW2 6948   1.644   5.817   5.760
 2017SOL     OW 6949   4.198   0.464   3.135
 2017SOL    HW1 6950   4.138   0.401   3.086
 2017SOL    HW2 6951   4.149   0.550   3.152
 2018SOL     OW 6952   6.232   2.977   3.715
 2018SOL    HW1 6953   6.288   3.018   3.787
 2018SOL    HW2 6954   6.217   2.880   3.736
 2019SOL     OW 6955   5.432   4.012   6.399
 2019SOL    HW1 6956   5.390   3.967   6.320
 2019SOL    HW2 6957   5.364   4.021   6.472
 2020SOL     OW 6958   1.922   0.146   6.411
 2020SOL    HW1 6959   1.924   0.106   6.319
 2020SOL    HW2 6960   1.996   0.213   6.419
 2021SOL     OW 6961   6.669   6.595   4.852
 2021SOL    HW1 6962   6.733   6.561   4.783
 2021SOL    HW2 6963   6.656   6.693   4.840
 2022SOL     OW 6964   1.459   4.630   4.277
 2022SOL    HW1 6965   1.519   4.608   4.200
 2022SOL    HW2 6966   1.499   4.597   4.362
 2023SOL     OW 6967   0.888   0.896   6.635
 2023SOL    HW1 6968   0.826   0.824   6.603
 2023SOL    HW2 6969   0.966   0.854   6.681
 2024SOL     OW 6970   0.146   5.646   3.783
 2024SOL    HW1 6971   0.112   5.562   3.741
 2024SOL    HW2 6972   0.143   5.639   3.882
 2025SOL     OW 6973   4.097   0.911   3.986
 2025SOL    HW1 6974   4.021   0.854   3.958
 2025SOL    HW2 6975   4.063   1.000   4.017
 2026SOL     OW 6976   6.643   2.473   6.476
 2026SOL    HW1 6977   6.568   2.538   6.467
 2026SOL    HW2 6978   6.694   2.491   6.560
 2027SOL     OW 6979   1.258   0.129   1.477
 2027SOL    HW1 6980   1.268   0.088   1.568
 2027SOL    HW2 6981   1.161   0.138   1.455
 2028SOL     OW 6982   3.505   5.384   4.531
 2028SOL    HW1 6983   3.595   5.354   4.500
 2028SOL    HW2 6984   3.485   5.341   4.619
 2029SOL     OW 6985   6.478   2.044   0.133
 2029SOL    HW1 6986   6.431   2.090   0.058
 2029SOL    HW2 6987   6.528   2.111   0.188
 2030SOL     OW 6988   3.003   0.262   3.260
 2030SOL    HW1 6989   2.953   0.219   3.185
 2030SOL    HW2 6990   2.941   0.318   3.314
 2031SOL     OW 6991   6.803   5.999   1.958
 2031SOL    HW1 6992   6.900   5.996   1.984
 2031SOL    HW2 6993   6.789   5.945   1.875
 2032SOL     OW 6994   3.695   1.437   1.540
 2032SOL    HW1 6995   3.692   1.410   1.637
 2032SOL    HW2 6996   3.684   1.536   1.533
 2033SOL     OW 6997   2.470   1.473   0.502
 2033SOL    HW1 6998   2.468   1.374   0.516
 2033SOL    HW2 6999   2.430   1.519   0.581
 2034SOL     OW 7000   2.673   5.304   5.807
 2034SOL    HW1 7001   2.577   5.316   5.833
 2034SOL    HW2 7002   2.681   5.299   5.708
 2035SOL     OW 7003   6.541   6.477   3.325
 2035SOL    HW1 7004   6.475   6.526   3.267
 2035SOL    HW2 7005   6.500   6.459   3.415
 2036SOL     OW 7006   1.202   3.381   2.700
 2036SOL    HW1 7007   1.156   3.461   2.738
 2036SOL    HW2 7008   1.263   3.342   2.770
 2037SOL     OW 7009   6.376   2.499   6.209
 2037SOL    HW1 7010   6.393   2.514   6.112
 2037SOL    HW2 7011   6.464   2.495   6.257
 2038SOL     OW 7012   2.449   1.736   0.365
 2038SOL    HW1 7013   2.421   1.642   0.384
 2038SOL    HW2 7014   2.384   1.799   0.407
 2039SOL     OW 7015   7.017   6.410   3.390
 2039SOL    HW1 7016   6.931   6.427   3.344
 2039SOL    HW2 7017   0.064   6.472   3.354
 2040SOL     OW 7018   1.841   2.136   6.970
 2040SOL    HW1 7019   1.793   2.192   0.014
 2040SOL    HW2 7020   1.850   2.042   7.005
 2041SOL     OW 7021   0.992   0.037   4.994
 2041SOL    HW1 7022   0.973   0.035   5.092
 2041SOL    HW2 7023   1.034   0.125   4.970
 2042SOL     OW 7024   5.541   6.929   6.173
 2042SOL    HW1 7025   5.556   6.853   6.109
 2042SOL    HW2 7026   5.553   7.016   6.124
 2043SOL     OW 7027   6.420   2.701   2.851
 2043SOL    HW1 7028   6.385   2.657   2.933
 2043SOL    HW2 7029   6.349   2.761   2.812
 2044SOL     OW 7030   6.415   0.363   1.130
 2044SOL    HW1 7031   6.316   0.376   1.136
 2044SOL    HW2 7032   6.458   0.391   1.215
 2045SOL     OW 7033   1.113   4.759   4.611
 2045SOL    HW1 7034   1.178   4.827   4.646
 2045SOL    HW2 7035   1.088   4.782   4.517
 2046SOL     OW 7036   6.433   2.071   5.232
 2046SOL    HW1 7037   6.474   1.984   5.205
 2046SOL    HW2 7038   6.334   2.066   5.220
 2047SOL     OW 7039   6.736   2.444   0.584
 2047SOL    HW1 7040   6.643   2.460   0.549
 2047SOL    HW2 7041   6.736   2.364   0.644
 2048SOL     OW 7042   0.261   0.168   5.105
 2048SOL    HW1 7043   0.240   0.264   5.084
 2048SOL    HW2 7044   0.252   0.153   5.203
 2049SOL     OW 7045   5.737   1.772   4.362
 2049SOL    HW1 7046   5.805   1.700   4.352
 2049SOL    HW2 7047   5.675   1.749   4.437
 2050SOL     OW 7048   6.864   2.534   4.215
 2050SOL    HW1 7049   6.791   2.467   4.225
 2050SOL    HW2 7050   6.925   2.530   4.294
 2051SOL     OW 7051   1.893   6.180   6.665
 2051SOL    HW1 7052   1.909   6.172   6.567
 2051SOL    HW2 7053   1.827   6.111   6.693
 2052SOL     OW 7054   1.439   2.839   1.113
 2052SOL    HW1 7055   1.437   2.883   1.024
 2052SOL    HW2 7056   1.370   2.766   1.116
 2053SOL     OW 7057   0.633   5.345   5.033
 2053SOL    HW1 7058   0.592   5.436   5.028
 2053SOL    HW2 7059   0.649   5.311   4.940
 2054SOL     OW 7060   2.939   3.770   3.107
 2054SOL    HW1 7061   2.979   3.730   3.024
 2054SOL    HW2 7062   2.840   3.765   3.101
 2055SOL     OW 7063   6.299   2.878   5.211
 2055SOL    HW1 7064   6.230   2.910   5.147
 2055SOL    HW2 7065   6.352   2.955   5.244
 2056SOL     OW 7066   4.092   5.099   2.024
 2056SOL    HW1 7067   4.092   5.138   1.932
 2056SOL    HW2 7068   3.999   5.068   2.047
 2057SOL     OW 7069   5.029   3.809   5.550
 2057SOL    HW1 7070   4.983   3.851   5.628
 2057SOL    HW2 7071   5.036   3.710   5.564
 2058SOL     OW 7072   0.116   6.327   2.593
 2058SOL    HW1 7073   0.125   6.310   2.691
 2058SOL    HW2 7074   0.197   6.291   2.546
 2059SOL     OW 7075   2.286   6.203   0.034
 2059SOL    HW1 7076   2.209   6.264   0.014
 2059SOL    HW2 7077   2.346   6.197   6.978
 2060SOL     OW 7078   0.623   3.671   1.633
 2060SOL    HW1 7079   0.565   3.724   1.695
 2060SOL    HW2 7080   0.581   3.669   1.543
 2061SOL     OW 7081   1.802   2.497   2.626
 2061SOL    HW1 7082   1.801   2.573   2.561
 2061SOL    HW2 7083   1.876   2.510   2.692
 2062SOL     OW 7084   0.183   6.285   5.584
 2062SOL    HW1 7085   0.201   6.382   5.568
 2062SOL    HW2 7086   0.156   6.241   5.499
 2063SOL     OW 7087   1.313   6.002   5.194
 2063SOL    HW1 7088   1.364   6.084   5.170
 2063SOL    HW2 7089   1.220   6.027   5.221
 2064SOL     OW 7090   0.284   2.269   4.772
 2064SOL    HW1 7091   0.273   2.273   4.673
 2064SOL    HW2 7092   0.221   2.334   4.815
 2065SOL     OW 7093   5.893   3.130   6.604
 2065SOL    HW1 7094   5.947   3.085   6.675
 2065SOL    HW2 7095   5.901   3.229   6.614
 2066SOL     OW 7096   6.575   4.032   5.576
 2066SOL    HW1 7097   6.555   4.056   5.481
 2066SOL    HW2 7098   6.634   3.951   5.579
 2067SOL     OW 7099   6.682   5.253   1.023
 2067SOL    HW1 7100   6.763   5.200   0.996
 2067SOL    HW2 7101   6.619   5.196   1.074
 2068SOL     OW 7102   4.116   0.019   4.196
 2068SOL    HW1 7103   4.070   0.065   4.120
 2068SOL    HW2 7104   4.202   0.066   4.216
 2069SOL     OW 7105   0.137   2.388   4.049
 2069SOL    HW1 7106   0.225   2.359   4.087
 2069SOL    HW2 7107   0.064   2.363   4.112
 2070SOL     OW 7108   1.263   1.926   1.389
 2070SOL    HW1 7109   1.182   1.920   1.447
 2070SOL    HW2 7110   1.243   1.983   1.310
 2071SOL     OW 7111   6.456   0.781   5.824
 2071SOL    HW1 7112   6.408   0.816   5.905
 2071SOL    HW2 7113   6.524   0.848   5.794
 2072SOL     OW 7114   4.755   5.149   4.572
 2072SOL    HW1 7115   4.782   5.139   4.668
 2072SOL    HW2 7116   4.713   5.064   4.540
 2073SOL     OW 7117   3.508   6.268   5.265
 2073SOL    HW1 7118   3.426   6.325   5.258
 2073SOL    HW2 7119   3.560   6.274   5.180
 2074SOL     OW 7120   2.080   2.511   0.012
 2074SOL    HW1 7121   2.163   2.468   7.002
 2074SOL    HW2 7122   2.005   2.492   6.972
 2075SOL     OW 7123   6.633   2.483   2.486
 2075SOL    HW1 7124   6.645   2.385   2.499
 2075SOL    HW2 7125   6.561   2.516   2.547
 2076SOL     OW 7126   5.753   6.757   6.033
 2076SOL    HW1 7127   5.740   6.823   5.958
 2076SOL    HW2 7128   5.846   6.767   6.069
 2077SOL     OW 7129   6.444   2.289   1.899
 2077SOL    HW1 7130   6.390   2.226   1.955
 2077SOL    HW2 7131   6.456   2.375   1.949
 2078SOL     OW 7132   1.953   5.003   6.675
 2078SOL    HW1 7133   2.027   5.062   6.644
 2078SOL    HW2 7134   1.947   5.005   6.775
 2079SOL     OW 7135   6.791   0.926   3.079
 2079SOL    HW1 7136   6.840   0.897   2.997
 2079SOL    HW2 7137   6.713   0.865   3.094
 2080SOL     OW 7138   2.949   1.350   4.753
 2080SOL    HW1 7139   2.872   1.299   4.791
 2080SOL    HW2 7140   2.997   1.293   4.685
 2081SOL     OW 7141   1.081   6.389   4.468
 2081SOL    HW1 7142   1.034   6.338   4.396
 2081SOL    HW2 7143   1.019   6.459   4.505
 2082SOL     OW 7144   0.714   6.575   3.283
 2082SOL    HW1 7145   0.809   6.546   3.284
 2082SOL    HW2 7146   0.703   6.656   3.342
 2083SOL     OW 7147   1.584   6.035   4.974
 2083SOL    HW1 7148   1.617   5.967   5.039
 2083SOL    HW2 7149   1.522   6.098   5.020
 2084SOL     OW 7150   0.867   2.816   1.996
 2084SOL    HW1 7151   0.934   2.854   1.933
 2084SOL    HW2 7152   0.775   2.827   1.958
 2085SOL     OW 7153   4.871   6.457   0.968
 2085SOL    HW1 7154   4.898   6.363   0.991
 2085SOL    HW2 7155   4.947   6.519   0.988
 2086SOL     OW 7156   3.841   5.959   0.233
 2086SOL    HW1 7157   3.832   5.907   0.318
 2086SOL    HW2 7158   3.846   6.057   0.254
 2087SOL     OW 7159   4.416   2.515   0.501
 2087SOL    HW1 7160   4.338   2.502   0.440
 2087SOL    HW2 7161   4.485   2.571   0.456
 2088SOL     OW 7162   1.580   5.719   6.283
 2088SOL    HW1 7163   1.593   5.620   6.285
 2088SOL    HW2 7164   1.656   5.761   6.234
 2089SOL     OW 7165   4.474   2.466   5.323
 2089SOL    HW1 7166   4.454   2.388   5.264
 2089SOL    HW2 7167   4.570   2.491   5.314
 2090SOL     OW 7168   4.742   3.100   5.299
 2090SOL    HW1 7169   4.768   3.192   5.270
 2090SOL    HW2 7170   4.642   3.092   5.301
 2091SOL     OW 7171   6.822   6.123   0.623
 2091SOL    HW1 7172   6.850   6.116   0.527
 2091SOL    HW2 7173   6.750   6.192   0.632
 2092SOL     OW 7174   5.383   3.863   1.019
 2092SOL    HW1 7175   5.340   3.800   0.955
 2092SOL    HW2 7176   5.446   3.813   1.079
 2093SOL     OW 7177   3.411   2.076   2.011
 2093SOL    HW1 7178   3.475   2.143   1.974
 2093SOL    HW2 7179   3.460   2.005   2.060
 2094SOL     OW 7180   5.239   1.910   1.027
 2094SOL    HW1 7181   5.141   1.888   1.025
 2094SOL    HW2 7182   5.251   2.003   1.062
 2095SOL     OW 7183   6.140   6.707   3.814
 2095SOL    HW1 7184   6.108   6.698   3.720
 2095SOL    HW2 7185   6.143   6.803   3.840
 2096SOL     OW 7186   4.543   5.378   3.296
 2096SOL    HW1 7187   4.637   5.408   3.282
 2096SOL    HW2 7188   4.482   5.427   3.234
 2097SOL     OW 7189   2.842   3.117   0.274
 2097SOL    HW1 7190   2.883   3.097   0.363
 2097SOL    HW2 7191   2.849   3.215   0.255
 2098SOL     OW 7192   3.885   6.157   2.988
 2098SOL    HW1 7193   3.951   6.135   2.917
 2098SOL    HW2 7194   3.864   6.075   3.041
 2099SOL     OW 7195   4.567   1.206   6.459
 2099SOL    HW1 7196   4.493   1.143   6.481
 2099SOL    HW2 7197   4.534   1.300   6.463
 2100SOL     OW 7198   4.507   1.474   0.095
 2100SOL    HW1 7199   4.548   1.383   0.100
 2100SOL    HW2 7200   4.578   1.544   0.103
 2101SOL     OW 7201   6.685   6.323   1.213
 2101SOL    HW1 7202   6.731   6.402   1.254
 2101SOL    HW2 7203   6.610   6.294   1.272
 2102SOL     OW 7204   4.724   3.680   1.674
 2102SOL    HW1 7205   4.681   3.590   1.678
 2102SOL    HW2 7206   4.815   3.675   1.715
 2103SOL     OW 7207   4.233   3.830   0.521
 2103SOL    HW1 7208   4.134   3.847   0.518
 2103SOL    HW2 7209   4.270   3.869   0.605
 2104SOL     OW 7210   1.377   4.759   1.988
 2104SOL    HW1 7211   1.283   4.734   1.964
 2104SOL    HW2 7212   1.377   4.832   2.056
 2105SOL     OW 7213   4.019   4.847   6.871
 2105SOL    HW1 7214   4.083   4.901   6.924
 2105SOL    HW2 7215   3.942   4.819   6.928
 2106SOL     OW 7216   5.188   3.640   1.011
 2106SOL    HW1 7217   5.122   3.694   1.064
 2106SOL    HW2 7218   5.272   3.630   1.064
 2107SOL     OW 7219   6.045   2.514   5.690
 2107SOL    HW1 7220   6.086   2.565   5.614
 2107SOL    HW2 7221   6.018   2.424   5.658
 2108SOL     OW 7222   5.853   5.629   4.818
 2108SOL    HW1 7223   5.769   5.675   4.789
 2108SOL    HW2 7224   5.891   5.677   4.897
 2109SOL     OW 7225   2.991   5.942   2.352
 2109SOL    HW1 7226   3.038   6.022   2.389
 2109SOL    HW2 7227   2.950   5.965   2.264
 2110SOL     OW 7228   3.890   0.522   6.112
 2110SOL    HW1 7229   3.810   0.500   6.168
 2110SOL    HW2 7230   3.913   0.444   6.054
 2111SOL     OW 7231   1.924   2.523   5.174
 2111SOL    HW1 7232   1.830   2.488   5.177
 2111SOL    HW2 7233   1.954   2.529   5.079
 2112SOL     OW 7234   5.427   2.017   6.753
 2112SOL    HW1 7235   5.398   2.014   6.848
 2112SOL    HW2 7236   5.512   1.965   6.742
 2113SOL     OW 7237   2.142   0.050   5.009
 2113SOL    HW1 7238   2.076   7.016   4.960
 2113SOL    HW2 7239   2.230   0.004   5.014
 2114SOL     OW 7240   2.187   3.084   6.958
 2114SOL    HW1 7241   2.165   2.988   6.942
 2114SOL    HW2 7242   2.103   3.137   6.969
 2115SOL     OW 7243   1.166   4.645   1.889
 2115SOL    HW1 7244   1.084   4.623   1.942
 2115SOL    HW2 7245   1.155   4.613   1.795
 2116SOL     OW 7246   1.416   2.852   1.411
 2116SOL    HW1 7247   1.447   2.845   1.316
 2116SOL    HW2 7248   1.317   2.838   1.415
 2117SOL     OW 7249   5.056   3.524   1.417
 2117SOL    HW1 7250   5.077   3.432   1.450
 2117SOL    HW2 7251   4.959   3.544   1.430
 2118SOL     OW 7252   6.550   3.806   2.812
 2118SOL    HW1 7253   6.595   3.720   2.838
 2118SOL    HW2 7254   6.468   3.818   2.868
 2119SOL     OW 7255   1.977   1.005   0.999
 2119SOL    HW1 7256   2.038   1.045   1.068
 2119SOL    HW2 7257   2.030   0.983   0.917
 2120SOL     OW 7258   6.865   2.565   2.706
 2120SOL    HW1 7259   6.810   2.484   2.688
 2120SOL    HW2 7260   6.888   2.610   2.619
 2121SOL     OW 7261   2.085   2.818   6.703
 2121SOL    HW1 7262   2.175   2.784   6.733
 2121SOL    HW2 7263   2.035   2.744   6.657
 2122SOL     OW 7264   6.275   6.507   5.831
 2122SOL    HW1 7265   6.356   6.483   5.885
 2122SOL    HW2 7266   6.301   6.518   5.735
 2123SOL     OW 7267   6.101   6.084   2.435
 2123SOL    HW1 7268   6.073   5.993   2.407
 2123SOL    HW2 7269   6.183   6.077   2.493
 2124SOL     OW 7270   3.120   1.894   6.716
 2124SOL    HW1 7271   3.111   1.797   6.734
 2124SOL    HW2 7272   3.045   1.924   6.657
 2125SOL     OW 7273   0.967   5.781   2.181
 2125SOL    HW1 7274   0.869   5.799   2.168
 2125SOL    HW2 7275   1.008   5.758   2.092
 2126SOL     OW 7276   4.131   2.643   6.165
 2126SOL    HW1 7277   4.138   2.628   6.066
 2126SOL    HW2 7278   4.038   2.622   6.195
 2127SOL     OW 7279   0.491   1.968   5.268
 2127SOL    HW1 7280   0.518   1.901   5.338
 2127SOL    HW2 7281   0.392   1.983   5.273
 2128SOL     OW 7282   6.035   2.587   1.212
 2128SOL    HW1 7283   6.025   2.626   1.121
 2128SOL    HW2 7284   5.951   2.539   1.238
 2129SOL     OW 7285   5.002   4.348   4.182
 2129SOL    HW1 7286   5.077   4.359   4.117
 2129SOL    HW2 7287   4.982   4.436   4.225
 2130SOL     OW 7288   2.344   1.586   1.246
 2130SOL    HW1 7289   2.322   1.681   1.267
 2130SOL    HW2 7290   2.415   1.583   1.176
 2131SOL     OW 7291   4.974   1.642   0.808
 2131SOL    HW1 7292   4.909   1.705   0.851
 2131SOL    HW2 7293   4.929   1.555   0.790
 2132SOL     OW 7294   3.426   1.409   6.707
 2132SOL    HW1 7295   3.376   1.352   6.772
 2132SOL    HW2 7296   3.399   1.504   6.717
 2133SOL     OW 7297   3.455   2.083   0.903
 2133SOL    HW1 7298   3.528   2.151   0.903
 2133SOL    HW2 7299   3.398   2.095   0.822
 2134SOL     OW 7300   1.096   1.273   4.609
 2134SOL    HW1 7301   1.045   1.317   4.683
 2134SOL    HW2 7302   1.192   1.302   4.614
 2135SOL     OW 7303   0.198   1.563   4.513
 2135SOL    HW1 7304   0.176   1.473   4.552
 2135SOL    HW2 7305   0.148   1.575   4.427
 2136SOL     OW 7306   1.156   3.628   4.625
 2136SOL    HW1 7307   1.240   3.572   4.625
 2136SOL    HW2 7308   1.084   3.579   4.576
 2137SOL     OW 7309   0.701   6.702   4.505
 2137SOL    HW1 7310   0.688   6.781   4.445
 2137SOL    HW2 7311   0.692   6.730   4.600
 2138SOL     OW 7312   5.838   3.183   1.672
 2138SOL    HW1 7313   5.916   3.242   1.651
 2138SOL    HW2 7314   5.855   3.092   1.634
 2139SOL     OW 7315   4.077   1.127   3.452
 2139SOL    HW1 7316   4.054   1.193   3.524
 2139SOL    HW2 7317   4.166   1.086   3.473
 2140SOL     OW 7318   3.139   6.600   3.070
 2140SOL    HW1 7319   3.064   6.661   3.094
 2140SOL    HW2 7320   3.103   6.524   3.015
 2141SOL     OW 7321   6.521   2.843   1.945
 2141SOL    HW1 7322   6.543   2.940   1.948
 2141SOL    HW2 7323   6.425   2.832   1.919
 2142SOL     OW 7324   1.496   2.428   3.288
 2142SOL    HW1 7325   1.572   2.492   3.272
 2142SOL    HW2 7326   1.532   2.335   3.291
 2143SOL     OW 7327   3.458   5.316   0.720
 2143SOL    HW1 7328   3.522   5.352   0.788
 2143SOL    HW2 7329   3.409   5.238   0.759
 2144SOL     OW 7330   2.174   0.607   3.045
 2144SOL    HW1 7331   2.112   0.570   3.114
 2144SOL    HW2 7332   2.256   0.550   3.039
 2145SOL     OW 7333   3.727   5.299   4.416
 2145SOL    HW1 7334   3.695   5.309   4.321
 2145SOL    HW2 7335   3.825   5.280   4.415
 2146SOL     OW 7336   3.183   3.835   2.777
 2146SOL    HW1 7337   3.178   3.750   2.726
 2146SOL    HW2 7338   3.199   3.815   2.874
 2147SOL     OW 7339   6.970   1.442   0.084
 2147SOL    HW1 7340   6.983   1.477   0.177
 2147SOL    HW2 7341   0.007   1.364   0.069
 2148SOL     OW 7342   5.116   3.116   4.266
 2148SOL    HW1 7343   5.154   3.042   4.321
 2148SOL    HW2 7344   5.183   3.189   4.257
 2149SOL     OW 7345   4.334   0.174   1.296
 2149SOL    HW1 7346   4.243   0.133   1.290
 2149SOL    HW2 7347   4.386   0.129   1.369
 2150SOL     OW 7348   3.092   2.101   2.191
 2150SOL    HW1 7349   3.094   2.200   2.195
 2150SOL    HW2 7350   3.046   2.071   2.107
 2151SOL     OW 7351   2.714   2.094   4.354
 2151SOL    HW1 7352   2.786   2.150   4.315
 2151SOL    HW2 7353   2.721   2.095   4.454
 2152SOL     OW 7354   4.445   6.197   2.283
 2152SOL    HW1 7355   4.490   6.227   2.199
 2152SOL    HW2 7356   4.491   6.116   2.320
 2153SOL     OW 7357   4.074   0.741   3.258
 2153SOL    HW1 7358   4.074   0.685   3.341
 2153SOL    HW2 7359   4.009   0.816   3.268
 2154SOL     OW 7360   3.086   6.108   4.830
 2154SOL    HW1 7361   3.184   6.095   4.817
 2154SOL    HW2 7362   3.043   6.129   4.742
 2155SOL     OW 7363   1.801   5.099   0.395
 2155SOL    HW1 7364   1.873   5.057   0.450
 2155SOL    HW2 7365   1.715   5.052   0.412
 2156SOL     OW 7366   3.033   0.674   1.841
 2156SOL    HW1 7367   2.989   0.759   1.868
 2156SOL    HW2 7368   3.084   0.688   1.756
 2157SOL     OW 7369   6.669   1.098   3.434
 2157SOL    HW1 7370   6.594   1.039   3.464
 2157SOL    HW2 7371   6.719   1.132   3.513
 2158SOL     OW 7372   3.702   6.555   0.479
 2158SOL    HW1 7373   3.669   6.589   0.391
 2158SOL    HW2 7374   3.690   6.456   0.483
 2159SOL     OW 7375   1.561   5.957   5.783
 2159SOL    HW1 7376   1.621   6.015   5.838
 2159SOL    HW2 7377   1.467   5.991   5.788
 2160SOL     OW 7378   4.295   3.660   1.757
 2160SOL    HW1 7379   4.245   3.656   1.671
 2160SOL    HW2 7380   4.347   3.746   1.762
 2161SOL     OW 7381   4.930   3.227   3.518
 2161SOL    HW1 7382   4.987   3.225   3.600
 2161SOL    HW2 7383   4.891   3.319   3.506
 2162SOL     OW 7384   2.454   0.390   0.378
 2162SOL    HW1 7385   2.418   0.317   0.320
 2162SOL    HW2 7386   2.405   0.476   0.358
 2163SOL     OW 7387   0.132   5.402   6.479
 2163SOL    HW1 7388   0.176   5.338   6.542
 2163SOL    HW2 7389   0.200   5.463   6.440
 2164SOL     OW 7390   1.744   1.394   6.787
 2164SOL    HW1 7391   1.655   1.411   6.744
 2164SOL    HW2 7392   1.752   1.297   6.811
 2165SOL     OW 7393   1.569   1.425   3.080
 2165SOL    HW1 7394   1.661   1.464   3.090
 2165SOL    HW2 7395   1.515   1.445   3.162
 2166SOL     OW 7396   1.897   2.412   5.676
 2166SOL    HW1 7397   1.894   2.364   5.764
 2166SOL    HW2 7398   1.807   2.451   5.656
 2167SOL     OW 7399   2.732   0.319   2.372
 2167SOL    HW1 7400   2.771   0.391   2.314
 2167SOL    HW2 7401   2.721   0.353   2.465
 2168SOL     OW 7402   6.452   2.205   4.696
 2168SOL    HW1 7403   6.458   2.304   4.694
 2168SOL    HW2 7404   6.440   2.174   4.790
 2169SOL     OW 7405   5.647   1.789   6.424
 2169SOL    HW1 7406   5.683   1.814   6.334
 2169SOL    HW2 7407   5.665   1.692   6.441
 2170SOL     OW 7408   5.799   4.660   4.897
 2170SOL    HW1 7409   5.707   4.671   4.934
 2170SOL    HW2 7410   5.795   4.602   4.816
 2171SOL     OW 7411   6.562   2.777   0.363
 2171SOL    HW1 7412   6.636   2.785   0.297
 2171SOL    HW2 7413   6.599   2.762   0.454
 2172SOL     OW 7414   3.260   1.429   0.421
 2172SOL    HW1 7415   3.351   1.446   0.386
 2172SOL    HW2 7416   3.205   1.512   0.415
 2173SOL     OW 7417   3.693   0.294   5.568
 2173SOL    HW1 7418   3.662   0.231   5.497
 2173SOL    HW2 7419   3.793   0.300   5.566
 2174SOL     OW 7420   6.379   5.052   5.874
 2174SOL    HW1 7421   6.397   4.959   5.841
 2174SOL    HW2 7422   6.349   5.109   5.797
 2175SOL     OW 7423   3.026   2.008   2.690
 2175SOL    HW1 7424   3.069   1.924   2.723
 2175SOL    HW2 7425   2.961   1.986   2.617
 2176SOL     OW 7426   0.791   1.905   1.671
 2176SOL    HW1 7427   0.745   1.988   1.704
 2176SOL    HW2 7428   0.800   1.840   1.746
 2177SOL     OW 7429   6.574   0.402   2.132
 2177SOL    HW1 7430   6.647   0.418   2.198
 2177SOL    HW2 7431   6.501   0.469   2.146
 2178SOL     OW 7432   0.643   4.203   0.337
 2178SOL    HW1 7433   0.719   4.139   0.331
 2178SOL    HW2 7434   0.669   4.289   0.291
 2179SOL     OW 7435   2.053   5.897   4.180
 2179SOL    HW1 7436   1.994   5.817   4.187
 2179SOL    HW2 7437   2.027   5.951   4.099
 2180SOL     OW 7438   2.878   3.221   2.008
 2180SOL    HW1 7439   2.839   3.170   1.932
 2180SOL    HW2 7440   2.805   3.269   2.057
 2181SOL     OW 7441   4.354   4.149   5.735
 2181SOL    HW1 7442   4.410   4.116   5.811
 2181SOL    HW2 7443   4.395   4.120   5.648
 2182SOL     OW 7444   6.723   3.087   6.381
 2182SOL    HW1 7445   6.679   3.059   6.467
 2182SOL    HW2 7446   6.812   3.042   6.374
 2183SOL     OW 7447   3.405   3.168   0.805
 2183SOL    HW1 7448   3.395   3.069   0.802
 2183SOL    HW2 7449   3.431   3.196   0.898
 2184SOL     OW 7450   3.328   6.852   5.727
 2184SOL    HW1 7451   3.251   6.916   5.719
 2184SOL    HW2 7452   3.388   6.860   5.648
 2185SOL     OW 7453   2.163   1.912   1.617
 2185SOL    HW1 7454   2.116   1.939   1.533
 2185SOL    HW2 7455   2.262   1.909   1.600
 2186SOL     OW 7456   6.841   4.577   2.445
 2186SOL    HW1 7457   6.863   4.509   2.376
 2186SOL    HW2 7458   6.753   4.554   2.487
 2187SOL     OW 7459   0.377   0.949   1.679
 2187SOL    HW1 7460   0.334   1.024   1.729
 2187SOL    HW2 7461   0.451   0.911   1.735
 2188SOL     OW 7462   5.086   5.749   3.594
 2188SOL    HW1 7463   5.136   5.725   3.678
 2188SOL    HW2 7464   5.096   5.847   3.577
 2189SOL     OW 7465   1.671   0.347   6.701
 2189SOL    HW1 7466   1.577   0.344   6.733
 2189SOL    HW2 7467   1.673   0.372   6.604
 2190SOL     OW 7468   6.117   2.654   1.471
 2190SOL    HW1 7469   6.134   2.577   1.534
 2190SOL    HW2 7470   6.118   2.620   1.377
 2191SOL     OW 7471   3.620   2.036   5.833
 2191SOL    HW1 7472   3.638   1.940   5.855
 2191SOL    HW2 7473   3.604   2.088   5.917
 2192SOL     OW 7474   4.185   6.651   4.802
 2192SOL    HW1 7475   4.085   6.648   4.805
 2192SOL    HW2 7476   4.214   6.710   4.726
 2193SOL     OW 7477   6.663   5.244   6.219
 2193SOL    HW1 7478   6.755   5.276   6.242
 2193SOL    HW2 7479   6.626   5.192   6.297
 2194SOL     OW 7480   2.565   5.686   0.384
 2194SOL    HW1 7481   2.571   5.599   0.335
 2194SOL    HW2 7482   2.469   5.708   0.400
 2195SOL     OW 7483   6.892   6.673   1.875
 2195SOL    HW1 7484   6.903   6.734   1.954
 2195SOL    HW2 7485   6.797   6.641   1.870
 2196SOL     OW 7486   2.315   0.609   5.786
 2196SOL    HW1 7487   2.390   0.543   5.792
 2196SOL    HW2 7488   2.304   0.638   5.691
 2197SOL     OW 7489   4.958   4.347   1.461
 2197SOL    HW1 7490   5.052   4.380   1.468
 2197SOL    HW2 7491   4.953   4.251   1.490
 2198SOL     OW 7492   0.011   2.662   0.000
 2198SOL    HW1 7493   0.072   2.695   6.952
 2198SOL    HW2 7494   0.023   2.563   0.012
 2199SOL     OW 7495   5.131   0.027   1.288
 2199SOL    HW1 7496   5.115   7.018   1.381
 2199SOL    HW2 7497   5.080   6.995   1.223
 2200SOL     OW 7498   3.922   0.545   4.391
 2200SOL    HW1 7499   4.017   0.576   4.392
 2200SOL    HW2 7500   3.918   0.451   4.424
 2201SOL     OW 7501   5.878   3.984   2.280
 2201SOL    HW1 7502   5.955   4.019   2.226
 2201SOL    HW2 7503   5.809   3.945   2.219
 2202SOL     OW 7504   3.445   5.032   4.649
 2202SOL    HW1 7505   3.414   5.010   4.556
 2202SOL    HW2 7506   3.543   5.013   4.656
 2203SOL     OW 7507   3.314   2.097   2.628
 2203SOL    HW1 7508   3.225   2.114   2.670
 2203SOL    HW2 7509   3.362   2.185   2.616
 2204SOL     OW 7510   4.205   1.188   6.330
 2204SOL    HW1 7511   4.192   1.287   6.326
 2204SOL    HW2 7512   4.168   1.146   6.248
 2205SOL     OW 7513   1.191   0.573   0.070
 2205SOL    HW1 7514   1.271   0.530   0.111
 2205SOL    HW2 7515   1.172   0.532   7.004
 2206SOL     OW 7516   3.032   4.248   5.860
 2206SOL    HW1 7517   2.994   4.169   5.908
 2206SOL    HW2 7518   3.125   4.228   5.829
 2207SOL     OW 7519   1.511   4.274   6.055
 2207SOL    HW1 7520   1.429   4.329   6.073
 2207SOL    HW2 7521   1.592   4.325   6.080
 2208SOL     OW 7522   1.583   4.561   2.084
 2208SOL    HW1 7523   1.648   4.631   2.114
 2208SOL    HW2 7524   1.499   4.605   2.052
 2209SOL     OW 7525   1.313   5.790   6.038
 2209SOL    HW1 7526   1.328   5.888   6.051
 2209SOL    HW2 7527   1.223   5.775   5.998
 2210SOL     OW 7528   0.848   5.339   2.893
 2210SOL    HW1 7529   0.834   5.257   2.949
 2210SOL    HW2 7530   0.943   5.369   2.900
 2211SOL     OW 7531   5.674   1.585   5.536
 2211SOL    HW1 7532   5.592   1.567   5.481
 2211SOL    HW2 7533   5.720   1.667   5.501
 2212SOL     OW 7534   0.563   6.251   6.909
 2212SOL    HW1 7535   0.502   6.249   6.830
 2212SOL    HW2 7536   0.513   6.220   6.990
 2213SOL     OW 7537   4.502   2.466   4.508
 2213SOL    HW1 7538   4.545   2.409   4.438
 2213SOL    HW2 7539   4.437   2.412   4.560
 2214SOL     OW 7540   4.379   0.766   4.894
 2214SOL    HW1 7541   4.369   0.821   4.811
 2214SOL    HW2 7542   4.438   0.814   4.959
 2215SOL     OW 7543   6.957   1.123   5.768
 2215SOL    HW1 7544   6.937   1.099   5.673
 2215SOL    HW2 7545   6.948   1.222   5.780
 2216SOL     OW 7546   1.618   0.251   0.020
 2216SOL    HW1 7547   1.704   0.232   6.995
 2216SOL    HW2 7548   1.609   0.187   0.096
 2217SOL     OW 7549   3.776   0.109   0.900
 2217SOL    HW1 7550   3.682   0.084   0.923
 2217SOL    HW2 7551   3.806   0.058   0.820
 2218SOL     OW 7552   0.954   6.806   0.349
 2218SOL    HW1 7553   0.977   6.897   0.314
 2218SOL    HW2 7554   0.873   6.813   0.408
 2219SOL     OW 7555   1.641   3.907   2.947
 2219SOL    HW1 7556   1.555   3.884   2.992
 2219SOL    HW2 7557   1.627   3.985   2.885
 2220SOL     OW 7558   0.540   1.302   4.320
 2220SOL    HW1 7559   0.636   1.321   4.301
 2220SOL    HW2 7560   0.499   1.382   4.363
 2221SOL     OW 7561   6.864   2.084   0.784
 2221SOL    HW1 7562   6.901   2.003   0.739
 2221SOL    HW2 7563   6.781   2.113   0.737
 2222SOL     OW 7564   4.380   0.811   1.004
 2222SOL    HW1 7565   4.386   0.885   1.071
 2222SOL    HW2 7566   4.401   0.724   1.049
 2223SOL     OW 7567   5.860   5.087   3.807
 2223SOL    HW1 7568   5.940   5.142   3.786
 2223SOL    HW2 7569   5.879   4.991   3.785
 2224SOL     OW 7570   1.513   4.424   1.102
 2224SOL    HW1 7571   1.530   4.344   1.045
 2224SOL    HW2 7572   1.557   4.411   1.191
 2225SOL     OW 7573   6.182   4.855   2.642
 2225SOL    HW1 7574   6.127   4.809   2.573
 2225SOL    HW2 7575   6.146   4.947   2.657
 2226SOL     OW 7576   3.572   3.535   1.038
 2226SOL    HW1 7577   3.490   3.503   1.085
 2226SOL    HW2 7578   3.545   3.590   0.958
 2227SOL     OW 7579   6.102   3.942   6.378
 2227SOL    HW1 7580   6.153   3.868   6.422
 2227SOL    HW2 7581   6.055   3.996   6.448
 2228SOL     OW 7582   3.297   5.509   0.381
 2228SOL    HW1 7583   3.305   5.551   0.472
 2228SOL    HW2 7584   3.387   5.510   0.336
 2229SOL     OW 7585   4.433   1.737   4.057
 2229SOL    HW1 7586   4.457   1.651   4.010
 2229SOL    HW2 7587   4.385   1.797   3.992
 2230SOL     OW 7588   1.256   5.737   3.834
 2230SOL    HW1 7589   1.281   5.641   3.842
 2230SOL    HW2 7590   1.292   5.787   3.913
 2231SOL     OW 7591   1.564   1.987   2.129
 2231SOL    HW1 7592   1.661   1.974   2.149
 2231SOL    HW2 7593   1.527   1.904   2.087
 2232SOL     OW 7594   0.387   3.246   4.155
 2232SOL    HW1 7595   0.423   3.153   4.145
 2232SOL    HW2 7596   0.304   3.244   4.210
 2233SOL     OW 7597   3.741   5.251   6.781
 2233SOL    HW1 7598   3.783   5.327   6.731
 2233SOL    HW2 7599   3.758   5.166   6.732
 2234SOL     OW 7600   4.062   2.491   0.891
 2234SOL    HW1 7601   4.084   2.405   0.938
 2234SOL    HW2 7602   4.124   2.563   0.923
 2235SOL     OW 7603   1.069   0.370   0.324
 2235SOL    HW1 7604   1.160   0.339   0.296
 2235SOL    HW2 7605   1.059   0.467   0.303
 2236SOL     OW 7606   0.906   4.583   0.897
 2236SOL    HW1 7607   0.865   4.671   0.920
 2236SOL    HW2 7608   0.925   4.533   0.981
 2237SOL     OW 7609   6.574   3.474   4.432
 2237SOL    HW1 7610   6.509   3.423   4.375
 2237SOL    HW2 7611   6.550   3.463   4.528
 2238SOL     OW 7612   0.194   5.528   2.038
 2238SOL    HW1 7613   0.269   5.498   2.097
 2238SOL    HW2 7614   0.125   5.455   2.033
 2239SOL     OW 7615   4.028   5.010   4.235
 2239SOL    HW1 7616   4.079   5.091   4.264
 2239SOL    HW2 7617   4.089   4.930   4.234
 2240SOL     OW 7618   6.433   5.010   3.220
 2240SOL    HW1 7619   6.432   4.991   3.318
 2240SOL    HW2 7620   6.384   4.938   3.171
 2241SOL     OW 7621   6.859   6.228   2.529
 2241SOL    HW1 7622   6.832   6.133   2.542
 2241SOL    HW2 7623   6.958   6.233   2.512
 2242SOL     OW 7624   5.447   1.477   3.136
 2242SOL    HW1 7625   5.462   1.386   3.174
 2242SOL    HW2 7626   5.535   1.519   3.115
 2243SOL     OW 7627   2.267   6.411   5.203
 2243SOL    HW1 7628   2.347   6.425   5.146
 2243SOL    HW2 7629   2.221   6.326   5.177
 2244SOL     OW 7630   4.167   0.996   3.088
 2244SOL    HW1 7631   4.146   0.968   2.994
 2244SOL    HW2 7632   4.096   0.962   3.150
 2245SOL     OW 7633   0.384   2.065   2.154
 2245SOL    HW1 7634   0.416   2.066   2.248
 2245SOL    HW2 7635   0.419   1.983   2.108
 2246SOL     OW 7636   1.769   2.698   5.451
 2246SOL    HW1 7637   1.840   2.652   5.398
 2246SOL    HW2 7638   1.687   2.711   5.394
 2247SOL     OW 7639   2.563   2.222   5.753
 2247SOL    HW1 7640   2.555   2.147   5.687
 2247SOL    HW2 7641   2.512   2.301   5.720
 2248SOL     OW 7642   5.183   4.377   5.285
 2248SOL    HW1 7643   5.237   4.295   5.306
 2248SOL    HW2 7644   5.152   4.419   5.370
 2249SOL     OW 7645   6.079   6.286   2.960
 2249SOL    HW1 7646   6.017   6.207   2.964
 2249SOL    HW2 7647   6.174   6.253   2.956
 2250SOL     OW 7648   5.192   3.912   1.408
 2250SOL    HW1 7649   5.287   3.942   1.396
 2250SOL    HW2 7650   5.142   3.925   1.322
 2251SOL     OW 7651   5.980   1.409   0.419
 2251SOL    HW1 7652   5.982   1.390   0.518
 2251SOL    HW2 7653   5.947   1.502   0.404
 2252SOL     OW 7654   6.281   3.097   5.548
 2252SOL    HW1 7655   6.355   3.031   5.562
 2252SOL    HW2 7656   6.219   3.063   5.477
 2253SOL     OW 7657   1.392   2.917   6.343
 2253SOL    HW1 7658   1.488   2.941   6.329
 2253SOL    HW2 7659   1.377   2.890   6.438
 2254SOL     OW 7660   2.126   3.110   6.222
 2254SOL    HW1 7661   2.126   3.159   6.309
 2254SOL    HW2 7662   2.127   3.176   6.146
 2255SOL     OW 7663   6.174   2.428   1.655
 2255SOL    HW1 7664   6.170   2.495   1.729
 2255SOL    HW2 7665   6.221   2.346   1.688
 2256SOL     OW 7666   3.777   5.237   1.995
 2256SOL    HW1 7667   3.718   5.156   1.994
 2256SOL    HW2 7668   3.821   5.247   1.905
 2257SOL     OW 7669   1.194   2.968   4.649
 2257SOL    HW1 7670   1.205   3.049   4.591
 2257SOL    HW2 7671   1.262   2.971   4.723
 2258SOL     OW 7672   1.414   5.527   4.332
 2258SOL    HW1 7673   1.383   5.432   4.335
 2258SOL    HW2 7674   1.339   5.587   4.359
 2259SOL     OW 7675   5.110   4.061   6.335
 2259SOL    HW1 7676   5.020   4.102   6.347
 2259SOL    HW2 7677   5.117   4.023   6.243
 2260SOL     OW 7678   4.271   4.653   2.983
 2260SOL    HW1 7679   4.335   4.725   2.956
 2260SOL    HW2 7680   4.280   4.575   2.920
 2261SOL     OW 7681   5.494   6.358   0.871
 2261SOL    HW1 7682   5.435   6.427   0.915
 2261SOL    HW2 7683   5.569   6.335   0.933
 2262SOL     OW 7684   5.445   2.099   3.347
 2262SOL    HW1 7685   5.520   2.145   3.299
 2262SOL    HW2 7686   5.359   2.113   3.296
 2263SOL     OW 7687   2.203   6.284   6.238
 2263SOL    HW1 7688   2.156   6.308   6.154
 2263SOL    HW2 7689   2.295   6.251   6.216
 2264SOL     OW 7690   2.988   3.720   2.367
 2264SOL    HW1 7691   3.014   3.657   2.294
 2264SOL    HW2 7692   3.027   3.810   2.349
 2265SOL     OW 7693   0.424   1.117   3.442
 2265SOL    HW1 7694   0.326   1.124   3.461
 2265SOL    HW2 7695   0.456   1.203   3.401
 2266SOL     OW 7696   0.021   1.058   0.925
 2266SOL    HW1 7697   0.031   1.125   0.998
 2266SOL    HW2 7698   6.950   1.061   0.889
 2267SOL     OW 7699   5.703   2.742   5.036
 2267SOL    HW1 7700   5.756   2.735   4.951
 2267SOL    HW2 7701   5.658   2.655   5.055
 2268SOL     OW 7702   6.446   5.719   0.341
 2268SOL    HW1 7703   6.475   5.661   0.417
 2268SOL    HW2 7704   6.519   5.783   0.318
 2269SOL     OW 7705   6.133   5.518   5.027
 2269SOL    HW1 7706   6.142   5.530   4.928
 2269SOL    HW2 7707   6.222   5.526   5.070
 2270SOL     OW 7708   3.541   3.730   1.232
 2270SOL    HW1 7709   3.580   3.659   1.172
 2270SOL    HW2 7710   3.507   3.805   1.176
 2271SOL     OW 7711   6.181   4.399   1.478
 2271SOL    HW1 7712   6.126   4.425   1.398
 2271SOL    HW2 7713   6.278   4.399   1.452
 2272SOL     OW 7714   5.872   2.312   4.737
 2272SOL    HW1 7715   5.809   2.353   4.802
 2272SOL    HW2 7716   5.966   2.330   4.766
 2273SOL     OW 7717   1.739   1.824   3.356
 2273SOL    HW1 7718   1.790   1.759   3.412
 2273SOL    HW2 7719   1.788   1.841   3.271
 2274SOL     OW 7720   1.722   3.834   4.660
 2274SOL    HW1 7721   1.768   3.837   4.749
 2274SOL    HW2 7722   1.625   3.812   4.673
 2275SOL     OW 7723   4.662   6.494   4.537
 2275SOL    HW1 7724   4.743   6.483   4.481
 2275SOL    HW2 7725   4.617   6.406   4.550
 2276SOL     OW 7726   3.672   5.682   0.781
 2276SOL    HW1 7727   3.758   5.698   0.830
 2276SOL    HW2 7728   3.690   5.624   0.702
 2277SOL     OW 7729   3.353   3.328   4.737
 2277SOL    HW1 7730   3.448   3.302   4.755
 2277SOL    HW2 7731   3.293   3.284   4.803
 2278SOL     OW 7732   4.745   6.484   2.882
 2278SOL    HW1 7733   4.781   6.400   2.924
 2278SOL    HW2 7734   4.650   6.471   2.856
 2279SOL     OW 7735   5.483   4.498   3.995
 2279SOL    HW1 7736   5.576   4.507   4.030
 2279SOL    HW2 7737   5.418   4.534   4.063
 2280SOL     OW 7738   6.774   6.539   5.106
 2280SOL    HW1 7739   6.740   6.445   5.105
 2280SOL    HW2 7740   6.731   6.591   5.032
 2281SOL     OW 7741   3.391   1.598   1.674
 2281SOL    HW1 7742   3.395   1.542   1.757
 2281SOL    HW2 7743   3.461   1.668   1.678
 2282SOL     OW 7744   5.462   6.065   4.590
 2282SOL    HW1 7745   5.432   6.048   4.496
 2282SOL    HW2 7746   5.438   5.987   4.647
 2283SOL     OW 7747   6.521   3.489   2.697
 2283SOL    HW1 7748   6.515   3.565   2.633
 2283SOL    HW2 7749   6.609   3.492   2.745
 2284SOL     OW 7750   2.785   2.182   1.613
 2284SOL    HW1 7751   2.883   2.179   1.598
 2284SOL    HW2 7752   2.755   2.277   1.621
 2285SOL     OW 7753   1.246   3.708   0.595
 2285SOL    HW1 7754   1.217   3.630   0.650
 2285SOL    HW2 7755   1.285   3.778   0.654
 2286SOL     OW 7756   6.825   5.760   5.198
 2286SOL    HW1 7757   6.805   5.804   5.110
 2286SOL    HW2 7758   6.924   5.750   5.207
 2287SOL     OW 7759   2.154   3.232   1.334
 2287SOL    HW1 7760   2.189   3.167   1.267
 2287SOL    HW2 7761   2.198   3.216   1.422
 2288SOL     OW 7762   1.030   5.625   3.413
 2288SOL    HW1 7763   1.069   5.716   3.427
 2288SOL    HW2 7764   0.977   5.624   3.329
 2289SOL     OW 7765   5.375   2.552   1.999
 2289SOL    HW1 7766   5.411   2.601   2.079
 2289SOL    HW2 7767   5.300   2.492   2.027
 2290SOL     OW 7768   3.095   3.080   2.600
 2290SOL    HW1 7769   3.098   3.023   2.518
 2290SOL    HW2 7770   3.182   3.073   2.649
 2291SOL     OW 7771   2.084   2.015   1.328
 2291SOL    HW1 7772   2.155   2.068   1.376
 2291SOL    HW2 7773   2.031   2.076   1.270
 2292SOL     OW 7774   5.247   3.406   3.724
 2292SOL    HW1 7775   5.311   3.484   3.720
 2292SOL    HW2 7776   5.296   3.325   3.754
 2293SOL     OW 7777   5.591   1.203   0.558
 2293SOL    HW1 7778   5.533   1.127   0.586
 2293SOL    HW2 7779   5.681   1.167   0.531
 2294SOL     OW 7780   3.246   1.791   5.958
 2294SOL    HW1 7781   3.299   1.710   5.934
 2294SOL    HW2 7782   3.302   1.851   6.016
 2295SOL     OW 7783   6.783   1.145   1.752
 2295SOL    HW1 7784   6.844   1.211   1.708
 2295SOL    HW2 7785   6.713   1.194   1.804
 2296SOL     OW 7786   2.766   4.912   3.429
 2296SOL    HW1 7787   2.803   4.844   3.366
 2296SOL    HW2 7788   2.809   5.001   3.411
 2297SOL     OW 7789   4.860   4.694   5.535
 2297SOL    HW1 7790   4.788   4.659   5.594
 2297SOL    HW2 7791   4.861   4.644   5.449
 2298SOL     OW 7792   3.872   3.931   3.241
 2298SOL    HW1 7793   3.784   3.900   3.205
 2298SOL    HW2 7794   3.857   4.003   3.309
 2299SOL     OW 7795   4.875   3.757   4.703
 2299SOL    HW1 7796   4.868   3.857   4.701
 2299SOL    HW2 7797   4.822   3.721   4.779
 2300SOL     OW 7798   3.457   6.996   3.211
 2300SOL    HW1 7799   3.527   6.977   3.280
 2300SOL    HW2 7800   3.409   6.911   3.189
 2301SOL     OW 7801   3.421   2.860   4.462
 2301SOL    HW1 7802   3.330   2.847   4.502
 2301SOL    HW2 7803   3.484   2.894   4.532
 2302SOL     OW 7804   4.230   0.322   0.480
 2302SOL    HW1 7805   4.141   0.277   0.476
 2302SOL    HW2 7806   4.220   0.419   0.457
 2303SOL     OW 7807   2.342   3.013   1.174
 2303SOL    HW1 7808   2.323   2.919   1.147
 2303SOL    HW2 7809   2.437   3.036   1.149
 2304SOL     OW 7810   6.462   5.916   3.826
 2304SOL    HW1 7811   6.416   5.964   3.752
 2304SOL    HW2 7812   6.480   5.821   3.800
 2305SOL     OW 7813   1.694   0.900   3.803
 2305SOL    HW1 7814   1.762   0.958   3.758
 2305SOL    HW2 7815   1.651   0.951   3.878
 2306SOL     OW 7816   1.501   5.234   2.523
 2306SOL    HW1 7817   1.563   5.208   2.449
 2306SOL    HW2 7818   1.412   5.190   2.509
 2307SOL     OW 7819   1.022   2.736   5.539
 2307SOL    HW1 7820   1.106   2.789   5.550
 2307SOL    HW2 7821   1.015   2.704   5.445
 2308SOL     OW 7822   2.315   4.983   0.925
 2308SOL    HW1 7823   2.390   5.040   0.892
 2308SOL    HW2 7824   2.238   5.041   0.954
 2309SOL     OW 7825   1.718   0.538   4.025
 2309SOL    HW1 7826   1.640   0.588   4.062
 2309SOL    HW2 7827   1.788   0.602   3.994
 2310SOL     OW 7828   5.284   6.594   2.292
 2310SOL    HW1 7829   5.271   6.691   2.275
 2310SOL    HW2 7830   5.196   6.553   2.318
 2311SOL     OW 7831   2.430   6.101   0.285
 2311SOL    HW1 7832   2.476   6.051   0.212
 2311SOL    HW2 7833   2.354   6.153   0.247
 2312SOL     OW 7834   3.743   5.744   3.630
 2312SOL    HW1 7835   3.778   5.699   3.547
 2312SOL    HW2 7836   3.649   5.714   3.647
 2313SOL     OW 7837   5.180   5.340   2.387
 2313SOL    HW1 7838   5.167   5.439   2.387
 2313SOL    HW2 7839   5.145   5.302   2.472
 2314SOL     OW 7840   3.582   5.981   3.112
 2314SOL    HW1 7841   3.578   6.056   3.178
 2314SOL    HW2 7842   3.593   5.894   3.161
 2315SOL     OW 7843   4.906   3.578   6.304
 2315SOL    HW1 7844   4.822   3.536   6.338
 2315SOL    HW2 7845   4.969   3.593   6.380
 2316SOL     OW 7846   4.824   2.504   3.480
 2316SOL    HW1 7847   4.735   2.538   3.448
 2316SOL    HW2 7848   4.863   2.570   3.544
 2317SOL     OW 7849   1.007   4.993   2.705
 2317SOL    HW1 7850   0.927   4.941   2.676
 2317SOL    HW2 7851   1.035   4.964   2.797
 2318SOL     OW 7852   0.887   2.274   3.340
 2318SOL    HW1 7853   0.860   2.219   3.419
 2318SOL    HW2 7854   0.822   2.260   3.265
 2319SOL     OW 7855   2.152   4.176   4.869
 2319SOL    HW1 7856   2.219   4.113   4.909
 2319SOL    HW2 7857   2.066   4.168   4.920
 2320SOL     OW 7858   0.019   2.276   4.274
 2320SOL    HW1 7859   7.008   2.315   4.359
 2320SOL    HW2 7860   6.976   2.210   4.238
 2321SOL     OW 7861   3.423   0.450   4.941
 2321SOL    HW1 7862   3.506   0.404   4.911
 2321SOL    HW2 7863   3.442   0.548   4.955
 2322SOL     OW 7864   1.557   2.045   5.709
 2322SOL    HW1 7865   1.598   2.075   5.623
 2322SOL    HW2 7866   1.579   1.949   5.725
 2323SOL     OW 7867   3.713   5.974   3.454
 2323SOL    HW1 7868   3.723   5.887   3.407
 2323SOL    HW2 7869   3.702   5.958   3.552
 2324SOL     OW 7870   0.777   6.192   2.236
 2324SOL    HW1 7871   0.871   6.166   2.259
 2324SOL    HW2 7872   0.765   6.189   2.136
 2325SOL     OW 7873   1.043   3.829   1.491
 2325SOL    HW1 7874   1.025   3.896   1.564
 2325SOL    HW2 7875   1.023   3.870   1.402
 2326SOL     OW 7876   1.620   4.049   6.528
 2326SOL    HW1 7877   1.563   4.108   6.471
 2326SOL    HW2 7878   1.593   4.058   6.623
 2327SOL     OW 7879   4.904   2.870   4.222
 2327SOL    HW1 7880   4.881   2.818   4.140
 2327SOL    HW2 7881   4.992   2.838   4.258
 2328SOL     OW 7882   4.986   1.138   3.545
 2328SOL    HW1 7883   5.068   1.178   3.584
 2328SOL    HW2 7884   5.007   1.047   3.508
 2329SOL     OW 7885   1.053   5.441   4.263
 2329SOL    HW1 7886   0.962   5.406   4.240
 2329SOL    HW2 7887   1.114   5.365   4.285
 2330SOL     OW 7888   0.225   5.410   1.352
 2330SOL    HW1 7889   0.222   5.313   1.328
 2330SOL    HW2 7890   0.179   5.464   1.281
 2331SOL     OW 7891   6.788   4.527   5.209
 2331SOL    HW1 7892   6.766   4.456   5.276
 2331SOL    HW2 7893   6.738   4.511   5.124
 2332SOL     OW 7894   5.188   3.030   5.829
 2332SOL    HW1 7895   5.272   3.032   5.776
 2332SOL    HW2 7896   5.136   3.114   5.812
 2333SOL     OW 7897   0.751   4.903   2.644
 2333SOL    HW1 7898   0.718   4.886   2.551
 2333SOL    HW2 7899   0.720   4.993   2.673
 2334SOL     OW 7900   3.140   6.556   0.115
 2334SOL    HW1 7901   3.174   6.622   0.048
 2334SOL    HW2 7902   3.199   6.556   0.195
 2335SOL     OW 7903   6.294   0.777   3.330
 2335SOL    HW1 7904   6.214   0.799   3.386
 2335SOL    HW2 7905   6.303   0.844   3.257
 2336SOL     OW 7906   4.907   1.232   5.403
 2336SOL    HW1 7907   4.989   1.180   5.378
 2336SOL    HW2 7908   4.844   1.173   5.454
 2337SOL     OW 7909   5.497   0.555   3.479
 2337SOL    HW1 7910   5.404   0.532   3.507
 2337SOL    HW2 7911   5.499   0.578   3.382
 2338SOL     OW 7912   0.330   6.698   0.081
 2338SOL    HW1 7913   0.297   6.663   0.168
 2338SOL    HW2 7914   0.427   6.720   0.087
 2339SOL     OW 7915   3.337   3.421   5.927
 2339SOL    HW1 7916   3.397   3.403   6.005
 2339SOL    HW2 7917   3.264   3.353   5.924
 2340SOL     OW 7918   3.568   6.260   4.956
 2340SOL    HW1 7919   3.589   6.235   4.861
 2340SOL    HW2 7920   3.539   6.179   5.007
 2341SOL     OW 7921   5.600   4.928   0.499
 2341SOL    HW1 7922   5.571   4.835   0.474
 2341SOL    HW2 7923   5.525   4.976   0.543
 2342SOL     OW 7924   0.367   6.558   6.029
 2342SOL    HW1 7925   0.432   6.487   6.055
 2342SOL    HW2 7926   0.342   6.611   6.109
 2343SOL     OW 7927   1.205   6.351   0.930
 2343SOL    HW1 7928   1.106   6.355   0.913
 2343SOL    HW2 7929   1.225   6.272   0.988
 2344SOL     OW 7930   2.748   1.761   2.834
 2344SOL    HW1 7931   2.747   1.714   2.922
 2344SOL    HW2 7932   2.833   1.740   2.786
 2345SOL     OW 7933   1.441   0.253   4.591
 2345SOL    HW1 7934   1.343   0.245   4.574
 2345SOL    HW2 7935   1.485   0.296   4.513
 2346SOL     OW 7936   4.456   3.105   5.307
 2346SOL    HW1 7937   4.437   3.088   5.404
 2346SOL    HW2 7938   4.394   3.175   5.272
 2347SOL     OW 7939   1.484   3.933   2.210
 2347SOL    HW1 7940   1.507   3.836   2.209
 2347SOL    HW2 7941   1.385   3.945   2.202
 2348SOL     OW 7942   2.059   6.569   3.315
 2348SOL    HW1 7943   2.157   6.574   3.295
 2348SOL    HW2 7944   2.040   6.617   3.400
 2349SOL     OW 7945   0.189   6.407   5.880
 2349SOL    HW1 7946   0.234   6.322   5.852
 2349SOL    HW2 7947   0.252   6.460   5.936
 2350SOL     OW 7948   3.146   0.637   5.338
 2350SOL    HW1 7949   3.133   0.632   5.437
 2350SOL    HW2 7950   3.193   0.554   5.306
 2351SOL     OW 7951   2.783   5.345   3.845
 2351SOL    HW1 7952   2.823   5.327   3.755
 2351SOL    HW2 7953   2.852   5.387   3.904
 2352SOL     OW 7954   6.604   4.163   3.674
 2352SOL    HW1 7955   6.685   4.217   3.697
 2352SOL    HW2 7956   6.539   4.220   3.624
 2353SOL     OW 7957   2.698   3.984   5.536
 2353SOL    HW1 7958   2.629   3.964   5.467
 2353SOL    HW2 7959   2.716   4.082   5.538
 2354SOL     OW 7960   3.297   2.648   0.333
 2354SOL    HW1 7961   3.297   2.743   0.301
 2354SOL    HW2 7962   3.251   2.643   0.421
 2355SOL     OW 7963   0.395   7.023   0.876
 2355SOL    HW1 7964   0.339   7.022   0.958
 2355SOL    HW2 7965   0.341   6.991   0.798
 2356SOL     OW 7966   2.414   4.849   2.232
 2356SOL    HW1 7967   2.449   4.792   2.307
 2356SOL    HW2 7968   2.436   4.945   2.249
 2357SOL     OW 7969   5.086   5.058   3.692
 2357SOL    HW1 7970   5.174   5.026   3.655
 2357SOL    HW2 7971   5.021   4.982   3.692
 2358SOL     OW 7972   2.687   6.859   3.765
 2358SOL    HW1 7973   2.591   6.884   3.750
 2358SOL    HW2 7974   2.729   6.926   3.826
 2359SOL     OW 7975   2.819   1.740   6.247
 2359SOL    HW1 7976   2.727   1.730   6.210
 2359SOL    HW2 7977   2.886   1.736   6.173
 2360SOL     OW 7978   3.784   4.388   6.995
 2360SOL    HW1 7979   3.834   4.417   6.913
 2360SOL    HW2 7980   3.694   4.433   6.996
 2361SOL     OW 7981   2.847   0.078   3.053
 2361SOL    HW1 7982   2.885   0.034   3.134
 2361SOL    HW2 7983   2.915   0.140   3.014
 2362SOL     OW 7984   4.377   6.122   4.878
 2362SOL    HW1 7985   4.466   6.126   4.832
 2362SOL    HW2 7986   4.339   6.214   4.885
 2363SOL     OW 7987   4.404   1.994   5.738
 2363SOL    HW1 7988   4.327   2.047   5.700
 2363SOL    HW2 7989   4.485   2.052   5.740
 2364SOL     OW 7990   5.295   1.659   1.862
 2364SOL    HW1 7991   5.225   1.682   1.793
 2364SOL    HW2 7992   5.367   1.605   1.819
 2365SOL     OW 7993   5.562   4.118   4.432
 2365SOL    HW1 7994   5.562   4.190   4.502
 2365SOL    HW2 7995   5.598   4.155   4.346
 2366SOL     OW 7996   1.646   3.941   5.340
 2366SOL    HW1 7997   1.723   3.879   5.327
 2366SOL    HW2 7998   1.583   3.933   5.262
 2367SOL     OW 7999   1.209   3.357   5.792
 2367SOL    HW1 8000   1.278   3.344   5.721
 2367SOL    HW2 8001   1.226   3.295   5.868
 2368SOL     OW 8002   4.414   1.560   4.384
 2368SOL    HW1 8003   4.411   1.539   4.286
 2368SOL    HW2 8004   4.493   1.516   4.425
 2369SOL     OW 8005   3.714   1.853   3.371
 2369SOL    HW1 8006   3.764   1.887   3.291
 2369SOL    HW2 8007   3.626   1.816   3.341
 2370SOL     OW 8008   4.842   2.865   0.422
 2370SOL    HW1 8009   4.927   2.890   0.469
 2370SOL    HW2 8010   4.815   2.939   0.361
 2371SOL     OW 8011   0.808   0.076   2.608
 2371SOL    HW1 8012   0.717   0.113   2.629
 2371SOL    HW2 8013   0.807   7.000   2.618
 2372SOL     OW 8014   6.677   0.749   6.039
 2372SOL    HW1 8015   6.639   0.829   6.087
 2372SOL    HW2 8016   6.607   0.710   5.978
 2373SOL     OW 8017   6.078   0.774   6.396
 2373SOL    HW1 8018   6.000   0.823   6.357
 2373SOL    HW2 8019   6.162   0.823   6.374
 2374SOL     OW 8020   5.821   5.594   3.279
 2374SOL    HW1 8021   5.863   5.504   3.284
 2374SOL    HW2 8022   5.722   5.586   3.289
 2375SOL     OW 8023   0.748   0.244   3.857
 2375SOL    HW1 8024   0.749   0.211   3.951
 2375SOL    HW2 8025   0.807   0.187   3.801
 2376SOL     OW 8026   6.829   2.295   3.345
 2376SOL    HW1 8027   6.822   2.378   3.400
 2376SOL    HW2 8028   6.824   2.318   3.248
 2377SOL     OW 8029   3.165   4.353   6.294
 2377SOL    HW1 8030   3.238   4.314   6.351
 2377SOL    HW2 8031   3.104   4.280   6.265
 2378SOL     OW 8032   6.002   2.093   7.018
 2378SOL    HW1 8033   5.978   2.188   6.999
 2378SOL    HW2 8034   5.954   2.062   0.076
 2379SOL     OW 8035   6.461   4.659   0.335
 2379SOL    HW1 8036   6.471   4.649   0.236
 2379SOL    HW2 8037   6.370   4.629   0.362
 2380SOL     OW 8038   6.168   2.021   5.214
 2380SOL    HW1 8039   6.115   2.029   5.130
 2380SOL    HW2 8040   6.118   1.965   5.280
 2381SOL     OW 8041   2.357   4.890   4.756
 2381SOL    HW1 8042   2.427   4.825   4.785
 2381SOL    HW2 8043   2.392   4.983   4.765
 2382SOL     OW 8044   1.310   5.785   2.534
 2382SOL    HW1 8045   1.388   5.748   2.585
 2382SOL    HW2 8046   1.343   5.841   2.459
 2383SOL     OW 8047   5.162   5.470   5.750
 2383SOL    HW1 8048   5.076   5.478   5.800
 2383SOL    HW2 8049   5.185   5.558   5.710
 2384SOL     OW 8050   0.449   2.009   1.434
 2384SOL    HW1 8051   0.461   2.088   1.493
 2384SOL    HW2 8052   0.366   1.960   1.461
 2385SOL     OW 8053   1.052   2.287   0.129
 2385SOL    HW1 8054   0.962   2.266   0.168
 2385SOL    HW2 8055   1.115   2.213   0.150
 2386SOL     OW 8056   3.203   5.150   4.896
 2386SOL    HW1 8057   3.217   5.051   4.902
 2386SOL    HW2 8058   3.123   5.176   4.950
 2387SOL     OW 8059   0.002   3.245   3.784
 2387SOL    HW1 8060   7.000   3.180   3.712
 2387SOL    HW2 8061   6.973   3.329   3.772
 2388SOL     OW 8062   0.391   1.650   5.945
 2388SOL    HW1 8063   0.364   1.745   5.927
 2388SOL    HW2 8064   0.445   1.616   5.868
 2389SOL     OW 8065   5.140   4.488   4.429
 2389SOL    HW1 8066   5.149   4.390   4.447
 2389SOL    HW2 8067   5.057   4.505   4.376
 2390SOL     OW 8068   4.021   3.311   5.174
 2390SOL    HW1 8069   4.068   3.387   5.130
 2390SOL    HW2 8070   3.977   3.342   5.258
 2391SOL     OW 8071   3.127   3.468   6.202
 2391SOL    HW1 8072   3.137   3.369   6.190
 2391SOL    HW2 8073   3.215   3.507   6.229
 2392SOL     OW 8074   3.612   4.473   6.266
 2392SOL    HW1 8075   3.599   4.570   6.288
 2392SOL    HW2 8076   3.553   4.418   6.325
 2393SOL     OW 8077   3.732   5.867   1.604
 2393SOL    HW1 8078   3.651   5.926   1.600
 2393SOL    HW2 8079   3.810   5.917   1.567
 2394SOL     OW 8080   0.480   4.187   3.795
 2394SOL    HW1 8081   0.393   4.236   3.799
 2394SOL    HW2 8082   0.467   4.095   3.831
 2395SOL     OW 8083   0.228   2.953   0.353
 2395SOL    HW1 8084   0.292   2.887   0.314
 2395SOL    HW2 8085   0.135   2.931   0.324
 2396SOL     OW 8086   5.502   0.687   0.063
 2396SOL    HW1 8087   5.413   0.641   0.052
 2396SOL    HW2 8088   5.574   0.628   0.026
 2397SOL     OW 8089   0.257   4.356   6.114
 2397SOL    HW1 8090   0.355   4.349   6.093
 2397SOL    HW2 8091   0.238   4.446   6.153
 2398SOL     OW 8092   2.755   5.596   4.423
 2398SOL    HW1 8093   2.776   5.507   4.463
 2398SOL    HW2 8094   2.801   5.668   4.476
 2399SOL     OW 8095   3.801   2.119   4.065
 2399SOL    HW1 8096   3.750   2.156   3.987
 2399SOL    HW2 8097   3.833   2.027   4.043
 2400SOL     OW 8098   1.702   3.507   0.165
 2400SOL    HW1 8099   1.660   3.585   0.210
 2400SOL    HW2 8100   1.655   3.423   0.193
 2401SOL     OW 8101   3.410   0.267   3.877
 2401SOL    HW1 8102   3.454   0.271   3.787
 2401SOL    HW2 8103   3.400   0.360   3.913
 2402SOL     OW 8104   0.478   2.105   3.102
 2402SOL    HW1 8105   0.381   2.086   3.091
 2402SOL    HW2 8106   0.508   2.071   3.192
 2403SOL     OW 8107   3.896   3.560   1.018
 2403SOL    HW1 8108   3.945   3.473   1.009
 2403SOL    HW2 8109   3.800   3.542   1.041
 2404SOL     OW 8110   5.916   1.727   1.527
 2404SOL    HW1 8111   5.868   1.813   1.541
 2404SOL    HW2 8112   5.887   1.661   1.597
 2405SOL     OW 8113   3.173   5.147   5.624
 2405SOL    HW1 8114   3.147   5.150   5.528
 2405SOL    HW2 8115   3.189   5.053   5.652
 2406SOL     OW 8116   2.433   0.157   3.870
 2406SOL    HW1 8117   2.506   0.173   3.804
 2406SOL    HW2 8118   2.451   0.072   3.919
 2407SOL     OW 8119   4.339   2.247   2.898
 2407SOL    HW1 8120   4.391   2.302   2.832
 2407SOL    HW2 8121   4.402   2.200   2.960
 2408SOL     OW 8122   2.754   5.311   2.548
 2408SOL    HW1 8123   2.703   5.385   2.591
 2408SOL    HW2 8124   2.741   5.315   2.449
 2409SOL     OW 8125   2.642   3.040   0.953
 2409SOL    HW1 8126   2.646   2.963   0.889
 2409SOL    HW2 8127   2.715   3.104   0.931
 2410SOL     OW 8128   6.636   3.268   6.199
 2410SOL    HW1 8129   6.678   3.223   6.277
 2410SOL    HW2 8130   6.560   3.325   6.230
 2411SOL     OW 8131   2.495   3.806   5.967
 2411SOL    HW1 8132   2.396   3.807   5.971
 2411SOL    HW2 8133   2.525   3.758   5.884
 2412SOL     OW 8134   2.619   2.970   0.175
 2412SOL    HW1 8135   2.684   3.045   0.171
 2412SOL    HW2 8136   2.526   3.006   0.162
 2413SOL     OW 8137   6.114   3.735   6.737
 2413SOL    HW1 8138   6.173   3.815   6.745
 2413SOL    HW2 8139   6.150   3.662   6.795
 2414SOL     OW 8140   5.508   2.013   3.817
 2414SOL    HW1 8141   5.512   2.046   3.723
 2414SOL    HW2 8142   5.469   2.084   3.876
 2415SOL     OW 8143   2.567   0.033   0.943
 2415SOL    HW1 8144   2.503   7.001   0.891
 2415SOL    HW2 8145   2.517   0.096   1.003
 2416SOL     OW 8146   0.925   3.143   3.449
 2416SOL    HW1 8147   0.865   3.219   3.423
 2416SOL    HW2 8148   0.978   3.113   3.370
 2417SOL     OW 8149   4.720   1.995   6.485
 2417SOL    HW1 8150   4.730   2.028   6.391
 2417SOL    HW2 8151   4.732   2.071   6.548
 2418SOL     OW 8152   3.615   3.757   5.514
 2418SOL    HW1 8153   3.630   3.787   5.419
 2418SOL    HW2 8154   3.560   3.674   5.514
 2419SOL     OW 8155   2.155   0.070   4.670
 2419SOL    HW1 8156   2.126   0.012   4.593
 2419SOL    HW2 8157   2.157   0.015   4.753
 2420SOL     OW 8158   3.359   5.517   1.857
 2420SOL    HW1 8159   3.455   5.502   1.883
 2420SOL    HW2 8160   3.319   5.586   1.918
 2421SOL     OW 8161   4.673   6.641   3.834
 2421SOL    HW1 8162   4.618   6.602   3.908
 2421SOL    HW2 8163   4.750   6.692   3.872
 2422SOL     OW 8164   3.745   6.682   0.899
 2422SOL    HW1 8165   3.688   6.665   0.819
 2422SOL    HW2 8166   3.808   6.758   0.880
 2423SOL     OW 8167   1.805   5.341   1.274
 2423SOL    HW1 8168   1.776   5.327   1.368
 2423SOL    HW2 8169   1.779   5.262   1.219
 2424SOL     OW 8170   6.072   6.461   6.863
 2424SOL    HW1 8171   6.124   6.400   6.803
 2424SOL    HW2 8172   6.129   6.538   6.891
 2425SOL     OW 8173   4.665   6.072   5.539
 2425SOL    HW1 8174   4.659   5.974   5.558
 2425SOL    HW2 8175   4.626   6.090   5.448
 2426SOL     OW 8176   0.839   5.087   5.000
 2426SOL    HW1 8177   0.848   5.119   5.094
 2426SOL    HW2 8178   0.830   5.165   4.939
 2427SOL     OW 8179   5.260   6.224   6.425
 2427SOL    HW1 8180   5.260   6.238   6.524
 2427SOL    HW2 8181   5.259   6.126   6.405
 2428SOL     OW 8182   0.064   0.518   2.451
 2428SOL    HW1 8183   7.019   0.450   2.479
 2428SOL    HW2 8184   0.116   0.483   2.373
 2429SOL     OW 8185   5.586   4.253   2.550
 2429SOL    HW1 8186   5.595   4.157   2.573
 2429SOL    HW2 8187   5.603   4.309   2.632
 2430SOL     OW 8188   5.687   1.968   0.401
 2430SOL    HW1 8189   5.659   1.955   0.496
 2430SOL    HW2 8190   5.683   2.065   0.378
 2431SOL     OW 8191   5.471   1.771   1.370
 2431SOL    HW1 8192   5.445   1.811   1.459
 2431SOL    HW2 8193   5.518   1.685   1.385
 2432SOL     OW 8194   3.207   6.451   1.339
 2432SOL    HW1 8195   3.212   6.370   1.397
 2432SOL    HW2 8196   3.219   6.533   1.395
 2433SOL     OW 8197   1.053   6.532   0.297
 2433SOL    HW1 8198   1.025   6.625   0.317
 2433SOL    HW2 8199   1.147   6.532   0.261
 2434SOL     OW 8200   4.967   1.633   2.264
 2434SOL    HW1 8201   4.906   1.704   2.299
 2434SOL    HW2 8202   5.061   1.665   2.269
 2435SOL     OW 8203   5.758   5.933   0.421
 2435SOL    HW1 8204   5.659   5.939   0.422
 2435SOL    HW2 8205   5.793   5.944   0.514
 2436SOL     OW 8206   1.697   1.116   1.442
 2436SOL    HW1 8207   1.718   1.196   1.498
 2436SOL    HW2 8208   1.755   1.039   1.469
 2437SOL     OW 8209   5.377   6.080   1.573
 2437SOL    HW1 8210   5.346   6.142   1.645
 2437SOL    HW2 8211   5.302   6.020   1.545
 2438SOL     OW 8212   4.271   1.546   4.811
 2438SOL    HW1 8213   4.246   1.643   4.814
 2438SOL    HW2 8214   4.365   1.535   4.845
 2439SOL     OW 8215   0.312   4.919   0.030
 2439SOL    HW1 8216   0.288   5.012   0.055
 2439SOL    HW2 8217   0.384   4.885   0.090
 2440SOL     OW 8218   4.726   6.608   5.686
 2440SOL    HW1 8219   4.809   6.612   5.742
 2440SOL    HW2 8220   4.702   6.512   5.671
 2441SOL     OW 8221   6.145   1.550   7.007
 2441SOL    HW1 8222   6.067   1.547   6.944
 2441SOL    HW2 8223   6.125   1.613   0.059
 2442SOL     OW 8224   5.884   4.788   3.018
 2442SOL    HW1 8225   5.861   4.852   2.945
 2442SOL    HW2 8226   5.955   4.828   3.076
 2443SOL     OW 8227   2.899   1.052   6.843
 2443SOL    HW1 8228   2.845   1.078   6.923
 2443SOL    HW2 8229   2.862   0.968   6.803
 2444SOL     OW 8230   4.239   4.609   0.070
 2444SOL    HW1 8231   4.150   4.562   0.071
 2444SOL    HW2 8232   4.229   4.699   0.112
 2445SOL     OW 8233   6.153   1.438   2.052
 2445SOL    HW1 8234   6.126   1.519   1.998
 2445SOL    HW2 8235   6.247   1.414   2.030
 2446SOL     OW 8236   1.128   2.917   3.272
 2446SOL    HW1 8237   1.154   3.004   3.231
 2446SOL    HW2 8238   1.056   2.874   3.218
 2447SOL     OW 8239   2.199   0.446   1.018
 2447SOL    HW1 8240   2.171   0.352   1.037
 2447SOL    HW2 8241   2.208   0.459   0.919
 2448SOL     OW 8242   5.930   2.095   4.322
 2448SOL    HW1 8243   5.869   2.105   4.244
 2448SOL    HW2 8244   6.018   2.138   4.302
 2449SOL     OW 8245   1.657   3.502   1.442
 2449SOL    HW1 8246   1.752   3.482   1.466
 2449SOL    HW2 8247   1.602   3.510   1.526
 2450SOL     OW 8248   2.703   5.446   6.329
 2450SOL    HW1 8249   2.653   5.522   6.371
 2450SOL    HW2 8250   2.645   5.364   6.329
 2451SOL     OW 8251   1.157   0.458   3.266
 2451SOL    HW1 8252   1.107   0.543   3.247
 2451SOL    HW2 8253   1.114   0.412   3.344
 2452SOL     OW 8254   2.871   2.196   3.869
 2452SOL    HW1 8255   2.866   2.112   3.815
 2452SOL    HW2 8256   2.961   2.204   3.912
 2453SOL     OW 8257   0.062   3.395   0.901
 2453SOL    HW1 8258   0.107   3.461   0.842
 2453SOL    HW2 8259   0.125   3.320   0.922
 2454SOL     OW 8260   2.637   6.379   0.183
 2454SOL    HW1 8261   2.549   6.366   0.230
 2454SOL    HW2 8262   2.688   6.451   0.229
 2455SOL     OW 8263   4.503   1.067   0.567
 2455SOL    HW1 8264   4.425   1.059   0.505
 2455SOL    HW2 8265   4.495   1.000   0.641
 2456SOL     OW 8266   0.415   2.645   6.772
 2456SOL    HW1 8267   0.472   2.668   6.851
 2456SOL    HW2 8268   0.326   2.612   6.804
 2457SOL     OW 8269   6.258   1.292   5.526
 2457SOL    HW1 8270   6.182   1.262   5.583
 2457SOL    HW2 8271   6.289   1.382   5.555
 2458SOL     OW 8272   1.520   6.558   3.802
 2458SOL    HW1 8273   1.493   6.470   3.763
 2458SOL    HW2 8274   1.595   6.545   3.866
 2459SOL     OW 8275   2.929   6.229   5.593
 2459SOL    HW1 8276   2.964   6.205   5.684
 2459SOL    HW2 8277   3.001   6.214   5.525
 2460SOL     OW 8278   1.421   1.299   0.529
 2460SOL    HW1 8279   1.382   1.302   0.437
 2460SOL    HW2 8280   1.425   1.392   0.566
 2461SOL     OW 8281   4.809   0.783   4.132
 2461SOL    HW1 8282   4.729   0.806   4.187
 2461SOL    HW2 8283   4.846   0.867   4.092
 2462SOL     OW 8284   2.560   5.058   6.909
 2462SOL    HW1 8285   2.507   5.119   6.850
 2462SOL    HW2 8286   2.637   5.021   6.856
 2463SOL     OW 8287   6.202   1.913   6.996
 2463SOL    HW1 8288   6.146   1.996   6.987
 2463SOL    HW2 8289   6.296   1.933   6.971
 2464SOL     OW 8290   1.840   3.420   2.936
 2464SOL    HW1 8291   1.827   3.394   3.032
 2464SOL    HW2 8292   1.883   3.511   2.932
 2465SOL     OW 8293   0.271   6.658   6.719
 2465SOL    HW1 8294   0.361   6.650   6.677
 2465SOL    HW2 8295   0.276   6.719   6.799
 2466SOL     OW 8296   1.897   1.629   2.860
 2466SOL    HW1 8297   1.934   1.583   2.779
 2466SOL    HW2 8298   1.822   1.689   2.832
 2467SOL     OW 8299   5.068   2.078   5.190
 2467SOL    HW1 8300   5.058   2.004   5.122
 2467SOL    HW2 8301   5.093   2.039   5.278
 2468SOL     OW 8302   4.172   0.079   1.007
 2468SOL    HW1 8303   4.168   7.023   1.067
 2468SOL    HW2 8304   4.197   0.160   1.060
 2469SOL     OW 8305   3.879   3.343   4.736
 2469SOL    HW1 8306   3.784   3.367   4.714
 2469SOL    HW2 8307   3.884   3.316   4.832
 2470SOL     OW 8308   3.867   4.825   5.590
 2470SOL    HW1 8309   3.814   4.898   5.547
 2470SOL    HW2 8310   3.945   4.801   5.531
 2471SOL     OW 8311   3.086   5.962   0.296
 2471SOL    HW1 8312   3.022   6.038   0.294
 2471SOL    HW2 8313   3.178   5.995   0.275
 2472SOL     OW 8314   4.720   2.266   3.114
 2472SOL    HW1 8315   4.799   2.327   3.129
 2472SOL    HW2 8316   4.749   2.171   3.125
 2473SOL     OW 8317   1.452   3.758   4.663
 2473SOL    HW1 8318   1.383   3.830   4.651
 2473SOL    HW2 8319   1.408   3.673   4.691
 2474SOL     OW 8320   0.168   5.820   0.996
 2474SOL    HW1 8321   0.087   5.879   0.987
 2474SOL    HW2 8322   0.148   5.731   0.955
 2475SOL     OW 8323   4.464   0.661   2.516
 2475SOL    HW1 8324   4.381   0.715   2.497
 2475SOL    HW2 8325   4.438   0.577   2.563
 2476SOL     OW 8326   5.855   0.833   2.126
 2476SOL    HW1 8327   5.845   0.894   2.047
 2476SOL    HW2 8328   5.845   0.738   2.096
 2477SOL     OW 8329   4.289   1.093   2.759
 2477SOL    HW1 8330   4.358   1.078   2.830
 2477SOL    HW2 8331   4.200   1.064   2.792
 2478SOL     OW 8332   6.604   1.938   1.378
 2478SOL    HW1 8333   6.685   1.938   1.320
 2478SOL    HW2 8334   6.557   2.026   1.371
 2479SOL     OW 8335   1.306   2.919   2.445
 2479SOL    HW1 8336   1.368   2.977   2.392
 2479SOL    HW2 8337   1.358   2.868   2.513
 2480SOL     OW 8338   4.554   4.034   0.820
 2480SOL    HW1 8339   4.558   4.095   0.899
 2480SOL    HW2 8340   4.635   3.975   0.820
 2481SOL     OW 8341   3.959   6.504   0.819
 2481SOL    HW1 8342   3.908   6.579   0.861
 2481SOL    HW2 8343   3.903   6.421   0.818
 2482SOL     OW 8344   5.206   3.521   5.902
 2482SOL    HW1 8345   5.131   3.586   5.917
 2482SOL    HW2 8346   5.241   3.489   5.990
 2483SOL     OW 8347   1.815   1.727   0.809
 2483SOL    HW1 8348   1.812   1.628   0.811
 2483SOL    HW2 8349   1.840   1.758   0.718
 2484SOL     OW 8350   3.795   0.194   6.925
 2484SOL    HW1 8351   3.790   0.269   6.859
 2484SOL    HW2 8352   3.841   0.226   7.008
 2485SOL     OW 8353   5.339   3.354   1.241
 2485SOL    HW1 8354   5.242   3.369   1.261
 2485SOL    HW2 8355   5.348   3.276   1.178
 2486SOL     OW 8356   1.623   4.904   5.038
 2486SOL    HW1 8357   1.559   4.855   4.979
 2486SOL    HW2 8358   1.702   4.847   5.057
 2487SOL     OW 8359   4.157   6.426   0.398
 2487SOL    HW1 8360   4.094   6.473   0.460
 2487SOL    HW2 8361   4.174   6.334   0.431
 2488SOL     OW 8362   1.699   4.231   1.873
 2488SOL    HW1 8363   1.759   4.253   1.950
 2488SOL    HW2 8364   1.656   4.315   1.840
 2489SOL     OW 8365   0.851   6.787   4.158
 2489SOL    HW1 8366   0.817   6.694   4.142
 2489SOL    HW2 8367   0.950   6.785   4.168
 2490SOL     OW 8368   6.932   5.434   1.336
 2490SOL    HW1 8369   6.937   5.337   1.360
 2490SOL    HW2 8370   6.839   5.468   1.352
 2491SOL     OW 8371   2.949   4.726   0.025
 2491SOL    HW1 8372   2.994   4.789   6.984
 2491SOL    HW2 8373   3.004   4.644   0.036
 2492SOL     OW 8374   4.772   3.830   0.790
 2492SOL    HW1 8375   4.718   3.779   0.857
 2492SOL    HW2 8376   4.729   3.824   0.700
 2493SOL     OW 8377   5.637   0.305   2.048
 2493SOL    HW1 8378   5.572   0.289   2.122
 2493SOL    HW2 8379   5.588   0.341   1.968
 2494SOL     OW 8380   5.559   4.725   2.736
 2494SOL    HW1 8381   5.505   4.701   2.655
 2494SOL    HW2 8382   5.632   4.658   2.748
 2495SOL     OW 8383   5.217   6.596   3.984
 2495SOL    HW1 8384   5.309   6.567   4.009
 2495SOL    HW2 8385   5.208   6.694   4.002
 2496SOL     OW 8386   0.220   2.502   6.107
 2496SOL    HW1 8387   0.307   2.459   6.132
 2496SOL    HW2 8388   0.170   2.525   6.190
 2497SOL     OW 8389   0.330   0.417   0.767
 2497SOL    HW1 8390   0.390   0.400   0.845
 2497SOL    HW2 8391   0.333   0.514   0.743
 2498SOL     OW 8392   2.765   2.113   4.621
 2498SOL    HW1 8393   2.720   2.027   4.644
 2498SOL    HW2 8394   2.845   2.125   4.680
 2499SOL     OW 8395   5.978   2.506   2.239
 2499SOL    HW1 8396   5.941   2.594   2.208
 2499SOL    HW2 8397   5.903   2.447   2.269
 2500SOL     OW 8398   4.426   4.369   6.584
 2500SOL    HW1 8399   4.507   4.365   6.643
 2500SOL    HW2 8400   4.404   4.276   6.552
 2501SOL     OW 8401   5.234   5.636   0.373
 2501SOL    HW1 8402   5.273   5.560   0.425
 2501SOL    HW2 8403   5.150   5.607   0.328
 2502SOL     OW 8404   1.052   0.332   3.494
 2502SOL    HW1 8405   0.964   0.379   3.490
 2502SOL    HW2 8406   1.041   0.246   3.544
 2503SOL     OW 8407   2.077   6.308   4.688
 2503SOL    HW1 8408   2.009   6.256   4.637
 2503SOL    HW2 8409   2.094   6.263   4.776
 2504SOL     OW 8410   3.496   5.539   4.996
 2504SOL    HW1 8411   3.508   5.442   5.020
 2504SOL    HW2 8412   3.415   5.549   4.940
 2505SOL     OW 8413   0.397   6.793   3.111
 2505SOL    HW1 8414   0.493   6.818   3.125
 2505SOL    HW2 8415   0.338   6.853   3.164
 2506SOL     OW 8416   6.076   3.916   5.643
 2506SOL    HW1 8417   6.035   3.896   5.553
 2506SOL    HW2 8418   6.050   4.008   5.671
 2507SOL     OW 8419   6.795   3.715   0.710
 2507SOL    HW1 8420   6.813   3.749   0.802
 2507SOL    HW2 8421   6.881   3.688   0.667
 2508SOL     OW 8422   2.837   1.686   3.585
 2508SOL    HW1 8423   2.904   1.759   3.573
 2508SOL    HW2 8424   2.878   1.599   3.556
 2509SOL     OW 8425   6.883   3.834   0.931
 2509SOL    HW1 8426   6.901   3.738   0.953
 2509SOL    HW2 8427   6.969   3.883   0.922
 2510SOL     OW 8428   2.985   5.194   1.261
 2510SOL    HW1 8429   3.001   5.233   1.171
 2510SOL    HW2 8430   3.061   5.214   1.321
 2511SOL     OW 8431   3.637   1.829   4.394
 2511SOL    HW1 8432   3.622   1.897   4.466
 2511SOL    HW2 8433   3.718   1.852   4.342
 2512SOL     OW 8434   4.926   3.545   5.644
 2512SOL    HW1 8435   4.940   3.564   5.741
 2512SOL    HW2 8436   4.832   3.514   5.629
 2513SOL     OW 8437   1.959   4.267   5.116
 2513SOL    HW1 8438   1.892   4.225   5.178
 2513SOL    HW2 8439   1.911   4.308   5.038
 2514SOL     OW 8440   6.810   3.689   5.039
 2514SOL    HW1 8441   6.893   3.686   5.095
 2514SOL    HW2 8442   6.833   3.662   4.945
 2515SOL     OW 8443   1.134   0.363   1.256
 2515SOL    HW1 8444   1.214   0.380   1.199
 2515SOL    HW2 8445   1.090   0.278   1.228
 2516SOL     OW 8446   5.821   1.892   2.540
 2516SOL    HW1 8447   5.779   1.947   2.612
 2516SOL    HW2 8448   5.865   1.952   2.473
 2517SOL     OW 8449   1.217   6.485   5.671
 2517SOL    HW1 8450   1.266   6.450   5.591
 2517SOL    HW2 8451   1.282   6.530   5.732
 2518SOL     OW 8452   1.548   4.621   6.889
 2518SOL    HW1 8453   1.512   4.530   6.908
 2518SOL    HW2 8454   1.542   4.678   6.971
 2519SOL     OW 8455   4.034   6.452   2.277
 2519SOL    HW1 8456   3.994   6.486   2.362
 2519SOL    HW2 8457   4.074   6.362   2.293
 2520SOL     OW 8458   2.831   1.624   0.347
 2520SOL    HW1 8459   2.783   1.581   0.423
 2520SOL    HW2 8460   2.776   1.699   0.311
 2521SOL     OW 8461   2.058   0.888   5.500
 2521SOL    HW1 8462   2.072   0.987   5.493
 2521SOL    HW2 8463   2.004   0.856   5.423
 2522SOL     OW 8464   0.780   2.647   5.139
 2522SOL    HW1 8465   0.808   2.725   5.083
 2522SOL    HW2 8466   0.706   2.675   5.200
 2523SOL     OW 8467   0.382   3.330   1.542
 2523SOL    HW1 8468   0.324   3.275   1.602
 2523SOL    HW2 8469   0.461   3.276   1.514
 2524SOL     OW 8470   0.917   6.385   5.106
 2524SOL    HW1 8471   0.844   6.419   5.048
 2524SOL    HW2 8472   0.886   6.304   5.156
 2525SOL     OW 8473   1.030   2.433   5.584
 2525SOL    HW1 8474   1.108   2.451   5.644
 2525SOL    HW2 8475   0.998   2.519   5.544
 2526SOL     OW 8476   1.658   4.574   6.404
 2526SOL    HW1 8477   1.724   4.529   6.345
 2526SOL    HW2 8478   1.584   4.612   6.349
 2527SOL     OW 8479   5.366   5.653   4.966
 2527SOL    HW1 8480   5.363   5.704   4.879
 2527SOL    HW2 8481   5.296   5.689   5.027
 2528SOL     OW 8482   5.895   4.912   0.242
 2528SOL    HW1 8483   5.909   4.967   0.159
 2528SOL    HW2 8484   5.893   4.972   0.322
 2529SOL     OW 8485   0.075   6.013   6.626
 2529SOL    HW1 8486   7.006   6.024   6.661
 2529SOL    HW2 8487   0.132   5.970   6.696
 2530SOL     OW 8488   2.524   6.265   5.300
 2530SOL    HW1 8489   2.511   6.353   5.255
 2530SOL    HW2 8490   2.622   6.248   5.312
 2531SOL     OW 8491   5.876   5.951   4.403
 2531SOL    HW1 8492   5.820   5.989   4.477
 2531SOL    HW2 8493   5.816   5.924   4.327
 2532SOL     OW 8494   0.481   5.977   0.638
 2532SOL    HW1 8495   0.545   5.962   0.713
 2532SOL    HW2 8496   0.441   6.068   0.646
 2533SOL     OW 8497   3.238   6.699   4.406
 2533SOL    HW1 8498   3.258   6.693   4.308
 2533SOL    HW2 8499   3.323   6.700   4.458
 2534SOL     OW 8500   3.765   0.622   2.775
 2534SOL    HW1 8501   3.683   0.679   2.773
 2534SOL    HW2 8502   3.833   0.664   2.836
 2535SOL     OW 8503   3.441   2.244   5.339
 2535SOL    HW1 8504   3.538   2.268   5.334
 2535SOL    HW2 8505   3.390   2.294   5.270
 2536SOL     OW 8506   1.548   1.548   4.548
 2536SOL    HW1 8507   1.630   1.595   4.515
 2536SOL    HW2 8508   1.467   1.593   4.512
 2537SOL     OW 8509   3.552   0.204   6.366
 2537SOL    HW1 8510   3.581   0.298   6.355
 2537SOL    HW2 8511   3.617   0.143   6.322
 2538SOL     OW 8512   0.950   4.462   3.217
 2538SOL    HW1 8513   1.037   4.454   3.267
 2538SOL    HW2 8514   0.891   4.385   3.241
 2539SOL     OW 8515   5.974   1.211   4.866
 2539SOL    HW1 8516   6.074   1.208   4.871
 2539SOL    HW2 8517   5.942   1.146   4.797
 2540SOL     OW 8518   3.901   1.823   3.128
 2540SOL    HW1 8519   3.917   1.734   3.171
 2540SOL    HW2 8520   3.813   1.821   3.080
 2541SOL     OW 8521   2.679   0.239   5.251
 2541SOL    HW1 8522   2.710   0.317   5.305
 2541SOL    HW2 8523   2.694   0.155   5.303
 2542SOL     OW 8524   3.544   1.140   5.816
 2542SOL    HW1 8525   3.467   1.199   5.840
 2542SOL    HW2 8526   3.585   1.172   5.731
 2543SOL     OW 8527   1.643   1.069   3.507
 2543SOL    HW1 8528   1.728   1.059   3.559
 2543SOL    HW2 8529   1.663   1.108   3.417
 2544SOL     OW 8530   0.392   6.569   1.479
 2544SOL    HW1 8531   0.312   6.508   1.476
 2544SOL    HW2 8532   0.474   6.516   1.495
 2545SOL     OW 8533   1.155   6.836   1.637
 2545SOL    HW1 8534   1.127   6.746   1.669
 2545SOL    HW2 8535   1.248   6.833   1.602
 2546SOL     OW 8536   0.090   1.147   1.684
 2546SOL    HW1 8537   0.126   1.195   1.764
 2546SOL    HW2 8538   0.166   1.122   1.624
 2547SOL     OW 8539   6.127   5.564   0.521
 2547SOL    HW1 8540   6.140   5.506   0.601
 2547SOL    HW2 8541   6.033   5.598   0.519
 2548SOL     OW 8542   1.173   6.642   6.275
 2548SOL    HW1 8543   1.132   6.550   6.277
 2548SOL    HW2 8544   1.157   6.687   6.362
 2549SOL     OW 8545   2.123   0.540   0.730
 2549SOL    HW1 8546   2.069   0.460   0.703
 2549SOL    HW2 8547   2.071   0.623   0.710
 2550SOL     OW 8548   6.708   0.592   6.826
 2550SOL    HW1 8549   6.807   0.606   6.816
 2550SOL    HW2 8550   6.688   0.560   6.919
 2551SOL     OW 8551   3.068   5.457   0.231
 2551SOL    HW1 8552   3.062   5.383   0.165
 2551SOL    HW2 8553   3.151   5.446   0.286
 2552SOL     OW 8554   1.810   5.102   5.133
 2552SOL    HW1 8555   1.732   5.041   5.122
 2552SOL    HW2 8556   1.799   5.182   5.074
 2553SOL     OW 8557   5.175   3.298   5.558
 2553SOL    HW1 8558   5.216   3.210   5.533
 2553SOL    HW2 8559   5.114   3.286   5.636
 2554SOL     OW 8560   1.297   6.977   0.550
 2554SOL    HW1 8561   1.388   6.946   0.578
 2554SOL    HW2 8562   1.234   6.971   0.627
 2555SOL     OW 8563   6.010   6.803   5.552
 2555SOL    HW1 8564   5.970   6.782   5.463
 2555SOL    HW2 8565   5.959   6.755   5.623
 2556SOL     OW 8566   4.643   5.666   0.633
 2556SOL    HW1 8567   4.568   5.608   0.603
 2556SOL    HW2 8568   4.691   5.623   0.709
 2557SOL     OW 8569   2.798   3.936   6.943
 2557SOL    HW1 8570   2.710   3.955   6.987
 2557SOL    HW2 8571   2.783   3.885   6.859
 2558SOL     OW 8572   4.964   1.811   4.273
 2558SOL    HW1 8573   5.014   1.897   4.288
 2558SOL    HW2 8574   4.978   1.750   4.351
 2559SOL     OW 8575   6.912   3.507   3.746
 2559SOL    HW1 8576   6.994   3.563   3.740
 2559SOL    HW2 8577   6.839   3.560   3.790
 2560SOL     OW 8578   5.786   3.406   4.342
 2560SOL    HW1 8579   5.788   3.430   4.439
 2560SOL    HW2 8580   5.769   3.307   4.333
 2561SOL     OW 8581   3.211   6.297   5.485
 2561SOL    HW1 8582   3.227   6.370   5.418
 2561SOL    HW2 8583   3.224   6.334   5.577
 2562SOL     OW 8584   1.909   5.271   2.128
 2562SOL    HW1 8585   1.949   5.221   2.205
 2562SOL    HW2 8586   1.947   5.363   2.125
 2563SOL     OW 8587   3.819   2.529   0.439
 2563SOL    HW1 8588   3.910   2.495   0.462
 2563SOL    HW2 8589   3.787   2.485   0.355
 2564SOL     OW 8590   2.131   6.382   5.996
 2564SOL    HW1 8591   2.225   6.403   5.967
 2564SOL    HW2 8592   2.068   6.400   5.920
 2565SOL     OW 8593   0.703   0.497   6.867
 2565SOL    HW1 8594   0.625   0.454   6.823
 2565SOL    HW2 8595   0.787   0.452   6.838
 2566SOL     OW 8596   2.744   6.835   1.092
 2566SOL    HW1 8597   2.700   6.926   1.089
 2566SOL    HW2 8598   2.677   6.766   1.064
 2567SOL     OW 8599   1.019   1.101   1.246
 2567SOL    HW1 8600   1.105   1.147   1.225
 2567SOL    HW2 8601   0.943   1.153   1.206
 2568SOL     OW 8602   4.187   6.755   0.037
 2568SOL    HW1 8603   4.175   6.837   7.004
 2568SOL    HW2 8604   4.273   6.711   0.014
 2569SOL     OW 8605   3.347   1.366   1.879
 2569SOL    HW1 8606   3.252   1.362   1.910
 2569SOL    HW2 8607   3.408   1.351   1.956
 2570SOL     OW 8608   5.326   6.979   6.344
 2570SOL    HW1 8609   5.399   6.949   6.283
 2570SOL    HW2 8610   5.298   0.048   6.321
 2571SOL     OW 8611   2.621   4.563   5.839
 2571SOL    HW1 8612   2.691   4.595   5.775
 2571SOL    HW2 8613   2.603   4.466   5.824
 2572SOL     OW 8614   2.716   4.770   0.525
 2572SOL    HW1 8615   2.730   4.677   0.557
 2572SOL    HW2 8616   2.785   4.792   0.456
 2573SOL     OW 8617   6.842   2.544   2.068
 2573SOL    HW1 8618   6.810   2.620   2.012
 2573SOL    HW2 8619   6.856   2.463   2.011
 2574SOL     OW 8620   6.006   3.916   0.341
 2574SOL    HW1 8621   6.035   3.915   0.245
 2574SOL    HW2 8622   6.084   3.895   0.399
 2575SOL     OW 8623   5.242   5.400   0.949
 2575SOL    HW1 8624   5.187   5.483   0.953
 2575SOL    HW2 8625   5.188   5.322   0.981
 2576SOL     OW 8626   4.373   6.375   4.247
 2576SOL    HW1 8627   4.431   6.299   4.277
 2576SOL    HW2 8628   4.277   6.351   4.260
 2577SOL     OW 8629   4.306   6.568   1.720
 2577SOL    HW1 8630   4.264   6.479   1.736
 2577SOL    HW2 8631   4.273   6.633   1.789
 2578SOL     OW 8632   4.875   1.729   5.267
 2578SOL    HW1 8633   4.852   1.632   5.280
 2578SOL    HW2 8634   4.835   1.761   5.181
 2579SOL     OW 8635   1.511   6.290   3.664
 2579SOL    HW1 8636   1.431   6.258   3.715
 2579SOL    HW2 8637   1.593   6.248   3.703
 2580SOL     OW 8638   2.750   3.668   6.251
 2580SOL    HW1 8639   2.758   3.683   6.152
 2580SOL    HW2 8640   2.653   3.670   6.276
 2581SOL     OW 8641   1.038   5.204   1.155
 2581SOL    HW1 8642   0.984   5.277   1.196
 2581SOL    HW2 8643   1.133   5.233   1.147
 2582SOL     OW 8644   0.316   4.337   2.081
 2582SOL    HW1 8645   0.323   4.238   2.071
 2582SOL    HW2 8646   0.408   4.377   2.075
 2583SOL     OW 8647   0.898   1.591   0.182
 2583SOL    HW1 8648   0.817   1.537   0.206
 2583SOL    HW2 8649   0.879   1.688   0.199
 2584SOL     OW 8650   4.052   4.949   6.480
 2584SOL    HW1 8651   4.108   4.877   6.520
 2584SOL    HW2 8652   4.072   4.956   6.382
 2585SOL     OW 8653   4.034   2.972   6.744
 2585SOL    HW1 8654   4.104   2.998   6.810
 2585SOL    HW2 8655   3.944   2.995   6.780
 2586SOL     OW 8656   3.814   1.213   3.195
 2586SOL    HW1 8657   3.764   1.251   3.273
 2586SOL    HW2 8658   3.815   1.279   3.120
 2587SOL     OW 8659   0.315   0.505   3.161
 2587SOL    HW1 8660   0.377   0.567   3.208
 2587SOL    HW2 8661   0.348   0.488   3.068
 2588SOL     OW 8662   4.990   1.050   6.363
 2588SOL    HW1 8663   4.992   1.149   6.368
 2588SOL    HW2 8664   4.896   1.017   6.373
 2589SOL     OW 8665   1.015   6.440   5.988
 2589SOL    HW1 8666   1.022   6.365   5.922
 2589SOL    HW2 8667   1.056   6.522   5.951
 2590SOL     OW 8668   3.397   5.581   0.623
 2590SOL    HW1 8669   3.352   5.605   0.708
 2590SOL    HW2 8670   3.428   5.486   0.626
 2591SOL     OW 8671   0.017   4.550   3.300
 2591SOL    HW1 8672   6.953   4.533   3.345
 2591SOL    HW2 8673   0.003   4.555   3.201
 2592SOL     OW 8674   3.426   5.855   0.010
 2592SOL    HW1 8675   3.462   5.869   0.102
 2592SOL    HW2 8676   3.369   5.773   0.009
 2593SOL     OW 8677   3.812   5.530   0.592
 2593SOL    HW1 8678   3.818   5.530   0.492
 2593SOL    HW2 8679   3.828   5.437   0.626
 2594SOL     OW 8680   2.193   4.685   6.606
 2594SOL    HW1 8681   2.126   4.692   6.532
 2594SOL    HW2 8682   2.235   4.775   6.621
 2595SOL     OW 8683   6.940   0.752   3.586
 2595SOL    HW1 8684   6.951   0.803   3.671
 2595SOL    HW2 8685   6.912   0.814   3.512
 2596SOL     OW 8686   3.247   2.151   1.795
 2596SOL    HW1 8687   3.276   2.125   1.887
 2596SOL    HW2 8688   3.273   2.079   1.731
 2597SOL     OW 8689   0.514   4.810   5.495
 2597SOL    HW1 8690   0.524   4.883   5.428
 2597SOL    HW2 8691   0.553   4.725   5.458
 2598SOL     OW 8692   6.309   0.990   3.174
 2598SOL    HW1 8693   6.340   1.071   3.224
 2598SOL    HW2 8694   6.284   1.017   3.081
 2599SOL     OW 8695   1.550   6.155   0.998
 2599SOL    HW1 8696   1.552   6.251   0.973
 2599SOL    HW2 8697   1.567   6.099   0.917
 2600SOL     OW 8698   5.510   2.928   4.809
 2600SOL    HW1 8699   5.463   2.850   4.849
 2600SOL    HW2 8700   5.588   2.897   4.754
 2601SOL     OW 8701   1.982   1.546   2.079
 2601SOL    HW1 8702   2.077   1.577   2.078
 2601SOL    HW2 8703   1.965   1.487   2.000
 2602SOL     OW 8704   1.442   4.739   4.894
 2602SOL    HW1 8705   1.376   4.676   4.934
 2602SOL    HW2 8706   1.523   4.689   4.864
 2603SOL     OW 8707   3.120   0.972   3.916
 2603SOL    HW1 8708   3.085   1.030   3.842
 2603SOL    HW2 8709   3.114   1.022   4.003
 2604SOL     OW 8710   4.876   1.982   2.425
 2604SOL    HW1 8711   4.805   1.971   2.355
 2604SOL    HW2 8712   4.835   1.980   2.516
 2605SOL     OW 8713   1.916   3.255   3.514
 2605SOL    HW1 8714   1.926   3.159   3.489
 2605SOL    HW2 8715   1.921   3.312   3.431
 2606SOL     OW 8716   5.226   4.701   1.564
 2606SOL    HW1 8717   5.210   4.739   1.655
 2606SOL    HW2 8718   5.231   4.775   1.497
 2607SOL     OW 8719   1.057   1.519   2.244
 2607SOL    HW1 8720   1.129   1.572   2.199
 2607SOL    HW2 8721   1.098   1.450   2.303
 2608SOL     OW 8722   4.400   4.724   0.485
 2608SOL    HW1 8723   4.371   4.793   0.419
 2608SOL    HW2 8724   4.355   4.638   0.466
 2609SOL     OW 8725   6.479   0.900   1.880
 2609SOL    HW1 8726   6.545   0.924   1.951
 2609SOL    HW2 8727   6.400   0.855   1.921
 2610SOL     OW 8728   0.731   4.082   4.492
 2610SOL    HW1 8729   0.675   4.099   4.573
 2610SOL    HW2 8730   0.798   4.010   4.513
 2611SOL     OW 8731   4.175   6.084   0.924
 2611SOL    HW1 8732   4.247   6.028   0.883
 2611SOL    HW2 8733   4.133   6.141   0.854
 2612SOL     OW 8734   6.555   6.967   4.602
 2612SOL    HW1 8735   6.615   6.920   4.538
 2612SOL    HW2 8736   6.610   0.003   4.661
 2613SOL     OW 8737   2.204   5.722   5.997
 2613SOL    HW1 8738   2.302   5.705   6.007
 2613SOL    HW2 8739   2.162   5.732   6.088
 2614SOL     OW 8740   6.363   1.933   0.365
 2614SOL    HW1 8741   6.401   1.956   0.276
 2614SOL    HW2 8742   6.336   2.017   0.412
 2615SOL     OW 8743   0.921   2.789   2.648
 2615SOL    HW1 8744   0.966   2.875   2.624
 2615SOL    HW2 8745   0.980   2.736   2.709
 2616SOL     OW 8746   2.602   2.953   5.817
 2616SOL    HW1 8747   2.559   2.978   5.904
 2616SOL    HW2 8748   2.592   3.029   5.752
 2617SOL     OW 8749   4.405   0.283   0.693
 2617SOL    HW1 8750   4.341   0.285   0.617
 2617SOL    HW2 8751   4.499   0.283   0.658
 2618SOL     OW 8752   6.873   0.470   3.712
 2618SOL    HW1 8753   6.902   0.400   3.778
 2618SOL    HW2 8754   6.872   0.431   3.620
 2619SOL     OW 8755   4.558   1.878   1.684
 2619SOL    HW1 8756   4.548   1.908   1.779
 2619SOL    HW2 8757   4.622   1.938   1.637
 2620SOL     OW 8758   6.486   6.759   3.623
 2620SOL    HW1 8759   6.580   6.726   3.607
 2620SOL    HW2 8760   6.473   6.774   3.721
 2621SOL     OW 8761   1.184   5.272   1.960
 2621SOL    HW1 8762   1.185   5.174   1.977
 2621SOL    HW2 8763   1.097   5.311   1.993
 2622SOL     OW 8764   1.299   3.885   5.965
 2622SOL    HW1 8765   1.214   3.920   6.006
 2622SOL    HW2 8766   1.289   3.787   5.946
 2623SOL     OW 8767   0.365   0.583   5.396
 2623SOL    HW1 8768   0.372   0.517   5.471
 2623SOL    HW2 8769   0.271   0.616   5.390
 2624SOL     OW 8770   0.528   1.192   4.802
 2624SOL    HW1 8771   0.446   1.170   4.854
 2624SOL    HW2 8772   0.504   1.203   4.705
 2625SOL     OW 8773   2.425   3.634   5.514
 2625SOL    HW1 8774   2.473   3.549   5.493
 2625SOL    HW2 8775   2.468   3.678   5.593
 2626SOL     OW 8776   6.935   0.458   6.188
 2626SOL    HW1 8777   6.948   0.549   6.229
 2626SOL    HW2 8778   0.001   0.415   6.174
 2627SOL     OW 8779   1.299   1.090   6.160
 2627SOL    HW1 8780   1.327   1.111   6.066
 2627SOL    HW2 8781   1.336   1.001   6.186
 2628SOL     OW 8782   2.175   4.127   5.755
 2628SOL    HW1 8783   2.232   4.068   5.697
 2628SOL    HW2 8784   2.135   4.200   5.699
 2629SOL     OW 8785   4.038   3.318   2.275
 2629SOL    HW1 8786   4.095   3.315   2.193
 2629SOL    HW2 8787   4.077   3.261   2.346
 2630SOL     OW 8788   3.503   1.571   2.738
 2630SOL    HW1 8789   3.587   1.562   2.792
 2630SOL    HW2 8790   3.520   1.632   2.661
 2631SOL     OW 8791   5.374   0.591   6.250
 2631SOL    HW1 8792   5.421   0.518   6.300
 2631SOL    HW2 8793   5.343   0.556   6.162
 2632SOL     OW 8794   5.123   2.812   0.972
 2632SOL    HW1 8795   5.037   2.859   0.949
 2632SOL    HW2 8796   5.179   2.872   1.029
 2633SOL     OW 8797   0.475   1.545   4.453
 2633SOL    HW1 8798   0.499   1.576   4.545
 2633SOL    HW2 8799   0.378   1.566   4.435
 2634SOL     OW 8800   0.878   5.316   3.729
 2634SOL    HW1 8801   0.949   5.330   3.797
 2634SOL    HW2 8802   0.847   5.221   3.732
 2635SOL     OW 8803   0.348   5.909   4.629
 2635SOL    HW1 8804   0.376   5.833   4.688
 2635SOL    HW2 8805   0.271   5.880   4.572
 2636SOL     OW 8806   4.423   0.504   5.691
 2636SOL    HW1 8807   4.328   0.534   5.695
 2636SOL    HW2 8808   4.452   0.473   5.781
 2637SOL     OW 8809   5.985   2.280   3.668
 2637SOL    HW1 8810   5.980   2.185   3.639
 2637SOL    HW2 8811   6.081   2.306   3.682
 2638SOL     OW 8812   6.930   6.546   4.262
 2638SOL    HW1 8813   6.890   6.551   4.170
 2638SOL    HW2 8814   6.868   6.496   4.323
 2639SOL     OW 8815   0.332   6.194   0.663
 2639SOL    HW1 8816   0.351   6.288   0.636
 2639SOL    HW2 8817   0.238   6.186   0.695
 2640SOL     OW 8818   6.945   6.492   5.315
 2640SOL    HW1 8819   6.900   6.526   5.232
 2640SOL    HW2 8820   6.876   6.454   5.377
 2641SOL     OW 8821   5.487   2.724   2.188
 2641SOL    HW1 8822   5.431   2.751   2.267
 2641SOL    HW2 8823   5.562   2.790   2.177
 2642SOL     OW 8824   6.225   0.768   3.845
 2642SOL    HW1 8825   6.151   0.720   3.892
 2642SOL    HW2 8826   6.186   0.834   3.780
 2643SOL     OW 8827   1.674   3.530   3.444
 2643SOL    HW1 8828   1.753   3.589   3.460
 2643SOL    HW2 8829   1.592   3.575   3.479
 2644SOL     OW 8830   4.867   5.128   4.804
 2644SOL    HW1 8831   4.886   5.226   4.797
 2644SOL    HW2 8832   4.944   5.082   4.848
 2645SOL     OW 8833   4.429   5.685   3.652
 2645SOL    HW1 8834   4.404   5.736   3.735
 2645SOL    HW2 8835   4.522   5.650   3.661
 2646SOL     OW 8836   6.498   1.885   6.911
 2646SOL    HW1 8837   6.577   1.827   6.887
 2646SOL    HW2 8838   6.527   1.954   6.977
 2647SOL     OW 8839   6.491   0.234   1.689
 2647SOL    HW1 8840   6.587   0.254   1.707
 2647SOL    HW2 8841   6.440   0.233   1.775
 2648SOL     OW 8842   0.676   6.409   3.888
 2648SOL    HW1 8843   0.644   6.444   3.976
 2648SOL    HW2 8844   0.669   6.309   3.887
 2649SOL     OW 8845   6.600   3.637   1.205
 2649SOL    HW1 8846   6.645   3.568   1.147
 2649SOL    HW2 8847   6.520   3.597   1.249
 2650SOL     OW 8848   1.840   4.998   3.584
 2650SOL    HW1 8849   1.804   5.048   3.663
 2650SOL    HW2 8850   1.900   5.057   3.531
 2651SOL     OW 8851   2.715   1.955   1.194
 2651SOL    HW1 8852   2.742   1.886   1.261
 2651SOL    HW2 8853   2.763   2.041   1.213
 2652SOL     OW 8854   4.203   3.341   5.475
 2652SOL    HW1 8855   4.183   3.244   5.486
 2652SOL    HW2 8856   4.258   3.355   5.392
 2653SOL     OW 8857   4.582   6.913   6.114
 2653SOL    HW1 8858   4.637   6.905   6.031
 2653SOL    HW2 8859   4.541   6.824   6.136
 2654SOL     OW 8860   4.285   6.814   1.553
 2654SOL    HW1 8861   4.273   6.723   1.593
 2654SOL    HW2 8862   4.364   6.813   1.492
 2655SOL     OW 8863   5.387   5.830   3.755
 2655SOL    HW1 8864   5.442   5.786   3.684
 2655SOL    HW2 8865   5.429   5.918   3.779
 2656SOL     OW 8866   3.726   4.994   4.647
 2656SOL    HW1 8867   3.747   5.013   4.551
 2656SOL    HW2 8868   3.811   4.988   4.700
 2657SOL     OW 8869   2.063   4.214   0.237
 2657SOL    HW1 8870   1.978   4.266   0.226
 2657SOL    HW2 8871   2.051   4.146   0.310
 2658SOL     OW 8872   5.249   5.064   0.271
 2658SOL    HW1 8873   5.274   4.972   0.243
 2658SOL    HW2 8874   5.160   5.088   0.232
 2659SOL     OW 8875   4.841   3.159   4.920
 2659SOL    HW1 8876   4.751   3.117   4.928
 2659SOL    HW2 8877   4.880   3.137   4.831
 2660SOL     OW 8878   1.244   0.158   1.769
 2660SOL    HW1 8879   1.239   0.158   1.869
 2660SOL    HW2 8880   1.340   0.154   1.741
 2661SOL     OW 8881   1.790   6.458   1.377
 2661SOL    HW1 8882   1.772   6.552   1.405
 2661SOL    HW2 8883   1.888   6.440   1.383
 2662SOL     OW 8884   3.655   6.847   4.852
 2662SOL    HW1 8885   3.717   6.925   4.863
 2662SOL    HW2 8886   3.603   6.858   4.768
 2663SOL     OW 8887   4.278   4.205   6.800
 2663SOL    HW1 8888   4.374   4.229   6.813
 2663SOL    HW2 8889   4.233   4.276   6.745
 2664SOL     OW 8890   4.644   3.509   5.646
 2664SOL    HW1 8891   4.642   3.598   5.692
 2664SOL    HW2 8892   4.587   3.444   5.696
 2665SOL     OW 8893   2.593   3.435   5.532
 2665SOL    HW1 8894   2.664   3.458   5.599
 2665SOL    HW2 8895   2.603   3.339   5.505
 2666SOL     OW 8896   1.458   4.968   1.476
 2666SOL    HW1 8897   1.410   4.913   1.545
 2666SOL    HW2 8898   1.446   5.065   1.496
 2667SOL     OW 8899   1.766   5.491   3.799
 2667SOL    HW1 8900   1.766   5.449   3.708
 2667SOL    HW2 8901   1.747   5.421   3.868
 2668SOL     OW 8902   6.650   2.478   4.816
 2668SOL    HW1 8903   6.699   2.390   4.816
 2668SOL    HW2 8904   6.607   2.492   4.727
 2669SOL     OW 8905   2.603   5.117   6.046
 2669SOL    HW1 8906   2.588   5.019   6.033
 2669SOL    HW2 8907   2.665   5.151   5.976
 2670SOL     OW 8908   6.309   3.220   4.827
 2670SOL    HW1 8909   6.282   3.260   4.915
 2670SOL    HW2 8910   6.301   3.289   4.755
 2671SOL     OW 8911   4.382   5.405   6.609
 2671SOL    HW1 8912   4.302   5.446   6.652
 2671SOL    HW2 8913   4.361   5.312   6.582
 2672SOL     OW 8914   3.323   6.393   0.901
 2672SOL    HW1 8915   3.269   6.315   0.870
 2672SOL    HW2 8916   3.333   6.389   1.000
 2673SOL     OW 8917   6.063   2.372   2.011
 2673SOL    HW1 8918   6.036   2.431   1.935
 2673SOL    HW2 8919   6.032   2.410   2.097
 2674SOL     OW 8920   1.165   4.502   4.359
 2674SOL    HW1 8921   1.109   4.579   4.387
 2674SOL    HW2 8922   1.254   4.535   4.327
 2675SOL     OW 8923   6.561   6.344   3.724
 2675SOL    HW1 8924   6.588   6.436   3.694
 2675SOL    HW2 8925   6.466   6.346   3.758
 2676SOL     OW 8926   3.404   3.005   1.517
 2676SOL    HW1 8927   3.311   2.977   1.542
 2676SOL    HW2 8928   3.452   2.928   1.474
 2677SOL     OW 8929   2.778   4.274   0.944
 2677SOL    HW1 8930   2.845   4.333   0.899
 2677SOL    HW2 8931   2.824   4.194   0.981
 2678SOL     OW 8932   0.529   2.620   2.503
 2678SOL    HW1 8933   0.617   2.659   2.477
 2678SOL    HW2 8934   0.533   2.521   2.496
 2679SOL     OW 8935   2.221   4.837   2.497
 2679SOL    HW1 8936   2.187   4.763   2.438
 2679SOL    HW2 8937   2.198   4.925   2.456
 2680SOL     OW 8938   0.829   2.225   0.510
 2680SOL    HW1 8939   0.841   2.149   0.575
 2680SOL    HW2 8940   0.913   2.279   0.507
 2681SOL     OW 8941   1.436   2.196   4.624
 2681SOL    HW1 8942   1.444   2.132   4.548
 2681SOL    HW2 8943   1.400   2.284   4.591
 2682SOL     OW 8944   4.880   3.992   3.965
 2682SOL    HW1 8945   4.880   4.086   3.930
 2682SOL    HW2 8946   4.862   3.993   4.063
 2683SOL     OW 8947   2.637   4.588   2.240
 2683SOL    HW1 8948   2.596   4.667   2.194
 2683SOL    HW2 8949   2.717   4.558   2.189
 2684SOL     OW 8950   4.270   6.741   2.298
 2684SOL    HW1 8951   4.312   6.651   2.304
 2684SOL    HW2 8952   4.332   6.803   2.249
 2685SOL     OW 8953   5.433   5.411   5.743
 2685SOL    HW1 8954   5.339   5.396   5.773
 2685SOL    HW2 8955   5.436   5.408   5.643
 2686SOL     OW 8956   1.055   1.490   5.429
 2686SOL    HW1 8957   1.108   1.573   5.447
 2686SOL    HW2 8958   1.003   1.502   5.344
 2687SOL     OW 8959   4.353   5.635   0.927
 2687SOL    HW1 8960   4.419   5.710   0.926
 2687SOL    HW2 8961   4.264   5.668   0.896
 2688SOL     OW 8962   2.526   2.384   0.553
 2688SOL    HW1 8963   2.541   2.478   0.583
 2688SOL    HW2 8964   2.610   2.331   0.567
 2689SOL     OW 8965   6.685   3.489   2.230
 2689SOL    HW1 8966   6.705   3.501   2.132
 2689SOL    HW2 8967   6.771   3.475   2.279
 2690SOL     OW 8968   2.852   3.238   5.723
 2690SOL    HW1 8969   2.879   3.194   5.809
 2690SOL    HW2 8970   2.762   3.203   5.695
 2691SOL     OW 8971   0.213   4.852   3.674
 2691SOL    HW1 8972   0.200   4.774   3.734
 2691SOL    HW2 8973   0.275   4.828   3.600
 2692SOL     OW 8974   2.755   6.344   3.693
 2692SOL    HW1 8975   2.792   6.404   3.621
 2692SOL    HW2 8976   2.747   6.397   3.778
 2693SOL     OW 8977   2.709   4.723   4.233
 2693SOL    HW1 8978   2.800   4.761   4.249
 2693SOL    HW2 8979   2.692   4.716   4.135
 2694SOL     OW 8980   3.863   6.912   3.207
 2694SOL    HW1 8981   3.817   6.884   3.291
 2694SOL    HW2 8982   3.799   6.960   3.148
 2695SOL     OW 8983   6.151   0.285   2.800
 2695SOL    HW1 8984   6.200   0.249   2.879
 2695SOL    HW2 8985   6.217   0.312   2.730
 2696SOL     OW 8986   4.149   3.724   5.567
 2696SOL    HW1 8987   4.206   3.661   5.620
 2696SOL    HW2 8988   4.094   3.780   5.629
 2697SOL     OW 8989   3.342   1.369   2.854
 2697SOL    HW1 8990   3.250   1.346   2.824
 2697SOL    HW2 8991   3.396   1.401   2.776
 2698SOL     OW 8992   2.283   4.486   0.472
 2698SOL    HW1 8993   2.243   4.572   0.442
 2698SOL    HW2 8994   2.217   4.437   0.530
 2699SOL     OW 8995   2.687   5.978   0.826
 2699SOL    HW1 8996   2.601   6.013   0.791
 2699SOL    HW2 8997   2.727   5.915   0.760
 2700SOL     OW 8998   3.087   1.928   0.969
 2700SOL    HW1 8999   3.182   1.897   0.963
 2700SOL    HW2 9000   3.085   2.027   0.975
 2701SOL     OW 9001   5.164   2.241   6.238
 2701SOL    HW1 9002   5.214   2.326   6.254
 2701SOL    HW2 9003   5.141   2.198   6.326
 2702SOL     OW 9004   1.020   2.742   3.523
 2702SOL    HW1 9005   1.053   2.816   3.464
 2702SOL    HW2 9006   1.058   2.753   3.614
 2703SOL     OW 9007   1.027   5.823   0.932
 2703SOL    HW1 9008   0.983   5.740   0.966
 2703SOL    HW2 9009   0.987   5.903   0.977
 2704SOL     OW 9010   6.277   6.190   1.877
 2704SOL    HW1 9011   6.251   6.128   1.951
 2704SOL    HW2 9012   6.211   6.183   1.802
 2705SOL     OW 9013   5.923   0.383   5.210
 2705SOL    HW1 9014   5.900   0.396   5.306
 2705SOL    HW2 9015   5.925   0.285   5.189
 2706SOL     OW 9016   6.383   4.627   3.344
 2706SOL    HW1 9017   6.329   4.690   3.399
 2706SOL    HW2 9018   6.451   4.678   3.291
 2707SOL     OW 9019   3.546   0.035   3.932
 2707SOL    HW1 9020   3.499   0.119   3.904
 2707SOL    HW2 9021   3.632   0.059   3.978
 2708SOL     OW 9022   6.324   2.892   1.136
 2708SOL    HW1 9023   6.378   2.808   1.134
 2708SOL    HW2 9024   6.380   2.968   1.101
 2709SOL     OW 9025   5.485   6.794   6.812
 2709SOL    HW1 9026   5.422   6.837   6.876
 2709SOL    HW2 9027   5.475   6.837   6.722
 2710SOL     OW 9028   1.430   3.204   4.002
 2710SOL    HW1 9029   1.366   3.139   3.961
 2710SOL    HW2 9030   1.391   3.243   4.085
 2711SOL     OW 9031   2.986   0.572   3.957
 2711SOL    HW1 9032   2.951   0.484   3.989
 2711SOL    HW2 9033   2.911   0.626   3.919
 2712SOL     OW 9034   2.501   5.502   1.821
 2712SOL    HW1 9035   2.481   5.469   1.729
 2712SOL    HW2 9036   2.568   5.441   1.865
 2713SOL     OW 9037   2.464   3.654   6.300
 2713SOL    HW1 9038   2.383   3.704   6.332
 2713SOL    HW2 9039   2.443   3.556   6.300
 2714SOL     OW 9040   3.695   2.784   6.735
 2714SOL    HW1 9041   3.753   2.851   6.782
 2714SOL    HW2 9042   3.685   2.810   6.639
 2715SOL     OW 9043   5.082   2.050   0.619
 2715SOL    HW1 9044   5.063   2.059   0.717
 2715SOL    HW2 9045   5.168   2.001   0.606
 2716SOL     OW 9046   4.966   3.405   4.043
 2716SOL    HW1 9047   4.986   3.418   3.946
 2716SOL    HW2 9048   4.944   3.308   4.059
 2717SOL     OW 9049   0.622   6.813   1.909
 2717SOL    HW1 9050   0.539   6.761   1.889
 2717SOL    HW2 9051   0.688   6.754   1.956
 2718SOL     OW 9052   0.774   1.245   5.491
 2718SOL    HW1 9053   0.763   1.335   5.531
 2718SOL    HW2 9054   0.838   1.191   5.547
 2719SOL     OW 9055   1.027   4.951   1.583
 2719SOL    HW1 9056   0.989   5.044   1.574
 2719SOL    HW2 9057   0.962   4.885   1.546
 2720SOL     OW 9058   1.306   0.296   2.567
 2720SOL    HW1 9059   1.225   0.339   2.607
 2720SOL    HW2 9060   1.296   0.196   2.570
 2721SOL     OW 9061   3.152   6.133   2.975
 2721SOL    HW1 9062   3.164   6.034   2.987
 2721SOL    HW2 9063   3.223   6.181   3.027
 2722SOL     OW 9064   5.313   5.285   6.801
 2722SOL    HW1 9065   5.360   5.211   6.848
 2722SOL    HW2 9066   5.371   5.366   6.799
 2723SOL     OW 9067   1.681   6.018   6.740
 2723SOL    HW1 9068   1.597   6.025   6.793
 2723SOL    HW2 9069   1.714   5.924   6.743
 2724SOL     OW 9070   1.436   6.387   6.284
 2724SOL    HW1 9071   1.353   6.442   6.295
 2724SOL    HW2 9072   1.468   6.356   6.373
 2725SOL     OW 9073   5.156   4.664   5.190
 2725SOL    HW1 9074   5.237   4.609   5.211
 2725SOL    HW2 9075   5.183   4.761   5.184
 2726SOL     OW 9076   0.369   2.696   2.286
 2726SOL    HW1 9077   0.394   2.671   2.379
 2726SOL    HW2 9078   0.433   2.765   2.252
 2727SOL     OW 9079   0.665   3.909   4.303
 2727SOL    HW1 9080   0.678   3.965   4.385
 2727SOL    HW2 9081   0.694   3.961   4.223
 2728SOL     OW 9082   4.887   6.201   5.434
 2728SOL    HW1 9083   4.810   6.150   5.474
 2728SOL    HW2 9084   4.860   6.236   5.344
 2729SOL     OW 9085   6.902   6.630   0.599
 2729SOL    HW1 9086   6.839   6.579   0.540
 2729SOL    HW2 9087   6.977   6.571   0.627
 2730SOL     OW 9088   1.692   5.733   1.968
 2730SOL    HW1 9089   1.634   5.658   1.938
 2730SOL    HW2 9090   1.643   5.820   1.960
 2731SOL     OW 9091   2.889   3.670   3.378
 2731SOL    HW1 9092   2.932   3.694   3.291
 2731SOL    HW2 9093   2.928   3.586   3.413
 2732SOL     OW 9094   5.868   1.507   0.770
 2732SOL    HW1 9095   5.913   1.429   0.728
 2732SOL    HW2 9096   5.894   1.512   0.867
 2733SOL     OW 9097   6.733   1.778   5.302
 2733SOL    HW1 9098   6.697   1.809   5.390
 2733SOL    HW2 9099   6.660   1.782   5.234
 2734SOL     OW 9100   2.618   5.604   0.758
 2734SOL    HW1 9101   2.640   5.661   0.679
 2734SOL    HW2 9102   2.702   5.563   0.794
 2735SOL     OW 9103   1.395   2.416   2.238
 2735SOL    HW1 9104   1.415   2.356   2.161
 2735SOL    HW2 9105   1.301   2.448   2.232
 2736SOL     OW 9106   7.002   6.073   4.766
 2736SOL    HW1 9107   7.013   5.992   4.823
 2736SOL    HW2 9108   6.961   6.046   4.678
 2737SOL     OW 9109   2.954   3.885   5.557
 2737SOL    HW1 9110   2.943   3.785   5.552
 2737SOL    HW2 9111   2.874   3.929   5.517
 2738SOL     OW 9112   5.716   5.955   2.014
 2738SOL    HW1 9113   5.768   6.040   2.020
 2738SOL    HW2 9114   5.643   5.956   2.082
 2739SOL     OW 9115   0.975   4.683   0.535
 2739SOL    HW1 9116   0.971   4.596   0.585
 2739SOL    HW2 9117   0.978   4.759   0.600
 2740SOL     OW 9118   6.351   4.842   1.202
 2740SOL    HW1 9119   6.314   4.794   1.281
 2740SOL    HW2 9120   6.351   4.782   1.122
 2741SOL     OW 9121   6.589   1.078   4.323
 2741SOL    HW1 9122   6.524   1.005   4.304
 2741SOL    HW2 9123   6.546   1.166   4.305
 2742SOL     OW 9124   2.289   5.070   0.470
 2742SOL    HW1 9125   2.202   5.067   0.519
 2742SOL    HW2 9126   2.357   5.016   0.519
 2743SOL     OW 9127   0.256   4.729   2.451
 2743SOL    HW1 9128   0.160   4.711   2.474
 2743SOL    HW2 9129   0.299   4.778   2.527
 2744SOL     OW 9130   4.278   2.760   0.419
 2744SOL    HW1 9131   4.249   2.789   0.328
 2744SOL    HW2 9132   4.376   2.781   0.431
 2745SOL     OW 9133   7.011   1.090   4.655
 2745SOL    HW1 9134   7.006   1.008   4.597
 2745SOL    HW2 9135   6.952   1.078   4.735
 2746SOL     OW 9136   1.161   2.492   4.904
 2746SOL    HW1 9137   1.180   2.438   4.986
 2746SOL    HW2 9138   1.110   2.575   4.931
 2747SOL     OW 9139   5.009   5.560   6.821
 2747SOL    HW1 9140   5.027   5.555   6.722
 2747SOL    HW2 9141   5.026   5.653   6.853
 2748SOL     OW 9142   4.423   1.280   2.621
 2748SOL    HW1 9143   4.358   1.219   2.665
 2748SOL    HW2 9144   4.516   1.245   2.634
 2749SOL     OW 9145   6.433   4.489   1.405
 2749SOL    HW1 9146   6.502   4.527   1.466
 2749SOL    HW2 9147   6.471   4.410   1.357
 2750SOL     OW 9148   2.218   4.033   2.023
 2750SOL    HW1 9149   2.207   3.952   1.965
 2750SOL    HW2 9150   2.191   4.011   2.117
 2751SOL     OW 9151   0.828   2.607   1.481
 2751SOL    HW1 9152   0.730   2.588   1.480
 2751SOL    HW2 9153   0.872   2.552   1.552
 2752SOL     OW 9154   3.339   4.527   5.891
 2752SOL    HW1 9155   3.295   4.454   5.943
 2752SOL    HW2 9156   3.360   4.495   5.799
 2753SOL     OW 9157   6.896   6.806   4.941
 2753SOL    HW1 9158   6.948   6.722   4.925
 2753SOL    HW2 9159   6.805   6.796   4.901
 2754SOL     OW 9160   0.500   0.277   0.938
 2754SOL    HW1 9161   0.598   0.291   0.924
 2754SOL    HW2 9162   0.483   0.181   0.959
 2755SOL     OW 9163   3.690   6.726   2.243
 2755SOL    HW1 9164   3.747   6.649   2.215
 2755SOL    HW2 9165   3.747   6.796   2.285
 2756SOL     OW 9166   4.659   5.830   6.934
 2756SOL    HW1 9167   4.639   5.738   6.899
 2756SOL    HW2 9168   4.748   5.830   6.979
 2757SOL     OW 9169   2.494   6.660   0.329
 2757SOL    HW1 9170   2.497   6.621   0.421
 2757SOL    HW2 9171   2.587   6.660   0.290
 2758SOL     OW 9172   4.198   6.951   3.579
 2758SOL    HW1 9173   4.239   6.874   3.531
 2758SOL    HW2 9174   4.184   0.004   3.515
 2759SOL     OW 9175   5.918   6.601   5.718
 2759SOL    HW1 9176   5.965   6.580   5.804
 2759SOL    HW2 9177   5.860   6.524   5.692
 2760SOL     OW 9178   0.124   5.850   1.701
 2760SOL    HW1 9179   0.193   5.838   1.629
 2760SOL    HW2 9180   0.036   5.818   1.668
 2761SOL     OW 9181   2.050   5.230   4.350
 2761SOL    HW1 9182   1.966   5.194   4.310
 2761SOL    HW2 9183   2.103   5.277   4.279
 2762SOL     OW 9184   1.774   1.049   5.502
 2762SOL    HW1 9185   1.816   0.959   5.503
 2762SOL    HW2 9186   1.840   1.116   5.467
 2763SOL     OW 9187   4.996   1.678   3.632
 2763SOL    HW1 9188   5.089   1.687   3.669
 2763SOL    HW2 9189   4.930   1.680   3.707
 2764SOL     OW 9190   5.907   1.057   1.326
 2764SOL    HW1 9191   5.813   1.090   1.326
 2764SOL    HW2 9192   5.970   1.133   1.343
 2765SOL     OW 9193   5.577   0.438   0.972
 2765SOL    HW1 9194   5.638   0.504   1.016
 2765SOL    HW2 9195   5.615   0.410   0.884
 2766SOL     OW 9196   4.091   2.310   6.856
 2766SOL    HW1 9197   3.997   2.333   6.833
 2766SOL    HW2 9198   4.117   2.357   6.941
 2767SOL     OW 9199   6.886   5.386   0.163
 2767SOL    HW1 9200   6.844   5.308   0.116
 2767SOL    HW2 9201   6.865   5.470   0.113
 2768SOL     OW 9202   4.778   0.535   0.866
 2768SOL    HW1 9203   4.727   0.584   0.795
 2768SOL    HW2 9204   4.876   0.544   0.849
 2769SOL     OW 9205   0.809   4.012   4.050
 2769SOL    HW1 9206   0.857   4.093   4.085
 2769SOL    HW2 9207   0.874   3.955   4.000
 2770SOL     OW 9208   2.871   5.068   5.835
 2770SOL    HW1 9209   2.960   5.110   5.856
 2770SOL    HW2 9210   2.807   5.138   5.804
 2771SOL     OW 9211   6.564   0.792   3.144
 2771SOL    HW1 9212   6.592   0.757   3.233
 2771SOL    HW2 9213   6.487   0.855   3.155
 2772SOL     OW 9214   4.373   1.753   0.370
 2772SOL    HW1 9215   4.451   1.746   0.432
 2772SOL    HW2 9216   4.357   1.849   0.347
 2773SOL     OW 9217   5.916   2.227   5.553
 2773SOL    HW1 9218   5.919   2.304   5.489
 2773SOL    HW2 9219   6.001   2.175   5.547
 2774SOL     OW 9220   6.187   3.708   3.542
 2774SOL    HW1 9221   6.104   3.660   3.515
 2774SOL    HW2 9222   6.243   3.650   3.601
 2775SOL     OW 9223   6.828   5.402   6.895
 2775SOL    HW1 9224   6.783   5.428   6.809
 2775SOL    HW2 9225   6.788   5.317   6.929
 2776SOL     OW 9226   4.648   4.617   6.257
 2776SOL    HW1 9227   4.559   4.578   6.281
 2776SOL    HW2 9228   4.645   4.716   6.268
 2777SOL     OW 9229   2.755   1.456   2.132
 2777SOL    HW1 9230   2.820   1.442   2.207
 2777SOL    HW2 9231   2.710   1.545   2.142
 2778SOL     OW 9232   1.499   0.028   5.661
 2778SOL    HW1 9233   1.596   0.026   5.686
 2778SOL    HW2 9234   1.474   0.119   5.630
 2779SOL     OW 9235   4.781   6.182   1.020
 2779SOL    HW1 9236   4.818   6.101   1.064
 2779SOL    HW2 9237   4.767   6.164   0.923
 2780SOL     OW 9238   6.593   6.135   6.973
 2780SOL    HW1 9239   6.514   6.113   0.007
 2780SOL    HW2 9240   6.562   6.151   6.879
 2781SOL     OW 9241   5.640   6.079   1.720
 2781SOL    HW1 9242   5.668   6.104   1.628
 2781SOL    HW2 9243   5.640   5.980   1.729
 2782SOL     OW 9244   3.752   1.960   5.207
 2782SOL    HW1 9245   3.765   1.861   5.201
 2782SOL    HW2 9246   3.701   1.982   5.290
 2783SOL     OW 9247   5.170   3.927   3.888
 2783SOL    HW1 9248   5.105   3.963   3.956
 2783SOL    HW2 9249   5.120   3.884   3.813
 2784SOL     OW 9250   3.622   1.737   1.175
 2784SOL    HW1 9251   3.612   1.795   1.256
 2784SOL    HW2 9252   3.642   1.643   1.203
 2785SOL     OW 9253   5.509   1.744   0.955
 2785SOL    HW1 9254   5.455   1.821   0.990
 2785SOL    HW2 9255   5.606   1.769   0.955
 2786SOL     OW 9256   4.452   5.624   2.459
 2786SOL    HW1 9257   4.546   5.645   2.487
 2786SOL    HW2 9258   4.453   5.586   2.367
 2787SOL     OW 9259   3.221   2.064   6.993
 2787SOL    HW1 9260   3.208   1.970   0.001
 2787SOL    HW2 9261   3.185   2.074   6.900
 2788SOL     OW 9262   2.287   4.646   6.268
 2788SOL    HW1 9263   2.296   4.593   6.183
 2788SOL    HW2 9264   2.203   4.618   6.315
 2789SOL     OW 9265   2.323   2.210   3.701
 2789SOL    HW1 9266   2.264   2.224   3.621
 2789SOL    HW2 9267   2.321   2.291   3.759
 2790SOL     OW 9268   3.238   5.710   2.009
 2790SOL    HW1 9269   3.167   5.709   2.079
 2790SOL    HW2 9270   3.216   5.781   1.941
 2791SOL     OW 9271   1.209   3.906   3.189
 2791SOL    HW1 9272   1.237   3.984   3.134
 2791SOL    HW2 9273   1.290   3.859   3.224
 2792SOL     OW 9274   0.859   6.963   3.884
 2792SOL    HW1 9275   0.925   0.001   3.927
 2792SOL    HW2 9276   0.873   6.870   3.916
 2793SOL     OW 9277   5.005   3.267   3.255
 2793SOL    HW1 9278   5.072   3.339   3.236
 2793SOL    HW2 9279   5.024   3.227   3.345
 2794SOL     OW 9280   0.341   3.301   0.268
 2794SOL    HW1 9281   0.401   3.366   0.315
 2794SOL    HW2 9282   0.301   3.238   0.335
 2795SOL     OW 9283   1.703   2.859   0.633
 2795SOL    HW1 9284   1.758   2.901   0.561
 2795SOL    HW2 9285   1.759   2.850   0.716
 2796SOL     OW 9286   6.658   5.667   2.499
 2796SOL    HW1 9287   6.716   5.646   2.577
 2796SOL    HW2 9288   6.715   5.683   2.418
 2797SOL     OW 9289   5.477   5.065   4.645
 2797SOL    HW1 9290   5.568   5.087   4.681
 2797SOL    HW2 9291   5.408   5.105   4.705
 2798SOL     OW 9292   0.903   5.393   1.292
 2798SOL    HW1 9293   0.986   5.384   1.347
 2798SOL    HW2 9294   0.896   5.487   1.257
 2799SOL     OW 9295   6.649   6.879   0.669
 2799SOL    HW1 9296   6.642   6.781   0.691
 2799SOL    HW2 9297   6.688   6.928   0.747
 2800SOL     OW 9298   4.589   5.119   0.129
 2800SOL    HW1 9299   4.610   5.119   0.227
 2800SOL    HW2 9300   4.648   5.185   0.083
 2801SOL     OW 9301   5.820   5.098   4.983
 2801SOL    HW1 9302   5.767   5.044   5.048
 2801SOL    HW2 9303   5.791   5.194   4.988
 2802SOL     OW 9304   4.485   1.703   5.501
 2802SOL    HW1 9305   4.420   1.760   5.551
 2802SOL    HW2 9306   4.559   1.761   5.465
 2803SOL     OW 9307   3.397   5.986   6.266
 2803SOL    HW1 9308   3.413   6.063   6.204
 2803SOL    HW2 9309   3.301   5.959   6.262
 2804SOL     OW 9310   0.187   4.520   5.033
 2804SOL    HW1 9311   0.216   4.461   4.958
 2804SOL    HW2 9312   0.175   4.465   5.116
 2805SOL     OW 9313   5.242   2.807   2.017
 2805SOL    HW1 9314   5.156   2.766   2.047
 2805SOL    HW2 9315   5.317   2.745   2.037
 2806SOL     OW 9316   6.718   5.451   4.836
 2806SOL    HW1 9317   6.625   5.464   4.869
 2806SOL    HW2 9318   6.780   5.510   4.888
 2807SOL     OW 9319   4.794   5.512   3.208
 2807SOL    HW1 9320   4.849   5.466   3.138
 2807SOL    HW2 9321   4.851   5.577   3.258
 2808SOL     OW 9322   5.234   3.782   2.656
 2808SOL    HW1 9323   5.325   3.761   2.620
 2808SOL    HW2 9324   5.175   3.812   2.581
 2809SOL     OW 9325   5.915   3.199   1.004
 2809SOL    HW1 9326   5.827   3.164   0.972
 2809SOL    HW2 9327   5.930   3.290   0.966
 2810SOL     OW 9328   3.140   5.822   4.245
 2810SOL    HW1 9329   3.157   5.744   4.305
 2810SOL    HW2 9330   3.181   5.805   4.156
 2811SOL     OW 9331   1.486   1.717   3.306
 2811SOL    HW1 9332   1.573   1.761   3.328
 2811SOL    HW2 9333   1.411   1.763   3.354
 2812SOL     OW 9334   4.784   4.130   6.959
 2812SOL    HW1 9335   4.837   4.214   6.946
 2812SOL    HW2 9336   4.781   4.108   0.034
 2813SOL     OW 9337   6.831   0.024   5.768
 2813SOL    HW1 9338   6.817   0.096   5.837
 2813SOL    HW2 9339   6.754   0.024   5.704
 2814SOL     OW 9340   4.613   3.263   6.617
 2814SOL    HW1 9341   4.669   3.247   6.698
 2814SOL    HW2 9342   4.553   3.185   6.601
 2815SOL     OW 9343   5.757   0.643   5.222
 2815SOL    HW1 9344   5.824   0.660   5.149
 2815SOL    HW2 9345   5.799   0.663   5.311
 2816SOL     OW 9346   6.133   5.744   3.530
 2816SOL    HW1 9347   6.157   5.695   3.446
 2816SOL    HW2 9348   6.078   5.684   3.589
 2817SOL     OW 9349   2.349   0.032   1.394
 2817SOL    HW1 9350   2.437   0.059   1.433
 2817SOL    HW2 9351   2.327   0.092   1.317
 2818SOL     OW 9352   6.958   0.377   0.365
 2818SOL    HW1 9353   6.866   0.410   0.386
 2818SOL    HW2 9354   6.998   0.432   0.292
 2819SOL     OW 9355   0.984   0.904   1.441
 2819SOL    HW1 9356   0.994   0.987   1.386
 2819SOL    HW2 9357   0.887   0.885   1.455
 2820SOL     OW 9358   1.360   1.934   2.914
 2820SOL    HW1 9359   1.391   1.882   2.994
 2820SOL    HW2 9360   1.378   2.031   2.929
 2821SOL     OW 9361   3.824   3.427   0.154
 2821SOL    HW1 9362   3.865   3.447   0.243
 2821SOL    HW2 9363   3.860   3.492   0.086
 2822SOL     OW 9364   4.402   2.151   6.972
 2822SOL    HW1 9365   4.367   2.233   7.017
 2822SOL    HW2 9366   4.328   2.084   6.963
 2823SOL     OW 9367   4.083   6.229   0.723
 2823SOL    HW1 9368   4.113   6.194   0.634
 2823SOL    HW2 9369   4.052   6.323   0.713
 2824SOL     OW 9370   2.775   1.090   3.219
 2824SOL    HW1 9371   2.821   1.006   3.189
 2824SOL    HW2 9372   2.753   1.146   3.139
 2825SOL     OW 9373   6.781   0.197   6.936
 2825SOL    HW1 9374   6.820   0.122   6.883
 2825SOL    HW2 9375   6.833   0.281   6.917
 2826SOL     OW 9376   4.732   1.191   6.776
 2826SOL    HW1 9377   4.827   1.204   6.748
 2826SOL    HW2 9378   4.731   1.142   6.863
 2827SOL     OW 9379   6.562   0.703   5.304
 2827SOL    HW1 9380   6.563   0.618   5.250
 2827SOL    HW2 9381   6.551   0.781   5.243
 2828SOL     OW 9382   3.265   1.380   0.129
 2828SOL    HW1 9383   3.329   1.351   0.200
 2828SOL    HW2 9384   3.303   1.458   0.080
 2829SOL     OW 9385   3.335   3.727   5.323
 2829SOL    HW1 9386   3.350   3.669   5.243
 2829SOL    HW2 9387   3.416   3.783   5.340
 2830SOL     OW 9388   1.296   3.243   6.037
 2830SOL    HW1 9389   1.217   3.196   6.078
 2830SOL    HW2 9390   1.303   3.335   6.074
 2831SOL     OW 9391   0.753   5.333   3.263
 2831SOL    HW1 9392   0.770   5.261   3.196
 2831SOL    HW2 9393   0.821   5.328   3.336
 2832SOL     OW 9394   1.308   1.179   2.129
 2832SOL    HW1 9395   1.229   1.118   2.122
 2832SOL    HW2 9396   1.280   1.266   2.170
 2833SOL     OW 9397   4.323   1.994   2.154
 2833SOL    HW1 9398   4.358   1.943   2.233
 2833SOL    HW2 9399   4.332   2.092   2.171
 2834SOL     OW 9400   2.924   5.657   6.171
 2834SOL    HW1 9401   2.882   5.636   6.259
 2834SOL    HW2 9402   2.852   5.677   6.104
 2835SOL     OW 9403   6.951   0.239   1.332
 2835SOL    HW1 9404   6.960   0.259   1.234
 2835SOL    HW2 9405   0.016   0.211   1.369
 2836SOL     OW 9406   5.735   0.452   2.371
 2836SOL    HW1 9407   5.701   0.456   2.465
 2836SOL    HW2 9408   5.682   0.515   2.314
 2837SOL     OW 9409   5.489   4.036   2.859
 2837SOL    HW1 9410   5.523   3.993   2.943
 2837SOL    HW2 9411   5.481   3.968   2.787
 2838SOL     OW 9412   1.976   4.477   1.117
 2838SOL    HW1 9413   2.017   4.403   1.171
 2838SOL    HW2 9414   2.046   4.518   1.058
 2839SOL     OW 9415   6.796   1.738   1.771
 2839SOL    HW1 9416   6.793   1.824   1.721
 2839SOL    HW2 9417   6.729   1.674   1.732
 2840SOL     OW 9418   2.336   1.109   3.220
 2840SOL    HW1 9419   2.296   1.031   3.266
 2840SOL    HW2 9420   2.410   1.147   3.276
 2841SOL     OW 9421   0.558   0.703   5.743
 2841SOL    HW1 9422   0.480   0.641   5.734
 2841SOL    HW2 9423   0.552   0.752   5.829
 2842SOL     OW 9424   6.712   3.669   3.855
 2842SOL    HW1 9425   6.741   3.760   3.828
 2842SOL    HW2 9426   6.636   3.676   3.920
 2843SOL     OW 9427   2.562   1.447   2.716
 2843SOL    HW1 9428   2.577   1.543   2.690
 2843SOL    HW2 9429   2.471   1.418   2.687
 2844SOL     OW 9430   0.338   5.565   0.150
 2844SOL    HW1 9431   0.405   5.625   0.194
 2844SOL    HW2 9432   0.276   5.527   0.219
 2845SOL     OW 9433   6.431   3.182   1.410
 2845SOL    HW1 9434   6.388   3.186   1.500
 2845SOL    HW2 9435   6.365   3.211   1.340
 2846SOL     OW 9436   4.144   1.066   6.088
 2846SOL    HW1 9437   4.176   0.972   6.100
 2846SOL    HW2 9438   4.055   1.065   6.043
 2847SOL     OW 9439   4.892   3.676   4.089
 2847SOL    HW1 9440   4.918   3.719   4.002
 2847SOL    HW2 9441   4.889   3.577   4.077
 2848SOL     OW 9442   1.345   3.042   5.838
 2848SOL    HW1 9443   1.437   3.007   5.858
 2848SOL    HW2 9444   1.322   3.114   5.902
 2849SOL     OW 9445   3.783   6.294   0.792
 2849SOL    HW1 9446   3.746   6.224   0.731
 2849SOL    HW2 9447   3.803   6.252   0.881
 2850SOL     OW 9448   2.320   0.143   2.474
 2850SOL    HW1 9449   2.344   0.167   2.380
 2850SOL    HW2 9450   2.235   0.188   2.499
 2851SOL     OW 9451   6.859   1.398   5.716
 2851SOL    HW1 9452   6.839   1.467   5.647
 2851SOL    HW2 9453   6.940   1.425   5.768
 2852SOL     OW 9454   5.462   5.101   6.988
 2852SOL    HW1 9455   5.491   5.093   0.060
 2852SOL    HW2 9456   5.537   5.076   6.928
 2853SOL     OW 9457   1.703   2.806   6.735
 2853SOL    HW1 9458   1.649   2.852   6.805
 2853SOL    HW2 9459   1.786   2.859   6.716
 2854SOL     OW 9460   3.840   0.931   5.091
 2854SOL    HW1 9461   3.850   0.949   4.993
 2854SOL    HW2 9462   3.776   0.997   5.131
 2855SOL     OW 9463   2.665   1.345   6.797
 2855SOL    HW1 9464   2.763   1.356   6.816
 2855SOL    HW2 9465   2.647   1.252   6.765
 2856SOL     OW 9466   1.411   2.881   6.081
 2856SOL    HW1 9467   1.373   2.901   6.171
 2856SOL    HW2 9468   1.467   2.957   6.050
 2857SOL     OW 9469   3.049   1.676   2.256
 2857SOL    HW1 9470   2.970   1.708   2.309
 2857SOL    HW2 9471   3.121   1.645   2.319
 2858SOL     OW 9472   4.805   4.488   3.059
 2858SOL    HW1 9473   4.836   4.558   3.123
 2858SOL    HW2 9474   4.708   4.502   3.039
 2859SOL     OW 9475   4.950   2.051   7.016
 2859SOL    HW1 9476   4.858   2.073   6.984
 2859SOL    HW2 9477   4.948   2.028   0.090
 2860SOL     OW 9478   3.284   1.981   1.574
 2860SOL    HW1 9479   3.355   1.950   1.637
 2860SOL    HW2 9480   3.235   1.901   1.537
 2861SOL     OW 9481   4.055   3.644   5.903
 2861SOL    HW1 9482   4.018   3.588   5.829
 2861SOL    HW2 9483   4.141   3.604   5.936
 2862SOL     OW 9484   5.241   1.671   3.227
 2862SOL    HW1 9485   5.340   1.669   3.247
 2862SOL    HW2 9486   5.210   1.766   3.224
 2863SOL     OW 9487   5.299   0.978   6.731
 2863SOL    HW1 9488   5.361   0.927   6.790
 2863SOL    HW2 9489   5.350   1.046   6.679
 2864SOL     OW 9490   4.418   1.416   1.326
 2864SOL    HW1 9491   4.397   1.508   1.291
 2864SOL    HW2 9492   4.488   1.423   1.397
 2865SOL     OW 9493   4.840   4.262   6.214
 2865SOL    HW1 9494   4.852   4.260   6.115
 2865SOL    HW2 9495   4.749   4.229   6.238
 2866SOL     OW 9496   6.230   5.515   0.258
 2866SOL    HW1 9497   6.229   5.608   0.222
 2866SOL    HW2 9498   6.213   5.516   0.356
 2867SOL     OW 9499   5.977   4.071   2.699
 2867SOL    HW1 9500   6.007   4.112   2.785
 2867SOL    HW2 9501   6.003   3.974   2.697
 2868SOL     OW 9502   0.017   2.125   5.607
 2868SOL    HW1 9503   7.000   2.097   5.694
 2868SOL    HW2 9504   0.114   2.104   5.607
 2869SOL     OW 9505   6.467   0.651   2.945
 2869SOL    HW1 9506   6.498   0.711   3.019
 2869SOL    HW2 9507   6.471   0.556   2.975
 2870SOL     OW 9508   0.170   1.303   4.578
 2870SOL    HW1 9509   0.264   1.274   4.561
 2870SOL    HW2 9510   0.109   1.225   4.565
 2871SOL     OW 9511   0.140   1.884   0.513
 2871SOL    HW1 9512   0.149   1.797   0.465
 2871SOL    HW2 9513   0.161   1.959   0.450
 2872SOL     OW 9514   2.739   1.178   2.955
 2872SOL    HW1 9515   2.835   1.205   2.949
 2872SOL    HW2 9516   2.712   1.130   2.872
 2873SOL     OW 9517   0.190   4.853   2.807
 2873SOL    HW1 9518   0.091   4.844   2.820
 2873SOL    HW2 9519   0.235   4.859   2.896
 2874SOL     OW 9520   3.434   6.178   3.473
 2874SOL    HW1 9521   3.509   6.159   3.409
 2874SOL    HW2 9522   3.356   6.215   3.423
 2875SOL     OW 9523   4.926   6.953   1.058
 2875SOL    HW1 9524   4.879   7.023   1.112
 2875SOL    HW2 9525   4.872   6.933   0.976
 2876SOL     OW 9526   1.017   6.977   1.844
 2876SOL    HW1 9527   0.992   6.884   1.870
 2876SOL    HW2 9528   1.056   6.976   1.752
 2877SOL     OW 9529   3.367   2.538   5.332
 2877SOL    HW1 9530   3.310   2.471   5.284
 2877SOL    HW2 9531   3.311   2.586   5.399
 2878SOL     OW 9532   4.610   4.882   4.494
 2878SOL    HW1 9533   4.632   4.785   4.484
 2878SOL    HW2 9534   4.555   4.895   4.576
 2879SOL     OW 9535   4.785   4.893   0.767
 2879SOL    HW1 9536   4.735   4.807   0.782
 2879SOL    HW2 9537   4.851   4.906   0.841
 2880SOL     OW 9538   5.641   6.895   1.328
 2880SOL    HW1 9539   5.541   6.885   1.325
 2880SOL    HW2 9540   5.678   6.886   1.236
 2881SOL     OW 9541   5.507   6.248   6.759
 2881SOL    HW1 9542   5.600   6.218   6.740
 2881SOL    HW2 9543   5.495   6.258   6.858
 2882SOL     OW 9544   0.783   4.425   2.783
 2882SOL    HW1 9545   0.778   4.439   2.881
 2882SOL    HW2 9546   0.696   4.450   2.741
 2883SOL     OW 9547   6.113   0.273   4.097
 2883SOL    HW1 9548   6.091   0.180   4.126
 2883SOL    HW2 9549   6.052   0.300   4.022
 2884SOL     OW 9550   0.776   5.799   3.283
 2884SOL    HW1 9551   0.807   5.710   3.252
 2884SOL    HW2 9552   0.760   5.858   3.204
 2885SOL     OW 9553   0.835   3.152   2.244
 2885SOL    HW1 9554   0.844   3.252   2.237
 2885SOL    HW2 9555   0.923   3.113   2.270
 2886SOL     OW 9556   2.604   4.282   5.814
 2886SOL    HW1 9557   2.589   4.293   5.715
 2886SOL    HW2 9558   2.636   4.189   5.832
 2887SOL     OW 9559   0.622   0.589   4.721
 2887SOL    HW1 9560   0.593   0.542   4.638
 2887SOL    HW2 9561   0.614   0.527   4.800
 2888SOL     OW 9562   0.786   4.231   0.077
 2888SOL    HW1 9563   0.773   4.147   0.025
 2888SOL    HW2 9564   0.883   4.241   0.099
 2889SOL     OW 9565   1.774   7.002   2.159
 2889SOL    HW1 9566   1.862   0.016   2.189
 2889SOL    HW2 9567   1.703   0.047   2.174
 2890SOL     OW 9568   2.499   6.525   0.546
 2890SOL    HW1 9569   2.466   6.435   0.575
 2890SOL    HW2 9570   2.483   6.591   0.619
 2891SOL     OW 9571   1.438   4.322   3.164
 2891SOL    HW1 9572   1.389   4.278   3.239
 2891SOL    HW2 9573   1.375   4.340   3.088
 2892SOL     OW 9574   5.614   3.713   6.574
 2892SOL    HW1 9575   5.526   3.671   6.552
 2892SOL    HW2 9576   5.609   3.755   6.664
 2893SOL     OW 9577   0.436   6.315   4.514
 2893SOL    HW1 9578   0.373   6.388   4.538
 2893SOL    HW2 9579   0.385   6.231   4.497
 2894SOL     OW 9580   2.748   2.848   0.799
 2894SOL    HW1 9581   2.672   2.791   0.829
 2894SOL    HW2 9582   2.829   2.790   0.785
 2895SOL     OW 9583   4.621   2.582   5.775
 2895SOL    HW1 9584   4.562   2.539   5.843
 2895SOL    HW2 9585   4.693   2.633   5.820
 2896SOL     OW 9586   3.901   5.405   6.320
 2896SOL    HW1 9587   3.847   5.324   6.297
 2896SOL    HW2 9588   3.936   5.446   6.236
 2897SOL     OW 9589   3.580   4.939   3.509
 2897SOL    HW1 9590   3.490   4.944   3.464
 2897SOL    HW2 9591   3.590   5.016   3.572
 2898SOL     OW 9592   3.703   5.588   4.558
 2898SOL    HW1 9593   3.631   5.519   4.549
 2898SOL    HW2 9594   3.784   5.547   4.600
 2899SOL     OW 9595   0.703   1.745   0.722
 2899SOL    HW1 9596   0.641   1.819   0.694
 2899SOL    HW2 9597   0.718   1.684   0.644
 2900SOL     OW 9598   2.406   4.690   5.218
 2900SOL    HW1 9599   2.314   4.716   5.190
 2900SOL    HW2 9600   2.420   4.593   5.200
 2901SOL     OW 9601   2.006   6.261   3.696
 2901SOL    HW1 9602   2.019   6.352   3.735
 2901SOL    HW2 9603   2.087   6.205   3.713
 2902SOL     OW 9604   4.607   6.529   1.760
 2902SOL    HW1 9605   4.508   6.535   1.769
 2902SOL    HW2 9606   4.651   6.589   1.826
 2903SOL     OW 9607   3.771   0.964   0.604
 2903SOL    HW1 9608   3.734   1.057   0.611
 2903SOL    HW2 9609   3.760   0.917   0.691
 2904SOL     OW 9610   2.198   3.877   5.258
 2904SOL    HW1 9611   2.213   3.783   5.287
 2904SOL    HW2 9612   2.283   3.915   5.220
 2905SOL     OW 9613   1.447   2.292   3.653
 2905SOL    HW1 9614   1.450   2.390   3.632
 2905SOL    HW2 9615   1.405   2.278   3.743
 2906SOL     OW 9616   4.951   5.919   2.538
 2906SOL    HW1 9617   5.023   5.888   2.477
 2906SOL    HW2 9618   4.929   6.015   2.518
 2907SOL     OW 9619   0.672   1.809   3.514
 2907SOL    HW1 9620   0.725   1.771   3.590
 2907SOL    HW2 9621   0.694   1.906   3.503
 2908SOL     OW 9622   4.522   6.268   4.562
 2908SOL    HW1 9623   4.549   6.216   4.481
 2908SOL    HW2 9624   4.423   6.260   4.575
 2909SOL     OW 9625   1.053   6.468   3.535
 2909SOL    HW1 9626   1.084   6.375   3.519
 2909SOL    HW2 9627   1.018   6.507   3.450
 2910SOL     OW 9628   4.801   6.595   4.755
 2910SOL    HW1 9629   4.742   6.665   4.796
 2910SOL    HW2 9630   4.754   6.553   4.677
 2911SOL     OW 9631   2.012   5.418   3.377
 2911SOL    HW1 9632   2.000   5.362   3.295
 2911SOL    HW2 9633   1.941   5.489   3.380
 2912SOL     OW 9634   4.742   0.297   6.896
 2912SOL    HW1 9635   4.683   0.241   6.954
 2912SOL    HW2 9636   4.834   0.300   6.935
 2913SOL     OW 9637   2.545   4.538   3.088
 2913SOL    HW1 9638   2.608   4.577   3.021
 2913SOL    HW2 9639   2.574   4.564   3.180
 2914SOL     OW 9640   6.070   6.338   5.852
 2914SOL    HW1 9641   6.002   6.392   5.901
 2914SOL    HW2 9642   6.148   6.395   5.829
 2915SOL     OW 9643   5.832   1.829   5.072
 2915SOL    HW1 9644   5.734   1.852   5.068
 2915SOL    HW2 9645   5.875   1.856   4.986
 2916SOL     OW 9646   0.132   6.446   6.742
 2916SOL    HW1 9647   0.177   6.534   6.729
 2916SOL    HW2 9648   0.164   6.382   6.673
 2917SOL     OW 9649   3.631   6.509   2.565
 2917SOL    HW1 9650   3.708   6.522   2.502
 2917SOL    HW2 9651   3.631   6.582   2.633
 2918SOL     OW 9652   6.910   4.564   3.909
 2918SOL    HW1 9653   7.002   4.574   3.871
 2918SOL    HW2 9654   6.862   4.652   3.902
 2919SOL     OW 9655   6.730   1.036   1.167
 2919SOL    HW1 9656   6.780   1.096   1.104
 2919SOL    HW2 9657   6.748   0.941   1.144
 2920SOL     OW 9658   2.873   2.090   1.925
 2920SOL    HW1 9659   2.787   2.081   1.875
 2920SOL    HW2 9660   2.879   2.182   1.965
 2921SOL     OW 9661   1.520   0.887   3.264
 2921SOL    HW1 9662   1.587   0.922   3.199
 2921SOL    HW2 9663   1.430   0.926   3.243
 2922SOL     OW 9664   4.946   0.405   0.554
 2922SOL    HW1 9665   4.895   0.491   0.543
 2922SOL    HW2 9666   5.042   0.425   0.570
 2923SOL     OW 9667   6.708   5.222   2.075
 2923SOL    HW1 9668   6.628   5.204   2.019
 2923SOL    HW2 9669   6.745   5.313   2.053
 2924SOL     OW 9670   0.053   1.757   6.545
 2924SOL    HW1 9671   0.094   1.675   6.504
 2924SOL    HW2 9672   6.988   1.775   6.502
 2925SOL     OW 9673   4.483   1.082   2.952
 2925SOL    HW1 9674   4.574   1.117   2.971
 2925SOL    HW2 9675   4.468   0.997   3.004
 2926SOL     OW 9676   6.653   1.199   4.593
 2926SOL    HW1 9677   6.667   1.110   4.636
 2926SOL    HW2 9678   6.643   1.188   4.494
 2927SOL     OW 9679   1.104   2.351   2.617
 2927SOL    HW1 9680   1.084   2.256   2.641
 2927SOL    HW2 9681   1.178   2.385   2.676
 2928SOL     OW 9682   0.273   1.956   6.468
 2928SOL    HW1 9683   0.201   1.915   6.525
 2928SOL    HW2 9684   0.236   2.038   6.424
 2929SOL     OW 9685   0.677   1.368   6.651
 2929SOL    HW1 9686   0.579   1.354   6.667
 2929SOL    HW2 9687   0.701   1.463   6.675
 2930SOL     OW 9688   4.636   6.192   4.800
 2930SOL    HW1 9689   4.707   6.253   4.837
 2930SOL    HW2 9690   4.602   6.229   4.714
 2931SOL     OW 9691   5.813   5.108   0.429
 2931SOL    HW1 9692   5.784   5.190   0.478
 2931SOL    HW2 9693   5.743   5.037   0.437
 2932SOL     OW 9694   0.645   5.371   1.076
 2932SOL    HW1 9695   0.630   5.324   1.163
 2932SOL    HW2 9696   0.556   5.394   1.036
 2933SOL     OW 9697   6.500   4.454   3.693
 2933SOL    HW1 9698   6.509   4.442   3.594
 2933SOL    HW2 9699   6.409   4.491   3.715
 2934SOL     OW 9700   4.824   1.298   0.158
 2934SOL    HW1 9701   4.810   1.332   0.252
 2934SOL    HW2 9702   4.812   1.374   0.094
 2935SOL     OW 9703   6.527   3.063   1.051
 2935SOL    HW1 9704   6.612   3.104   1.085
 2935SOL    HW2 9705   6.477   3.129   0.996
 2936SOL     OW 9706   4.011   5.540   1.789
 2936SOL    HW1 9707   3.980   5.446   1.798
 2936SOL    HW2 9708   3.932   5.599   1.772
 2937SOL     OW 9709   4.089   4.398   0.183
 2937SOL    HW1 9710   4.011   4.426   0.239
 2937SOL    HW2 9711   4.157   4.353   0.241
 2938SOL     OW 9712   4.261   5.168   6.593
 2938SOL    HW1 9713   4.199   5.161   6.671
 2938SOL    HW2 9714   4.228   5.111   6.518
 2939SOL     OW 9715   1.058   0.622   3.880
 2939SOL    HW1 9716   1.094   0.713   3.861
 2939SOL    HW2 9717   1.133   0.555   3.880
 2940SOL     OW 9718   5.800   5.565   6.369
 2940SOL    HW1 9719   5.869   5.625   6.329
 2940SOL    HW2 9720   5.762   5.505   6.299
 2941SOL     OW 9721   1.939   3.224   4.123
 2941SOL    HW1 9722   1.973   3.262   4.037
 2941SOL    HW2 9723   1.841   3.242   4.131
 2942SOL     OW 9724   3.403   2.156   1.170
 2942SOL    HW1 9725   3.407   2.149   1.070
 2942SOL    HW2 9726   3.372   2.069   1.209
 2943SOL     OW 9727   5.054   4.360   2.971
 2943SOL    HW1 9728   5.091   4.416   2.897
 2943SOL    HW2 9729   5.050   4.264   2.942
 2944SOL     OW 9730   2.813   5.533   5.376
 2944SOL    HW1 9731   2.722   5.499   5.355
 2944SOL    HW2 9732   2.806   5.619   5.427
 2945SOL     OW 9733   3.559   3.767   3.406
 2945SOL    HW1 9734   3.624   3.747   3.333
 2945SOL    HW2 9735   3.580   3.856   3.446
 2946SOL     OW 9736   0.983   5.320   6.849
 2946SOL    HW1 9737   0.917   5.246   6.841
 2946SOL    HW2 9738   0.961   5.376   6.929
 2947SOL     OW 9739   0.263   3.641   6.920
 2947SOL    HW1 9740   0.251   3.600   6.829
 2947SOL    HW2 9741   0.239   3.574   6.990
 2948SOL     OW 9742   0.019   4.605   5.619
 2948SOL    HW1 9743   0.108   4.569   5.648
 2948SOL    HW2 9744   0.021   4.705   5.618
 2949SOL     OW 9745   2.861   5.572   0.352
 2949SOL    HW1 9746   2.934   5.514   0.316
 2949SOL    HW2 9747   2.862   5.569   0.452
 2950SOL     OW 9748   4.875   3.730   4.342
 2950SOL    HW1 9749   4.835   3.650   4.387
 2950SOL    HW2 9750   4.871   3.717   4.243
 2951SOL     OW 9751   5.965   1.507   1.038
 2951SOL    HW1 9752   5.944   1.524   1.135
 2951SOL    HW2 9753   6.049   1.556   1.014
 2952SOL     OW 9754   0.772   5.182   5.394
 2952SOL    HW1 9755   0.864   5.144   5.391
 2952SOL    HW2 9756   0.724   5.147   5.474
 2953SOL     OW 9757   5.255   3.407   2.953
 2953SOL    HW1 9758   5.319   3.382   2.880
 2953SOL    HW2 9759   5.298   3.393   3.041
 2954SOL     OW 9760   0.693   5.914   1.929
 2954SOL    HW1 9761   0.684   5.844   2.000
 2954SOL    HW2 9762   0.612   5.913   1.870
 2955SOL     OW 9763   0.894   3.637   1.620
 2955SOL    HW1 9764   0.955   3.697   1.569
 2955SOL    HW2 9765   0.799   3.661   1.601
 2956SOL     OW 9766   5.857   6.537   3.316
 2956SOL    HW1 9767   5.911   6.524   3.233
 2956SOL    HW2 9768   5.759   6.532   3.294
 2957SOL     OW 9769   6.095   2.920   1.835
 2957SOL    HW1 9770   6.051   3.007   1.855
 2957SOL    HW2 9771   6.153   2.894   1.912
 2958SOL     OW 9772   2.388   4.449   4.507
 2958SOL    HW1 9773   2.488   4.447   4.514
 2958SOL    HW2 9774   2.356   4.543   4.518
 2959SOL     OW 9775   4.607   4.892   0.340
 2959SOL    HW1 9776   4.614   4.808   0.393
 2959SOL    HW2 9777   4.686   4.899   0.279
 2960SOL     OW 9778   4.308   6.762   6.132
 2960SOL    HW1 9779   4.261   6.844   6.164
 2960SOL    HW2 9780   4.307   6.693   6.205
 2961SOL     OW 9781   4.910   2.681   3.639
 2961SOL    HW1 9782   5.007   2.699   3.622
 2961SOL    HW2 9783   4.862   2.768   3.654
 2962SOL     OW 9784   4.391   0.864   3.117
 2962SOL    HW1 9785   4.388   0.797   3.043
 2962SOL    HW2 9786   4.306   0.916   3.119
 2963SOL     OW 9787   2.205   0.867   5.869
 2963SOL    HW1 9788   2.108   0.889   5.860
 2963SOL    HW2 9789   2.223   0.776   5.832
 2964SOL     OW 9790   0.179   0.302   2.658
 2964SOL    HW1 9791   0.177   0.375   2.589
 2964SOL    HW2 9792   0.121   0.226   2.628
 2965SOL     OW 9793   6.438   0.884   4.801
 2965SOL    HW1 9794   6.405   0.977   4.820
 2965SOL    HW2 9795   6.538   0.886   4.788
 2966SOL     OW 9796   6.488   5.911   4.288
 2966SOL    HW1 9797   6.554   5.882   4.357
 2966SOL    HW2 9798   6.451   5.830   4.242
 2967SOL     OW 9799   5.838   1.682   4.770
 2967SOL    HW1 9800   5.909   1.627   4.726
 2967SOL    HW2 9801   5.874   1.775   4.785
 2968SOL     OW 9802   0.726   3.157   6.341
 2968SOL    HW1 9803   0.698   3.139   6.435
 2968SOL    HW2 9804   0.800   3.224   6.340
 2969SOL     OW 9805   5.727   1.014   4.570
 2969SOL    HW1 9806   5.779   0.963   4.501
 2969SOL    HW2 9807   5.706   0.953   4.647
 2970SOL     OW 9808   1.015   4.388   5.813
 2970SOL    HW1 9809   0.997   4.300   5.771
 2970SOL    HW2 9810   1.087   4.378   5.882
 2971SOL     OW 9811   5.752   3.703   6.013
 2971SOL    HW1 9812   5.840   3.749   6.000
 2971SOL    HW2 9813   5.764   3.622   6.070
 2972SOL     OW 9814   6.302   4.296   6.540
 2972SOL    HW1 9815   6.296   4.256   6.449
 2972SOL    HW2 9816   6.382   4.356   6.544
 2973SOL     OW 9817   5.784   1.193   4.119
 2973SOL    HW1 9818   5.717   1.119   4.120
 2973SOL    HW2 9819   5.755   1.264   4.055
 2974SOL     OW 9820   0.561   3.985   2.551
 2974SOL    HW1 9821   0.552   4.007   2.454
 2974SOL    HW2 9822   0.542   3.887   2.565
 2975SOL     OW 9823   7.004   2.414   5.105
 2975SOL    HW1 9824   0.010   2.395   5.012
 2975SOL    HW2 9825   6.918   2.366   5.124
 2976SOL     OW 9826   4.159   2.256   3.100
 2976SOL    HW1 9827   4.079   2.204   3.071
 2976SOL    HW2 9828   4.221   2.267   3.023
 2977SOL     OW 9829   1.746   6.788   3.655
 2977SOL    HW1 9830   1.757   6.811   3.752
 2977SOL    HW2 9831   1.831   6.749   3.620
 2978SOL     OW 9832   4.331   4.670   6.821
 2978SOL    HW1 9833   4.288   4.642   6.907
 2978SOL    HW2 9834   4.427   4.691   6.837
 2979SOL     OW 9835   4.433   0.627   4.190
 2979SOL    HW1 9836   4.428   0.546   4.249
 2979SOL    HW2 9837   4.503   0.689   4.226
 2980SOL     OW 9838   1.293   5.997   3.666
 2980SOL    HW1 9839   1.317   6.071   3.729
 2980SOL    HW2 9840   1.281   5.912   3.718
 2981SOL     OW 9841   2.079   0.928   6.123
 2981SOL    HW1 9842   2.058   1.024   6.107
 2981SOL    HW2 9843   2.129   0.891   6.044
 2982SOL     OW 9844   3.633   6.223   3.271
 2982SOL    HW1 9845   3.624   6.322   3.263
 2982SOL    HW2 9846   3.726   6.201   3.302
 2983SOL     OW 9847   1.073   1.531   4.097
 2983SOL    HW1 9848   1.137   1.478   4.042
 2983SOL    HW2 9849   0.981   1.520   4.061
 2984SOL     OW 9850   5.059   5.347   2.007
 2984SOL    HW1 9851   4.985   5.345   1.940
 2984SOL    HW2 9852   5.034   5.291   2.086
 2985SOL     OW 9853   1.278   2.275   5.485
 2985SOL    HW1 9854   1.283   2.176   5.473
 2985SOL    HW2 9855   1.232   2.296   5.571
 2986SOL     OW 9856   2.101   3.858   6.174
 2986SOL    HW1 9857   2.088   3.804   6.257
 2986SOL    HW2 9858   2.058   3.948   6.186
 2987SOL     OW 9859   5.635   1.884   4.143
 2987SOL    HW1 9860   5.667   1.839   4.226
 2987SOL    HW2 9861   5.690   1.965   4.125
 2988SOL     OW 9862   0.432   6.260   2.916
 2988SOL    HW1 9863   0.481   6.315   2.984
 2988SOL    HW2 9864   0.493   6.239   2.840
 2989SOL     OW 9865   6.645   5.908   0.260
 2989SOL    HW1 9866   6.711   5.978   0.229
 2989SOL    HW2 9867   6.674   5.872   0.349
 2990SOL     OW 9868   4.505   1.802   4.495
 2990SOL    HW1 9869   4.583   1.830   4.439
 2990SOL    HW2 9870   4.472   1.713   4.465
 2991SOL     OW 9871   6.287   4.195   6.283
 2991SOL    HW1 9872   6.206   4.251   6.265
 2991SOL    HW2 9873   6.342   4.188   6.200
 2992SOL     OW 9874   2.141   4.949   5.679
 2992SOL    HW1 9875   2.168   4.853   5.689
 2992SOL    HW2 9876   2.219   5.003   5.650
 2993SOL     OW 9877   0.479   5.464   1.360
 2993SOL    HW1 9878   0.541   5.386   1.355
 2993SOL    HW2 9879   0.385   5.432   1.367
 2994SOL     OW 9880   3.661   6.675   0.212
 2994SOL    HW1 9881   3.584   6.737   0.196
 2994SOL    HW2 9882   3.746   6.726   0.203
 2995SOL     OW 9883   1.636   3.591   6.767
 2995SOL    HW1 9884   1.606   3.626   6.678
 2995SOL    HW2 9885   1.706   3.652   6.805
 2996SOL     OW 9886   1.741   6.985   4.342
 2996SOL    HW1 9887   1.675   0.011   4.286
 2996SOL    HW2 9888   1.693   6.914   4.394
 2997SOL     OW 9889   5.427   0.487   2.309
 2997SOL    HW1 9890   5.356   0.517   2.245
 2997SOL    HW2 9891   5.494   0.561   2.319
 2998SOL     OW 9892   5.050   0.203   4.335
 2998SOL    HW1 9893   5.045   0.117   4.386
 2998SOL    HW2 9894   5.131   0.203   4.278
 2999SOL     OW 9895   3.162   4.878   4.560
 2999SOL    HW1 9896   3.182   4.886   4.658
 2999SOL    HW2 9897   3.067   4.852   4.548
 3000SOL     OW 9898   2.048   3.810   0.043
 3000SOL    HW1 9899   2.087   3.902   0.033
 3000SOL    HW2 9900   2.115   3.742   0.015
 3001SOL     OW 9901   6.184   5.850   6.178
 3001SOL    HW1 9902   6.127   5.890   6.106
 3001SOL    HW2 9903   6.172   5.902   6.263
 3002SOL     OW 9904   3.725   0.085   5.963
 3002SOL    HW1 9905   3.749   0.052   5.871
 3002SOL    HW2 9906   3.756   0.019   6.031
 3003SOL     OW 9907   2.110   6.615   0.194
 3003SOL    HW1 9908   2.103   6.702   0.243
 3003SOL    HW2 9909   2.184   6.561   0.232
 3004SOL     OW 9910   1.497   4.991   2.876
 3004SOL    HW1 9911   1.439   4.926   2.925
 3004SOL    HW2 9912   1.592   4.981   2.907
 3005SOL     OW 9913   2.766   2.429   6.775
 3005SOL    HW1 9914   2.787   2.485   6.855
 3005SOL    HW2 9915   2.841   2.366   6.757
 3006SOL     OW 9916   4.669   2.324   6.176
 3006SOL    HW1 9917   4.754   2.342   6.127
 3006SOL    HW2 9918   4.592   2.361   6.124
 3007SOL     OW 9919   5.638   5.244   1.545
 3007SOL    HW1 9920   5.699   5.224   1.469
 3007SOL    HW2 9921   5.543   5.237   1.515
 3008SOL     OW 9922   3.669   0.483   6.286
 3008SOL    HW1 9923   3.598   0.500   6.217
 3008SOL    HW2 9924   3.634   0.508   6.376
 3009SOL     OW 9925   0.874   0.550   2.683
 3009SOL    HW1 9926   0.829   0.510   2.603
 3009SOL    HW2 9927   0.910   0.640   2.660
 3010SOL     OW 9928   3.563   6.131   3.837
 3010SOL    HW1 9929   3.519   6.064   3.777
 3010SOL    HW2 9930   3.516   6.219   3.828
 3011SOL     OW 9931   5.196   1.768   1.332
 3011SOL    HW1 9932   5.294   1.780   1.348
 3011SOL    HW2 9933   5.182   1.718   1.247
 3012SOL     OW 9934   1.253   3.664   5.315
 3012SOL    HW1 9935   1.197   3.658   5.398
 3012SOL    HW2 9936   1.265   3.760   5.289
 3013SOL     OW 9937   5.427   5.740   4.706
 3013SOL    HW1 9938   5.360   5.717   4.636
 3013SOL    HW2 9939   5.518   5.711   4.676
 3014SOL     OW 9940   4.978   3.027   4.718
 3014SOL    HW1 9941   5.049   2.976   4.767
 3014SOL    HW2 9942   4.946   2.973   4.641
 3015SOL     OW 9943   2.561   2.167   7.019
 3015SOL    HW1 9944   2.656   2.169   0.029
 3015SOL    HW2 9945   2.530   2.072   7.014
 3016SOL     OW 9946   2.878   6.274   4.348
 3016SOL    HW1 9947   2.926   6.197   4.307
 3016SOL    HW2 9948   2.920   6.359   4.317
 3017SOL     OW 9949   0.700   5.715   2.114
 3017SOL    HW1 9950   0.628   5.732   2.181
 3017SOL    HW2 9951   0.724   5.618   2.115
 3018SOL     OW 9952   2.265   6.903   5.596
 3018SOL    HW1 9953   2.294   6.815   5.559
 3018SOL    HW2 9954   2.189   6.939   5.541
 3019SOL     OW 9955   1.376   0.326   6.962
 3019SOL    HW1 9956   1.474   0.307   6.971
 3019SOL    HW2 9957   1.336   0.337   0.029
 3020SOL     OW 9958   4.049   3.689   2.192
 3020SOL    HW1 9959   4.063   3.669   2.095
 3020SOL    HW2 9960   4.133   3.727   2.230
 3021SOL     OW 9961   3.458   0.170   6.798
 3021SOL    HW1 9962   3.503   0.259   6.808
 3021SOL    HW2 9963   3.400   0.154   6.878
 3022SOL     OW 9964   4.257   4.767   4.621
 3022SOL    HW1 9965   4.175   4.807   4.582
 3022SOL    HW2 9966   4.289   4.692   4.563
 3023SOL     OW 9967   4.279   0.045   2.727
 3023SOL    HW1 9968   4.275   0.103   2.645
 3023SOL    HW2 9969   4.187   0.020   2.755
 3024SOL     OW 9970   4.201   6.322   5.414
 3024SOL    HW1 9971   4.219   6.348   5.319
 3024SOL    HW2 9972   4.225   6.398   5.474
 3025SOL     OW 9973   3.567   1.368   7.018
 3025SOL    HW1 9974   3.540   1.457   6.981
 3025SOL    HW2 9975   3.666   1.356   7.008
 3026SOL     OW 9976   1.519   1.219   0.786
 3026SOL    HW1 9977   1.485   1.214   0.693
 3026SOL    HW2 9978   1.617   1.197   0.787
 3027SOL     OW 9979   4.124   0.724   2.482
 3027SOL    HW1 9980   4.177   0.802   2.515
 3027SOL    HW2 9981   4.177   0.672   2.415
 3028SOL     OW 9982   1.260   4.017   5.497
 3028SOL    HW1 9983   1.302   4.106   5.514
 3028SOL    HW2 9984   1.262   3.997   5.399
 3029SOL     OW 9985   0.224   3.083   5.038
 3029SOL    HW1 9986   0.297   3.098   4.972
 3029SOL    HW2 9987   0.171   3.003   5.011
 3030SOL     OW 9988   0.878   2.484   5.925
 3030SOL    HW1 9989   0.881   2.384   5.916
 3030SOL    HW2 9990   0.843   2.523   5.840
 3031SOL     OW 9991   0.613   2.824   0.786
 3031SOL    HW1 9992   0.691   2.870   0.743
 3031SOL    HW2 9993   0.530   2.840   0.732
 3032SOL     OW 9994   4.195   6.326   1.773
 3032SOL    HW1 9995   4.185   6.322   1.872
 3032SOL    HW2 9996   4.111   6.295   1.729
 3033SOL     OW 9997   0.159   2.270   2.005
 3033SOL    HW1 9998   0.144   2.193   1.943
 3033SOL    HW2 9999   0.206   2.238   2.087
 3034SOL     OW10000   2.063   5.180   3.487
 3034SOL    HW110001   2.078   5.175   3.585
 3034SOL    HW210002   2.058   5.276   3.459
 3035SOL     OW10003   0.240   3.181   0.486
 3035SOL    HW110004   0.233   3.089   0.447
 3035SOL    HW210005   0.150   3.210   0.519
 3036SOL     OW10006   1.721   2.573   6.882
 3036SOL    HW110007   1.689   2.492   6.834
 3036SOL    HW210008   1.759   2.638   6.816
 3037SOL     OW10009   0.479   5.599   5.022
 3037SOL    HW110010   0.536   5.634   4.948
 3037SOL    HW210011   0.481   5.664   5.099
 3038SOL     OW10012   5.938   5.808   5.698
 3038SOL    HW110013   5.914   5.717   5.665
 3038SOL    HW210014   6.037   5.815   5.707
 3039SOL     OW10015   0.049   4.084   1.569
 3039SOL    HW110016   0.132   4.056   1.617
 3039SOL    HW210017   0.038   4.028   1.487
 3040SOL     OW10018   3.963   3.645   6.161
 3040SOL    HW110019   3.995   3.646   6.066
 3040SOL    HW210020   3.923   3.556   6.182
 3041SOL     OW10021   2.209   3.078   4.765
 3041SOL    HW110022   2.245   3.021   4.692
 3041SOL    HW210023   2.267   3.069   4.846
 3042SOL     OW10024   4.905   6.220   2.231
 3042SOL    HW110025   4.811   6.184   2.229
 3042SOL    HW210026   4.932   6.250   2.140
 3043SOL     OW10027   0.941   5.576   1.593
 3043SOL    HW110028   0.867   5.642   1.581
 3043SOL    HW210029   0.907   5.497   1.646
 3044SOL     OW10030   3.028   3.594   6.001
 3044SOL    HW110031   3.048   3.528   6.073
 3044SOL    HW210032   3.052   3.686   6.033
 3045SOL     OW10033   4.674   1.338   2.924
 3045SOL    HW110034   4.611   1.416   2.926
 3045SOL    HW210035   4.693   1.308   3.017
 3046SOL     OW10036   2.424   1.455   6.700
 3046SOL    HW110037   2.482   1.403   6.762
 3046SOL    HW210038   2.415   1.406   6.613
 3047SOL     OW10039   4.949   0.335   2.605
 3047SOL    HW110040   4.932   0.381   2.692
 3047SOL    HW210041   5.045   0.346   2.579
 3048SOL     OW10042   3.821   2.438   1.696
 3048SOL    HW110043   3.866   2.373   1.635
 3048SOL    HW210044   3.756   2.389   1.755
 3049SOL     OW10045   0.855   6.623   1.538
 3049SOL    HW110046   0.859   6.710   1.587
 3049SOL    HW210047   0.764   6.582   1.550
 3050SOL     OW10048   3.079   0.858   2.234
 3050SOL    HW110049   3.068   0.928   2.305
 3050SOL    HW210050   3.111   0.901   2.150
 3051SOL     OW10051   2.258   3.786   0.467
 3051SOL    HW110052   2.313   3.824   0.393
 3051SOL    HW210053   2.163   3.778   0.436
 3052SOL     OW10054   5.258   6.890   2.275
 3052SOL    HW110055   5.209   6.891   2.362
 3052SOL    HW210056   5.213   6.952   2.211
 3053SOL     OW10057   0.214   1.536   6.813
 3053SOL    HW110058   0.185   1.560   6.905
 3053SOL    HW210059   0.254   1.616   6.769
 3054SOL     OW10060   6.998   2.113   1.723
 3054SOL    HW110061   6.957   2.029   1.686
 3054SOL    HW210062   6.979   2.119   1.821
 3055SOL     OW10063   5.426   6.858   4.009
 3055SOL    HW110064   5.329   6.872   4.033
 3055SOL    HW210065   5.432   6.801   3.927
 3056SOL     OW10066   6.303   1.404   5.273
 3056SOL    HW110067   6.306   1.336   5.346
 3056SOL    HW210068   6.220   1.458   5.281
 3057SOL     OW10069   3.927   6.265   3.574
 3057SOL    HW110070   3.917   6.216   3.488
 3057SOL    HW210071   3.914   6.202   3.650
 3058SOL     OW10072   6.789   5.450   0.782
 3058SOL    HW110073   6.793   5.550   0.777
 3058SOL    HW210074   6.703   5.423   0.824
 3059SOL     OW10075   2.401   2.250   4.528
 3059SOL    HW110076   2.367   2.251   4.434
 3059SOL    HW210077   2.373   2.166   4.573
 3060SOL     OW10078   0.472   5.737   0.310
 3060SOL    HW110079   0.410   5.749   0.387
 3060SOL    HW210080   0.551   5.798   0.321
 3061SOL     OW10081   5.561   0.542   5.389
 3061SOL    HW110082   5.642   0.582   5.346
 3061SOL    HW210083   5.481   0.558   5.332
 3062SOL     OW10084   1.169   6.838   6.796
 3062SOL    HW110085   1.208   6.914   6.848
 3062SOL    HW210086   1.151   6.761   6.857
 3063SOL     OW10087   2.710   5.502   1.407
 3063SOL    HW110088   2.642   5.455   1.462
 3063SOL    HW210089   2.684   5.497   1.310
 3064SOL     OW10090   5.611   3.918   3.443
 3064SOL    HW110091   5.694   3.866   3.466
 3064SOL    HW210092   5.608   4.001   3.498
 3065SOL     OW10093   2.462   1.004   0.382
 3065SOL    HW110094   2.556   1.022   0.352
 3065SOL    HW210095   2.454   0.909   0.410
 3066SOL     OW10096   4.879   5.369   0.982
 3066SOL    HW110097   4.816   5.372   1.059
 3066SOL    HW210098   4.940   5.291   0.992
 3067SOL     OW10099   3.897   2.104   4.948
 3067SOL    HW110100   3.834   2.129   5.022
 3067SOL    HW210101   3.853   2.121   4.860
 3068SOL     OW10102   6.115   6.507   1.768
 3068SOL    HW110103   6.200   6.551   1.740
 3068SOL    HW210104   6.043   6.576   1.779
 3069SOL     OW10105   6.294   6.372   2.231
 3069SOL    HW110106   6.385   6.366   2.190
 3069SOL    HW210107   6.230   6.407   2.163
 3070SOL     OW10108   1.461   0.991   1.988
 3070SOL    HW110109   1.554   1.023   1.970
 3070SOL    HW210110   1.407   1.065   2.026
 3071SOL     OW10111   6.270   5.894   2.981
 3071SOL    HW110112   6.200   5.913   3.050
 3071SOL    HW210113   6.333   5.825   3.016
 3072SOL     OW10114   1.315   0.119   0.197
 3072SOL    HW110115   1.397   0.064   0.185
 3072SOL    HW210116   1.258   0.112   0.116
 3073SOL     OW10117   6.488   2.586   5.004
 3073SOL    HW110118   6.520   2.681   4.998
 3073SOL    HW210119   6.549   2.527   4.951
 3074SOL     OW10120   5.704   3.553   0.666
 3074SOL    HW110121   5.701   3.514   0.758
 3074SOL    HW210122   5.753   3.641   0.669
 3075SOL     OW10123   2.231   5.815   1.705
 3075SOL    HW110124   2.222   5.754   1.783
 3075SOL    HW210125   2.327   5.816   1.675
 3076SOL     OW10126   6.981   1.156   4.318
 3076SOL    HW110127   6.903   1.108   4.358
 3076SOL    HW210128   0.029   1.090   4.295
 3077SOL     OW10129   4.737   5.427   2.791
 3077SOL    HW110130   4.793   5.507   2.815
 3077SOL    HW210131   4.679   5.401   2.868
 3078SOL     OW10132   0.914   3.359   1.877
 3078SOL    HW110133   0.986   3.426   1.858
 3078SOL    HW210134   0.949   3.291   1.942
 3079SOL     OW10135   2.433   1.945   4.286
 3079SOL    HW110136   2.416   1.880   4.360
 3079SOL    HW210137   2.529   1.972   4.287
 3080SOL     OW10138   4.884   3.729   3.342
 3080SOL    HW110139   4.924   3.680   3.265
 3080SOL    HW210140   4.928   3.818   3.352
 3081SOL     OW10141   0.880   2.505   6.211
 3081SOL    HW110142   0.924   2.590   6.241
 3081SOL    HW210143   0.877   2.504   6.111
 3082SOL     OW10144   2.755   0.052   3.962
 3082SOL    HW110145   2.779   0.125   3.897
 3082SOL    HW210146   2.815   0.059   4.042
 3083SOL     OW10147   4.105   6.519   3.017
 3083SOL    HW110148   4.182   6.455   3.012
 3083SOL    HW210149   4.028   6.474   3.063
 3084SOL     OW10150   5.324   4.105   4.922
 3084SOL    HW110151   5.398   4.132   4.861
 3084SOL    HW210152   5.352   4.027   4.977
 3085SOL     OW10153   0.045   4.858   1.634
 3085SOL    HW110154   7.020   4.922   1.694
 3085SOL    HW210155   0.128   4.901   1.600
 3086SOL     OW10156   3.968   2.173   2.041
 3086SOL    HW110157   3.873   2.204   2.029
 3086SOL    HW210158   3.996   2.187   2.136
 3087SOL     OW10159   0.509   5.308   3.957
 3087SOL    HW110160   0.476   5.229   3.905
 3087SOL    HW210161   0.557   5.371   3.896
 3088SOL     OW10162   2.741   4.733   5.641
 3088SOL    HW110163   2.705   4.807   5.698
 3088SOL    HW210164   2.668   4.697   5.583
 3089SOL     OW10165   0.966   3.672   0.103
 3089SOL    HW110166   1.054   3.720   0.105
 3089SOL    HW210167   0.958   3.621   0.018
 3090SOL     OW10168   1.830   1.938   2.157
 3090SOL    HW110169   1.830   1.838   2.157
 3090SOL    HW210170   1.914   1.971   2.114
 3091SOL     OW10171   1.399   0.607   0.878
 3091SOL    HW110172   1.458   0.636   0.803
 3091SOL    HW210173   1.425   0.654   0.962
 3092SOL     OW10174   5.025   6.674   0.588
 3092SOL    HW110175   5.108   6.685   0.643
 3092SOL    HW210176   4.952   6.636   0.645
 3093SOL     OW10177   5.309   6.419   5.886
 3093SOL    HW110178   5.257   6.479   5.947
 3093SOL    HW210179   5.262   6.331   5.877
 3094SOL     OW10180   2.152   6.627   4.155
 3094SOL    HW110181   2.157   6.693   4.080
 3094SOL    HW210182   2.242   6.617   4.196
 3095SOL     OW10183   1.994   5.298   5.770
 3095SOL    HW110184   2.032   5.222   5.824
 3095SOL    HW210185   1.942   5.358   5.830
 3096SOL     OW10186   1.351   6.586   4.972
 3096SOL    HW110187   1.295   6.503   4.965
 3096SOL    HW210188   1.333   6.644   4.892
 3097SOL     OW10189   6.861   2.868   0.793
 3097SOL    HW110190   6.914   2.791   0.827
 3097SOL    HW210191   6.906   2.908   0.713
 3098SOL     OW10192   3.032   3.117   1.140
 3098SOL    HW110193   3.059   3.213   1.134
 3098SOL    HW210194   2.958   3.107   1.206
 3099SOL     OW10195   0.741   6.933   3.387
 3099SOL    HW110196   0.721   6.900   3.295
 3099SOL    HW210197   0.698   6.873   3.454
 3100SOL     OW10198   6.444   6.523   4.595
 3100SOL    HW110199   6.413   6.575   4.675
 3100SOL    HW210200   6.477   6.433   4.626
 3101SOL     OW10201   4.848   6.552   5.928
 3101SOL    HW110202   4.866   6.454   5.919
 3101SOL    HW210203   4.777   6.567   5.996
 3102SOL     OW10204   0.399   4.866   2.215
 3102SOL    HW110205   0.338   4.815   2.276
 3102SOL    HW210206   0.358   4.954   2.192
 3103SOL     OW10207   3.504   0.440   2.072
 3103SOL    HW110208   3.447   0.373   2.119
 3103SOL    HW210209   3.447   0.515   2.040
 3104SOL     OW10210   5.557   6.405   5.073
 3104SOL    HW110211   5.566   6.469   4.996
 3104SOL    HW210212   5.595   6.446   5.155
 3105SOL     OW10213   6.518   4.447   2.044
 3105SOL    HW110214   6.607   4.490   2.031
 3105SOL    HW210215   6.471   4.440   1.956
 3106SOL     OW10216   5.602   1.584   2.601
 3106SOL    HW110217   5.551   1.665   2.630
 3106SOL    HW210218   5.660   1.607   2.523
 3107SOL     OW10219   4.226   0.882   4.240
 3107SOL    HW110220   4.266   0.790   4.246
 3107SOL    HW210221   4.173   0.890   4.155
 3108SOL     OW10222   0.734   6.950   4.360
 3108SOL    HW110223   0.795   6.978   4.434
 3108SOL    HW210224   0.781   6.884   4.301
 3109SOL     OW10225   5.072   5.960   1.899
 3109SOL    HW110226   5.032   6.046   1.931
 3109SOL    HW210227   5.171   5.972   1.888
 3110SOL     OW10228   1.879   1.953   3.826
 3110SOL    HW110229   1.910   2.021   3.760
 3110SOL    HW210230   1.958   1.901   3.860
 3111SOL     OW10231   6.060   6.018   4.002
 3111SOL    HW110232   5.974   5.992   4.045
 3111SOL    HW210233   6.127   5.944   4.013
 3112SOL     OW10234   5.003   2.583   6.298
 3112SOL    HW110235   4.956   2.529   6.229
 3112SOL    HW210236   4.957   2.572   6.386
 3113SOL     OW10237   1.793   6.073   4.094
 3113SOL    HW110238   1.887   6.087   4.064
 3113SOL    HW210239   1.789   5.996   4.158
 3114SOL     OW10240   3.888   2.381   0.043
 3114SOL    HW110241   3.846   2.398   6.977
 3114SOL    HW210242   3.819   2.391   0.115
 3115SOL     OW10243   4.168   3.262   6.441
 3115SOL    HW110244   4.193   3.272   6.538
 3115SOL    HW210245   4.072   3.238   6.434
 3116SOL     OW10246   6.981   3.537   0.305
 3116SOL    HW110247   7.000   3.527   0.403
 3116SOL    HW210248   6.906   3.603   0.292
 3117SOL     OW10249   4.352   3.415   5.250
 3117SOL    HW110250   4.435   3.470   5.251
 3117SOL    HW210251   4.293   3.445   5.174
 3118SOL     OW10252   0.146   4.678   0.955
 3118SOL    HW110253   0.224   4.622   0.981
 3118SOL    HW210254   0.173   4.774   0.950
 3119SOL     OW10255   1.862   3.632   5.536
 3119SOL    HW110256   1.905   3.548   5.503
 3119SOL    HW210257   1.855   3.629   5.636
 3120SOL     OW10258   3.055   6.740   4.148
 3120SOL    HW110259   3.120   6.664   4.142
 3120SOL    HW210260   3.088   6.817   4.094
 3121SOL     OW10261   6.848   1.619   2.857
 3121SOL    HW110262   6.853   1.640   2.759
 3121SOL    HW210263   6.926   1.561   2.882
 3122SOL     OW10264   3.444   6.418   5.779
 3122SOL    HW110265   3.472   6.456   5.867
 3122SOL    HW210266   3.345   6.403   5.778
 3123SOL     OW10267   4.172   1.367   4.160
 3123SOL    HW110268   4.260   1.327   4.186
 3123SOL    HW210269   4.185   1.427   4.081
 3124SOL     OW10270   4.274   6.178   4.509
 3124SOL    HW110271   4.184   6.220   4.515
 3124SOL    HW210272   4.288   6.117   4.587
 3125SOL     OW10273   6.566   2.293   5.373
 3125SOL    HW110274   6.495   2.356   5.405
 3125SOL    HW210275   6.528   2.233   5.302
 3126SOL     OW10276   4.314   4.760   6.180
 3126SOL    HW110277   4.300   4.667   6.213
 3126SOL    HW210278   4.410   4.786   6.195
 3127SOL     OW10279   1.048   3.398   3.797
 3127SOL    HW110280   0.955   3.430   3.781
 3127SOL    HW210281   1.110   3.439   3.730
 3128SOL     OW10282   1.829   0.760   6.643
 3128SOL    HW110283   1.890   0.682   6.632
 3128SOL    HW210284   1.873   0.829   6.699
 3129SOL     OW10285   0.780   4.111   6.457
 3129SOL    HW110286   0.783   4.167   6.374
 3129SOL    HW210287   0.718   4.034   6.444
 3130SOL     OW10288   1.536   4.459   1.800
 3130SOL    HW110289   1.517   4.447   1.897
 3130SOL    HW210290   1.565   4.553   1.783
 3131SOL     OW10291   6.779   2.733   1.885
 3131SOL    HW110292   6.698   2.789   1.903
 3131SOL    HW210293   6.846   2.787   1.833
 3132SOL     OW10294   4.350   5.088   5.850
 3132SOL    HW110295   4.358   5.107   5.948
 3132SOL    HW210296   4.436   5.048   5.817
 3133SOL     OW10297   3.502   1.913   3.911
 3133SOL    HW110298   3.442   1.978   3.958
 3133SOL    HW210299   3.570   1.879   3.976
 3134SOL     OW10300   4.563   4.387   1.350
 3134SOL    HW110301   4.581   4.354   1.443
 3134SOL    HW210302   4.469   4.362   1.324
 3135SOL     OW10303   5.128   0.512   5.208
 3135SOL    HW110304   5.043   0.460   5.198
 3135SOL    HW210305   5.127   0.560   5.296
 3136SOL     OW10306   5.371   0.736   0.654
 3136SOL    HW110307   5.456   0.701   0.614
 3136SOL    HW210308   5.310   0.768   0.582
 3137SOL     OW10309   6.366   0.517   3.336
 3137SOL    HW110310   6.351   0.612   3.308
 3137SOL    HW210311   6.394   0.515   3.432
 3138SOL     OW10312   6.526   2.879   3.987
 3138SOL    HW110313   6.568   2.837   3.906
 3138SOL    HW210314   6.550   2.826   4.068
 3139SOL     OW10315   5.069   6.935   0.195
 3139SOL    HW110316   5.009   6.929   0.275
 3139SOL    HW210317   5.142   6.867   0.203
 3140SOL     OW10318   5.968   6.944   6.765
 3140SOL    HW110319   6.012   6.876   6.707
 3140SOL    HW210320   5.890   6.902   6.812
 3141SOL     OW10321   0.007   5.867   6.098
 3141SOL    HW110322   0.058   5.799   6.151
 3141SOL    HW210323   0.001   5.838   6.003
 3142SOL     OW10324   4.397   6.333   1.516
 3142SOL    HW110325   4.367   6.401   1.449
 3142SOL    HW210326   4.341   6.342   1.599
 3143SOL     OW10327   6.955   1.837   6.842
 3143SOL    HW110328   0.028   1.813   6.832
 3143SOL    HW210329   6.946   1.920   6.896
 3144SOL     OW10330   3.866   4.060   1.011
 3144SOL    HW110331   3.827   4.148   0.984
 3144SOL    HW210332   3.842   4.040   1.106
 3145SOL     OW10333   1.577   5.055   2.151
 3145SOL    HW110334   1.647   5.003   2.102
 3145SOL    HW210335   1.620   5.102   2.229
 3146SOL     OW10336   1.370   0.079   2.789
 3146SOL    HW110337   1.371   0.013   2.713
 3146SOL    HW210338   1.364   0.030   2.876
 3147SOL     OW10339   2.913   4.863   0.317
 3147SOL    HW110340   2.846   4.936   0.303
 3147SOL    HW210341   2.927   4.812   0.232
 3148SOL     OW10342   5.186   5.878   5.060
 3148SOL    HW110343   5.209   5.912   5.151
 3148SOL    HW210344   5.090   5.849   5.059
 3149SOL     OW10345   2.730   0.683   5.177
 3149SOL    HW110346   2.708   0.770   5.222
 3149SOL    HW210347   2.802   0.699   5.110
 3150SOL     OW10348   0.111   6.180   4.375
 3150SOL    HW110349   0.171   6.258   4.358
 3150SOL    HW210350   0.021   6.213   4.404
 3151SOL     OW10351   4.469   1.490   6.484
 3151SOL    HW110352   4.429   1.532   6.566
 3151SOL    HW210353   4.396   1.463   6.422
 3152SOL     OW10354   1.451   5.586   1.018
 3152SOL    HW110355   1.551   5.595   1.018
 3152SOL    HW210356   1.420   5.570   1.112
 3153SOL     OW10357   6.454   4.771   2.310
 3153SOL    HW110358   6.434   4.685   2.262
 3153SOL    HW210359   6.449   4.847   2.246
 3154SOL     OW10360   6.904   1.860   0.553
 3154SOL    HW110361   6.871   1.804   0.629
 3154SOL    HW210362   7.004   1.865   0.555
 3155SOL     OW10363   6.229   4.664   1.369
 3155SOL    HW110364   6.219   4.720   1.452
 3155SOL    HW210365   6.301   4.595   1.384
 3156SOL     OW10366   3.088   3.419   3.505
 3156SOL    HW110367   3.010   3.404   3.444
 3156SOL    HW210368   3.146   3.338   3.505
 3157SOL     OW10369   1.767   2.667   4.768
 3157SOL    HW110370   1.706   2.722   4.824
 3157SOL    HW210371   1.833   2.620   4.826
 3158SOL     OW10372   4.204   6.733   1.915
 3158SOL    HW110373   4.229   6.808   1.976
 3158SOL    HW210374   4.126   6.760   1.858
 3159SOL     OW10375   5.849   1.105   0.491
 3159SOL    HW110376   5.855   1.038   0.417
 3159SOL    HW210377   5.902   1.186   0.467
 3160SOL     OW10378   0.239   6.225   5.093
 3160SOL    HW110379   0.221   6.307   5.147
 3160SOL    HW210380   0.302   6.247   5.019
 3161SOL     OW10381   1.986   1.644   3.668
 3161SOL    HW110382   2.027   1.709   3.603
 3161SOL    HW210383   1.900   1.610   3.630
 3162SOL     OW10384   1.329   6.580   0.757
 3162SOL    HW110385   1.405   6.643   0.767
 3162SOL    HW210386   1.295   6.553   0.848
 3163SOL     OW10387   3.562   2.090   6.627
 3163SOL    HW110388   3.500   2.026   6.582
 3163SOL    HW210389   3.607   2.148   6.559
 3164SOL     OW10390   4.477   4.019   1.435
 3164SOL    HW110391   4.437   3.987   1.521
 3164SOL    HW210392   4.472   4.119   1.431
 3165SOL     OW10393   1.086   5.732   1.195
 3165SOL    HW110394   1.104   5.769   1.104
 3165SOL    HW210395   0.992   5.699   1.200
 3166SOL     OW10396   4.214   0.811   6.156
 3166SOL    HW110397   4.297   0.764   6.187
 3166SOL    HW210398   4.150   0.820   6.232
 3167SOL     OW10399   6.888   4.285   1.556
 3167SOL    HW110400   6.945   4.207   1.580
 3167SOL    HW210401   6.856   4.330   1.640
 3168SOL     OW10402   4.918   2.682   6.751
 3168SOL    HW110403   4.900   2.779   6.738
 3168SOL    HW210404   4.965   2.668   6.838
 3169SOL     OW10405   1.941   2.896   5.176
 3169SOL    HW110406   2.015   2.834   5.203
 3169SOL    HW210407   1.877   2.848   5.116
 3170SOL     OW10408   4.602   1.216   1.190
 3170SOL    HW110409   4.628   1.121   1.172
 3170SOL    HW210410   4.502   1.223   1.188
 3171SOL     OW10411   0.160   6.249   1.178
 3171SOL    HW110412   0.107   6.309   1.117
 3171SOL    HW210413   0.194   6.171   1.126
 3172SOL     OW10414   0.258   5.446   6.074
 3172SOL    HW110415   0.284   5.350   6.064
 3172SOL    HW210416   0.240   5.465   6.171
 3173SOL     OW10417   3.366   1.840   0.988
 3173SOL    HW110418   3.405   1.926   0.955
 3173SOL    HW210419   3.422   1.764   0.957
 3174SOL     OW10420   2.781   2.738   6.406
 3174SOL    HW110421   2.770   2.831   6.441
 3174SOL    HW210422   2.875   2.727   6.373
 3175SOL     OW10423   0.827   6.676   0.612
 3175SOL    HW110424   0.786   6.586   0.599
 3175SOL    HW210425   0.905   6.669   0.673
 3176SOL     OW10426   2.064   5.293   4.629
 3176SOL    HW110427   2.028   5.386   4.620
 3176SOL    HW210428   2.079   5.254   4.539
 3177SOL     OW10429   4.878   4.818   5.052
 3177SOL    HW110430   4.876   4.723   5.020
 3177SOL    HW210431   4.805   4.834   5.118
 3178SOL     OW10432   6.924   2.618   0.388
 3178SOL    HW110433   6.951   2.523   0.381
 3178SOL    HW210434   6.849   2.627   0.454
 3179SOL     OW10435   1.806   2.634   2.316
 3179SOL    HW110436   1.884   2.600   2.264
 3179SOL    HW210437   1.723   2.626   2.262
 3180SOL     OW10438   4.636   0.329   0.219
 3180SOL    HW110439   4.585   0.378   0.290
 3180SOL    HW210440   4.639   0.232   0.242
 3181SOL     OW10441   1.292   1.036   3.203
 3181SOL    HW110442   1.192   1.038   3.201
 3181SOL    HW210443   1.325   1.101   3.271
 3182SOL     OW10444   1.665   1.361   5.607
 3182SOL    HW110445   1.748   1.411   5.583
 3182SOL    HW210446   1.604   1.356   5.528
 3183SOL     OW10447   4.670   3.916   1.264
 3183SOL    HW110448   4.594   3.958   1.313
 3183SOL    HW210449   4.747   3.905   1.326
 3184SOL     OW10450   2.285   2.595   3.044
 3184SOL    HW110451   2.295   2.670   2.978
 3184SOL    HW210452   2.375   2.558   3.067
 3185SOL     OW10453   6.030   0.517   6.485
 3185SOL    HW110454   6.064   0.601   6.442
 3185SOL    HW210455   6.097   0.444   6.472
 3186SOL     OW10456   3.615   1.783   3.078
 3186SOL    HW110457   3.555   1.860   3.101
 3186SOL    HW210458   3.578   1.699   3.119
 3187SOL     OW10459   4.603   4.550   0.378
 3187SOL    HW110460   4.600   4.458   0.417
 3187SOL    HW210461   4.525   4.603   0.412
 3188SOL     OW10462   3.453   6.415   4.449
 3188SOL    HW110463   3.409   6.326   4.437
 3188SOL    HW210464   3.419   6.458   4.532
 3189SOL     OW10465   2.268   0.875   2.449
 3189SOL    HW110466   2.215   0.946   2.494
 3189SOL    HW210467   2.213   0.791   2.443
 3190SOL     OW10468   0.588   6.153   1.586
 3190SOL    HW110469   0.627   6.097   1.659
 3190SOL    HW210470   0.488   6.152   1.592
 3191SOL     OW10471   3.994   6.820   0.876
 3191SOL    HW110472   4.022   6.826   0.972
 3191SOL    HW210473   4.070   6.785   0.821
 3192SOL     OW10474   0.156   2.325   1.178
 3192SOL    HW110475   0.097   2.247   1.161
 3192SOL    HW210476   0.251   2.294   1.185
 3193SOL     OW10477   4.364   1.752   5.890
 3193SOL    HW110478   4.365   1.833   5.832
 3193SOL    HW210479   4.450   1.702   5.879
 3194SOL     OW10480   0.921   3.037   5.969
 3194SOL    HW110481   0.849   2.971   5.990
 3194SOL    HW210482   0.940   3.037   5.871
 3195SOL     OW10483   2.278   2.834   2.460
 3195SOL    HW110484   2.265   2.931   2.440
 3195SOL    HW210485   2.330   2.791   2.386
 3196SOL     OW10486   6.772   0.512   4.814
 3196SOL    HW110487   6.697   0.577   4.826
 3196SOL    HW210488   6.858   0.557   4.838
 3197SOL     OW10489   1.747   5.940   3.557
 3197SOL    HW110490   1.798   5.877   3.616
 3197SOL    HW210491   1.652   5.910   3.550
 3198SOL     OW10492   6.145   2.329   6.146
 3198SOL    HW110493   6.228   2.382   6.162
 3198SOL    HW210494   6.148   2.246   6.202
 3199SOL     OW10495   4.616   2.822   1.728
 3199SOL    HW110496   4.552   2.796   1.656
 3199SOL    HW210497   4.595   2.914   1.761
 3200SOL     OW10498   0.203   1.682   1.866
 3200SOL    HW110499   0.243   1.614   1.928
 3200SOL    HW210500   0.125   1.726   1.910
 3201SOL     OW10501   5.287   4.429   4.800
 3201SOL    HW110502   5.346   4.393   4.872
 3201SOL    HW210503   5.338   4.436   4.715
 3202SOL     OW10504   1.102   4.497   1.662
 3202SOL    HW110505   1.004   4.500   1.642
 3202SOL    HW210506   1.128   4.404   1.686
 3203SOL     OW10507   5.270   1.255   0.941
 3203SOL    HW110508   5.177   1.290   0.951
 3203SOL    HW210509   5.270   1.156   0.959
 3204SOL     OW10510   4.653   5.415   1.814
 3204SOL    HW110511   4.557   5.432   1.793
 3204SOL    HW210512   4.660   5.363   1.900
 3205SOL     OW10513   0.214   3.987   6.503
 3205SOL    HW110514   0.139   3.966   6.565
 3205SOL    HW210515   0.189   3.960   6.410
 3206SOL     OW10516   6.941   6.453   5.914
 3206SOL    HW110517   6.935   6.552   5.903
 3206SOL    HW210518   0.011   6.423   5.895
 3207SOL     OW10519   0.217   1.163   6.325
 3207SOL    HW110520   0.232   1.220   6.406
 3207SOL    HW210521   0.119   1.154   6.309
 3208SOL     OW10522   5.188   6.171   5.872
 3208SOL    HW110523   5.156   6.130   5.787
 3208SOL    HW210524   5.121   6.239   5.904
 3209SOL     OW10525   3.103   5.531   3.564
 3209SOL    HW110526   3.202   5.519   3.557
 3209SOL    HW210527   3.082   5.617   3.610
 3210SOL     OW10528   0.676   4.101   2.112
 3210SOL    HW110529   0.649   4.079   2.019
 3210SOL    HW210530   0.776   4.107   2.118
 3211SOL     OW10531   2.467   3.693   0.843
 3211SOL    HW110532   2.484   3.616   0.903
 3211SOL    HW210533   2.373   3.689   0.809
 3212SOL     OW10534   3.809   1.317   6.504
 3212SOL    HW110535   3.721   1.362   6.491
 3212SOL    HW210536   3.834   1.268   6.421
 3213SOL     OW10537   6.082   5.353   2.785
 3213SOL    HW110538   6.118   5.442   2.758
 3213SOL    HW210539   5.991   5.365   2.827
 3214SOL     OW10540   5.033   5.981   0.164
 3214SOL    HW110541   5.028   5.882   0.174
 3214SOL    HW210542   5.040   6.004   0.067
 3215SOL     OW10543   0.026   3.551   1.490
 3215SOL    HW110544   7.009   3.497   1.564
 3215SOL    HW210545   0.125   3.547   1.496
 3216SOL     OW10546   5.162   5.616   1.953
 3216SOL    HW110547   5.141   5.522   1.983
 3216SOL    HW210548   5.092   5.646   1.888
 3217SOL     OW10549   0.904   5.221   2.334
 3217SOL    HW110550   0.985   5.271   2.306
 3217SOL    HW210551   0.927   5.125   2.349
 3218SOL     OW10552   3.957   6.477   3.717
 3218SOL    HW110553   3.941   6.561   3.665
 3218SOL    HW210554   3.976   6.402   3.653
 3219SOL     OW10555   7.012   1.521   3.172
 3219SOL    HW110556   0.042   1.447   3.213
 3219SOL    HW210557   6.933   1.542   3.229
 3220SOL     OW10558   6.401   5.357   6.188
 3220SOL    HW110559   6.385   5.259   6.176
 3220SOL    HW210560   6.492   5.371   6.225
 3221SOL     OW10561   3.108   6.904   2.259
 3221SOL    HW110562   3.176   6.924   2.189
 3221SOL    HW210563   3.067   6.814   2.242
 3222SOL     OW10564   4.948   2.018   3.626
 3222SOL    HW110565   4.935   1.942   3.563
 3222SOL    HW210566   4.858   2.049   3.660
 3223SOL     OW10567   1.791   5.338   6.366
 3223SOL    HW110568   1.711   5.386   6.328
 3223SOL    HW210569   1.774   5.317   6.462
 3224SOL     OW10570   4.128   4.950   6.230
 3224SOL    HW110571   4.197   4.887   6.194
 3224SOL    HW210572   4.048   4.949   6.169
 3225SOL     OW10573   4.378   2.623   5.561
 3225SOL    HW110574   4.372   2.608   5.660
 3225SOL    HW210575   4.471   2.604   5.530
 3226SOL     OW10576   1.921   1.761   4.910
 3226SOL    HW110577   1.924   1.814   4.825
 3226SOL    HW210578   1.883   1.671   4.892
 3227SOL     OW10579   3.115   2.264   6.373
 3227SOL    HW110580   3.152   2.273   6.465
 3227SOL    HW210581   3.106   2.167   6.349
 3228SOL     OW10582   5.306   3.297   4.264
 3228SOL    HW110583   5.233   3.364   4.267
 3228SOL    HW210584   5.382   3.332   4.208
 3229SOL     OW10585   3.414   1.545   5.923
 3229SOL    HW110586   3.511   1.529   5.938
 3229SOL    HW210587   3.395   1.551   5.825
 3230SOL     OW10588   0.833   2.457   3.925
 3230SOL    HW110589   0.773   2.439   3.848
 3230SOL    HW210590   0.800   2.537   3.976
 3231SOL     OW10591   3.383   6.071   2.438
 3231SOL    HW110592   3.417   5.983   2.405
 3231SOL    HW210593   3.458   6.120   2.483
 3232SOL     OW10594   4.540   5.289   3.835
 3232SOL    HW110595   4.481   5.243   3.902
 3232SOL    HW210596   4.632   5.300   3.873
 3233SOL     OW10597   1.879   3.340   1.117
 3233SOL    HW110598   1.807   3.402   1.086
 3233SOL    HW210599   1.864   3.317   1.213
 3234SOL     OW10600   0.039   2.960   0.614
 3234SOL    HW110601   0.013   2.942   0.519
 3234SOL    HW210602   0.123   2.910   0.636
 3235SOL     OW10603   5.163   5.910   1.526
 3235SOL    HW110604   5.185   5.886   1.431
 3235SOL    HW210605   5.193   5.836   1.587
 3236SOL     OW10606   1.414   3.153   1.452
 3236SOL    HW110607   1.398   3.054   1.459
 3236SOL    HW210608   1.505   3.170   1.414
 3237SOL     OW10609   5.455   1.232   3.843
 3237SOL    HW110610   5.518   1.309   3.834
 3237SOL    HW210611   5.503   1.147   3.821
 3238SOL     OW10612   6.991   5.181   6.730
 3238SOL    HW110613   6.927   5.110   6.761
 3238SOL    HW210614   6.956   5.224   6.647
 3239SOL     OW10615   6.240   1.359   0.413
 3239SOL    HW110616   6.144   1.363   0.438
 3239SOL    HW210617   6.270   1.449   0.379
 3240SOL     OW10618   1.433   6.291   5.055
 3240SOL    HW110619   1.458   6.289   4.957
 3240SOL    HW210620   1.397   6.381   5.079
 3241SOL     OW10621   5.364   1.413   4.653
 3241SOL    HW110622   5.301   1.420   4.576
 3241SOL    HW210623   5.396   1.505   4.679
 3242SOL     OW10624   3.445   4.827   0.978
 3242SOL    HW110625   3.496   4.741   0.974
 3242SOL    HW210626   3.348   4.808   0.994
 3243SOL     OW10627   5.886   5.672   0.568
 3243SOL    HW110628   5.869   5.695   0.664
 3243SOL    HW210629   5.798   5.654   0.523
 3244SOL     OW10630   4.692   5.287   6.703
 3244SOL    HW110631   4.765   5.266   6.768
 3244SOL    HW210632   4.717   5.254   6.612
 3245SOL     OW10633   5.132   2.376   5.800
 3245SOL    HW110634   5.167   2.408   5.712
 3245SOL    HW210635   5.061   2.307   5.785
 3246SOL     OW10636   6.432   0.423   3.102
 3246SOL    HW110637   6.388   0.444   3.189
 3246SOL    HW210638   6.411   0.329   3.076
 3247SOL     OW10639   0.212   5.262   2.963
 3247SOL    HW110640   0.253   5.227   3.047
 3247SOL    HW210641   0.133   5.318   2.986
 3248SOL     OW10642   5.465   3.680   1.729
 3248SOL    HW110643   5.369   3.665   1.708
 3248SOL    HW210644   5.521   3.620   1.672
 3249SOL     OW10645   4.257   4.391   5.625
 3249SOL    HW110646   4.164   4.426   5.617
 3249SOL    HW210647   4.256   4.304   5.675
 3250SOL     OW10648   5.320   0.468   3.256
 3250SOL    HW110649   5.329   0.375   3.293
 3250SOL    HW210650   5.402   0.490   3.202
 3251SOL     OW10651   4.340   0.919   2.549
 3251SOL    HW110652   4.324   0.963   2.637
 3251SOL    HW210653   4.427   0.951   2.511
 3252SOL     OW10654   2.974   1.123   2.114
 3252SOL    HW110655   2.892   1.131   2.171
 3252SOL    HW210656   3.045   1.185   2.149
 3253SOL     OW10657   4.875   3.457   2.528
 3253SOL    HW110658   4.939   3.510   2.583
 3253SOL    HW210659   4.820   3.398   2.588
 3254SOL     OW10660   3.769   4.986   4.990
 3254SOL    HW110661   3.683   4.960   4.946
 3254SOL    HW210662   3.846   4.957   4.933
 3255SOL     OW10663   4.321   6.022   1.578
 3255SOL    HW110664   4.345   6.111   1.539
 3255SOL    HW210665   4.348   6.020   1.674
 3256SOL     OW10666   5.673   0.533   6.891
 3256SOL    HW110667   5.642   0.469   6.821
 3256SOL    HW210668   5.698   0.483   6.974
 3257SOL     OW10669   1.167   1.927   1.114
 3257SOL    HW110670   1.176   2.019   1.076
 3257SOL    HW210671   1.160   1.860   1.040
 3258SOL     OW10672   4.376   5.737   2.699
 3258SOL    HW110673   4.393   5.703   2.606
 3258SOL    HW210674   4.396   5.835   2.702
 3259SOL     OW10675   4.717   5.813   4.346
 3259SOL    HW110676   4.776   5.746   4.390
 3259SOL    HW210677   4.741   5.905   4.379
 3260SOL     OW10678   2.215   2.455   1.448
 3260SOL    HW110679   2.198   2.428   1.353
 3260SOL    HW210680   2.251   2.549   1.449
 3261SOL     OW10681   4.159   6.140   0.459
 3261SOL    HW110682   4.244   6.091   0.477
 3261SOL    HW210683   4.113   6.098   0.380
 3262SOL     OW10684   3.605   1.746   2.542
 3262SOL    HW110685   3.701   1.753   2.567
 3262SOL    HW210686   3.589   1.798   2.457
 3263SOL     OW10687   5.149   0.546   4.056
 3263SOL    HW110688   5.137   0.634   4.103
 3263SOL    HW210689   5.150   0.561   3.957
 3264SOL     OW10690   1.017   4.586   7.010
 3264SOL    HW110691   0.929   4.551   6.977
 3264SOL    HW210692   1.073   4.509   0.020
 3265SOL     OW10693   4.363   2.188   5.995
 3265SOL    HW110694   4.325   2.207   6.086
 3265SOL    HW210695   4.332   2.258   5.931
 3266SOL     OW10696   0.819   2.748   0.292
 3266SOL    HW110697   0.831   2.677   0.224
 3266SOL    HW210698   0.844   2.713   0.382
 3267SOL     OW10699   3.628   2.305   0.923
 3267SOL    HW110700   3.621   2.336   0.828
 3267SOL    HW210701   3.559   2.353   0.978
 3268SOL     OW10702   0.684   3.799   6.685
 3268SOL    HW110703   0.721   3.885   6.720
 3268SOL    HW210704   0.711   3.724   6.745
 3269SOL     OW10705   4.244   4.880   1.977
 3269SOL    HW110706   4.173   4.950   1.976
 3269SOL    HW210707   4.294   4.884   2.063
 3270SOL     OW10708   1.407   5.616   4.657
 3270SOL    HW110709   1.451   5.677   4.722
 3270SOL    HW210710   1.353   5.669   4.592
 3271SOL     OW10711   5.308   3.440   2.572
 3271SOL    HW110712   5.252   3.359   2.590
 3271SOL    HW210713   5.255   3.505   2.518
 3272SOL     OW10714   3.622   4.911   0.555
 3272SOL    HW110715   3.594   5.005   0.541
 3272SOL    HW210716   3.683   4.884   0.480
 3273SOL     OW10717   0.652   6.446   2.121
 3273SOL    HW110718   0.718   6.374   2.145
 3273SOL    HW210719   0.686   6.535   2.151
 3274SOL     OW10720   3.458   2.309   6.775
 3274SOL    HW110721   3.519   2.378   6.736
 3274SOL    HW210722   3.487   2.218   6.745
 3275SOL     OW10723   1.714   0.538   6.920
 3275SOL    HW110724   1.729   0.477   6.843
 3275SOL    HW210725   1.713   0.485   7.005
 3276SOL     OW10726   3.110   4.603   6.364
 3276SOL    HW110727   3.168   4.661   6.307
 3276SOL    HW210728   3.126   4.507   6.341
 3277SOL     OW10729   5.666   0.122   6.049
 3277SOL    HW110730   5.705   0.102   6.139
 3277SOL    HW210731   5.704   0.059   5.982
 3278SOL     OW10732   6.609   0.988   5.720
 3278SOL    HW110733   6.558   0.986   5.634
 3278SOL    HW210734   6.603   1.079   5.760
 3279SOL     OW10735   0.587   0.970   1.167
 3279SOL    HW110736   0.577   0.883   1.216
 3279SOL    HW210737   0.554   1.044   1.225
 3280SOL     OW10738   2.849   5.304   6.097
 3280SOL    HW110739   2.798   5.365   6.158
 3280SOL    HW210740   2.920   5.355   6.049
 3281SOL     OW10741   2.086   5.442   1.271
 3281SOL    HW110742   2.130   5.353   1.281
 3281SOL    HW210743   1.987   5.430   1.272
 3282SOL     OW10744   2.030   5.523   4.356
 3282SOL    HW110745   2.021   5.565   4.265
 3282SOL    HW210746   2.125   5.496   4.371
 3283SOL     OW10747   3.064   1.376   1.954
 3283SOL    HW110748   3.026   1.467   1.939
 3283SOL    HW210749   2.996   1.319   2.001
 3284SOL     OW10750   6.251   7.021   6.270
 3284SOL    HW110751   6.186   0.036   6.206
 3284SOL    HW210752   6.220   0.014   6.364
 3285SOL     OW10753   6.882   2.962   3.412
 3285SOL    HW110754   6.884   2.979   3.313
 3285SOL    HW210755   6.927   2.874   3.432
 3286SOL     OW10756   4.070   3.324   3.937
 3286SOL    HW110757   4.080   3.333   4.036
 3286SOL    HW210758   4.019   3.240   3.916
 3287SOL     OW10759   1.251   5.627   0.291
 3287SOL    HW110760   1.296   5.714   0.311
 3287SOL    HW210761   1.212   5.589   0.375
 3288SOL     OW10762   0.851   5.099   6.650
 3288SOL    HW110763   0.861   5.045   6.567
 3288SOL    HW210764   0.788   5.053   6.713
 3289SOL     OW10765   2.082   6.564   5.649
 3289SOL    HW110766   2.017   6.597   5.717
 3289SOL    HW210767   2.079   6.464   5.647
 3290SOL     OW10768   0.303   6.651   1.793
 3290SOL    HW110769   0.215   6.661   1.746
 3290SOL    HW210770   0.355   6.577   1.751
 3291SOL     OW10771   1.035   6.423   6.796
 3291SOL    HW110772   0.976   6.367   6.854
 3291SOL    HW210773   1.101   6.472   6.853
 3292SOL     OW10774   0.581   1.472   0.187
 3292SOL    HW110775   0.606   1.510   0.098
 3292SOL    HW210776   0.562   1.374   0.178
 3293SOL     OW10777   6.193   2.399   3.161
 3293SOL    HW110778   6.210   2.313   3.210
 3293SOL    HW210779   6.258   2.468   3.192
 3294SOL     OW10780   0.242   0.454   6.131
 3294SOL    HW110781   0.227   0.431   6.035
 3294SOL    HW210782   0.310   0.392   6.169
 3295SOL     OW10783   2.095   2.798   0.928
 3295SOL    HW110784   2.172   2.790   0.991
 3295SOL    HW210785   2.091   2.717   0.870
 3296SOL     OW10786   2.154   6.481   1.092
 3296SOL    HW110787   2.087   6.407   1.085
 3296SOL    HW210788   2.111   6.568   1.069
 3297SOL     OW10789   2.741   1.344   4.557
 3297SOL    HW110790   2.823   1.351   4.613
 3297SOL    HW210791   2.734   1.252   4.520
 3298SOL     OW10792   6.148   2.952   3.165
 3298SOL    HW110793   6.245   2.946   3.139
 3298SOL    HW210794   6.125   2.878   3.227
 3299SOL     OW10795   2.045   6.741   3.526
 3299SOL    HW110796   2.105   6.795   3.586
 3299SOL    HW210797   1.991   6.802   3.468
 3300SOL     OW10798   0.128   0.097   6.056
 3300SOL    HW110799   0.091   0.101   6.149
 3300SOL    HW210800   0.227   0.084   6.060
 3301SOL     OW10801   2.071   4.122   3.469
 3301SOL    HW110802   2.132   4.166   3.535
 3301SOL    HW210803   2.048   4.187   3.397
 3302SOL     OW10804   1.056   5.635   4.515
 3302SOL    HW110805   1.086   5.580   4.436
 3302SOL    HW210806   1.039   5.575   4.593
 3303SOL     OW10807   3.620   2.964   1.864
 3303SOL    HW110808   3.570   2.893   1.815
 3303SOL    HW210809   3.607   2.953   1.962
 3304SOL     OW10810   1.789   4.843   3.201
 3304SOL    HW110811   1.771   4.936   3.232
 3304SOL    HW210812   1.742   4.778   3.261
 3305SOL     OW10813   2.599   2.008   2.817
 3305SOL    HW110814   2.603   2.080   2.886
 3305SOL    HW210815   2.648   1.927   2.850
 3306SOL     OW10816   2.412   4.701   3.873
 3306SOL    HW110817   2.350   4.678   3.948
 3306SOL    HW210818   2.372   4.774   3.818
 3307SOL     OW10819   0.444   6.030   6.637
 3307SOL    HW110820   0.403   5.977   6.564
 3307SOL    HW210821   0.544   6.021   6.634
 3308SOL     OW10822   4.531   5.969   6.545
 3308SOL    HW110823   4.548   6.019   6.630
 3308SOL    HW210824   4.609   5.911   6.525
 3309SOL     OW10825   0.667   5.501   2.758
 3309SOL    HW110826   0.663   5.586   2.812
 3309SOL    HW210827   0.728   5.436   2.803
 3310SOL     OW10828   6.929   3.783   3.441
 3310SOL    HW110829   6.894   3.852   3.379
 3310SOL    HW210830   6.929   3.819   3.534
 3311SOL     OW10831   2.739   5.101   1.373
 3311SOL    HW110832   2.749   5.003   1.356
 3311SOL    HW210833   2.786   5.153   1.302
 3312SOL     OW10834   2.931   3.872   6.303
 3312SOL    HW110835   2.937   3.942   6.375
 3312SOL    HW210836   2.843   3.826   6.308
 3313SOL     OW10837   0.498   5.418   2.568
 3313SOL    HW110838   0.549   5.378   2.491
 3313SOL    HW210839   0.560   5.436   2.644
 3314SOL     OW10840   2.138   2.590   5.345
 3314SOL    HW110841   2.068   2.558   5.281
 3314SOL    HW210842   2.225   2.600   5.297
 3315SOL     OW10843   6.666   2.731   4.255
 3315SOL    HW110844   6.733   2.657   4.261
 3315SOL    HW210845   6.678   2.793   4.332
 3316SOL     OW10846   3.655   1.230   5.586
 3316SOL    HW110847   3.707   1.165   5.532
 3316SOL    HW210848   3.709   1.313   5.600
 3317SOL     OW10849   4.882   2.882   1.891
 3317SOL    HW110850   4.844   2.961   1.940
 3317SOL    HW210851   4.821   2.856   1.817
 3318SOL     OW10852   2.938   0.105   0.365
 3318SOL    HW110853   3.031   0.111   0.402
 3318SOL    HW210854   2.942   0.103   0.265
 3319SOL     OW10855   6.229   6.868   3.569
 3319SOL    HW110856   6.324   6.838   3.576
 3319SOL    HW210857   6.175   6.796   3.525
 3320SOL     OW10858   5.856   1.166   5.805
 3320SOL    HW110859   5.857   1.244   5.743
 3320SOL    HW210860   5.776   1.171   5.864
 3321SOL     OW10861   3.227   2.700   1.715
 3321SOL    HW110862   3.324   2.716   1.697
 3321SOL    HW210863   3.206   2.603   1.705
 3322SOL     OW10864   4.933   2.303   1.925
 3322SOL    HW110865   4.880   2.370   1.976
 3322SOL    HW210866   4.947   2.335   1.832
 3323SOL     OW10867   2.021   3.967   6.791
 3323SOL    HW110868   2.108   3.950   6.744
 3323SOL    HW210869   2.040   4.000   6.884
 3324SOL     OW10870   0.749   4.014   6.949
 3324SOL    HW110871   0.727   3.964   0.010
 3324SOL    HW210872   0.834   3.980   6.911
 3325SOL     OW10873   2.021   3.318   6.956
 3325SOL    HW110874   1.964   3.326   6.875
 3325SOL    HW210875   2.007   3.397   7.015
 3326SOL     OW10876   5.165   1.764   1.617
 3326SOL    HW110877   5.178   1.721   1.528
 3326SOL    HW210878   5.161   1.863   1.607
 3327SOL     OW10879   2.769   6.257   0.870
 3327SOL    HW110880   2.819   6.246   0.785
 3327SOL    HW210881   2.722   6.171   0.893
 3328SOL     OW10882   4.740   1.102   2.751
 3328SOL    HW110883   4.734   1.164   2.829
 3328SOL    HW210884   4.742   1.154   2.666
 3329SOL     OW10885   4.528   0.134   5.376
 3329SOL    HW110886   4.566   0.086   5.297
 3329SOL    HW210887   4.535   0.233   5.362
 3330SOL     OW10888   5.712   6.479   2.395
 3330SOL    HW110889   5.777   6.408   2.423
 3330SOL    HW210890   5.622   6.438   2.383
 3331SOL     OW10891   1.811   3.391   2.309
 3331SOL    HW110892   1.741   3.404   2.379
 3331SOL    HW210893   1.802   3.461   2.239
 3332SOL     OW10894   6.182   3.917   0.103
 3332SOL    HW110895   6.250   3.977   0.061
 3332SOL    HW210896   6.215   3.822   0.101
 3333SOL     OW10897   2.494   3.479   6.826
 3333SOL    HW110898   2.458   3.572   6.816
 3333SOL    HW210899   2.433   3.427   6.886
 3334SOL     OW10900   1.950   3.095   1.728
 3334SOL    HW110901   1.854   3.119   1.745
 3334SOL    HW210902   2.009   3.166   1.767
 3335SOL     OW10903   4.764   5.730   6.179
 3335SOL    HW110904   4.835   5.801   6.180
 3335SOL    HW210905   4.738   5.711   6.084
 3336SOL     OW10906   2.160   0.214   4.290
 3336SOL    HW110907   2.104   0.185   4.368
 3336SOL    HW210908   2.225   0.142   4.267
 3337SOL     OW10909   3.495   3.446   1.860
 3337SOL    HW110910   3.589   3.473   1.839
 3337SOL    HW210911   3.455   3.513   1.922
 3338SOL     OW10912   0.150   2.573   1.861
 3338SOL    HW110913   0.239   2.530   1.881
 3338SOL    HW210914   0.087   2.555   1.937
 3339SOL     OW10915   1.557   0.270   6.213
 3339SOL    HW110916   1.612   0.217   6.277
 3339SOL    HW210917   1.616   0.305   6.140
 3340SOL     OW10918   4.302   0.657   3.951
 3340SOL    HW110919   4.259   0.747   3.962
 3340SOL    HW210920   4.339   0.628   4.039
 3341SOL     OW10921   2.307   4.239   3.895
 3341SOL    HW110922   2.358   4.312   3.940
 3341SOL    HW210923   2.215   4.272   3.873
 3342SOL     OW10924   0.460   0.425   2.578
 3342SOL    HW110925   0.401   0.411   2.498
 3342SOL    HW210926   0.547   0.465   2.549
 3343SOL     OW10927   5.162   5.432   6.116
 3343SOL    HW110928   5.097   5.498   6.077
 3343SOL    HW210929   5.127   5.339   6.103
 3344SOL     OW10930   6.506   3.018   3.523
 3344SOL    HW110931   6.465   2.927   3.528
 3344SOL    HW210932   6.539   3.034   3.430
 3345SOL     OW10933   0.738   4.205   6.172
 3345SOL    HW110934   0.671   4.143   6.134
 3345SOL    HW210935   0.773   4.266   6.100
 3346SOL     OW10936   1.764   1.136   6.854
 3346SOL    HW110937   1.823   1.056   6.857
 3346SOL    HW210938   1.670   1.110   6.877
 3347SOL     OW10939   1.967   2.607   6.536
 3347SOL    HW110940   2.015   2.555   6.466
 3347SOL    HW210941   1.904   2.672   6.493
 3348SOL     OW10942   4.412   3.792   5.431
 3348SOL    HW110943   4.478   3.719   5.412
 3348SOL    HW210944   4.322   3.764   5.398
 3349SOL     OW10945   2.694   5.082   3.849
 3349SOL    HW110946   2.730   5.173   3.827
 3349SOL    HW210947   2.769   5.024   3.882
 3350SOL     OW10948   0.658   3.093   5.811
 3350SOL    HW110949   0.701   3.138   5.890
 3350SOL    HW210950   0.615   3.161   5.753
 3351SOL     OW10951   4.901   1.463   1.209
 3351SOL    HW110952   4.841   1.498   1.138
 3351SOL    HW210953   4.852   1.394   1.264
 3352SOL     OW10954   5.413   2.255   0.772
 3352SOL    HW110955   5.377   2.321   0.837
 3352SOL    HW210956   5.348   2.180   0.761
 3353SOL     OW10957   1.956   6.435   0.464
 3353SOL    HW110958   1.997   6.517   0.505
 3353SOL    HW210959   1.902   6.462   0.384
 3354SOL     OW10960   3.935   2.737   5.308
 3354SOL    HW110961   4.003   2.676   5.268
 3354SOL    HW210962   3.938   2.731   5.407
 3355SOL     OW10963   2.170   1.407   5.673
 3355SOL    HW110964   2.085   1.446   5.711
 3355SOL    HW210965   2.201   1.462   5.596
 3356SOL     OW10966   0.529   6.672   6.606
 3356SOL    HW110967   0.532   6.643   6.510
 3356SOL    HW210968   0.609   6.636   6.653
 3357SOL     OW10969   3.194   3.170   1.758
 3357SOL    HW110970   3.175   3.078   1.724
 3357SOL    HW210971   3.267   3.211   1.703
 3358SOL     OW10972   5.661   1.079   3.544
 3358SOL    HW110973   5.580   1.093   3.486
 3358SOL    HW210974   5.645   1.000   3.604
 3359SOL     OW10975   0.284   5.450   3.563
 3359SOL    HW110976   0.208   5.459   3.627
 3359SOL    HW210977   0.256   5.481   3.472
 3360SOL     OW10978   0.755   2.052   6.213
 3360SOL    HW110979   0.821   2.097   6.154
 3360SOL    HW210980   0.676   2.112   6.228
 3361SOL     OW10981   0.789   0.386   4.429
 3361SOL    HW110982   0.692   0.373   4.407
 3361SOL    HW210983   0.813   0.483   4.418
 3362SOL     OW10984   3.854   1.412   2.924
 3362SOL    HW110985   3.828   1.361   2.841
 3362SOL    HW210986   3.943   1.455   2.909
 3363SOL     OW10987   6.888   3.392   1.658
 3363SOL    HW110988   6.846   3.311   1.700
 3363SOL    HW210989   6.816   3.452   1.622
 3364SOL     OW10990   1.992   4.536   2.864
 3364SOL    HW110991   2.081   4.575   2.844
 3364SOL    HW210992   1.991   4.439   2.837
 3365SOL     OW10993   1.313   2.412   4.504
 3365SOL    HW110994   1.354   2.495   4.540
 3365SOL    HW210995   1.313   2.415   4.404
 3366SOL     OW10996   6.352   4.627   4.021
 3366SOL    HW110997   6.436   4.640   4.073
 3366SOL    HW210998   6.344   4.531   3.994
 3367SOL     OW10999   3.432   3.041   3.248
 3367SOL    HW111000   3.478   3.094   3.177
 3367SOL    HW211001   3.499   2.988   3.299
 3368SOL     OW11002   0.662   5.591   6.542
 3368SOL    HW111003   0.575   5.544   6.528
 3368SOL    HW211004   0.736   5.524   6.548
 3369SOL     OW11005   4.344   1.901   1.512
 3369SOL    HW111006   4.266   1.926   1.570
 3369SOL    HW211007   4.423   1.880   1.570
 3370SOL     OW11008   5.733   6.733   1.548
 3370SOL    HW111009   5.828   6.703   1.554
 3370SOL    HW211010   5.723   6.792   1.467
 3371SOL     OW11011   2.203   3.788   1.885
 3371SOL    HW111012   2.223   3.691   1.903
 3371SOL    HW211013   2.105   3.804   1.893
 3372SOL     OW11014   6.647   2.239   0.250
 3372SOL    HW111015   6.707   2.313   0.280
 3372SOL    HW211016   6.685   2.197   0.167
 3373SOL     OW11017   0.513   2.189   3.384
 3373SOL    HW111018   0.465   2.271   3.414
 3373SOL    HW211019   0.448   2.112   3.381
 3374SOL     OW11020   1.230   0.442   3.878
 3374SOL    HW111021   1.231   0.353   3.923
 3374SOL    HW211022   1.291   0.440   3.798
 3375SOL     OW11023   6.569   4.501   0.626
 3375SOL    HW111024   6.545   4.485   0.722
 3375SOL    HW211025   6.485   4.510   0.572
 3376SOL     OW11026   3.103   3.258   4.968
 3376SOL    HW111027   3.135   3.164   4.984
 3376SOL    HW211028   3.147   3.320   5.033
 3377SOL     OW11029   6.692   4.551   4.438
 3377SOL    HW111030   6.730   4.600   4.516
 3377SOL    HW211031   6.760   4.545   4.366
 3378SOL     OW11032   0.730   6.993   0.071
 3378SOL    HW111033   0.750   0.053   0.122
 3378SOL    HW211034   0.686   7.017   7.008
 3379SOL     OW11035   0.924   2.891   4.741
 3379SOL    HW111036   0.956   2.797   4.737
 3379SOL    HW211037   0.995   2.953   4.707
 3380SOL     OW11038   4.313   5.506   5.146
 3380SOL    HW111039   4.229   5.487   5.196
 3380SOL    HW211040   4.360   5.584   5.186
 3381SOL     OW11041   6.808   3.122   1.731
 3381SOL    HW111042   6.808   3.046   1.666
 3381SOL    HW211043   6.884   3.111   1.796
 3382SOL     OW11044   0.226   3.170   0.938
 3382SOL    HW111045   0.272   3.204   1.020
 3382SOL    HW211046   0.290   3.173   0.861
 3383SOL     OW11047   3.519   5.163   0.494
 3383SOL    HW111048   3.493   5.222   0.571
 3383SOL    HW211049   3.455   5.177   0.418
 3384SOL     OW11050   2.967   4.441   0.841
 3384SOL    HW111051   3.058   4.402   0.829
 3384SOL    HW211052   2.970   4.512   0.912
 3385SOL     OW11053   6.790   3.210   3.917
 3385SOL    HW111054   6.704   3.226   3.868
 3385SOL    HW211055   6.859   3.273   3.883
 3386SOL     OW11056   6.401   4.416   6.822
 3386SOL    HW111057   6.314   4.446   6.785
 3386SOL    HW211058   6.422   4.324   6.789
 3387SOL     OW11059   5.265   0.459   2.803
 3387SOL    HW111060   5.275   0.464   2.902
 3387SOL    HW211061   5.279   0.550   2.763
 3388SOL     OW11062   5.273   4.250   2.449
 3388SOL    HW111063   5.363   4.267   2.411
 3388SOL    HW211064   5.254   4.315   2.523
 3389SOL     OW11065   6.535   5.298   6.570
 3389SOL    HW111066   6.435   5.294   6.571
 3389SOL    HW211067   6.564   5.389   6.601
 3390SOL     OW11068   4.394   6.494   6.631
 3390SOL    HW111069   4.447   6.577   6.612
 3390SOL    HW211070   4.304   6.519   6.667
 3391SOL     OW11071   5.219   2.077   3.188
 3391SOL    HW111072   5.155   2.135   3.137
 3391SOL    HW211073   5.168   2.018   3.251
 3392SOL     OW11074   3.150   0.137   3.832
 3392SOL    HW111075   3.167   0.219   3.778
 3392SOL    HW211076   3.202   0.143   3.918
 3393SOL     OW11077   5.541   6.610   0.153
 3393SOL    HW111078   5.590   6.695   0.134
 3393SOL    HW211079   5.509   6.569   0.067
 3394SOL     OW11080   4.296   4.479   0.459
 3394SOL    HW111081   4.315   4.394   0.411
 3394SOL    HW211082   4.209   4.472   0.508
 3395SOL     OW11083   4.705   1.700   3.025
 3395SOL    HW111084   4.649   1.757   2.965
 3395SOL    HW211085   4.725   1.613   2.980
 3396SOL     OW11086   5.705   1.690   3.937
 3396SOL    HW111087   5.658   1.734   3.860
 3396SOL    HW211088   5.696   1.746   4.019
 3397SOL     OW11089   3.254   5.398   6.044
 3397SOL    HW111090   3.249   5.461   6.122
 3397SOL    HW211091   3.197   5.433   5.969
 3398SOL     OW11092   0.802   0.143   5.289
 3398SOL    HW111093   0.761   0.233   5.305
 3398SOL    HW211094   0.898   0.145   5.319
 3399SOL     OW11095   6.597   5.075   3.001
 3399SOL    HW111096   6.540   5.118   3.071
 3399SOL    HW211097   6.539   5.038   2.929
 3400SOL     OW11098   6.335   3.327   6.758
 3400SOL    HW111099   6.338   3.234   6.721
 3400SOL    HW211100   6.259   3.334   6.822
 3401SOL     OW11101   6.070   3.588   6.049
 3401SOL    HW111102   6.133   3.530   5.998
 3401SOL    HW211103   6.056   3.674   5.999
 3402SOL     OW11104   6.136   5.387   0.726
 3402SOL    HW111105   6.112   5.415   0.819
 3402SOL    HW211106   6.189   5.302   0.730
 3403SOL     OW11107   5.228   5.499   6.373
 3403SOL    HW111108   5.303   5.448   6.413
 3403SOL    HW211109   5.195   5.452   6.291
 3404SOL     OW11110   4.838   3.085   6.991
 3404SOL    HW111111   4.805   3.170   6.949
 3404SOL    HW211112   4.935   3.073   6.967
 3405SOL     OW11113   5.507   4.771   6.082
 3405SOL    HW111114   5.459   4.699   6.032
 3405SOL    HW211115   5.527   4.739   6.175
 3406SOL     OW11116   2.073   3.402   2.403
 3406SOL    HW111117   2.086   3.450   2.490
 3406SOL    HW211118   1.975   3.394   2.384
 3407SOL     OW11119   2.997   4.474   0.360
 3407SOL    HW111120   2.942   4.435   0.286
 3407SOL    HW211121   2.943   4.480   0.443
 3408SOL     OW11122   4.592   2.708   4.602
 3408SOL    HW111123   4.533   2.738   4.677
 3408SOL    HW211124   4.543   2.642   4.545
 3409SOL     OW11125   3.714   6.064   0.610
 3409SOL    HW111126   3.647   6.054   0.683
 3409SOL    HW211127   3.731   5.975   0.568
 3410SOL     OW11128   5.678   6.260   2.781
 3410SOL    HW111129   5.630   6.299   2.703
 3410SOL    HW211130   5.673   6.323   2.859
 3411SOL     OW11131   0.053   2.904   0.139
 3411SOL    HW111132   0.055   2.974   0.068
 3411SOL    HW211133   0.040   2.814   0.097
 3412SOL     OW11134   5.017   3.736   1.184
 3412SOL    HW111135   4.971   3.808   1.235
 3412SOL    HW211136   5.028   3.655   1.242
 3413SOL     OW11137   6.351   2.202   6.948
 3413SOL    HW111138   6.343   2.188   6.849
 3413SOL    HW211139   6.287   2.272   6.977
 3414SOL     OW11140   3.571   1.750   5.614
 3414SOL    HW111141   3.589   1.837   5.568
 3414SOL    HW211142   3.645   1.731   5.679
 3415SOL     OW11143   2.485   2.531   4.102
 3415SOL    HW111144   2.560   2.490   4.153
 3415SOL    HW211145   2.473   2.484   4.015
 3416SOL     OW11146   5.863   0.146   6.662
 3416SOL    HW111147   5.885   0.073   6.727
 3416SOL    HW211148   5.902   0.232   6.694
 3417SOL     OW11149   0.048   6.597   2.645
 3417SOL    HW111150   0.065   6.505   2.609
 3417SOL    HW211151   0.117   6.660   2.610
 3418SOL     OW11152   3.834   6.107   3.808
 3418SOL    HW111153   3.737   6.131   3.800
 3418SOL    HW211154   3.873   6.152   3.887
 3419SOL     OW11155   3.989   5.523   6.087
 3419SOL    HW111156   3.980   5.493   5.992
 3419SOL    HW211157   3.940   5.609   6.100
 3420SOL     OW11158   5.496   2.988   4.300
 3420SOL    HW111159   5.521   2.891   4.305
 3420SOL    HW211160   5.439   3.011   4.379
 3421SOL     OW11161   5.685   1.901   2.987
 3421SOL    HW111162   5.588   1.911   3.007
 3421SOL    HW211163   5.737   1.973   3.034
 3422SOL     OW11164   2.516   0.731   0.534
 3422SOL    HW111165   2.616   0.727   0.542
 3422SOL    HW211166   2.477   0.642   0.558
 3423SOL     OW11167   0.213   4.283   5.858
 3423SOL    HW111168   0.252   4.281   5.950
 3423SOL    HW211169   0.127   4.232   5.856
 3424SOL     OW11170   3.290   0.577   1.256
 3424SOL    HW111171   3.376   0.613   1.222
 3424SOL    HW211172   3.216   0.601   1.193
 3425SOL     OW11173   4.613   4.709   2.164
 3425SOL    HW111174   4.629   4.678   2.257
 3425SOL    HW211175   4.530   4.667   2.128
 3426SOL     OW11176   4.855   3.078   0.230
 3426SOL    HW111177   4.897   3.161   0.266
 3426SOL    HW211178   4.841   3.088   0.131
 3427SOL     OW11179   0.662   2.125   1.750
 3427SOL    HW111180   0.612   2.165   1.673
 3427SOL    HW211181   0.715   2.196   1.796
 3428SOL     OW11182   4.457   4.817   6.466
 3428SOL    HW111183   4.461   4.917   6.471
 3428SOL    HW211184   4.533   4.778   6.518
 3429SOL     OW11185   0.626   1.393   1.214
 3429SOL    HW111186   0.532   1.398   1.182
 3429SOL    HW211187   0.668   1.484   1.208
 3430SOL     OW11188   2.326   5.186   6.062
 3430SOL    HW111189   2.392   5.118   6.094
 3430SOL    HW211190   2.254   5.140   6.010
 3431SOL     OW11191   2.102   6.851   2.362
 3431SOL    HW111192   2.049   6.831   2.445
 3431SOL    HW211193   2.088   6.778   2.295
 3432SOL     OW11194   2.592   4.755   6.418
 3432SOL    HW111195   2.536   4.701   6.355
 3432SOL    HW211196   2.561   4.739   6.512
 3433SOL     OW11197   1.749   1.134   6.152
 3433SOL    HW111198   1.711   1.047   6.121
 3433SOL    HW211199   1.750   1.200   6.076
 3434SOL     OW11200   3.465   1.885   1.745
 3434SOL    HW111201   3.420   1.845   1.825
 3434SOL    HW211202   3.560   1.906   1.766
 3435SOL     OW11203   2.706   1.140   0.261
 3435SOL    HW111204   2.673   1.234   0.271
 3435SOL    HW211205   2.723   1.121   0.165
 3436SOL     OW11206   3.520   5.578   0.243
 3436SOL    HW111207   3.586   5.522   0.194
 3436SOL    HW211208   3.569   5.643   0.301
 3437SOL     OW11209   1.922   6.653   5.895
 3437SOL    HW111210   1.826   6.660   5.924
 3437SOL    HW211211   1.981   6.686   5.968
 3438SOL     OW11212   0.495   4.154   1.311
 3438SOL    HW111213   0.579   4.114   1.274
 3438SOL    HW211214   0.478   4.117   1.402
 3439SOL     OW11215   3.278   5.868   3.785
 3439SOL    HW111216   3.213   5.815   3.730
 3439SOL    HW211217   3.252   5.964   3.783
 3440SOL     OW11218   4.008   3.217   3.354
 3440SOL    HW111219   3.979   3.311   3.335
 3440SOL    HW211220   4.021   3.205   3.453
 3441SOL     OW11221   0.659   6.257   6.636
 3441SOL    HW111222   0.689   6.195   6.708
 3441SOL    HW211223   0.699   6.229   6.548
 3442SOL     OW11224   2.962   3.624   0.806
 3442SOL    HW111225   3.060   3.612   0.823
 3442SOL    HW211226   2.948   3.688   0.731
 3443SOL     OW11227   3.472   5.747   2.166
 3443SOL    HW111228   3.453   5.763   2.263
 3443SOL    HW211229   3.387   5.720   2.120
 3444SOL     OW11230   5.089   4.864   1.768
 3444SOL    HW111231   5.045   4.893   1.683
 3444SOL    HW211232   5.062   4.770   1.789
 3445SOL     OW11233   0.312   5.037   4.025
 3445SOL    HW111234   0.273   4.990   4.104
 3445SOL    HW211235   0.410   5.017   4.018
 3446SOL     OW11236   5.515   0.553   1.448
 3446SOL    HW111237   5.537   0.617   1.375
 3446SOL    HW211238   5.479   0.468   1.410
 3447SOL     OW11239   5.020   0.734   0.017
 3447SOL    HW111240   4.994   0.794   6.965
 3447SOL    HW211241   5.053   0.790   0.094
 3448SOL     OW11242   2.837   6.403   6.384
 3448SOL    HW111243   2.766   6.473   6.392
 3448SOL    HW211244   2.921   6.436   6.427
 3449SOL     OW11245   6.146   5.174   4.899
 3449SOL    HW111246   6.150   5.188   4.998
 3449SOL    HW211247   6.057   5.201   4.864
 3450SOL     OW11248   1.405   1.155   6.663
 3450SOL    HW111249   1.305   1.149   6.662
 3450SOL    HW211250   1.441   1.092   6.731
 3451SOL     OW11251   1.499   5.808   0.452
 3451SOL    HW111252   1.455   5.860   0.525
 3451SOL    HW211253   1.599   5.819   0.458
 3452SOL     OW11254   5.814   0.537   5.882
 3452SOL    HW111255   5.785   0.604   5.813
 3452SOL    HW211256   5.766   0.555   5.968
 3453SOL     OW11257   5.679   5.819   6.033
 3453SOL    HW111258   5.665   5.760   5.953
 3453SOL    HW211259   5.601   5.881   6.043
 3454SOL     OW11260   1.355   3.800   4.398
 3454SOL    HW111261   1.429   3.855   4.437
 3454SOL    HW211262   1.341   3.718   4.454
 3455SOL     OW11263   2.554   1.314   5.023
 3455SOL    HW111264   2.489   1.336   4.950
 3455SOL    HW211265   2.635   1.271   4.984
 3456SOL     OW11266   4.429   4.562   2.046
 3456SOL    HW111267   4.455   4.474   2.006
 3456SOL    HW211268   4.369   4.611   1.983
 3457SOL     OW11269   4.313   5.192   4.693
 3457SOL    HW111270   4.227   5.206   4.743
 3457SOL    HW211271   4.336   5.095   4.695
 3458SOL     OW11272   4.608   1.690   2.013
 3458SOL    HW111273   4.535   1.645   2.066
 3458SOL    HW211274   4.574   1.778   1.979
 3459SOL     OW11275   5.180   1.889   3.422
 3459SOL    HW111276   5.177   1.962   3.490
 3459SOL    HW211277   5.087   1.855   3.406
 3460SOL     OW11278   3.268   1.981   5.733
 3460SOL    HW111279   3.274   2.079   5.752
 3460SOL    HW211280   3.305   1.930   5.810
 3461SOL     OW11281   5.918   4.484   6.843
 3461SOL    HW111282   5.882   4.573   6.871
 3461SOL    HW211283   6.014   4.493   6.819
 3462SOL     OW11284   1.092   3.590   5.550
 3462SOL    HW111285   1.118   3.672   5.600
 3462SOL    HW211286   1.041   3.529   5.611
 3463SOL     OW11287   0.756   3.951   0.961
 3463SOL    HW111288   0.845   3.996   0.960
 3463SOL    HW211289   0.684   4.017   0.938
 3464SOL     OW11290   0.228   4.329   6.457
 3464SOL    HW111291   0.282   4.282   6.387
 3464SOL    HW211292   0.135   4.344   6.423
 3465SOL     OW11293   2.119   1.709   1.814
 3465SOL    HW111294   2.163   1.632   1.767
 3465SOL    HW211295   2.111   1.786   1.751
 3466SOL     OW11296   0.025   5.603   6.244
 3466SOL    HW111297   0.022   5.505   6.264
 3466SOL    HW211298   6.970   5.627   6.185
 3467SOL     OW11299   1.795   1.665   6.760
 3467SOL    HW111300   1.761   1.573   6.781
 3467SOL    HW211301   1.756   1.731   6.825
 3468SOL     OW11302   3.426   5.253   2.863
 3468SOL    HW111303   3.415   5.243   2.764
 3468SOL    HW211304   3.350   5.207   2.909
 3469SOL     OW11305   6.341   1.924   3.984
 3469SOL    HW111306   6.314   1.856   4.053
 3469SOL    HW211307   6.259   1.955   3.935
 3470SOL     OW11308   0.396   5.207   1.077
 3470SOL    HW111309   0.353   5.172   1.160
 3470SOL    HW211310   0.330   5.263   1.027
 3471SOL     OW11311   4.594   5.314   5.234
 3471SOL    HW111312   4.521   5.276   5.291
 3471SOL    HW211313   4.595   5.268   5.146
 3472SOL     OW11314   2.895   0.851   3.649
 3472SOL    HW111315   2.966   0.922   3.645
 3472SOL    HW211316   2.836   0.858   3.569
 3473SOL     OW11317   5.669   1.509   6.138
 3473SOL    HW111318   5.612   1.583   6.173
 3473SOL    HW211319   5.671   1.512   6.038
 3474SOL     OW11320   2.890   5.145   1.627
 3474SOL    HW111321   2.894   5.226   1.686
 3474SOL    HW211322   2.840   5.168   1.543
 3475SOL     OW11323   1.078   6.268   4.133
 3475SOL    HW111324   0.995   6.257   4.187
 3475SOL    HW211325   1.118   6.179   4.114
 3476SOL     OW11326   3.641   0.259   4.325
 3476SOL    HW111327   3.708   0.296   4.390
 3476SOL    HW211328   3.591   0.184   4.368
 3477SOL     OW11329   3.194   5.545   1.357
 3477SOL    HW111330   3.257   5.569   1.431
 3477SOL    HW211331   3.120   5.612   1.353
 3478SOL     OW11332   2.468   6.273   5.977
 3478SOL    HW111333   2.545   6.307   6.030
 3478SOL    HW211334   2.459   6.326   5.892
 3479SOL     OW11335   0.653   6.891   3.134
 3479SOL    HW111336   0.702   6.841   3.063
 3479SOL    HW211337   0.666   6.989   3.121
 3480SOL     OW11338   6.816   1.465   4.075
 3480SOL    HW111339   6.743   1.429   4.017
 3480SOL    HW211340   6.873   1.528   4.022
 3481SOL     OW11341   4.578   6.690   6.591
 3481SOL    HW111342   4.632   6.632   6.531
 3481SOL    HW211343   4.601   6.786   6.574
 3482SOL     OW11344   5.545   1.507   1.057
 3482SOL    HW111345   5.527   1.427   1.000
 3482SOL    HW211346   5.538   1.590   1.002
 3483SOL     OW11347   3.185   0.512   0.783
 3483SOL    HW111348   3.113   0.449   0.754
 3483SOL    HW211349   3.264   0.460   0.816
 3484SOL     OW11350   3.010   3.168   2.906
 3484SOL    HW111351   3.068   3.124   2.838
 3484SOL    HW211352   2.914   3.150   2.886
 3485SOL     OW11353   1.426   0.878   5.034
 3485SOL    HW111354   1.367   0.814   5.084
 3485SOL    HW211355   1.404   0.972   5.062
 3486SOL     OW11356   3.887   1.148   2.075
 3486SOL    HW111357   3.885   1.048   2.071
 3486SOL    HW211358   3.800   1.182   2.112
 3487SOL     OW11359   5.486   1.524   6.548
 3487SOL    HW111360   5.478   1.580   6.630
 3487SOL    HW211361   5.582   1.525   6.517
 3488SOL     OW11362   5.815   3.140   4.285
 3488SOL    HW111363   5.756   3.060   4.277
 3488SOL    HW211364   5.898   3.115   4.334
 3489SOL     OW11365   3.323   6.825   0.481
 3489SOL    HW111366   3.343   6.863   0.391
 3489SOL    HW211367   3.380   6.872   0.550
 3490SOL     OW11368   4.467   4.476   0.135
 3490SOL    HW111369   4.509   4.515   0.217
 3490SOL    HW211370   4.385   4.529   0.111
 3491SOL     OW11371   6.904   2.879   5.967
 3491SOL    HW111372   6.976   2.948   5.957
 3491SOL    HW211373   6.820   2.912   5.924
 3492SOL     OW11374   0.996   5.654   0.623
 3492SOL    HW111375   0.961   5.569   0.661
 3492SOL    HW211376   1.096   5.650   0.619
 3493SOL     OW11377   5.903   5.120   0.065
 3493SOL    HW111378   5.985   5.142   0.012
 3493SOL    HW211379   5.871   5.202   0.112
 3494SOL     OW11380   4.347   6.880   0.640
 3494SOL    HW111381   4.321   6.938   0.563
 3494SOL    HW211382   4.363   6.936   0.721
 3495SOL     OW11383   4.386   4.545   2.754
 3495SOL    HW111384   4.328   4.577   2.679
 3495SOL    HW211385   4.480   4.535   2.721
 3496SOL     OW11386   0.869   3.092   1.201
 3496SOL    HW111387   0.965   3.118   1.212
 3496SOL    HW211388   0.841   3.031   1.275
 3497SOL     OW11389   4.114   0.601   2.728
 3497SOL    HW111390   4.017   0.609   2.752
 3497SOL    HW211391   4.127   0.631   2.634
 3498SOL     OW11392   3.555   1.721   0.741
 3498SOL    HW111393   3.458   1.736   0.720
 3498SOL    HW211394   3.608   1.799   0.707
 3499SOL     OW11395   6.602   3.311   4.805
 3499SOL    HW111396   6.524   3.280   4.859
 3499SOL    HW211397   6.579   3.397   4.759
 3500SOL     OW11398   6.647   4.605   6.280
 3500SOL    HW111399   6.670   4.701   6.269
 3500SOL    HW211400   6.708   4.549   6.224
 3501SOL     OW11401   0.194   4.903   4.695
 3501SOL    HW111402   0.199   4.971   4.768
 3501SOL    HW211403   0.271   4.840   4.703
 3502SOL     OW11404   0.518   1.929   1.939
 3502SOL    HW111405   0.503   1.833   1.918
 3502SOL    HW211406   0.525   1.981   1.854
 3503SOL     OW11407   4.946   5.781   5.209
 3503SOL    HW111408   4.856   5.738   5.217
 3503SOL    HW211409   4.976   5.813   5.300
 3504SOL     OW11410   2.776   3.015   1.229
 3504SOL    HW111411   2.761   3.032   1.131
 3504SOL    HW211412   2.736   3.089   1.282
 3505SOL     OW11413   5.316   5.392   5.030
 3505SOL    HW111414   5.318   5.481   4.985
 3505SOL    HW211415   5.221   5.368   5.052
 3506SOL     OW11416   4.334   5.555   4.831
 3506SOL    HW111417   4.349   5.522   4.924
 3506SOL    HW211418   4.416   5.538   4.776
 3507SOL     OW11419   1.538   0.690   6.719
 3507SOL    HW111420   1.618   0.701   6.660
 3507SOL    HW211421   1.563   0.636   6.799
 3508SOL     OW11422   4.324   2.383   6.460
 3508SOL    HW111423   4.245   2.384   6.521
 3508SOL    HW211424   4.408   2.375   6.513
 3509SOL     OW11425   5.714   5.846   6.717
 3509SOL    HW111426   5.684   5.776   6.653
 3509SOL    HW211427   5.775   5.806   6.785
 3510SOL     OW11428   1.643   2.505   2.139
 3510SOL    HW111429   1.561   2.504   2.196
 3510SOL    HW211430   1.702   2.428   2.163
 3511SOL     OW11431   1.397   3.128   6.648
 3511SOL    HW111432   1.491   3.109   6.619
 3511SOL    HW211433   1.388   3.224   6.674
 3512SOL     OW11434   1.063   4.232   0.106
 3512SOL    HW111435   1.113   4.253   0.023
 3512SOL    HW211436   1.114   4.165   0.160
 3513SOL     OW11437   6.162   4.647   0.598
 3513SOL    HW111438   6.148   4.694   0.685
 3513SOL    HW211439   6.128   4.705   0.523
 3514SOL     OW11440   0.456   0.165   1.557
 3514SOL    HW111441   0.394   0.086   1.556
 3514SOL    HW211442   0.432   0.226   1.632
 3515SOL     OW11443   3.372   5.998   2.727
 3515SOL    HW111444   3.370   6.095   2.701
 3515SOL    HW211445   3.306   5.947   2.672
 3516SOL     OW11446   3.685   0.827   0.846
 3516SOL    HW111447   3.609   0.862   0.901
 3516SOL    HW211448   3.673   0.729   0.831
 3517SOL     OW11449   0.850   1.272   0.250
 3517SOL    HW111450   0.819   1.187   0.207
 3517SOL    HW211451   0.946   1.288   0.225
 3518SOL     OW11452   5.103   3.933   5.855
 3518SOL    HW111453   5.189   3.953   5.807
 3518SOL    HW211454   5.026   3.971   5.803
 3519SOL     OW11455   1.141   0.607   6.530
 3519SOL    HW111456   1.053   0.563   6.510
 3519SOL    HW211457   1.207   0.537   6.558
 3520SOL     OW11458   3.708   4.742   1.444
 3520SOL    HW111459   3.660   4.829   1.456
 3520SOL    HW211460   3.689   4.683   1.522
 3521SOL     OW11461   5.606   3.038   1.159
 3521SOL    HW111462   5.559   3.008   1.076
 3521SOL    HW211463   5.697   2.998   1.163
 3522SOL     OW11464   3.138   5.358   2.181
 3522SOL    HW111465   3.172   5.348   2.087
 3522SOL    HW211466   3.102   5.451   2.194
 3523SOL     OW11467   3.140   4.626   5.288
 3523SOL    HW111468   3.069   4.575   5.240
 3523SOL    HW211469   3.136   4.722   5.261
 3524SOL     OW11470   2.782   0.916   0.996
 3524SOL    HW111471   2.688   0.891   0.973
 3524SOL    HW211472   2.818   0.979   0.927
 3525SOL     OW11473   0.588   3.125   2.044
 3525SOL    HW111474   0.664   3.151   2.104
 3525SOL    HW211475   0.614   3.140   1.949
 3526SOL     OW11476   1.487   0.623   4.100
 3526SOL    HW111477   1.415   0.581   4.155
 3526SOL    HW211478   1.457   0.713   4.068
 3527SOL     OW11479   5.042   2.781   5.795
 3527SOL    HW111480   5.096   2.710   5.750
 3527SOL    HW211481   5.076   2.871   5.766
 3528SOL     OW11482   0.882   6.152   3.255
 3528SOL    HW111483   0.867   6.119   3.348
 3528SOL    HW211484   0.934   6.237   3.258
 3529SOL     OW11485   4.069   6.645   5.689
 3529SOL    HW111486   4.008   6.573   5.723
 3529SOL    HW211487   4.110   6.617   5.603
 3530SOL     OW11488   2.553   5.839   2.836
 3530SOL    HW111489   2.495   5.770   2.879
 3530SOL    HW211490   2.644   5.800   2.820
 3531SOL     OW11491   5.759   3.854   0.390
 3531SOL    HW111492   5.851   3.892   0.379
 3531SOL    HW211493   5.691   3.922   0.362
 3532SOL     OW11494   2.572   0.741   0.072
 3532SOL    HW111495   2.645   0.739   0.140
 3532SOL    HW211496   2.583   0.664   0.009
 3533SOL     OW11497   1.372   2.164   3.420
 3533SOL    HW111498   1.412   2.229   3.483
 3533SOL    HW211499   1.273   2.176   3.417
 3534SOL     OW11500   5.818   1.798   5.351
 3534SOL    HW111501   5.727   1.830   5.378
 3534SOL    HW211502   5.827   1.804   5.251
 3535SOL     OW11503   6.803   6.083   0.101
 3535SOL    HW111504   6.869   6.034   0.045
 3535SOL    HW211505   6.720   6.100   0.047
 3536SOL     OW11506   1.698   3.455   3.188
 3536SOL    HW111507   1.616   3.405   3.161
 3536SOL    HW211508   1.689   3.486   3.283
 3537SOL     OW11509   2.468   4.761   0.994
 3537SOL    HW111510   2.405   4.831   0.959
 3537SOL    HW211511   2.497   4.703   0.918
 3538SOL     OW11512   3.408   0.894   3.989
 3538SOL    HW111513   3.374   0.983   4.020
 3538SOL    HW211514   3.335   0.846   3.941
 3539SOL     OW11515   6.125   3.495   5.539
 3539SOL    HW111516   6.206   3.546   5.510
 3539SOL    HW211517   6.152   3.425   5.605
 3540SOL     OW11518   1.871   3.437   6.719
 3540SOL    HW111519   1.893   3.396   6.631
 3540SOL    HW211520   1.781   3.481   6.713
 3541SOL     OW11521   2.846   2.761   0.497
 3541SOL    HW111522   2.761   2.814   0.491
 3541SOL    HW211523   2.868   2.722   0.408
 3542SOL     OW11524   5.714   2.360   0.178
 3542SOL    HW111525   5.642   2.425   0.205
 3542SOL    HW211526   5.704   2.339   0.080
 3543SOL     OW11527   1.313   3.522   3.234
 3543SOL    HW111528   1.376   3.599   3.248
 3543SOL    HW211529   1.222   3.548   3.266
 3544SOL     OW11530   3.147   4.502   0.075
 3544SOL    HW111531   3.070   4.439   0.082
 3544SOL    HW211532   3.209   4.470   0.003
 3545SOL     OW11533   3.786   5.179   0.283
 3545SOL    HW111534   3.729   5.099   0.302
 3545SOL    HW211535   3.878   5.150   0.256
 3546SOL     OW11536   6.591   4.423   3.150
 3546SOL    HW111537   6.662   4.384   3.092
 3546SOL    HW211538   6.501   4.403   3.111
 3547SOL     OW11539   6.744   2.995   4.391
 3547SOL    HW111540   6.716   3.015   4.297
 3547SOL    HW211541   6.769   3.081   4.437
 3548SOL     OW11542   4.899   1.328   5.782
 3548SOL    HW111543   4.914   1.395   5.709
 3548SOL    HW211544   4.886   1.375   5.869
 3549SOL     OW11545   2.223   5.204   6.612
 3549SOL    HW111546   2.311   5.158   6.602
 3549SOL    HW211547   2.239   5.301   6.633
 3550SOL     OW11548   5.656   2.484   5.182
 3550SOL    HW111549   5.673   2.428   5.102
 3550SOL    HW211550   5.571   2.454   5.227
 3551SOL     OW11551   3.358   1.716   5.157
 3551SOL    HW111552   3.286   1.674   5.212
 3551SOL    HW211553   3.355   1.815   5.168
 3552SOL     OW11554   6.476   5.729   2.065
 3552SOL    HW111555   6.377   5.717   2.077
 3552SOL    HW211556   6.504   5.815   2.107
 3553SOL     OW11557   3.114   5.853   6.200
 3553SOL    HW111558   3.072   5.937   6.233
 3553SOL    HW211559   3.052   5.776   6.214
 3554SOL     OW11560   3.691   3.863   0.880
 3554SOL    HW111561   3.744   3.904   0.954
 3554SOL    HW211562   3.751   3.847   0.801
 3555SOL     OW11563   2.126   2.441   4.442
 3555SOL    HW111564   2.130   2.541   4.452
 3555SOL    HW211565   2.197   2.411   4.378
 3556SOL     OW11566   3.781   0.993   4.724
 3556SOL    HW111567   3.858   1.057   4.724
 3556SOL    HW211568   3.812   0.903   4.692
 3557SOL     OW11569   0.516   0.150   2.604
 3557SOL    HW111570   0.454   0.122   2.677
 3557SOL    HW211571   0.500   0.247   2.583
 3558SOL     OW11572   2.440   5.853   0.711
 3558SOL    HW111573   2.382   5.856   0.792
 3558SOL    HW211574   2.480   5.762   0.702
 3559SOL     OW11575   2.794   6.999   4.836
 3559SOL    HW111576   2.733   6.979   4.913
 3559SOL    HW211577   2.738   7.018   4.755
 3560SOL     OW11578   1.449   4.889   4.219
 3560SOL    HW111579   1.458   4.939   4.305
 3560SOL    HW211580   1.440   4.791   4.237
 3561SOL     OW11581   5.844   4.306   5.582
 3561SOL    HW111582   5.810   4.373   5.648
 3561SOL    HW211583   5.767   4.254   5.544
 3562SOL     OW11584   3.531   1.532   4.065
 3562SOL    HW111585   3.447   1.501   4.109
 3562SOL    HW211586   3.602   1.463   4.076
 3563SOL     OW11587   6.015   2.513   6.293
 3563SOL    HW111588   5.980   2.484   6.382
 3563SOL    HW211589   6.056   2.435   6.245
 3564SOL     OW11590   0.398   4.881   2.627
 3564SOL    HW111591   0.468   4.952   2.630
 3564SOL    HW211592   0.342   4.885   2.709
 3565SOL     OW11593   3.645   5.033   2.817
 3565SOL    HW111594   3.588   4.977   2.757
 3565SOL    HW211595   3.691   4.975   2.884
 3566SOL     OW11596   6.824   1.045   5.498
 3566SOL    HW111597   6.772   0.993   5.566
 3566SOL    HW211598   6.761   1.092   5.436
 3567SOL     OW11599   0.263   2.982   6.304
 3567SOL    HW111600   0.256   2.917   6.228
 3567SOL    HW211601   0.336   3.048   6.286
 3568SOL     OW11602   6.786   4.110   5.829
 3568SOL    HW111603   6.705   4.164   5.805
 3568SOL    HW211604   6.797   4.036   5.763
 3569SOL     OW11605   2.026   1.854   5.291
 3569SOL    HW111606   2.028   1.810   5.201
 3569SOL    HW211607   2.117   1.850   5.332
 3570SOL     OW11608   5.014   0.319   5.923
 3570SOL    HW111609   5.046   0.225   5.938
 3570SOL    HW211610   4.997   0.362   6.011
 3571SOL     OW11611   0.385   5.448   6.933
 3571SOL    HW111612   0.292   5.463   6.900
 3571SOL    HW211613   0.388   5.464   0.008
 3572SOL     OW11614   5.555   3.932   4.087
 3572SOL    HW111615   5.636   3.980   4.121
 3572SOL    HW211616   5.559   3.836   4.114
 3573SOL     OW11617   0.710   4.310   4.338
 3573SOL    HW111618   0.794   4.356   4.312
 3573SOL    HW211619   0.731   4.224   4.384
 3574SOL     OW11620   0.530   4.783   0.145
 3574SOL    HW111621   0.628   4.801   0.133
 3574SOL    HW211622   0.505   4.701   0.094
 3575SOL     OW11623   5.365   4.842   3.539
 3575SOL    HW111624   5.386   4.884   3.450
 3575SOL    HW211625   5.380   4.909   3.612
 3576SOL     OW11626   1.798   1.818   5.836
 3576SOL    HW111627   1.868   1.826   5.765
 3576SOL    HW211628   1.710   1.800   5.794
 3577SOL     OW11629   1.647   2.396   6.669
 3577SOL    HW111630   1.646   2.470   6.601
 3577SOL    HW211631   1.701   2.320   6.633
 3578SOL     OW11632   3.567   3.424   6.809
 3578SOL    HW111633   3.578   3.507   6.864
 3578SOL    HW211634   3.656   3.396   6.774
 3579SOL     OW11635   0.102   3.697   4.556
 3579SOL    HW111636   0.090   3.648   4.470
 3579SOL    HW211637   0.170   3.650   4.613
 3580SOL     OW11638   6.166   1.790   1.462
 3580SOL    HW111639   6.081   1.773   1.512
 3580SOL    HW211640   6.235   1.723   1.490
 3581SOL     OW11641   6.464   0.814   3.732
 3581SOL    HW111642   6.519   0.730   3.734
 3581SOL    HW211643   6.374   0.795   3.771
 3582SOL     OW11644   0.514   2.717   6.196
 3582SOL    HW111645   0.442   2.731   6.263
 3582SOL    HW211646   0.584   2.657   6.235
 3583SOL     OW11647   0.703   4.176   6.715
 3583SOL    HW111648   0.741   4.136   6.631
 3583SOL    HW211649   0.714   4.112   6.791
 3584SOL     OW11650   6.167   6.079   6.387
 3584SOL    HW111651   6.080   6.104   6.346
 3584SOL    HW211652   6.204   6.156   6.439
 3585SOL     OW11653   3.547   5.382   5.404
 3585SOL    HW111654   3.509   5.315   5.468
 3585SOL    HW211655   3.497   5.468   5.412
 3586SOL     OW11656   6.822   2.395   5.539
 3586SOL    HW111657   6.751   2.402   5.469
 3586SOL    HW211658   6.860   2.486   5.557
 3587SOL     OW11659   2.639   5.438   0.265
 3587SOL    HW111660   2.715   5.495   0.297
 3587SOL    HW211661   2.671   5.375   0.195
 3588SOL     OW11662   0.964   3.054   5.699
 3588SOL    HW111663   0.904   2.975   5.707
 3588SOL    HW211664   1.052   3.026   5.660
 3589SOL     OW11665   3.776   0.996   4.042
 3589SOL    HW111666   3.704   0.961   4.102
 3589SOL    HW211667   3.849   1.036   4.098
 3590SOL     OW11668   6.950   4.330   6.388
 3590SOL    HW111669   6.903   4.268   6.451
 3590SOL    HW211670   6.884   4.391   6.346
 3591SOL     OW11671   4.919   3.692   6.779
 3591SOL    HW111672   4.823   3.706   6.757
 3591SOL    HW211673   4.950   3.605   6.742
 3592SOL     OW11674   5.480   3.783   3.240
 3592SOL    HW111675   5.527   3.813   3.323
 3592SOL    HW211676   5.386   3.757   3.262
 3593SOL     OW11677   2.271   6.390   4.539
 3593SOL    HW111678   2.196   6.358   4.597
 3593SOL    HW211679   2.346   6.325   4.544
 3594SOL     OW11680   3.901   0.758   2.300
 3594SOL    HW111681   3.894   0.665   2.263
 3594SOL    HW211682   3.962   0.757   2.380
 3595SOL     OW11683   1.929   6.170   6.400
 3595SOL    HW111684   1.992   6.103   6.361
 3595SOL    HW211685   1.835   6.137   6.392
 3596SOL     OW11686   6.884   1.909   3.074
 3596SOL    HW111687   6.854   1.815   3.056
 3596SOL    HW211688   6.811   1.973   3.050
 3597SOL     OW11689   2.751   6.676   5.016
 3597SOL    HW111690   2.824   6.612   5.040
 3597SOL    HW211691   2.744   6.747   5.087
 3598SOL     OW11692   1.523   0.439   5.512
 3598SOL    HW111693   1.618   0.456   5.540
 3598SOL    HW211694   1.523   0.372   5.438
 3599SOL     OW11695   0.757   1.987   5.439
 3599SOL    HW111696   0.724   1.993   5.345
 3599SOL    HW211697   0.798   2.075   5.465
 3600SOL     OW11698   6.914   3.543   1.082
 3600SOL    HW111699   6.990   3.493   1.043
 3600SOL    HW211700   6.828   3.511   1.042
 3601SOL     OW11701   6.461   4.017   0.540
 3601SOL    HW111702   6.482   4.074   0.460
 3601SOL    HW211703   6.488   4.065   0.623
 3602SOL     OW11704   1.819   1.388   1.280
 3602SOL    HW111705   1.838   1.298   1.319
 3602SOL    HW211706   1.905   1.431   1.253
 3603SOL     OW11707   3.290   6.547   3.811
 3603SOL    HW111708   3.358   6.510   3.748
 3603SOL    HW211709   3.269   6.641   3.785
 3604SOL     OW11710   6.389   4.774   3.802
 3604SOL    HW111711   6.376   4.744   3.897
 3604SOL    HW211712   6.352   4.705   3.741
 3605SOL     OW11713   6.132   4.737   5.918
 3605SOL    HW111714   6.089   4.758   5.830
 3605SOL    HW211715   6.150   4.639   5.924
 3606SOL     OW11716   6.523   5.073   5.607
 3606SOL    HW111717   6.618   5.103   5.595
 3606SOL    HW211718   6.465   5.151   5.629
 3607SOL     OW11719   5.236   6.668   0.747
 3607SOL    HW111720   5.272   6.748   0.794
 3607SOL    HW211721   5.229   6.592   0.811
 3608SOL     OW11722   6.993   1.763   1.985
 3608SOL    HW111723   6.900   1.757   1.950
 3608SOL    HW211724   6.995   1.733   2.080
 3609SOL     OW11725   0.114   0.405   4.215
 3609SOL    HW111726   0.202   0.374   4.251
 3609SOL    HW211727   0.084   0.344   4.142
 3610SOL     OW11728   0.666   0.376   5.472
 3610SOL    HW111729   0.709   0.444   5.532
 3610SOL    HW211730   0.650   0.416   5.382
 3611SOL     OW11731   3.778   5.195   5.516
 3611SOL    HW111732   3.683   5.163   5.513
 3611SOL    HW211733   3.825   5.166   5.432
 3612SOL     OW11734   6.440   0.177   5.659
 3612SOL    HW111735   6.358   0.174   5.602
 3612SOL    HW211736   6.506   0.110   5.626
 3613SOL     OW11737   5.500   5.044   1.109
 3613SOL    HW111738   5.509   5.125   1.168
 3613SOL    HW211739   5.573   5.044   1.041
 3614SOL     OW11740   3.540   3.276   3.677
 3614SOL    HW111741   3.446   3.257   3.649
 3614SOL    HW211742   3.569   3.364   3.638
 3615SOL     OW11743   5.924   6.448   6.024
 3615SOL    HW111744   5.934   6.475   6.120
 3615SOL    HW211745   5.837   6.482   5.989
 3616SOL     OW11746   6.812   1.669   6.266
 3616SOL    HW111747   6.796   1.602   6.338
 3616SOL    HW211748   6.794   1.761   6.300
 3617SOL     OW11749   5.440   1.248   6.594
 3617SOL    HW111750   5.386   1.208   6.520
 3617SOL    HW211751   5.442   1.347   6.584
 3618SOL     OW11752   1.665   2.022   5.463
 3618SOL    HW111753   1.763   2.039   5.449
 3618SOL    HW211754   1.637   1.942   5.411
 3619SOL     OW11755   5.926   2.443   3.912
 3619SOL    HW111756   5.959   2.388   3.835
 3619SOL    HW211757   5.848   2.498   3.883
 3620SOL     OW11758   6.085   5.471   5.839
 3620SOL    HW111759   6.122   5.547   5.893
 3620SOL    HW211760   6.143   5.457   5.759
 3621SOL     OW11761   2.774   1.947   5.907
 3621SOL    HW111762   2.805   2.042   5.897
 3621SOL    HW211763   2.716   1.923   5.829
 3622SOL     OW11764   2.795   2.056   3.191
 3622SOL    HW111765   2.769   1.985   3.256
 3622SOL    HW211766   2.860   2.019   3.125
 3623SOL     OW11767   5.725   6.030   3.926
 3623SOL    HW111768   5.786   6.092   3.877
 3623SOL    HW211769   5.751   5.935   3.908
 3624SOL     OW11770   2.042   0.220   2.521
 3624SOL    HW111771   1.998   0.139   2.559
 3624SOL    HW211772   2.026   0.298   2.582
 3625SOL     OW11773   5.941   3.214   6.933
 3625SOL    HW111774   5.939   3.283   6.860
 3625SOL    HW211775   5.953   3.259   7.021
 3626SOL     OW11776   1.695   3.600   5.294
 3626SOL    HW111777   1.774   3.604   5.232
 3626SOL    HW211778   1.723   3.631   5.385
 3627SOL     OW11779   3.808   3.098   3.626
 3627SOL    HW111780   3.811   3.198   3.623
 3627SOL    HW211781   3.751   3.064   3.551
 3628SOL     OW11782   1.941   6.900   1.373
 3628SOL    HW111783   1.947   6.951   1.459
 3628SOL    HW211784   1.995   6.816   1.380
 3629SOL     OW11785   6.611   1.990   3.996
 3629SOL    HW111786   6.516   1.964   3.980
 3629SOL    HW211787   6.664   1.980   3.912
 3630SOL     OW11788   5.555   3.141   3.174
 3630SOL    HW111789   5.463   3.159   3.209
 3630SOL    HW211790   5.622   3.154   3.248
 3631SOL     OW11791   2.048   6.869   3.997
 3631SOL    HW111792   1.949   6.856   3.984
 3631SOL    HW211793   2.064   6.914   4.085
 3632SOL     OW11794   5.277   0.485   0.681
 3632SOL    HW111795   5.301   0.581   0.691
 3632SOL    HW211796   5.267   0.444   0.772
 3633SOL     OW11797   3.345   1.280   5.968
 3633SOL    HW111798   3.376   1.371   5.941
 3633SOL    HW211799   3.373   1.262   6.062
 3634SOL     OW11800   0.328   5.099   5.471
 3634SOL    HW111801   0.345   5.040   5.550
 3634SOL    HW211802   0.414   5.117   5.424
 3635SOL     OW11803   2.680   0.251   6.154
 3635SOL    HW111804   2.739   0.260   6.234
 3635SOL    HW211805   2.718   0.182   6.092
 3636SOL     OW11806   1.076   5.815   6.557
 3636SOL    HW111807   1.029   5.767   6.630
 3636SOL    HW211808   1.010   5.841   6.486
 3637SOL     OW11809   6.441   2.209   1.405
 3637SOL    HW111810   6.521   2.265   1.424
 3637SOL    HW211811   6.393   2.245   1.325
 3638SOL     OW11812   0.169   4.287   4.057
 3638SOL    HW111813   0.081   4.304   4.102
 3638SOL    HW211814   0.207   4.200   4.089
 3639SOL     OW11815   3.910   3.598   0.743
 3639SOL    HW111816   3.917   3.504   0.710
 3639SOL    HW211817   3.902   3.598   0.843
 3640SOL     OW11818   3.829   6.955   6.800
 3640SOL    HW111819   3.824   0.030   6.818
 3640SOL    HW211820   3.745   6.911   6.832
 3641SOL     OW11821   4.754   2.860   3.983
 3641SOL    HW111822   4.658   2.847   4.007
 3641SOL    HW211823   4.768   2.838   3.887
 3642SOL     OW11824   5.119   0.957   0.159
 3642SOL    HW111825   5.031   0.987   0.196
 3642SOL    HW211826   5.136   1.002   0.072
 3643SOL     OW11827   2.918   5.545   4.764
 3643SOL    HW111828   2.885   5.461   4.806
 3643SOL    HW211829   2.914   5.536   4.664
 3644SOL     OW11830   6.947   1.318   1.590
 3644SOL    HW111831   7.021   1.256   1.614
 3644SOL    HW211832   6.957   1.403   1.641
 3645SOL     OW11833   6.590   1.459   3.899
 3645SOL    HW111834   6.638   1.544   3.877
 3645SOL    HW211835   6.493   1.469   3.879
 3646SOL     OW11836   6.548   4.453   6.504
 3646SOL    HW111837   6.558   4.354   6.492
 3646SOL    HW211838   6.581   4.500   6.422
 3647SOL     OW11839   2.290   3.507   0.388
 3647SOL    HW111840   2.226   3.506   0.311
 3647SOL    HW211841   2.310   3.601   0.414
 3648SOL     OW11842   3.170   5.193   3.205
 3648SOL    HW111843   3.266   5.202   3.232
 3648SOL    HW211844   3.137   5.281   3.171
 3649SOL     OW11845   4.770   3.092   1.653
 3649SOL    HW111846   4.718   3.086   1.738
 3649SOL    HW211847   4.707   3.088   1.576
 3650SOL     OW11848   7.022   5.014   7.011
 3650SOL    HW111849   0.075   5.026   0.051
 3650SOL    HW211850   6.996   5.102   6.972
 3651SOL     OW11851   0.567   6.203   3.323
 3651SOL    HW111852   0.667   6.203   3.331
 3651SOL    HW211853   0.535   6.112   3.295
 3652SOL     OW11854   5.876   6.224   3.314
 3652SOL    HW111855   5.970   6.213   3.280
 3652SOL    HW211856   5.866   6.315   3.353
 3653SOL     OW11857   0.193   0.680   3.620
 3653SOL    HW111858   0.206   0.733   3.704
 3653SOL    HW211859   0.096   0.673   3.599
 3654SOL     OW11860   2.138   6.238   0.472
 3654SOL    HW111861   2.051   6.284   0.457
 3654SOL    HW211862   2.126   6.139   0.463
 3655SOL     OW11863   1.306   0.043   3.526
 3655SOL    HW111864   1.344   0.125   3.483
 3655SOL    HW211865   1.380   7.003   3.547
 3656SOL     OW11866   1.244   3.452   1.980
 3656SOL    HW111867   1.244   3.534   2.038
 3656SOL    HW211868   1.211   3.477   1.889
 3657SOL     OW11869   5.372   5.730   6.318
 3657SOL    HW111870   5.396   5.716   6.222
 3657SOL    HW211871   5.322   5.650   6.352
 3658SOL     OW11872   1.602   5.960   3.929
 3658SOL    HW111873   1.662   6.015   3.987
 3658SOL    HW211874   1.605   5.994   3.835
 3659SOL     OW11875   2.168   3.308   6.039
 3659SOL    HW111876   2.162   3.406   6.022
 3659SOL    HW211877   2.223   3.265   5.967
 3660SOL     OW11878   4.762   0.045   3.012
 3660SOL    HW111879   4.791   0.028   3.106
 3660SOL    HW211880   4.730   0.139   3.003
 3661SOL     OW11881   4.903   1.834   5.592
 3661SOL    HW111882   4.867   1.790   5.510
 3661SOL    HW211883   4.856   1.798   5.673
 3662SOL     OW11884   4.569   0.753   3.348
 3662SOL    HW111885   4.527   0.832   3.305
 3662SOL    HW211886   4.514   0.671   3.330
 3663SOL     OW11887   2.253   1.882   0.532
 3663SOL    HW111888   2.278   1.916   0.622
 3663SOL    HW211889   2.196   1.949   0.485
 3664SOL     OW11890   4.431   2.261   1.398
 3664SOL    HW111891   4.518   2.215   1.383
 3664SOL    HW211892   4.358   2.193   1.406
 3665SOL     OW11893   1.326   6.118   5.765
 3665SOL    HW111894   1.265   6.041   5.745
 3665SOL    HW211895   1.326   6.135   5.863
 3666SOL     OW11896   2.161   3.902   2.925
 3666SOL    HW111897   2.194   3.958   3.001
 3666SOL    HW211898   2.211   3.927   2.842
 3667SOL     OW11899   6.877   0.882   0.602
 3667SOL    HW111900   6.876   0.974   0.642
 3667SOL    HW211901   6.909   0.817   0.671
 3668SOL     OW11902   1.712   0.814   2.308
 3668SOL    HW111903   1.748   0.812   2.215
 3668SOL    HW211904   1.661   0.899   2.322
 3669SOL     OW11905   6.188   1.233   3.858
 3669SOL    HW111906   6.147   1.154   3.811
 3669SOL    HW211907   6.217   1.206   3.950
 3670SOL     OW11908   2.436   4.181   0.390
 3670SOL    HW111909   2.394   4.269   0.412
 3670SOL    HW211910   2.471   4.139   0.474
 3671SOL     OW11911   6.366   0.267   3.993
 3671SOL    HW111912   6.393   0.184   3.945
 3671SOL    HW211913   6.283   0.249   4.047
 3672SOL     OW11914   5.481   2.334   1.812
 3672SOL    HW111915   5.476   2.375   1.721
 3672SOL    HW211916   5.437   2.395   1.878
 3673SOL     OW11917   3.517   6.931   6.160
 3673SOL    HW111918   3.587   6.982   6.210
 3673SOL    HW211919   3.511   6.966   6.067
 3674SOL     OW11920   0.289   7.017   4.908
 3674SOL    HW111921   0.298   0.025   5.002
 3674SOL    HW211922   0.193   7.020   4.881
 3675SOL     OW11923   1.573   3.040   4.998
 3675SOL    HW111924   1.562   3.082   5.088
 3675SOL    HW211925   1.648   3.085   4.949
 3676SOL     OW11926   4.868   4.607   4.627
 3676SOL    HW111927   4.935   4.533   4.615
 3676SOL    HW211928   4.873   4.642   4.720
 3677SOL     OW11929   1.755   6.660   3.288
 3677SOL    HW111930   1.764   6.613   3.200
 3677SOL    HW211931   1.780   6.596   3.362
 3678SOL     OW11932   1.188   3.625   4.110
 3678SOL    HW111933   1.094   3.636   4.078
 3678SOL    HW211934   1.238   3.711   4.098
 3679SOL     OW11935   2.037   0.411   3.357
 3679SOL    HW111936   2.071   0.386   3.447
 3679SOL    HW211937   2.035   0.331   3.298
 3680SOL     OW11938   5.591   2.249   3.175
 3680SOL    HW111939   5.568   2.343   3.151
 3680SOL    HW211940   5.686   2.243   3.205
 3681SOL     OW11941   0.901   0.905   4.908
 3681SOL    HW111942   0.840   0.955   4.846
 3681SOL    HW211943   0.961   0.970   4.954
 3682SOL     OW11944   5.105   2.342   0.025
 3682SOL    HW111945   5.082   2.245   0.026
 3682SOL    HW211946   5.062   2.387   0.104
 3683SOL     OW11947   6.717   6.782   3.371
 3683SOL    HW111948   6.731   6.876   3.403
 3683SOL    HW211949   6.663   6.784   3.287
 3684SOL     OW11950   1.366   3.969   6.895
 3684SOL    HW111951   1.452   4.015   6.873
 3684SOL    HW211952   1.379   3.913   6.977
 3685SOL     OW11953   6.650   6.683   6.481
 3685SOL    HW111954   6.700   6.646   6.402
 3685SOL    HW211955   6.707   6.675   6.563
 3686SOL     OW11956   6.177   6.205   3.302
 3686SOL    HW111957   6.187   6.202   3.401
 3686SOL    HW211958   6.267   6.208   3.259
 3687SOL     OW11959   3.726   6.191   5.564
 3687SOL    HW111960   3.811   6.150   5.529
 3687SOL    HW211961   3.648   6.140   5.530
 3688SOL     OW11962   0.463   3.344   6.427
 3688SOL    HW111963   0.445   3.273   6.495
 3688SOL    HW211964   0.437   3.310   6.337
 3689SOL     OW11965   1.901   0.755   6.993
 3689SOL    HW111966   1.837   0.679   6.982
 3689SOL    HW211967   1.883   0.802   0.056
 3690SOL     OW11968   4.197   7.007   6.599
 3690SOL    HW111969   4.280   0.022   6.641
 3690SOL    HW211970   4.142   6.962   6.669
 3691SOL     OW11971   2.820   2.193   0.097
 3691SOL    HW111972   2.846   2.170   0.190
 3691SOL    HW211973   2.771   2.281   0.096
 3692SOL     OW11974   0.655   6.071   4.944
 3692SOL    HW111975   0.631   5.976   4.960
 3692SOL    HW211976   0.717   6.077   4.866
 3693SOL     OW11977   2.324   2.764   2.707
 3693SOL    HW111978   2.412   2.717   2.716
 3693SOL    HW211979   2.302   2.774   2.610
 3694SOL     OW11980   1.583   5.435   2.674
 3694SOL    HW111981   1.577   5.390   2.763
 3694SOL    HW211982   1.549   5.374   2.603
 3695SOL     OW11983   6.014   2.810   2.491
 3695SOL    HW111984   6.099   2.858   2.470
 3695SOL    HW211985   6.033   2.712   2.498
 3696SOL     OW11986   2.817   5.926   5.237
 3696SOL    HW111987   2.742   5.865   5.211
 3696SOL    HW211988   2.850   5.975   5.156
 3697SOL     OW11989   0.340   6.137   3.604
 3697SOL    HW111990   0.311   6.226   3.641
 3697SOL    HW211991   0.436   6.121   3.626
 3698SOL     OW11992   2.649   6.988   5.064
 3698SOL    HW111993   2.646   0.064   5.070
 3698SOL    HW211994   2.686   6.949   5.148
 3699SOL     OW11995   0.184   3.163   3.282
 3699SOL    HW111996   0.115   3.204   3.222
 3699SOL    HW211997   0.207   3.071   3.249
 3700SOL     OW11998   6.963   0.288   4.465
 3700SOL    HW111999   6.888   0.254   4.521
 3700SOL    HW212000   7.001   0.370   4.508
 3701SOL     OW12001   0.821   0.489   3.465
 3701SOL    HW112002   0.732   0.480   3.510
 3701SOL    HW212003   0.809   0.539   3.379
 3702SOL     OW12004   5.459   6.406   2.391
 3702SOL    HW112005   5.416   6.381   2.477
 3702SOL    HW212006   5.411   6.484   2.350
 3703SOL     OW12007   4.463   1.864   6.515
 3703SOL    HW112008   4.479   1.796   6.586
 3703SOL    HW212009   4.547   1.915   6.498
 3704SOL     OW12010   3.518   1.264   0.924
 3704SOL    HW112011   3.615   1.281   0.938
 3704SOL    HW212012   3.470   1.352   0.917
 3705SOL     OW12013   5.102   5.465   3.697
 3705SOL    HW112014   5.016   5.465   3.647
 3705SOL    HW212015   5.112   5.551   3.747
 3706SOL     OW12016   1.487   3.679   5.081
 3706SOL    HW112017   1.389   3.664   5.098
 3706SOL    HW212018   1.538   3.664   5.166
 3707SOL     OW12019   6.041   3.856   5.318
 3707SOL    HW112020   5.948   3.892   5.307
 3707SOL    HW212021   6.053   3.776   5.259
 3708SOL     OW12022   6.292   0.556   5.888
 3708SOL    HW112023   6.341   0.625   5.835
 3708SOL    HW212024   6.296   0.579   5.985
 3709SOL     OW12025   3.808   0.456   0.584
 3709SOL    HW112026   3.896   0.477   0.626
 3709SOL    HW212027   3.735   0.490   0.642
 3710SOL     OW12028   0.135   5.888   0.354
 3710SOL    HW112029   0.140   5.969   0.296
 3710SOL    HW212030   0.084   5.816   0.307
 3711SOL     OW12031   6.712   6.642   2.149
 3711SOL    HW112032   6.630   6.616   2.199
 3711SOL    HW212033   6.792   6.631   2.207
 3712SOL     OW12034   6.843   6.504   0.050
 3712SOL    HW112035   6.881   6.415   0.026
 3712SOL    HW212036   6.745   6.506   0.028
 3713SOL     OW12037   1.822   6.247   4.644
 3713SOL    HW112038   1.824   6.208   4.736
 3713SOL    HW212039   1.781   6.180   4.580
 3714SOL     OW12040   4.576   5.299   5.543
 3714SOL    HW112041   4.599   5.387   5.584
 3714SOL    HW212042   4.490   5.306   5.493
 3715SOL     OW12043   5.910   3.828   3.258
 3715SOL    HW112044   5.877   3.775   3.336
 3715SOL    HW212045   5.947   3.766   3.189
 3716SOL     OW12046   6.026   6.273   5.309
 3716SOL    HW112047   6.097   6.237   5.250
 3716SOL    HW212048   6.001   6.204   5.377
 3717SOL     OW12049   5.771   5.397   6.135
 3717SOL    HW112050   5.836   5.394   6.059
 3717SOL    HW212051   5.678   5.391   6.100
 3718SOL     OW12052   1.951   0.543   6.530
 3718SOL    HW112053   1.874   0.481   6.544
 3718SOL    HW212054   1.952   0.574   6.435
 3719SOL     OW12055   5.427   4.562   0.756
 3719SOL    HW112056   5.519   4.554   0.794
 3719SOL    HW212057   5.433   4.580   0.658
 3720SOL     OW12058   6.373   1.993   5.500
 3720SOL    HW112059   6.421   2.032   5.421
 3720SOL    HW212060   6.278   2.022   5.499
 3721SOL     OW12061   5.286   4.653   1.195
 3721SOL    HW112062   5.337   4.581   1.149
 3721SOL    HW212063   5.189   4.647   1.170
 3722SOL     OW12064   6.112   6.919   1.818
 3722SOL    HW112065   6.109   6.868   1.732
 3722SOL    HW212066   6.039   6.887   1.878
 3723SOL     OW12067   6.033   6.245   1.722
 3723SOL    HW112068   5.943   6.229   1.761
 3723SOL    HW212069   6.055   6.343   1.727
 3724SOL     OW12070   1.677   5.288   5.820
 3724SOL    HW112071   1.638   5.318   5.907
 3724SOL    HW212072   1.738   5.210   5.836
 3725SOL     OW12073   5.508   5.902   0.527
 3725SOL    HW112074   5.488   5.818   0.577
 3725SOL    HW212075   5.431   5.924   0.466
 3726SOL     OW12076   6.495   5.629   0.745
 3726SOL    HW112077   6.440   5.702   0.787
 3726SOL    HW212078   6.481   5.544   0.796
 3727SOL     OW12079   6.710   2.615   6.184
 3727SOL    HW112080   6.779   2.611   6.257
 3727SOL    HW212081   6.755   2.634   6.097
 3728SOL     OW12082   1.532   3.937   0.410
 3728SOL    HW112083   1.595   3.952   0.334
 3728SOL    HW212084   1.469   4.014   0.417
 3729SOL     OW12085   1.374   2.305   3.934
 3729SOL    HW112086   1.298   2.370   3.929
 3729SOL    HW212087   1.341   2.220   3.976
 3730SOL     OW12088   2.519   5.242   6.304
 3730SOL    HW112089   2.438   5.302   6.308
 3730SOL    HW212090   2.545   5.228   6.209
 3731SOL     OW12091   4.528   0.246   1.126
 3731SOL    HW112092   4.482   0.297   1.053
 3731SOL    HW212093   4.459   0.197   1.180
 3732SOL     OW12094   1.510   2.167   6.401
 3732SOL    HW112095   1.445   2.146   6.474
 3732SOL    HW212096   1.602   2.136   6.428
 3733SOL     OW12097   1.493   3.562   1.674
 3733SOL    HW112098   1.542   3.606   1.749
 3733SOL    HW212099   1.415   3.619   1.647
 3734SOL     OW12100   4.626   1.197   1.734
 3734SOL    HW112101   4.718   1.233   1.720
 3734SOL    HW212102   4.623   1.146   1.821
 3735SOL     OW12103   2.143   0.911   3.271
 3735SOL    HW112104   2.157   0.899   3.173
 3735SOL    HW212105   2.126   0.821   3.313
 3736SOL     OW12106   6.610   2.578   1.067
 3736SOL    HW112107   6.513   2.552   1.067
 3736SOL    HW212108   6.622   2.658   1.009
 3737SOL     OW12109   5.009   0.821   3.680
 3737SOL    HW112110   4.919   0.777   3.679
 3737SOL    HW212111   5.035   0.846   3.586
 3738SOL     OW12112   0.064   5.729   2.174
 3738SOL    HW112113   0.116   5.668   2.114
 3738SOL    HW212114   0.076   5.700   2.269
 3739SOL     OW12115   2.258   4.528   1.376
 3739SOL    HW112116   2.335   4.565   1.324
 3739SOL    HW212117   2.232   4.592   1.448
 3740SOL     OW12118   5.284   0.095   0.345
 3740SOL    HW112119   5.253   0.185   0.314
 3740SOL    HW212120   5.208   0.030   0.340
 3741SOL     OW12121   4.723   3.115   1.190
 3741SOL    HW112122   4.698   3.206   1.156
 3741SOL    HW212123   4.683   3.102   1.281
 3742SOL     OW12124   2.457   2.056   6.327
 3742SOL    HW112125   2.543   2.061   6.276
 3742SOL    HW212126   2.443   2.141   6.378
 3743SOL     OW12127   5.278   4.120   1.036
 3743SOL    HW112128   5.333   4.039   1.013
 3743SOL    HW212129   5.197   4.123   0.977
 3744SOL     OW12130   0.538   5.911   2.898
 3744SOL    HW112131   0.500   5.831   2.945
 3744SOL    HW212132   0.627   5.934   2.938
 3745SOL     OW12133   3.599   4.891   2.542
 3745SOL    HW112134   3.652   4.826   2.488
 3745SOL    HW212135   3.635   4.983   2.527
 3746SOL     OW12136   5.028   1.616   2.841
 3746SOL    HW112137   4.990   1.530   2.806
 3746SOL    HW212138   5.108   1.596   2.898
 3747SOL     OW12139   3.113   6.997   5.698
 3747SOL    HW112140   3.061   0.013   5.774
 3747SOL    HW212141   3.137   0.046   5.633
 3748SOL     OW12142   5.198   0.541   1.710
 3748SOL    HW112143   5.202   0.640   1.695
 3748SOL    HW212144   5.271   0.513   1.772
 3749SOL     OW12145   1.620   6.692   4.177
 3749SOL    HW112146   1.521   6.685   4.185
 3749SOL    HW212147   1.661   6.683   4.268
 3750SOL     OW12148   1.541   3.933   0.796
 3750SOL    HW112149   1.615   3.999   0.808
 3750SOL    HW212150   1.576   3.841   0.815
 3751SOL     OW12151   6.472   3.348   2.359
 3751SOL    HW112152   6.521   3.268   2.394
 3751SOL    HW212153   6.536   3.409   2.312
 3752SOL     OW12154   5.217   0.591   6.718
 3752SOL    HW112155   5.198   0.670   6.660
 3752SOL    HW212156   5.258   0.518   6.664
 3753SOL     OW12157   6.215   0.682   5.271
 3753SOL    HW112158   6.235   0.650   5.364
 3753SOL    HW212159   6.247   0.777   5.261
 3754SOL     OW12160   2.269   0.531   1.721
 3754SOL    HW112161   2.339   0.463   1.700
 3754SOL    HW212162   2.272   0.552   1.819
 3755SOL     OW12163   4.252   5.201   5.095
 3755SOL    HW112164   4.322   5.272   5.093
 3755SOL    HW212165   4.175   5.229   5.038
 3756SOL     OW12166   2.396   5.782   0.027
 3756SOL    HW112167   2.483   5.827   0.009
 3756SOL    HW212168   2.330   5.848   0.061
 3757SOL     OW12169   6.010   5.132   1.810
 3757SOL    HW112170   6.014   5.213   1.868
 3757SOL    HW212171   5.986   5.052   1.866
 3758SOL     OW12172   2.157   1.134   4.124
 3758SOL    HW112173   2.086   1.066   4.143
 3758SOL    HW212174   2.196   1.166   4.211
 3759SOL     OW12175   4.692   7.019   5.211
 3759SOL    HW112176   4.734   6.928   5.215
 3759SOL    HW212177   4.753   0.062   5.255
 3760SOL     OW12178   0.799   1.746   3.745
 3760SOL    HW112179   0.778   1.793   3.831
 3760SOL    HW212180   0.866   1.674   3.762
 3761SOL     OW12181   6.249   1.127   4.871
 3761SOL    HW112182   6.310   1.191   4.825
 3761SOL    HW212183   6.264   1.131   4.970
 3762SOL     OW12184   1.732   4.040   1.357
 3762SOL    HW112185   1.694   3.985   1.431
 3762SOL    HW212186   1.719   3.993   1.270
 3763SOL     OW12187   6.541   3.834   0.310
 3763SOL    HW112188   6.469   3.770   0.335
 3763SOL    HW212189   6.578   3.877   0.392
 3764SOL     OW12190   1.721   6.535   2.683
 3764SOL    HW112191   1.703   6.634   2.684
 3764SOL    HW212192   1.802   6.516   2.737
 3765SOL     OW12193   6.262   1.408   0.816
 3765SOL    HW112194   6.255   1.422   0.915
 3765SOL    HW212195   6.357   1.393   0.790
 3766SOL     OW12196   2.240   2.622   4.177
 3766SOL    HW112197   2.251   2.720   4.159
 3766SOL    HW212198   2.329   2.577   4.170
 3767SOL     OW12199   3.197   3.834   6.288
 3767SOL    HW112200   3.097   3.841   6.279
 3767SOL    HW212201   3.220   3.751   6.338
 3768SOL     OW12202   0.527   0.182   5.086
 3768SOL    HW112203   0.560   0.091   5.063
 3768SOL    HW212204   0.430   0.178   5.108
 3769SOL     OW12205   6.399   5.505   5.162
 3769SOL    HW112206   6.414   5.494   5.064
 3769SOL    HW212207   6.442   5.589   5.194
 3770SOL     OW12208   1.187   0.961   0.079
 3770SOL    HW112209   1.202   0.896   0.154
 3770SOL    HW212210   1.206   1.054   0.111
 3771SOL     OW12211   5.727   4.514   6.410
 3771SOL    HW112212   5.791   4.439   6.395
 3771SOL    HW212213   5.701   4.517   6.507
 3772SOL     OW12214   0.455   0.405   0.082
 3772SOL    HW112215   0.498   0.380   0.168
 3772SOL    HW212216   0.524   0.411   0.010
 3773SOL     OW12217   6.907   3.104   5.494
 3773SOL    HW112218   6.933   3.200   5.507
 3773SOL    HW212219   6.913   3.080   5.397
 3774SOL     OW12220   5.611   5.490   1.787
 3774SOL    HW112221   5.645   5.582   1.772
 3774SOL    HW212222   5.583   5.481   1.883
 3775SOL     OW12223   4.037   5.038   3.758
 3775SOL    HW112224   3.946   5.042   3.719
 3775SOL    HW212225   4.034   4.986   3.844
 3776SOL     OW12226   3.875   2.474   6.493
 3776SOL    HW112227   3.871   2.527   6.409
 3776SOL    HW212228   3.827   2.523   6.566
 3777SOL     OW12229   2.230   5.764   3.942
 3777SOL    HW112230   2.204   5.826   4.015
 3777SOL    HW212231   2.285   5.689   3.979
 3778SOL     OW12232   2.393   5.749   3.487
 3778SOL    HW112233   2.400   5.849   3.483
 3778SOL    HW212234   2.368   5.713   3.397
 3779SOL     OW12235   0.749   5.134   0.962
 3779SOL    HW112236   0.829   5.146   1.020
 3779SOL    HW212237   0.680   5.203   0.983
 3780SOL     OW12238   6.579   3.815   4.230
 3780SOL    HW112239   6.577   3.722   4.193
 3780SOL    HW212240   6.624   3.814   4.320
 3781SOL     OW12241   0.527   0.338   4.190
 3781SOL    HW112242   0.506   0.425   4.146
 3781SOL    HW212243   0.452   0.314   4.253
 3782SOL     OW12244   3.347   6.937   2.601
 3782SOL    HW112245   3.290   7.004   2.555
 3782SOL    HW212246   3.330   6.846   2.562
 3783SOL     OW12247   6.789   5.787   3.836
 3783SOL    HW112248   6.847   5.811   3.913
 3783SOL    HW212249   6.793   5.859   3.767
 3784SOL     OW12250   5.373   2.804   2.593
 3784SOL    HW112251   5.283   2.844   2.607
 3784SOL    HW212252   5.430   2.868   2.540
 3785SOL     OW12253   1.651   3.424   4.700
 3785SOL    HW112254   1.673   3.509   4.747
 3785SOL    HW212255   1.666   3.347   4.761
 3786SOL     OW12256   2.352   4.223   3.303
 3786SOL    HW112257   2.330   4.126   3.292
 3786SOL    HW212258   2.353   4.267   3.214
 3787SOL     OW12259   5.610   0.678   2.272
 3787SOL    HW112260   5.565   0.733   2.202
 3787SOL    HW212261   5.693   0.726   2.303
 3788SOL     OW12262   5.995   4.292   4.980
 3788SOL    HW112263   6.007   4.391   4.983
 3788SOL    HW212264   5.966   4.265   4.888
 3789SOL     OW12265   0.143   3.824   3.208
 3789SOL    HW112266   0.170   3.920   3.209
 3789SOL    HW212267   0.060   3.812   3.263
 3790SOL     OW12268   0.569   4.610   6.300
 3790SOL    HW112269   0.640   4.576   6.361
 3790SOL    HW212270   0.607   4.681   6.241
 3791SOL     OW12271   5.675   2.003   6.613
 3791SOL    HW112272   5.658   1.935   6.542
 3791SOL    HW212273   5.701   2.089   6.571
 3792SOL     OW12274   1.318   1.661   4.487
 3792SOL    HW112275   1.242   1.605   4.453
 3792SOL    HW212276   1.287   1.715   4.565
 3793SOL     OW12277   5.060   6.354   1.641
 3793SOL    HW112278   5.114   6.345   1.725
 3793SOL    HW212279   5.116   6.391   1.568
 3794SOL     OW12280   2.755   3.109   1.716
 3794SOL    HW112281   2.735   3.011   1.718
 3794SOL    HW212282   2.669   3.160   1.714
 3795SOL     OW12283   3.924   5.482   1.181
 3795SOL    HW112284   3.958   5.551   1.245
 3795SOL    HW212285   3.859   5.423   1.227
 3796SOL     OW12286   4.132   1.982   1.679
 3796SOL    HW112287   4.146   2.003   1.776
 3796SOL    HW212288   4.055   1.918   1.670
 3797SOL     OW12289   0.900   3.656   2.930
 3797SOL    HW112290   0.858   3.566   2.937
 3797SOL    HW212291   0.851   3.710   2.862
 3798SOL     OW12292   3.026   6.621   2.385
 3798SOL    HW112293   3.028   6.522   2.369
 3798SOL    HW212294   2.969   6.665   2.316
 3799SOL     OW12295   0.194   2.420   3.572
 3799SOL    HW112296   0.276   2.431   3.515
 3799SOL    HW212297   0.125   2.369   3.521
 3800SOL     OW12298   5.107   1.980   3.853
 3800SOL    HW112299   5.062   1.984   3.764
 3800SOL    HW212300   5.117   1.884   3.881
 3801SOL     OW12301   5.761   6.680   2.215
 3801SOL    HW112302   5.757   6.600   2.275
 3801SOL    HW212303   5.674   6.729   2.220
 3802SOL     OW12304   0.629   1.313   2.082
 3802SOL    HW112305   0.588   1.399   2.052
 3802SOL    HW212306   0.691   1.331   2.158
 3803SOL     OW12307   3.955   3.475   3.380
 3803SOL    HW112308   3.858   3.466   3.358
 3803SOL    HW212309   3.992   3.557   3.337
 3804SOL     OW12310   4.096   1.429   3.644
 3804SOL    HW112311   4.040   1.480   3.577
 3804SOL    HW212312   4.044   1.351   3.678
 3805SOL     OW12313   1.848   2.456   1.905
 3805SOL    HW112314   1.867   2.481   1.811
 3805SOL    HW212315   1.749   2.449   1.918
 3806SOL     OW12316   3.278   3.713   5.614
 3806SOL    HW112317   3.311   3.807   5.618
 3806SOL    HW212318   3.302   3.674   5.525
 3807SOL     OW12319   2.336   5.180   3.843
 3807SOL    HW112320   2.342   5.105   3.909
 3807SOL    HW212321   2.412   5.243   3.856
 3808SOL     OW12322   4.216   1.165   6.950
 3808SOL    HW112323   4.193   1.260   6.968
 3808SOL    HW212324   4.175   1.136   6.863
 3809SOL     OW12325   5.278   2.826   1.262
 3809SOL    HW112326   5.311   2.912   1.302
 3809SOL    HW212327   5.355   2.777   1.220
 3810SOL     OW12328   6.091   2.753   3.351
 3810SOL    HW112329   6.181   2.730   3.390
 3810SOL    HW212330   6.034   2.795   3.421
 3811SOL     OW12331   0.162   6.418   4.675
 3811SOL    HW112332   0.171   6.319   4.670
 3811SOL    HW212333   0.211   6.452   4.756
 3812SOL     OW12334   3.423   4.466   5.635
 3812SOL    HW112335   3.327   4.492   5.623
 3812SOL    HW212336   3.469   4.535   5.691
 3813SOL     OW12337   5.772   3.832   0.657
 3813SOL    HW112338   5.737   3.824   0.564
 3813SOL    HW212339   5.808   3.925   0.671
 3814SOL     OW12340   6.955   6.707   4.564
 3814SOL    HW112341   6.880   6.737   4.506
 3814SOL    HW212342   0.019   6.739   4.526
 3815SOL     OW12343   3.935   3.273   1.061
 3815SOL    HW112344   4.029   3.240   1.063
 3815SOL    HW212345   3.888   3.238   0.981
 3816SOL     OW12346   0.893   5.029   5.961
 3816SOL    HW112347   0.970   5.043   6.023
 3816SOL    HW212348   0.808   5.057   6.005
 3817SOL     OW12349   5.165   3.976   2.362
 3817SOL    HW112350   5.234   4.047   2.373
 3817SOL    HW212351   5.106   3.999   2.285
 3818SOL     OW12352   6.786   1.154   0.919
 3818SOL    HW112353   6.698   1.107   0.906
 3818SOL    HW212354   6.785   1.241   0.869
 3819SOL     OW12355   6.216   4.678   2.868
 3819SOL    HW112356   6.216   4.737   2.788
 3819SOL    HW212357   6.138   4.616   2.864
 3820SOL     OW12358   5.758   6.934   3.787
 3820SOL    HW112359   5.678   6.882   3.817
 3820SOL    HW212360   5.729   7.021   3.749
 3821SOL     OW12361   1.423   0.685   1.702
 3821SOL    HW112362   1.450   0.607   1.646
 3821SOL    HW212363   1.444   0.667   1.798
 3822SOL     OW12364   1.834   6.843   0.026
 3822SOL    HW112365   1.746   6.868   7.010
 3822SOL    HW212366   1.844   6.743   0.025
 3823SOL     OW12367   3.907   3.376   6.203
 3823SOL    HW112368   3.837   3.331   6.258
 3823SOL    HW212369   3.910   3.334   6.112
 3824SOL     OW12370   1.051   2.384   0.505
 3824SOL    HW112371   1.106   2.383   0.588
 3824SOL    HW212372   1.037   2.478   0.475
 3825SOL     OW12373   0.811   4.808   0.083
 3825SOL    HW112374   0.805   4.888   0.143
 3825SOL    HW212375   0.896   4.759   0.102
 3826SOL     OW12376   0.026   3.737   1.288
 3826SOL    HW112377   7.005   3.682   1.217
 3826SOL    HW212378   0.026   3.686   1.375
 3827SOL     OW12379   1.081   1.086   1.660
 3827SOL    HW112380   1.068   1.041   1.571
 3827SOL    HW212381   0.997   1.131   1.688
 3828SOL     OW12382   3.493   3.776   3.969
 3828SOL    HW112383   3.451   3.708   4.029
 3828SOL    HW212384   3.469   3.868   4.001
 3829SOL     OW12385   0.388   4.800   1.717
 3829SOL    HW112386   0.325   4.874   1.736
 3829SOL    HW212387   0.337   4.718   1.690
 3830SOL     OW12388   0.539   1.439   5.797
 3830SOL    HW112389   0.550   1.357   5.853
 3830SOL    HW212390   0.626   1.462   5.753
 3831SOL     OW12391   4.438   2.466   2.290
 3831SOL    HW112392   4.465   2.537   2.354
 3831SOL    HW212393   4.503   2.390   2.296
 3832SOL     OW12394   6.846   0.452   2.262
 3832SOL    HW112395   6.873   0.548   2.256
 3832SOL    HW212396   6.864   0.418   2.354
 3833SOL     OW12397   0.325   5.889   6.405
 3833SOL    HW112398   0.408   5.892   6.349
 3833SOL    HW212399   0.269   5.970   6.386
 3834SOL     OW12400   3.725   4.475   0.611
 3834SOL    HW112401   3.680   4.559   0.641
 3834SOL    HW212402   3.667   4.427   0.546
 3835SOL     OW12403   4.102   6.083   5.096
 3835SOL    HW112404   4.187   6.031   5.092
 3835SOL    HW212405   4.115   6.164   5.154
 3836SOL     OW12406   6.801   5.365   5.869
 3836SOL    HW112407   6.751   5.283   5.895
 3836SOL    HW212408   6.831   5.414   5.951
 3837SOL     OW12409   4.644   4.663   5.688
 3837SOL    HW112410   4.588   4.691   5.610
 3837SOL    HW212411   4.591   4.602   5.746
 3838SOL     OW12412   0.919   2.738   4.063
 3838SOL    HW112413   0.883   2.772   3.976
 3838SOL    HW212414   1.018   2.750   4.066
 3839SOL     OW12415   5.159   1.736   2.614
 3839SOL    HW112416   5.183   1.826   2.650
 3839SOL    HW212417   5.108   1.685   2.683
 3840SOL     OW12418   2.859   1.069   6.226
 3840SOL    HW112419   2.862   1.169   6.236
 3840SOL    HW212420   2.770   1.042   6.191
 3841SOL     OW12421   0.146   3.141   4.326
 3841SOL    HW112422   0.082   3.065   4.338
 3841SOL    HW212423   0.216   3.138   4.397
 3842SOL     OW12424   2.105   2.761   3.262
 3842SOL    HW112425   2.049   2.718   3.191
 3842SOL    HW212426   2.071   2.734   3.352
 3843SOL     OW12427   5.334   3.746   2.372
 3843SOL    HW112428   5.297   3.663   2.329
 3843SOL    HW212429   5.265   3.818   2.371
 3844SOL     OW12430   1.204   2.967   5.597
 3844SOL    HW112431   1.250   2.972   5.686
 3844SOL    HW212432   1.267   2.995   5.525
 3845SOL     OW12433   3.105   4.459   6.021
 3845SOL    HW112434   3.132   4.426   6.111
 3845SOL    HW212435   3.098   4.381   5.958
 3846SOL     OW12436   1.162   4.562   3.581
 3846SOL    HW112437   1.262   4.563   3.574
 3846SOL    HW212438   1.136   4.540   3.675
 3847SOL     OW12439   5.274   3.019   4.463
 3847SOL    HW112440   5.229   2.935   4.493
 3847SOL    HW212441   5.251   3.093   4.527
 3848SOL     OW12442   4.737   4.779   3.232
 3848SOL    HW112443   4.817   4.828   3.268
 3848SOL    HW212444   4.709   4.709   3.298
 3849SOL     OW12445   0.765   1.549   6.320
 3849SOL    HW112446   0.828   1.540   6.398
 3849SOL    HW212447   0.784   1.635   6.272
 3850SOL     OW12448   2.948   3.279   1.631
 3850SOL    HW112449   2.878   3.209   1.649
 3850SOL    HW212450   3.030   3.258   1.684
 3851SOL     OW12451   0.579   3.953   3.158
 3851SOL    HW112452   0.600   3.865   3.201
 3851SOL    HW212453   0.539   3.936   3.068
 3852SOL     OW12454   4.428   6.261   3.781
 3852SOL    HW112455   4.400   6.349   3.742
 3852SOL    HW212456   4.493   6.217   3.720
 3853SOL     OW12457   1.120   3.962   3.442
 3853SOL    HW112458   1.144   3.896   3.371
 3853SOL    HW212459   1.118   4.054   3.404
 3854SOL     OW12460   1.579   2.409   2.770
 3854SOL    HW112461   1.582   2.474   2.846
 3854SOL    HW212462   1.643   2.439   2.699
 3855SOL     OW12463   4.760   6.522   6.445
 3855SOL    HW112464   4.754   6.423   6.429
 3855SOL    HW212465   4.850   6.544   6.482
 3856SOL     OW12466   6.946   0.325   5.707
 3856SOL    HW112467   6.878   0.323   5.781
 3856SOL    HW212468   6.902   0.299   5.621
 3857SOL     OW12469   0.814   6.080   6.464
 3857SOL    HW112470   0.760   6.129   6.396
 3857SOL    HW212471   0.899   6.130   6.481
 3858SOL     OW12472   2.277   0.692   5.539
 3858SOL    HW112473   2.306   0.649   5.454
 3858SOL    HW212474   2.198   0.751   5.522
 3859SOL     OW12475   6.191   1.472   1.249
 3859SOL    HW112476   6.220   1.548   1.191
 3859SOL    HW212477   6.212   1.386   1.203
 3860SOL     OW12478   1.708   1.786   4.152
 3860SOL    HW112479   1.652   1.868   4.145
 3860SOL    HW212480   1.803   1.811   4.170
 3861SOL     OW12481   4.306   5.457   3.867
 3861SOL    HW112482   4.396   5.414   3.856
 3861SOL    HW212483   4.250   5.438   3.787
 3862SOL     OW12484   0.487   0.830   4.731
 3862SOL    HW112485   0.540   0.747   4.713
 3862SOL    HW212486   0.493   0.852   4.829
 3863SOL     OW12487   5.841   2.336   6.843
 3863SOL    HW112488   5.872   2.365   6.753
 3863SOL    HW212489   5.786   2.409   6.884
 3864SOL     OW12490   2.409   1.054   5.403
 3864SOL    HW112491   2.397   1.028   5.499
 3864SOL    HW212492   2.502   1.033   5.374
 3865SOL     OW12493   4.070   1.006   0.654
 3865SOL    HW112494   4.127   1.062   0.594
 3865SOL    HW212495   3.982   0.987   0.609
 3866SOL     OW12496   4.207   0.062   0.121
 3866SOL    HW112497   4.212   0.055   0.021
 3866SOL    HW212498   4.246   0.149   0.151
 3867SOL     OW12499   0.455   6.103   4.105
 3867SOL    HW112500   0.428   6.200   4.107
 3867SOL    HW212501   0.525   6.087   4.174
 3868SOL     OW12502   3.156   0.337   0.467
 3868SOL    HW112503   3.174   0.240   0.483
 3868SOL    HW212504   3.084   0.369   0.529
 3869SOL     OW12505   6.115   3.354   4.563
 3869SOL    HW112506   6.194   3.308   4.523
 3869SOL    HW212507   6.031   3.312   4.527
 3870SOL     OW12508   6.468   6.784   0.346
 3870SOL    HW112509   6.512   6.700   0.378
 3870SOL    HW212510   6.535   6.839   0.297
 3871SOL     OW12511   3.929   0.967   3.296
 3871SOL    HW112512   3.868   1.022   3.239
 3871SOL    HW212513   3.976   1.027   3.361
 3872SOL     OW12514   3.703   2.990   4.091
 3872SOL    HW112515   3.625   2.954   4.142
 3872SOL    HW212516   3.786   2.982   4.147
 3873SOL     OW12517   6.564   3.874   1.573
 3873SOL    HW112518   6.653   3.888   1.614
 3873SOL    HW212519   6.540   3.953   1.516
 3874SOL     OW12520   4.858   6.174   6.791
 3874SOL    HW112521   4.760   6.159   6.805
 3874SOL    HW212522   4.885   6.259   6.837
 3875SOL     OW12523   2.194   3.094   2.415
 3875SOL    HW112524   2.254   3.174   2.423
 3875SOL    HW212525   2.099   3.123   2.409
 3876SOL     OW12526   4.025   5.867   1.188
 3876SOL    HW112527   4.070   5.798   1.244
 3876SOL    HW212528   4.085   5.946   1.178
 3877SOL     OW12529   5.832   2.477   0.655
 3877SOL    HW112530   5.741   2.476   0.614
 3877SOL    HW212531   5.873   2.568   0.644
 3878SOL     OW12532   3.820   6.792   4.509
 3878SOL    HW112533   3.887   6.719   4.496
 3878SOL    HW212534   3.730   6.753   4.526
 3879SOL     OW12535   5.824   5.171   0.820
 3879SOL    HW112536   5.831   5.229   0.738
 3879SOL    HW212537   5.892   5.098   0.815
 3880SOL     OW12538   5.798   4.730   4.326
 3880SOL    HW112539   5.834   4.759   4.238
 3880SOL    HW212540   5.781   4.810   4.383
 3881SOL     OW12541   1.631   3.352   1.769
 3881SOL    HW112542   1.620   3.360   1.868
 3881SOL    HW212543   1.552   3.394   1.723
 3882SOL     OW12544   1.441   0.898   5.572
 3882SOL    HW112545   1.372   0.833   5.541
 3882SOL    HW212546   1.462   0.963   5.498
 3883SOL     OW12547   4.792   1.040   3.076
 3883SOL    HW112548   4.867   1.102   3.053
 3883SOL    HW212549   4.796   1.018   3.174
 3884SOL     OW12550   0.745   5.617   2.497
 3884SOL    HW112551   0.813   5.686   2.524
 3884SOL    HW212552   0.722   5.560   2.577
 3885SOL     OW12553   5.643   6.584   2.773
 3885SOL    HW112554   5.580   6.658   2.748
 3885SOL    HW212555   5.715   6.577   2.703
 3886SOL     OW12556   5.645   5.351   4.774
 3886SOL    HW112557   5.555   5.375   4.737
 3886SOL    HW212558   5.644   5.362   4.873
 3887SOL     OW12559   0.388   0.680   0.058
 3887SOL    HW112560   0.401   0.708   0.153
 3887SOL    HW212561   0.402   0.581   0.051
 3888SOL     OW12562   6.538   0.671   4.962
 3888SOL    HW112563   6.478   0.735   4.912
 3888SOL    HW212564   6.487   0.630   5.037
 3889SOL     OW12565   0.052   3.884   0.510
 3889SOL    HW112566   6.998   3.947   0.512
 3889SOL    HW212567   0.122   3.919   0.448
 3890SOL     OW12568   5.851   5.785   3.879
 3890SOL    HW112569   5.932   5.734   3.909
 3890SOL    HW212570   5.811   5.741   3.799
 3891SOL     OW12571   6.296   4.678   4.504
 3891SOL    HW112572   6.212   4.663   4.451
 3891SOL    HW212573   6.274   4.732   4.585
 3892SOL     OW12574   6.848   2.312   1.890
 3892SOL    HW112575   6.882   2.243   1.953
 3892SOL    HW212576   6.773   2.274   1.836
 3893SOL     OW12577   4.326   4.948   0.340
 3893SOL    HW112578   4.303   5.029   0.286
 3893SOL    HW212579   4.425   4.943   0.352
 3894SOL     OW12580   3.934   1.722   0.717
 3894SOL    HW112581   3.929   1.744   0.619
 3894SOL    HW212582   3.842   1.710   0.753
 3895SOL     OW12583   1.513   0.585   5.204
 3895SOL    HW112584   1.525   0.556   5.299
 3895SOL    HW212585   1.429   0.640   5.197
 3896SOL     OW12586   6.780   0.467   5.940
 3896SOL    HW112587   6.802   0.511   6.027
 3896SOL    HW212588   6.723   0.387   5.956
 3897SOL     OW12589   3.539   5.555   2.737
 3897SOL    HW112590   3.549   5.655   2.735
 3897SOL    HW212591   3.442   5.532   2.733
 3898SOL     OW12592   2.794   3.747   5.177
 3898SOL    HW112593   2.843   3.833   5.162
 3898SOL    HW212594   2.723   3.760   5.246
 3899SOL     OW12595   5.644   6.808   4.970
 3899SOL    HW112596   5.741   6.813   4.996
 3899SOL    HW212597   5.588   6.817   5.052
 3900SOL     OW12598   4.978   3.446   3.780
 3900SOL    HW112599   4.932   3.469   3.695
 3900SOL    HW212600   5.076   3.467   3.772
 3901SOL     OW12601   3.095   0.448   6.146
 3901SOL    HW112602   3.137   0.361   6.174
 3901SOL    HW212603   2.998   0.434   6.128
 3902SOL     OW12604   5.472   3.550   1.953
 3902SOL    HW112605   5.478   3.580   1.858
 3902SOL    HW212606   5.392   3.592   1.996
 3903SOL     OW12607   3.852   6.093   6.560
 3903SOL    HW112608   3.863   6.017   6.496
 3903SOL    HW212609   3.814   6.172   6.511
 3904SOL     OW12610   2.206   1.274   4.692
 3904SOL    HW112611   2.277   1.203   4.691
 3904SOL    HW212612   2.123   1.237   4.735
 3905SOL     OW12613   0.052   0.352   6.485
 3905SOL    HW112614   0.069   0.257   6.457
 3905SOL    HW212615   6.982   0.377   6.461
 3906SOL     OW12616   4.311   5.144   6.109
 3906SOL    HW112617   4.306   5.242   6.129
 3906SOL    HW212618   4.231   5.099   6.147
 3907SOL     OW12619   5.482   6.903   4.774
 3907SOL    HW112620   5.480   6.999   4.801
 3907SOL    HW212621   5.552   6.855   4.827
 3908SOL     OW12622   1.137   1.750   0.926
 3908SOL    HW112623   1.056   1.694   0.912
 3908SOL    HW212624   1.212   1.692   0.960
 3909SOL     OW12625   0.129   4.912   5.455
 3909SOL    HW112626   0.194   4.988   5.443
 3909SOL    HW212627   0.134   4.851   5.376
 3910SOL     OW12628   3.643   3.837   1.916
 3910SOL    HW112629   3.638   3.929   1.954
 3910SOL    HW212630   3.552   3.797   1.914
 3911SOL     OW12631   4.628   0.863   0.132
 3911SOL    HW112632   4.656   0.769   0.114
 3911SOL    HW212633   4.546   0.885   0.079
 3912SOL     OW12634   4.171   6.973   6.249
 3912SOL    HW112635   4.255   7.015   6.212
 3912SOL    HW212636   4.172   6.981   6.349
 3913SOL     OW12637   2.462   6.864   6.022
 3913SOL    HW112638   2.495   6.927   6.092
 3913SOL    HW212639   2.389   6.807   6.060
 3914SOL     OW12640   4.191   1.181   0.485
 3914SOL    HW112641   4.255   1.241   0.533
 3914SOL    HW212642   4.236   1.143   0.404
 3915SOL     OW12643   3.428   5.800   2.417
 3915SOL    HW112644   3.468   5.814   2.507
 3915SOL    HW212645   3.352   5.736   2.425
 3916SOL     OW12646   1.713   5.771   4.114
 3916SOL    HW112647   1.666   5.822   4.042
 3916SOL    HW212648   1.646   5.731   4.176
 3917SOL     OW12649   1.066   4.785   6.825
 3917SOL    HW112650   1.047   4.721   6.900
 3917SOL    HW212651   1.164   4.787   6.807
 3918SOL     OW12652   4.557   0.056   2.402
 3918SOL    HW112653   4.586   6.995   2.447
 3918SOL    HW212654   4.463   0.047   2.370
 3919SOL     OW12655   2.339   5.955   6.396
 3919SOL    HW112656   2.390   6.036   6.366
 3919SOL    HW212657   2.258   5.944   6.337
 3920SOL     OW12658   2.926   2.673   0.259
 3920SOL    HW112659   2.985   2.605   0.217
 3920SOL    HW212660   2.941   2.762   0.216
 3921SOL     OW12661   6.629   3.028   1.524
 3921SOL    HW112662   6.590   3.056   1.436
 3921SOL    HW212663   6.728   3.018   1.515
 3922SOL     OW12664   5.972   4.109   1.433
 3922SOL    HW112665   6.025   4.082   1.514
 3922SOL    HW212666   6.033   4.121   1.355
 3923SOL     OW12667   6.724   1.692   6.926
 3923SOL    HW112668   6.822   1.707   6.937
 3923SOL    HW212669   6.696   1.612   6.980
 3924SOL     OW12670   0.728   4.869   2.906
 3924SOL    HW112671   0.718   4.771   2.926
 3924SOL    HW212672   0.733   4.882   2.807
 3925SOL     OW12673   4.070   4.510   0.654
 3925SOL    HW112674   3.997   4.457   0.612
 3925SOL    HW212675   4.039   4.545   0.743
 3926SOL     OW12676   6.656   5.482   3.176
 3926SOL    HW112677   6.657   5.393   3.130
 3926SOL    HW212678   6.673   5.469   3.274
 3927SOL     OW12679   6.616   3.363   3.281
 3927SOL    HW112680   6.521   3.381   3.309
 3927SOL    HW212681   6.678   3.417   3.336
 3928SOL     OW12682   2.848   5.477   5.728
 3928SOL    HW112683   2.851   5.575   5.749
 3928SOL    HW212684   2.785   5.432   5.791
 3929SOL     OW12685   0.633   1.948   5.706
 3929SOL    HW112686   0.652   1.954   5.608
 3929SOL    HW212687   0.719   1.935   5.756
 3930SOL     OW12688   2.554   1.611   4.180
 3930SOL    HW112689   2.498   1.663   4.244
 3930SOL    HW212690   2.643   1.656   4.169
 3931SOL     OW12691   1.597   1.997   2.685
 3931SOL    HW112692   1.686   2.040   2.694
 3931SOL    HW212693   1.569   1.996   2.588
 3932SOL     OW12694   1.962   4.023   2.639
 3932SOL    HW112695   1.922   4.041   2.729
 3932SOL    HW212696   1.907   4.068   2.569
 3933SOL     OW12697   1.584   6.541   0.130
 3933SOL    HW112698   1.572   6.590   0.044
 3933SOL    HW212699   1.643   6.462   0.116
 3934SOL     OW12700   6.813   0.733   0.901
 3934SOL    HW112701   6.899   0.699   0.862
 3934SOL    HW212702   6.821   0.735   1.001
 3935SOL     OW12703   2.260   6.959   6.996
 3935SOL    HW112704   2.308   0.023   6.989
 3935SOL    HW212705   2.182   6.970   0.034
 3936SOL     OW12706   6.788   5.124   5.528
 3936SOL    HW112707   6.853   5.112   5.603
 3936SOL    HW212708   6.822   5.078   5.446
 3937SOL     OW12709   6.915   0.292   1.934
 3937SOL    HW112710   6.842   0.224   1.933
 3937SOL    HW212711   6.993   0.257   1.986
 3938SOL     OW12712   0.083   1.944   3.506
 3938SOL    HW112713   0.094   1.921   3.409
 3938SOL    HW212714   7.016   1.916   3.537
 3939SOL     OW12715   3.031   1.873   1.842
 3939SOL    HW112716   2.999   1.964   1.871
 3939SOL    HW212717   2.960   1.805   1.862
 3940SOL     OW12718   4.151   5.214   2.296
 3940SOL    HW112719   4.069   5.267   2.319
 3940SOL    HW212720   4.143   5.178   2.203
 3941SOL     OW12721   5.108   1.538   6.296
 3941SOL    HW112722   5.122   1.634   6.319
 3941SOL    HW212723   5.173   1.512   6.224
 3942SOL     OW12724   0.400   0.386   6.510
 3942SOL    HW112725   0.482   0.333   6.528
 3942SOL    HW212726   0.352   0.349   6.430
 3943SOL     OW12727   0.969   3.913   2.629
 3943SOL    HW112728   0.906   3.936   2.704
 3943SOL    HW212729   1.040   3.983   2.623
 3944SOL     OW12730   5.714   3.650   5.265
 3944SOL    HW112731   5.695   3.553   5.280
 3944SOL    HW212732   5.778   3.683   5.334
 3945SOL     OW12733   0.854   2.382   1.815
 3945SOL    HW112734   0.768   2.426   1.789
 3945SOL    HW212735   0.871   2.397   1.912
 3946SOL     OW12736   5.869   5.577   5.622
 3946SOL    HW112737   5.930   5.503   5.593
 3946SOL    HW212738   5.786   5.537   5.663
 3947SOL     OW12739   6.211   5.143   1.359
 3947SOL    HW112740   6.118   5.172   1.337
 3947SOL    HW212741   6.276   5.210   1.324
 3948SOL     OW12742   1.103   5.391   1.478
 3948SOL    HW112743   1.165   5.339   1.538
 3948SOL    HW212744   1.059   5.463   1.531
 3949SOL     OW12745   6.230   0.683   2.816
 3949SOL    HW112746   6.308   0.675   2.877
 3949SOL    HW212747   6.204   0.591   2.783
 3950SOL     OW12748   2.988   4.181   1.805
 3950SOL    HW112749   3.030   4.173   1.896
 3950SOL    HW212750   3.020   4.266   1.762
 3951SOL     OW12751   6.959   0.037   1.046
 3951SOL    HW112752   6.886   0.093   1.010
 3951SOL    HW212753   6.993   6.999   0.975
 3952SOL     OW12754   6.615   4.050   3.077
 3952SOL    HW112755   6.568   4.123   3.029
 3952SOL    HW212756   6.551   3.977   3.099
 3953SOL     OW12757   4.001   4.148   0.658
 3953SOL    HW112758   3.987   4.177   0.563
 3953SOL    HW212759   4.011   4.049   0.661
 3954SOL     OW12760   5.703   5.373   5.027
 3954SOL    HW112761   5.705   5.334   5.119
 3954SOL    HW212762   5.700   5.473   5.034
 3955SOL     OW12763   3.152   5.597   5.852
 3955SOL    HW112764   3.196   5.597   5.762
 3955SOL    HW212765   3.060   5.635   5.844
 3956SOL     OW12766   0.097   0.886   2.750
 3956SOL    HW112767   0.158   0.883   2.829
 3956SOL    HW212768   0.104   0.975   2.705
 3957SOL     OW12769   4.873   6.858   3.571
 3957SOL    HW112770   4.778   6.847   3.603
 3957SOL    HW212771   4.881   6.823   3.478
 3958SOL     OW12772   5.603   0.787   6.211
 3958SOL    HW112773   5.586   0.837   6.127
 3958SOL    HW212774   5.528   0.722   6.227
 3959SOL     OW12775   3.956   6.236   1.308
 3959SOL    HW112776   4.048   6.211   1.278
 3959SOL    HW212777   3.922   6.312   1.253
 3960SOL     OW12778   4.275   1.521   6.699
 3960SOL    HW112779   4.185   1.504   6.660
 3960SOL    HW212780   4.283   1.474   6.787
 3961SOL     OW12781   5.686   2.406   1.492
 3961SOL    HW112782   5.752   2.351   1.544
 3961SOL    HW212783   5.595   2.366   1.500
 3962SOL     OW12784   2.488   4.698   6.936
 3962SOL    HW112785   2.517   4.785   6.896
 3962SOL    HW212786   2.496   4.703   0.012
 3963SOL     OW12787   4.716   4.348   4.359
 3963SOL    HW112788   4.715   4.342   4.459
 3963SOL    HW212789   4.753   4.264   4.320
 3964SOL     OW12790   4.233   5.122   3.526
 3964SOL    HW112791   4.164   5.107   3.597
 3964SOL    HW212792   4.292   5.041   3.520
 3965SOL     OW12793   4.466   3.309   5.776
 3965SOL    HW112794   4.402   3.256   5.721
 3965SOL    HW212795   4.463   3.277   5.871
 3966SOL     OW12796   5.658   6.081   0.671
 3966SOL    HW112797   5.633   6.168   0.627
 3966SOL    HW212798   5.585   6.015   0.658
 3967SOL     OW12799   1.413   4.228   2.603
 3967SOL    HW112800   1.473   4.297   2.564
 3967SOL    HW212801   1.468   4.164   2.658
 3968SOL     OW12802   5.616   0.125   0.996
 3968SOL    HW112803   5.638   0.215   0.959
 3968SOL    HW212804   5.699   0.081   1.029
 3969SOL     OW12805   1.788   3.752   2.781
 3969SOL    HW112806   1.800   3.804   2.697
 3969SOL    HW212807   1.747   3.810   2.851
 3970SOL     OW12808   5.531   5.653   3.589
 3970SOL    HW112809   5.524   5.554   3.592
 3970SOL    HW212810   5.545   5.683   3.494
 3971SOL     OW12811   2.695   5.244   1.905
 3971SOL    HW112812   2.759   5.192   1.962
 3971SOL    HW212813   2.601   5.220   1.929
 3972SOL     OW12814   1.229   5.311   0.682
 3972SOL    HW112815   1.207   5.291   0.587
 3972SOL    HW212816   1.298   5.383   0.685
 3973SOL     OW12817   0.793   4.531   6.028
 3973SOL    HW112818   0.768   4.627   6.015
 3973SOL    HW212819   0.842   4.498   5.947
 3974SOL     OW12820   1.188   1.004   4.658
 3974SOL    HW112821   1.134   1.087   4.662
 3974SOL    HW212822   1.284   1.028   4.638
 3975SOL     OW12823   5.183   0.444   5.748
 3975SOL    HW112824   5.121   0.399   5.814
 3975SOL    HW212825   5.277   0.421   5.771
 3976SOL     OW12826   1.358   5.781   2.089
 3976SOL    HW112827   1.377   5.828   2.003
 3976SOL    HW212828   1.296   5.705   2.072
 3977SOL     OW12829   2.924   4.508   5.550
 3977SOL    HW112830   2.863   4.504   5.471
 3977SOL    HW212831   2.900   4.586   5.608
 3978SOL     OW12832   5.848   6.282   5.065
 3978SOL    HW112833   5.911   6.308   5.139
 3978SOL    HW212834   5.756   6.271   5.102
 3979SOL     OW12835   2.970   5.733   0.945
 3979SOL    HW112836   2.980   5.701   0.851
 3979SOL    HW212837   3.060   5.739   0.988
 3980SOL     OW12838   0.630   5.691   6.801
 3980SOL    HW112839   0.578   5.647   6.727
 3980SOL    HW212840   0.581   5.679   6.887
 3981SOL     OW12841   2.169   1.590   0.464
 3981SOL    HW112842   2.235   1.623   0.532
 3981SOL    HW212843   2.081   1.634   0.480
 3982SOL     OW12844   1.932   0.412   4.202
 3982SOL    HW112845   1.875   0.443   4.126
 3982SOL    HW212846   1.880   0.417   4.287
 3983SOL     OW12847   4.839   5.389   4.492
 3983SOL    HW112848   4.939   5.380   4.498
 3983SOL    HW212849   4.796   5.307   4.529
 3984SOL     OW12850   7.021   0.785   2.513
 3984SOL    HW112851   7.019   0.687   2.492
 3984SOL    HW212852   0.045   0.799   2.600
 3985SOL     OW12853   3.493   4.972   6.397
 3985SOL    HW112854   3.585   4.998   6.424
 3985SOL    HW212855   3.429   5.046   6.419
 3986SOL     OW12856   6.190   1.762   2.923
 3986SOL    HW112857   6.130   1.684   2.943
 3986SOL    HW212858   6.254   1.775   2.999
 3987SOL     OW12859   2.893   5.238   4.285
 3987SOL    HW112860   2.892   5.196   4.375
 3987SOL    HW212861   2.987   5.262   4.261
 3988SOL     OW12862   3.999   3.519   6.833
 3988SOL    HW112863   3.951   3.562   6.909
 3988SOL    HW212864   3.962   3.553   6.746
 3989SOL     OW12865   6.570   2.376   6.828
 3989SOL    HW112866   6.498   2.306   6.829
 3989SOL    HW212867   6.559   2.435   6.908
 3990SOL     OW12868   5.311   2.212   2.867
 3990SOL    HW112869   5.244   2.233   2.939
 3990SOL    HW212870   5.382   2.282   2.866
 3991SOL     OW12871   6.026   1.012   1.855
 3991SOL    HW112872   6.024   0.913   1.868
 3991SOL    HW212873   5.933   1.044   1.834
 3992SOL     OW12874   3.324   2.328   7.003
 3992SOL    HW112875   3.376   2.323   6.918
 3992SOL    HW212876   3.273   2.243   7.015
 3993SOL     OW12877   1.088   1.979   2.931
 3993SOL    HW112878   1.159   1.910   2.915
 3993SOL    HW212879   1.016   1.939   2.987
 3994SOL     OW12880   0.542   0.861   6.462
 3994SOL    HW112881   0.519   0.785   6.402
 3994SOL    HW212882   0.477   0.935   6.449
 3995SOL     OW12883   1.896   3.945   4.842
 3995SOL    HW112884   1.962   3.898   4.900
 3995SOL    HW212885   1.943   4.015   4.788
 3996SOL     OW12886   1.159   1.168   4.179
 3996SOL    HW112887   1.159   1.240   4.110
 3996SOL    HW212888   1.085   1.184   4.244
 3997SOL     OW12889   4.900   1.356   3.411
 3997SOL    HW112890   4.972   1.416   3.445
 3997SOL    HW212891   4.920   1.261   3.436
 3998SOL     OW12892   4.187   1.245   3.235
 3998SOL    HW112893   4.186   1.171   3.168
 3998SOL    HW212894   4.140   1.217   3.318
 3999SOL     OW12895   5.850   3.566   3.911
 3999SOL    HW112896   5.887   3.565   4.004
 3999SOL    HW212897   5.778   3.497   3.903
 4000SOL     OW12898   3.219   5.720   3.136
 4000SOL    HW112899   3.274   5.787   3.086
 4000SOL    HW212900   3.152   5.768   3.193
 4001SOL     OW12901   2.757   2.312   4.110
 4001SOL    HW112902   2.662   2.290   4.087
 4001SOL    HW212903   2.817   2.280   4.036
 4002SOL     OW12904   2.580   2.651   0.893
 4002SOL    HW112905   2.548   2.607   0.977
 4002SOL    HW212906   2.639   2.587   0.843
 4003SOL     OW12907   3.329   5.872   4.868
 4003SOL    HW112908   3.236   5.851   4.839
 4003SOL    HW212909   3.366   5.945   4.810
 4004SOL     OW12910   5.593   2.103   3.581
 4004SOL    HW112911   5.530   2.085   3.505
 4004SOL    HW212912   5.653   2.179   3.556
 4005SOL     OW12913   5.152   5.857   0.899
 4005SOL    HW112914   5.148   5.781   0.834
 4005SOL    HW212915   5.239   5.855   0.948
 4006SOL     OW12916   3.843   5.740   3.335
 4006SOL    HW112917   3.817   5.717   3.241
 4006SOL    HW212918   3.943   5.735   3.344
 4007SOL     OW12919   1.032   2.387   1.612
 4007SOL    HW112920   1.107   2.441   1.651
 4007SOL    HW212921   0.959   2.377   1.680
 4008SOL     OW12922   3.316   1.753   3.732
 4008SOL    HW112923   3.300   1.671   3.787
 4008SOL    HW212924   3.375   1.816   3.783
 4009SOL     OW12925   5.692   3.136   0.867
 4009SOL    HW112926   5.726   3.187   0.788
 4009SOL    HW212927   5.632   3.194   0.921
 4010SOL     OW12928   2.522   2.666   1.810
 4010SOL    HW112929   2.470   2.602   1.755
 4010SOL    HW212930   2.575   2.616   1.878
 4011SOL     OW12931   0.235   0.718   1.714
 4011SOL    HW112932   0.154   0.750   1.763
 4011SOL    HW212933   0.294   0.796   1.693
 4012SOL     OW12934   3.845   5.662   1.400
 4012SOL    HW112935   3.762   5.685   1.349
 4012SOL    HW212936   3.873   5.741   1.454
 4013SOL     OW12937   2.818   6.583   6.950
 4013SOL    HW112938   2.848   6.607   6.858
 4013SOL    HW212939   2.878   6.511   6.987
 4014SOL     OW12940   3.975   6.178   3.297
 4014SOL    HW112941   3.999   6.092   3.341
 4014SOL    HW212942   4.053   6.240   3.299
 4015SOL     OW12943   4.691   5.241   6.420
 4015SOL    HW112944   4.745   5.315   6.380
 4015SOL    HW212945   4.630   5.202   6.351
 4016SOL     OW12946   2.047   5.885   6.679
 4016SOL    HW112947   2.086   5.977   6.688
 4016SOL    HW212948   2.026   5.849   6.769
 4017SOL     OW12949   0.360   6.301   0.942
 4017SOL    HW112950   0.381   6.290   0.845
 4017SOL    HW212951   0.332   6.213   0.980
 4018SOL     OW12952   5.006   6.093   3.251
 4018SOL    HW112953   5.078   6.154   3.218
 4018SOL    HW212954   4.942   6.144   3.308
 4019SOL     OW12955   5.881   3.989   3.031
 4019SOL    HW112956   5.894   3.932   3.113
 4019SOL    HW212957   5.788   4.026   3.031
 4020SOL     OW12958   5.358   2.225   6.028
 4020SOL    HW112959   5.263   2.248   6.049
 4020SOL    HW212960   5.360   2.160   5.952
 4021SOL     OW12961   3.680   3.712   6.158
 4021SOL    HW112962   3.661   3.785   6.092
 4021SOL    HW212963   3.771   3.674   6.140
 4022SOL     OW12964   3.965   0.265   0.117
 4022SOL    HW112965   4.028   0.215   0.176
 4022SOL    HW212966   3.996   0.360   0.109
 4023SOL     OW12967   6.186   2.220   5.448
 4023SOL    HW112968   6.190   2.198   5.350
 4023SOL    HW212969   6.256   2.288   5.469
 4024SOL     OW12970   3.670   6.464   3.835
 4024SOL    HW112971   3.651   6.397   3.907
 4024SOL    HW212972   3.765   6.453   3.804
 4025SOL     OW12973   0.948   6.035   4.240
 4025SOL    HW112974   0.933   6.011   4.144
 4025SOL    HW212975   1.033   5.993   4.272
 4026SOL     OW12976   6.459   6.065   4.662
 4026SOL    HW112977   6.510   6.135   4.611
 4026SOL    HW212978   6.375   6.043   4.612
 4027SOL     OW12979   3.768   4.235   1.777
 4027SOL    HW112980   3.827   4.177   1.832
 4027SOL    HW212981   3.820   4.315   1.746
 4028SOL     OW12982   1.138   2.490   3.983
 4028SOL    HW112983   1.073   2.524   4.052
 4028SOL    HW212984   1.106   2.515   3.892
 4029SOL     OW12985   1.437   4.269   6.502
 4029SOL    HW112986   1.381   4.305   6.576
 4029SOL    HW212987   1.415   4.317   6.416
 4030SOL     OW12988   1.466   2.184   5.932
 4030SOL    HW112989   1.462   2.126   6.013
 4030SOL    HW212990   1.521   2.138   5.862
 4031SOL     OW12991   4.804   6.250   2.986
 4031SOL    HW112992   4.857   6.175   2.945
 4031SOL    HW212993   4.744   6.213   3.057
 4032SOL     OW12994   5.903   0.330   2.924
 4032SOL    HW112995   5.890   0.231   2.932
 4032SOL    HW212996   5.989   0.348   2.877
 4033SOL     OW12997   3.663   2.894   3.070
 4033SOL    HW112998   3.592   2.867   3.005
 4033SOL    HW212999   3.628   2.887   3.163
 4034SOL     OW13000   5.569   1.922   5.190
 4034SOL    HW113001   5.577   1.973   5.276
 4034SOL    HW213002   5.555   1.987   5.115
 4035SOL     OW13003   6.477   4.113   1.469
 4035SOL    HW113004   6.463   4.138   1.565
 4035SOL    HW213005   6.534   4.182   1.425
 4036SOL     OW13006   5.394   6.378   3.062
 4036SOL    HW113007   5.378   6.328   3.147
 4036SOL    HW213008   5.493   6.386   3.047
 4037SOL     OW13009   1.689   2.279   0.783
 4037SOL    HW113010   1.687   2.201   0.845
 4037SOL    HW213011   1.776   2.282   0.735
 4038SOL     OW13012   4.940   4.955   2.289
 4038SOL    HW113013   4.961   4.924   2.382
 4038SOL    HW213014   5.009   4.920   2.226
 4039SOL     OW13015   5.402   5.093   1.518
 4039SOL    HW113016   5.378   5.019   1.455
 4039SOL    HW213017   5.340   5.170   1.504
 4040SOL     OW13018   2.762   6.577   0.328
 4040SOL    HW113019   2.781   6.570   0.426
 4040SOL    HW213020   2.812   6.654   0.290
 4041SOL     OW13021   1.734   5.504   2.249
 4041SOL    HW113022   1.658   5.504   2.184
 4041SOL    HW213023   1.807   5.563   2.214
 4042SOL     OW13024   6.232   4.384   2.675
 4042SOL    HW113025   6.216   4.464   2.616
 4042SOL    HW213026   6.203   4.301   2.627
 4043SOL     OW13027   5.577   2.341   4.229
 4043SOL    HW113028   5.494   2.353   4.284
 4043SOL    HW213029   5.655   2.324   4.289
 4044SOL     OW13030   5.000   0.665   4.783
 4044SOL    HW113031   5.017   0.594   4.714
 4044SOL    HW213032   5.076   0.665   4.848
 4045SOL     OW13033   3.118   4.216   6.647
 4045SOL    HW113034   3.033   4.173   6.618
 4045SOL    HW213035   3.177   4.148   6.689
 4046SOL     OW13036   1.028   1.797   3.374
 4046SOL    HW113037   0.987   1.874   3.325
 4046SOL    HW213038   1.036   1.820   3.471
 4047SOL     OW13039   2.347   2.685   0.688
 4047SOL    HW113040   2.432   2.704   0.738
 4047SOL    HW213041   2.348   2.736   0.602
 4048SOL     OW13042   5.692   0.937   1.773
 4048SOL    HW113043   5.598   0.907   1.763
 4048SOL    HW213044   5.747   0.903   1.695
 4049SOL     OW13045   6.263   6.347   6.398
 4049SOL    HW113046   6.204   6.347   6.317
 4049SOL    HW213047   6.347   6.399   6.378
 4050SOL     OW13048   0.897   0.184   0.533
 4050SOL    HW113049   0.800   0.168   0.515
 4050SOL    HW213050   0.936   0.240   0.460
 4051SOL     OW13051   2.975   3.372   6.864
 4051SOL    HW113052   2.974   3.443   6.794
 4051SOL    HW213053   2.885   3.328   6.868
 4052SOL     OW13054   0.957   0.150   1.382
 4052SOL    HW113055   0.898   0.164   1.302
 4052SOL    HW213056   0.953   0.231   1.441
 4053SOL     OW13057   3.203   4.980   4.295
 4053SOL    HW113058   3.255   5.062   4.316
 4053SOL    HW213059   3.182   4.931   4.379
 4054SOL     OW13060   1.959   3.186   0.774
 4054SOL    HW113061   1.964   3.176   0.873
 4054SOL    HW213062   1.984   3.100   0.730
 4055SOL     OW13063   2.592   3.149   5.628
 4055SOL    HW113064   2.500   3.188   5.629
 4055SOL    HW213065   2.617   3.126   5.534
 4056SOL     OW13066   4.429   3.023   6.562
 4056SOL    HW113067   4.333   2.999   6.546
 4056SOL    HW213068   4.458   2.985   6.650
 4057SOL     OW13069   5.013   3.287   0.298
 4057SOL    HW113070   5.081   3.321   0.233
 4057SOL    HW213071   4.933   3.346   0.296
 4058SOL     OW13072   1.388   1.464   4.096
 4058SOL    HW113073   1.290   1.479   4.109
 4058SOL    HW213074   1.415   1.499   4.007
 4059SOL     OW13075   2.278   2.310   3.244
 4059SOL    HW113076   2.367   2.348   3.270
 4059SOL    HW213077   2.250   2.349   3.156
 4060SOL     OW13078   3.755   4.800   5.214
 4060SOL    HW113079   3.853   4.787   5.229
 4060SOL    HW213080   3.741   4.856   5.132
 4061SOL     OW13081   3.378   4.458   1.700
 4061SOL    HW113082   3.279   4.448   1.705
 4061SOL    HW213083   3.422   4.369   1.713
 4062SOL     OW13084   4.046   1.587   3.203
 4062SOL    HW113085   4.030   1.490   3.185
 4062SOL    HW213086   4.145   1.604   3.203
 4063SOL     OW13087   3.978   6.116   5.439
 4063SOL    HW113088   3.995   6.023   5.474
 4063SOL    HW213089   4.059   6.172   5.454
 4064SOL     OW13090   2.354   6.693   2.755
 4064SOL    HW113091   2.302   6.767   2.712
 4064SOL    HW213092   2.384   6.627   2.686
 4065SOL     OW13093   1.066   0.047   0.317
 4065SOL    HW113094   1.157   0.059   0.277
 4065SOL    HW213095   1.074   0.041   0.416
 4066SOL     OW13096   5.248   5.018   2.403
 4066SOL    HW113097   5.233   5.114   2.376
 4066SOL    HW213098   5.340   4.991   2.374
 4067SOL     OW13099   5.735   2.064   2.743
 4067SOL    HW113100   5.661   2.113   2.697
 4067SOL    HW213101   5.696   1.999   2.808
 4068SOL     OW13102   4.780   0.156   4.518
 4068SOL    HW113103   4.841   0.180   4.443
 4068SOL    HW213104   4.792   0.060   4.541
 4069SOL     OW13105   4.578   3.464   7.015
 4069SOL    HW113106   4.513   3.517   6.961
 4069SOL    HW213107   4.575   3.496   0.086
 4070SOL     OW13108   1.881   3.267   2.624
 4070SOL    HW113109   1.841   3.339   2.681
 4070SOL    HW213110   1.951   3.218   2.675
 4071SOL     OW13111   1.813   1.367   5.106
 4071SOL    HW113112   1.903   1.406   5.089
 4071SOL    HW213113   1.757   1.376   5.023
 4072SOL     OW13114   2.010   6.725   4.516
 4072SOL    HW113115   1.975   6.632   4.526
 4072SOL    HW213116   1.935   6.790   4.527
 4073SOL     OW13117   2.678   5.654   6.053
 4073SOL    HW113118   2.663   5.588   5.980
 4073SOL    HW213119   2.596   5.661   6.110
 4074SOL     OW13120   0.727   3.100   1.810
 4074SOL    HW113121   0.780   3.029   1.764
 4074SOL    HW213122   0.785   3.181   1.824
 4075SOL     OW13123   4.967   2.090   2.684
 4075SOL    HW113124   5.025   2.061   2.608
 4075SOL    HW213125   4.952   2.012   2.745
 4076SOL     OW13126   2.550   4.184   5.339
 4076SOL    HW113127   2.630   4.192   5.280
 4076SOL    HW213128   2.485   4.119   5.300
 4077SOL     OW13129   2.739   6.038   1.133
 4077SOL    HW113130   2.714   6.015   1.039
 4077SOL    HW213131   2.834   6.011   1.150
 4078SOL     OW13132   6.060   5.310   2.010
 4078SOL    HW113133   6.107   5.234   2.055
 4078SOL    HW213134   6.115   5.393   2.020
 4079SOL     OW13135   1.598   0.475   3.313
 4079SOL    HW113136   1.650   0.560   3.299
 4079SOL    HW213137   1.520   0.473   3.251
 4080SOL     OW13138   2.836   3.811   6.648
 4080SOL    HW113139   2.768   3.742   6.625
 4080SOL    HW213140   2.902   3.772   6.713
 4081SOL     OW13141   1.956   1.194   4.476
 4081SOL    HW113142   1.907   1.221   4.393
 4081SOL    HW213143   1.906   1.227   4.556
 4082SOL     OW13144   1.586   1.761   6.929
 4082SOL    HW113145   1.578   1.814   7.013
 4082SOL    HW213146   1.500   1.768   6.878
 4083SOL     OW13147   5.926   4.410   3.721
 4083SOL    HW113148   5.998   4.353   3.682
 4083SOL    HW213149   5.861   4.436   3.650
 4084SOL     OW13150   4.809   2.775   3.255
 4084SOL    HW113151   4.739   2.707   3.280
 4084SOL    HW213152   4.785   2.862   3.297
 4085SOL     OW13153   2.464   5.173   1.440
 4085SOL    HW113154   2.453   5.108   1.516
 4085SOL    HW213155   2.543   5.146   1.385
 4086SOL     OW13156   0.073   5.100   0.460
 4086SOL    HW113157   0.155   5.126   0.409
 4086SOL    HW213158   0.079   5.004   0.485
 4087SOL     OW13159   2.620   1.056   2.722
 4087SOL    HW113160   2.664   1.114   2.653
 4087SOL    HW213161   2.583   0.975   2.678
 4088SOL     OW13162   6.123   1.056   5.392
 4088SOL    HW113163   6.031   1.045   5.355
 4088SOL    HW213164   6.121   1.041   5.491
 4089SOL     OW13165   0.185   5.530   4.479
 4089SOL    HW113166   0.121   5.556   4.407
 4089SOL    HW213167   0.177   5.432   4.496
 4090SOL     OW13168   1.859   6.280   5.414
 4090SOL    HW113169   1.810   6.349   5.361
 4090SOL    HW213170   1.864   6.195   5.361
 4091SOL     OW13171   1.033   5.400   0.175
 4091SOL    HW113172   0.995   5.480   0.127
 4091SOL    HW213173   0.959   5.340   0.203
 4092SOL     OW13174   4.924   3.169   4.455
 4092SOL    HW113175   4.979   3.162   4.371
 4092SOL    HW213176   4.881   3.081   4.474
 4093SOL     OW13177   5.638   5.793   1.769
 4093SOL    HW113178   5.647   5.824   1.864
 4093SOL    HW213179   5.728   5.779   1.729
 4094SOL     OW13180   1.221   4.585   6.625
 4094SOL    HW113181   1.254   4.659   6.684
 4094SOL    HW213182   1.195   4.622   6.536
 4095SOL     OW13183   0.704   3.152   0.361
 4095SOL    HW113184   0.781   3.089   0.370
 4095SOL    HW213185   0.731   3.243   0.394
 4096SOL     OW13186   2.192   1.112   6.502
 4096SOL    HW113187   2.113   1.148   6.552
 4096SOL    HW213188   2.235   1.040   6.556
 4097SOL     OW13189   6.047   4.421   5.453
 4097SOL    HW113190   6.104   4.424   5.535
 4097SOL    HW213191   5.954   4.394   5.479
 4098SOL     OW13192   2.100   2.895   1.585
 4098SOL    HW113193   2.099   2.875   1.487
 4098SOL    HW213194   2.036   2.971   1.603
 4099SOL     OW13195   3.445   4.970   6.980
 4099SOL    HW113196   3.409   4.931   6.895
 4099SOL    HW213197   3.486   5.060   6.960
 4100SOL     OW13198   0.939   0.733   4.152
 4100SOL    HW113199   0.988   0.665   4.096
 4100SOL    HW213200   0.998   0.812   4.168
 4101SOL     OW13201   6.549   0.965   6.210
 4101SOL    HW113202   6.545   1.062   6.187
 4101SOL    HW213203   6.608   0.952   6.289
 4102SOL     OW13204   2.009   0.791   0.652
 4102SOL    HW113205   2.075   0.857   0.689
 4102SOL    HW213206   1.937   0.776   0.720
 4103SOL     OW13207   0.001   0.207   2.168
 4103SOL    HW113208   0.085   0.251   2.200
 4103SOL    HW213209   6.951   0.274   2.165
 4104SOL     OW13210   0.286   5.043   3.190
 4104SOL    HW113211   0.330   5.086   3.269
 4104SOL    HW213212   0.190   5.023   3.211
 4105SOL     OW13213   4.946   1.206   1.867
 4105SOL    HW113214   5.012   1.246   1.931
 4105SOL    HW213215   4.894   1.135   1.913
 4106SOL     OW13216   0.285   2.109   3.655
 4106SOL    HW113217   0.242   2.088   3.567
 4106SOL    HW213218   0.232   2.179   3.702
 4107SOL     OW13219   0.727   5.899   6.630
 4107SOL    HW113220   0.710   5.802   6.619
 4107SOL    HW213221   0.755   5.938   6.543
 4108SOL     OW13222   0.611   5.735   4.204
 4108SOL    HW113223   0.543   5.701   4.269
 4108SOL    HW213224   0.619   5.834   4.212
 4109SOL     OW13225   5.636   5.841   3.394
 4109SOL    HW113226   5.615   5.841   3.296
 4109SOL    HW213227   5.731   5.871   3.407
 4110SOL     OW13228   3.936   3.039   6.381
 4110SOL    HW113229   4.018   2.984   6.396
 4110SOL    HW213230   3.897   3.017   6.292
 4111SOL     OW13231   5.782   4.968   6.440
 4111SOL    HW113232   5.747   5.025   6.365
 4111SOL    HW213233   5.735   4.991   6.525
 4112SOL     OW13234   5.284   6.723   4.681
 4112SOL    HW113235   5.347   6.790   4.718
 4112SOL    HW213236   5.291   6.721   4.581
 4113SOL     OW13237   4.645   5.020   4.950
 4113SOL    HW113238   4.611   4.949   4.888
 4113SOL    HW213239   4.730   5.059   4.913
 4114SOL     OW13240   6.228   1.365   2.948
 4114SOL    HW113241   6.268   1.383   3.038
 4114SOL    HW213242   6.259   1.275   2.916
 4115SOL     OW13243   2.524   4.597   3.593
 4115SOL    HW113244   2.545   4.695   3.602
 4115SOL    HW213245   2.542   4.552   3.680
 4116SOL     OW13246   5.054   2.821   3.889
 4116SOL    HW113247   5.118   2.799   3.815
 4116SOL    HW213248   5.004   2.904   3.866
 4117SOL     OW13249   1.546   2.166   2.896
 4117SOL    HW113250   1.575   2.255   2.860
 4117SOL    HW213251   1.535   2.102   2.820
 4118SOL     OW13252   6.554   6.679   6.046
 4118SOL    HW113253   6.545   6.671   6.145
 4118SOL    HW213254   6.531   6.772   6.018
 4119SOL     OW13255   3.137   0.729   3.329
 4119SOL    HW113256   3.197   0.658   3.292
 4119SOL    HW213257   3.071   0.756   3.260
 4120SOL     OW13258   4.239   1.754   6.377
 4120SOL    HW113259   4.261   1.799   6.290
 4120SOL    HW213260   4.316   1.764   6.440
 4121SOL     OW13261   6.534   6.632   2.343
 4121SOL    HW113262   6.445   6.590   2.357
 4121SOL    HW213263   6.528   6.730   2.363
 4122SOL     OW13264   0.987   6.601   4.856
 4122SOL    HW113265   1.046   6.564   4.928
 4122SOL    HW213266   1.014   6.694   4.835
 4123SOL     OW13267   4.376   5.212   4.095
 4123SOL    HW113268   4.406   5.160   4.175
 4123SOL    HW213269   4.394   5.309   4.110
 4124SOL     OW13270   6.742   6.719   1.004
 4124SOL    HW113271   6.798   6.752   0.928
 4124SOL    HW213272   6.657   6.773   1.009
 4125SOL     OW13273   4.756   2.812   2.575
 4125SOL    HW113274   4.773   2.830   2.672
 4125SOL    HW213275   4.821   2.744   2.542
 4126SOL     OW13276   1.558   3.005   1.993
 4126SOL    HW113277   1.551   3.055   2.079
 4126SOL    HW213278   1.592   2.913   2.011
 4127SOL     OW13279   4.743   2.702   4.843
 4127SOL    HW113280   4.722   2.710   4.745
 4127SOL    HW213281   4.730   2.608   4.873
 4128SOL     OW13282   0.771   2.861   1.684
 4128SOL    HW113283   0.858   2.816   1.702
 4128SOL    HW213284   0.753   2.861   1.585
 4129SOL     OW13285   3.522   1.394   0.278
 4129SOL    HW113286   3.563   1.354   0.196
 4129SOL    HW213287   3.594   1.419   0.342
 4130SOL     OW13288   6.062   2.347   0.715
 4130SOL    HW113289   6.055   2.333   0.814
 4130SOL    HW213290   5.987   2.405   0.684
 4131SOL     OW13291   6.580   0.562   2.510
 4131SOL    HW113292   6.643   0.572   2.433
 4131SOL    HW213293   6.564   0.651   2.552
 4132SOL     OW13294   5.933   3.851   4.257
 4132SOL    HW113295   5.862   3.918   4.233
 4132SOL    HW213296   5.930   3.832   4.355
 4133SOL     OW13297   4.526   6.358   1.063
 4133SOL    HW113298   4.620   6.328   1.045
 4133SOL    HW213299   4.482   6.382   0.977
 4134SOL     OW13300   2.355   3.053   0.707
 4134SOL    HW113301   2.446   3.041   0.668
 4134SOL    HW213302   2.363   3.078   0.804
 4135SOL     OW13303   0.279   2.119   2.520
 4135SOL    HW113304   0.288   2.019   2.519
 4135SOL    HW213305   0.182   2.144   2.516
 4136SOL     OW13306   1.114   3.508   1.748
 4136SOL    HW113307   1.200   3.523   1.699
 4136SOL    HW213308   1.040   3.556   1.701
 4137SOL     OW13309   1.129   2.836   0.235
 4137SOL    HW113310   1.132   2.815   0.137
 4137SOL    HW213311   1.221   2.828   0.273
 4138SOL     OW13312   3.859   4.992   1.340
 4138SOL    HW113313   3.910   4.949   1.414
 4138SOL    HW213314   3.764   5.004   1.369
 4139SOL     OW13315   1.255   2.100   4.050
 4139SOL    HW113316   1.179   2.049   4.011
 4139SOL    HW213317   1.259   2.085   4.149
 4140SOL     OW13318   3.329   2.073   4.066
 4140SOL    HW113319   3.283   1.991   4.102
 4140SOL    HW213320   3.362   2.129   4.143
 4141SOL     OW13321   4.938   0.340   0.091
 4141SOL    HW113322   4.851   0.366   0.132
 4141SOL    HW213323   4.968   0.411   0.027
 4142SOL     OW13324   6.905   4.242   1.871
 4142SOL    HW113325   6.890   4.176   1.945
 4142SOL    HW213326   6.984   4.299   1.894
 4143SOL     OW13327   5.478   3.365   0.585
 4143SOL    HW113328   5.415   3.290   0.562
 4143SOL    HW213329   5.465   3.391   0.680
 4144SOL     OW13330   5.071   1.580   0.187
 4144SOL    HW113331   5.044   1.618   0.275
 4144SOL    HW213332   5.088   1.482   0.197
 4145SOL     OW13333   1.466   5.984   0.722
 4145SOL    HW113334   1.402   6.041   0.671
 4145SOL    HW213335   1.416   5.919   0.778
 4146SOL     OW13336   6.953   0.866   3.825
 4146SOL    HW113337   6.890   0.930   3.871
 4146SOL    HW213338   6.945   0.776   3.868
 4147SOL     OW13339   5.389   4.496   6.025
 4147SOL    HW113340   5.428   4.485   6.116
 4147SOL    HW213341   5.331   4.417   6.004
 4148SOL     OW13342   2.749   0.461   5.397
 4148SOL    HW113343   2.703   0.513   5.470
 4148SOL    HW213344   2.782   0.524   5.327
 4149SOL     OW13345   0.368   3.537   1.860
 4149SOL    HW113346   0.304   3.466   1.832
 4149SOL    HW213347   0.368   3.610   1.791
 4150SOL     OW13348   6.944   1.966   5.278
 4150SOL    HW113349   7.007   1.964   5.200
 4150SOL    HW213350   6.895   1.880   5.284
 4151SOL     OW13351   1.845   0.066   5.475
 4151SOL    HW113352   1.825   0.086   5.571
 4151SOL    HW213353   1.939   0.033   5.467
 4152SOL     OW13354   4.151   5.502   2.075
 4152SOL    HW113355   4.091   5.506   2.154
 4152SOL    HW213356   4.097   5.518   1.992
 4153SOL     OW13357   6.278   5.110   1.759
 4153SOL    HW113358   6.179   5.125   1.757
 4153SOL    HW213359   6.319   5.139   1.673
 4154SOL     OW13360   0.581   5.972   3.665
 4154SOL    HW113361   0.502   5.911   3.666
 4154SOL    HW213362   0.659   5.925   3.622
 4155SOL     OW13363   0.092   1.903   1.099
 4155SOL    HW113364   0.052   1.988   1.133
 4155SOL    HW213365   0.042   1.873   1.018
 4156SOL     OW13366   6.906   5.236   4.958
 4156SOL    HW113367   6.822   5.184   4.939
 4156SOL    HW213368   6.883   5.317   5.011
 4157SOL     OW13369   5.625   5.872   3.132
 4157SOL    HW113370   5.691   5.847   3.061
 4157SOL    HW213371   5.630   5.971   3.148
 4158SOL     OW13372   1.981   2.541   2.137
 4158SOL    HW113373   2.059   2.479   2.149
 4158SOL    HW213374   1.940   2.526   2.047
 4159SOL     OW13375   2.976   2.117   3.484
 4159SOL    HW113376   3.067   2.142   3.517
 4159SOL    HW213377   2.906   2.163   3.538
 4160SOL     OW13378   5.832   0.248   7.000
 4160SOL    HW113379   5.879   0.308   6.936
 4160SOL    HW213380   5.802   0.300   0.056
 4161SOL     OW13381   1.686   1.807   1.569
 4161SOL    HW113382   1.737   1.871   1.626
 4161SOL    HW213383   1.749   1.758   1.510
 4162SOL     OW13384   6.254   5.602   1.445
 4162SOL    HW113385   6.327   5.659   1.481
 4162SOL    HW213386   6.277   5.573   1.351
 4163SOL     OW13387   5.779   1.469   3.219
 4163SOL    HW113388   5.874   1.444   3.204
 4163SOL    HW213389   5.754   1.544   3.157
 4164SOL     OW13390   0.858   6.904   5.590
 4164SOL    HW113391   0.769   6.947   5.607
 4164SOL    HW213392   0.869   6.889   5.491
 4165SOL     OW13393   4.775   6.996   6.311
 4165SOL    HW113394   4.763   0.072   6.305
 4165SOL    HW213395   4.706   6.951   6.255
 4166SOL     OW13396   5.667   1.396   1.582
 4166SOL    HW113397   5.656   1.467   1.513
 4166SOL    HW213398   5.613   1.316   1.557
 4167SOL     OW13399   3.180   5.163   6.229
 4167SOL    HW113400   3.187   5.234   6.159
 4167SOL    HW213401   3.091   5.119   6.222
 4168SOL     OW13402   0.018   4.112   0.725
 4168SOL    HW113403   6.972   4.061   0.674
 4168SOL    HW213404   0.018   4.207   0.695
 4169SOL     OW13405   5.910   4.005   5.071
 4169SOL    HW113406   5.935   4.090   5.024
 4169SOL    HW213407   5.980   3.983   5.139
 4170SOL     OW13408   4.694   2.797   5.091
 4170SOL    HW113409   4.693   2.763   4.997
 4170SOL    HW213410   4.759   2.872   5.099
 4171SOL     OW13411   0.818   5.517   0.921
 4171SOL    HW113412   0.746   5.460   0.962
 4171SOL    HW213413   0.868   5.463   0.853
 4172SOL     OW13414   2.338   2.686   0.237
 4172SOL    HW113415   2.249   2.649   0.265
 4172SOL    HW213416   2.361   2.764   0.294
 4173SOL     OW13417   5.303   3.388   5.303
 4173SOL    HW113418   5.264   3.476   5.276
 4173SOL    HW213419   5.238   3.339   5.361
 4174SOL     OW13420   5.216   1.389   2.311
 4174SOL    HW113421   5.251   1.431   2.395
 4174SOL    HW213422   5.166   1.305   2.335
 4175SOL     OW13423   1.672   4.632   4.795
 4175SOL    HW113424   1.720   4.545   4.781
 4175SOL    HW213425   1.736   4.699   4.833
 4176SOL     OW13426   4.134   6.969   1.245
 4176SOL    HW113427   4.179   6.921   1.320
 4176SOL    HW213428   4.042   6.931   1.231
 4177SOL     OW13429   5.522   4.722   4.922
 4177SOL    HW113430   5.427   4.735   4.894
 4177SOL    HW213431   5.526   4.704   5.021
 4178SOL     OW13432   4.397   0.529   3.295
 4178SOL    HW113433   4.388   0.509   3.393
 4178SOL    HW213434   4.316   0.496   3.247
 4179SOL     OW13435   5.302   4.048   3.281
 4179SOL    HW113436   5.351   4.041   3.368
 4179SOL    HW213437   5.327   3.971   3.223
 4180SOL     OW13438   4.686   2.872   0.781
 4180SOL    HW113439   4.713   2.777   0.792
 4180SOL    HW213440   4.650   2.907   0.867
 4181SOL     OW13441   4.580   0.648   6.861
 4181SOL    HW113442   4.599   0.603   6.773
 4181SOL    HW213443   4.640   0.728   6.871
 4182SOL     OW13444   0.572   5.083   2.998
 4182SOL    HW113445   0.477   5.089   3.029
 4182SOL    HW213446   0.602   4.987   2.999
 4183SOL     OW13447   2.858   1.093   0.479
 4183SOL    HW113448   2.823   1.132   0.394
 4183SOL    HW213449   2.956   1.113   0.486
 4184SOL     OW13450   3.615   0.260   2.294
 4184SOL    HW113451   3.712   0.241   2.313
 4184SOL    HW213452   3.591   0.220   2.205
 4185SOL     OW13453   1.081   4.256   3.419
 4185SOL    HW113454   1.072   4.328   3.487
 4185SOL    HW213455   0.989   4.227   3.390
 4186SOL     OW13456   2.315   5.756   6.598
 4186SOL    HW113457   2.327   5.843   6.550
 4186SOL    HW213458   2.229   5.757   6.649
 4187SOL     OW13459   2.542   2.997   6.086
 4187SOL    HW113460   2.602   2.918   6.097
 4187SOL    HW213461   2.458   2.983   6.139
 4188SOL     OW13462   5.124   0.703   5.019
 4188SOL    HW113463   5.151   0.794   5.050
 4188SOL    HW213464   5.132   0.638   5.094
 4189SOL     OW13465   3.816   5.024   4.405
 4189SOL    HW113466   3.887   5.002   4.338
 4189SOL    HW213467   3.729   5.036   4.357
 4190SOL     OW13468   0.840   0.206   1.152
 4190SOL    HW113469   0.833   0.164   1.062
 4190SOL    HW213470   0.786   0.290   1.153
 4191SOL     OW13471   5.599   4.053   4.875
 4191SOL    HW113472   5.594   3.960   4.909
 4191SOL    HW213473   5.605   4.117   4.952
 4192SOL     OW13474   1.018   1.399   2.550
 4192SOL    HW113475   0.934   1.417   2.600
 4192SOL    HW213476   1.060   1.486   2.524
 4193SOL     OW13477   5.461   0.802   0.916
 4193SOL    HW113478   5.398   0.853   0.976
 4193SOL    HW213479   5.419   0.792   0.826
 4194SOL     OW13480   4.751   0.012   4.249
 4194SOL    HW113481   4.698   7.003   4.171
 4194SOL    HW213482   4.840   0.046   4.218
 4195SOL     OW13483   4.218   5.127   1.627
 4195SOL    HW113484   4.262   5.188   1.561
 4195SOL    HW213485   4.259   5.140   1.717
 4196SOL     OW13486   6.638   2.458   2.854
 4196SOL    HW113487   6.714   2.424   2.909
 4196SOL    HW213488   6.649   2.557   2.840
 4197SOL     OW13489   4.602   5.532   5.671
 4197SOL    HW113490   4.681   5.549   5.730
 4197SOL    HW213491   4.540   5.610   5.675
 4198SOL     OW13492   6.830   1.944   1.222
 4198SOL    HW113493   6.845   1.999   1.139
 4198SOL    HW213494   6.873   1.854   1.210
 4199SOL     OW13495   1.052   2.052   5.637
 4199SOL    HW113496   0.991   2.017   5.566
 4199SOL    HW213497   1.036   2.149   5.651
 4200SOL     OW13498   2.907   0.337   6.935
 4200SOL    HW113499   2.844   0.385   6.996
 4200SOL    HW213500   2.940   0.254   6.980
 4201SOL     OW13501   6.251   0.178   3.691
 4201SOL    HW113502   6.320   0.147   3.758
 4201SOL    HW213503   6.171   0.118   3.697
 4202SOL     OW13504   2.450   5.641   6.192
 4202SOL    HW113505   2.395   5.558   6.182
 4202SOL    HW213506   2.461   5.662   6.290
 4203SOL     OW13507   4.893   4.271   0.427
 4203SOL    HW113508   4.982   4.272   0.472
 4203SOL    HW213509   4.877   4.359   0.383
 4204SOL     OW13510   4.096   3.650   4.491
 4204SOL    HW113511   4.112   3.597   4.407
 4204SOL    HW213512   4.100   3.748   4.469
 4205SOL     OW13513   4.273   5.938   4.669
 4205SOL    HW113514   4.318   5.972   4.752
 4205SOL    HW213515   4.210   5.864   4.692
 4206SOL     OW13516   6.409   1.585   4.800
 4206SOL    HW113517   6.331   1.631   4.758
 4206SOL    HW213518   6.474   1.653   4.833
 4207SOL     OW13519   2.135   2.685   1.770
 4207SOL    HW113520   2.113   2.765   1.713
 4207SOL    HW213521   2.054   2.626   1.777
 4208SOL     OW13522   0.041   3.360   5.493
 4208SOL    HW113523   0.039   3.459   5.481
 4208SOL    HW213524   0.044   3.338   5.591
 4209SOL     OW13525   6.938   6.165   3.573
 4209SOL    HW113526   6.962   6.229   3.501
 4209SOL    HW213527   6.993   6.185   3.655
 4210SOL     OW13528   3.346   3.181   2.411
 4210SOL    HW113529   3.323   3.271   2.446
 4210SOL    HW213530   3.442   3.180   2.381
 4211SOL     OW13531   3.658   0.567   5.553
 4211SOL    HW113532   3.665   0.608   5.644
 4211SOL    HW213533   3.685   0.471   5.559
 4212SOL     OW13534   6.054   2.298   2.912
 4212SOL    HW113535   6.083   2.343   2.996
 4212SOL    HW213536   5.996   2.220   2.934
 4213SOL     OW13537   2.936   0.498   2.299
 4213SOL    HW113538   2.903   0.592   2.295
 4213SOL    HW213539   3.005   0.483   2.229
 4214SOL     OW13540   0.109   5.546   5.716
 4214SOL    HW113541   0.037   5.477   5.722
 4214SOL    HW213542   0.067   5.636   5.706
 4215SOL     OW13543   4.996   6.666   5.385
 4215SOL    HW113544   5.022   6.755   5.347
 4215SOL    HW213545   5.057   6.643   5.460
 4216SOL     OW13546   1.637   1.017   2.978
 4216SOL    HW113547   1.734   1.020   2.956
 4216SOL    HW213548   1.595   1.106   2.958
 4217SOL     OW13549   1.294   1.126   2.942
 4217SOL    HW113550   1.322   1.103   3.035
 4217SOL    HW213551   1.200   1.097   2.928
 4218SOL     OW13552   3.273   0.900   1.421
 4218SOL    HW113553   3.298   0.832   1.353
 4218SOL    HW213554   3.300   0.991   1.390
 4219SOL     OW13555   4.437   5.452   4.220
 4219SOL    HW113556   4.404   5.437   4.313
 4219SOL    HW213557   4.426   5.549   4.197
 4220SOL     OW13558   6.475   3.223   2.688
 4220SOL    HW113559   6.463   3.322   2.696
 4220SOL    HW213560   6.526   3.202   2.604
 4221SOL     OW13561   5.886   4.701   6.058
 4221SOL    HW113562   5.851   4.608   6.066
 4221SOL    HW213563   5.972   4.700   6.007
 4222SOL     OW13564   6.932   1.739   2.242
 4222SOL    HW113565   6.912   1.833   2.270
 4222SOL    HW213566   6.848   1.686   2.240
 4223SOL     OW13567   2.975   3.661   1.073
 4223SOL    HW113568   2.956   3.648   0.975
 4223SOL    HW213569   2.888   3.664   1.123
 4224SOL     OW13570   5.561   5.081   4.197
 4224SOL    HW113571   5.536   5.127   4.112
 4224SOL    HW213572   5.633   5.014   4.178
 4225SOL     OW13573   2.199   2.892   5.249
 4225SOL    HW113574   2.231   2.882   5.343
 4225SOL    HW213575   2.255   2.960   5.201
 4226SOL     OW13576   0.909   6.647   3.026
 4226SOL    HW113577   0.973   6.597   2.966
 4226SOL    HW213578   0.816   6.633   2.993
 4227SOL     OW13579   3.605   5.458   1.960
 4227SOL    HW113580   3.662   5.378   1.978
 4227SOL    HW213581   3.648   5.539   2.000
 4228SOL     OW13582   0.777   6.070   5.428
 4228SOL    HW113583   0.710   6.140   5.451
 4228SOL    HW213584   0.856   6.077   5.488
 4229SOL     OW13585   4.965   5.760   5.807
 4229SOL    HW113586   5.055   5.735   5.770
 4229SOL    HW213587   4.973   5.840   5.865
 4230SOL     OW13588   1.665   5.713   2.886
 4230SOL    HW113589   1.678   5.635   2.947
 4230SOL    HW213590   1.635   5.792   2.939
 4231SOL     OW13591   5.065   6.733   5.904
 4231SOL    HW113592   5.132   6.717   5.977
 4231SOL    HW213593   4.979   6.690   5.929
 4232SOL     OW13594   1.464   4.609   3.204
 4232SOL    HW113595   1.547   4.645   3.247
 4232SOL    HW213596   1.471   4.509   3.198
 4233SOL     OW13597   6.036   0.642   5.065
 4233SOL    HW113598   6.013   0.547   5.087
 4233SOL    HW213599   6.096   0.679   5.136
 4234SOL     OW13600   2.056   5.233   5.253
 4234SOL    HW113601   2.036   5.275   5.342
 4234SOL    HW213602   1.971   5.197   5.213
 4235SOL     OW13603   5.853   4.186   5.942
 4235SOL    HW113604   5.880   4.142   6.028
 4235SOL    HW213605   5.759   4.160   5.920
 4236SOL     OW13606   6.355   3.592   2.142
 4236SOL    HW113607   6.433   3.654   2.147
 4236SOL    HW213608   6.324   3.584   2.047
 4237SOL     OW13609   6.103   5.280   3.760
 4237SOL    HW113610   6.110   5.272   3.859
 4237SOL    HW213611   6.076   5.373   3.735
 4238SOL     OW13612   1.593   6.373   2.862
 4238SOL    HW113613   1.500   6.343   2.842
 4238SOL    HW213614   1.620   6.443   2.796
 4239SOL     OW13615   5.118   1.130   2.764
 4239SOL    HW113616   5.082   1.046   2.724
 4239SOL    HW213617   5.216   1.138   2.744
 4240SOL     OW13618   2.076   5.639   0.435
 4240SOL    HW113619   2.113   5.558   0.481
 4240SOL    HW213620   2.010   5.684   0.495
 4241SOL     OW13621   5.624   1.110   0.949
 4241SOL    HW113622   5.549   1.138   0.889
 4241SOL    HW213623   5.670   1.192   0.985
 4242SOL     OW13624   3.078   1.987   4.481
 4242SOL    HW113625   3.059   2.060   4.547
 4242SOL    HW213626   3.063   2.021   4.388
 4243SOL     OW13627   6.116   2.552   2.506
 4243SOL    HW113628   6.092   2.505   2.420
 4243SOL    HW213629   6.078   2.501   2.583
 4244SOL     OW13630   4.113   4.336   1.465
 4244SOL    HW113631   4.105   4.434   1.444
 4244SOL    HW213632   4.165   4.325   1.550
 4245SOL     OW13633   6.501   1.362   6.478
 4245SOL    HW113634   6.600   1.379   6.483
 4245SOL    HW213635   6.457   1.400   6.560
 4246SOL     OW13636   6.904   3.973   2.992
 4246SOL    HW113637   6.916   3.930   2.902
 4246SOL    HW213638   6.811   4.009   3.000
 4247SOL     OW13639   2.872   6.100   3.759
 4247SOL    HW113640   2.796   6.039   3.737
 4247SOL    HW213641   2.856   6.190   3.718
 4248SOL     OW13642   3.569   1.363   3.555
 4248SOL    HW113643   3.647   1.395   3.501
 4248SOL    HW213644   3.518   1.295   3.503
 4249SOL     OW13645   6.623   2.887   5.024
 4249SOL    HW113646   6.700   2.824   5.012
 4249SOL    HW213647   6.612   2.909   5.121
 4250SOL     OW13648   6.519   4.222   2.847
 4250SOL    HW113649   6.457   4.283   2.896
 4250SOL    HW213650   6.588   4.276   2.799
 4251SOL     OW13651   5.647   4.482   0.902
 4251SOL    HW113652   5.728   4.540   0.899
 4251SOL    HW213653   5.672   4.389   0.876
 4252SOL     OW13654   5.684   6.282   5.376
 4252SOL    HW113655   5.679   6.378   5.346
 4252SOL    HW213656   5.711   6.280   5.472
 4253SOL     OW13657   3.424   6.290   0.639
 4253SOL    HW113658   3.417   6.236   0.723
 4253SOL    HW213659   3.348   6.267   0.579
 4254SOL     OW13660   0.797   2.457   2.319
 4254SOL    HW113661   0.811   2.358   2.319
 4254SOL    HW213662   0.802   2.492   2.412
 4255SOL     OW13663   5.819   3.711   3.515
 4255SOL    HW113664   5.818   3.618   3.477
 4255SOL    HW213665   5.840   3.707   3.612
 4256SOL     OW13666   1.651   0.216   0.758
 4256SOL    HW113667   1.601   0.173   0.683
 4256SOL    HW213668   1.587   0.241   0.831
 4257SOL     OW13669   3.373   0.536   3.888
 4257SOL    HW113670   3.325   0.605   3.834
 4257SOL    HW213671   3.397   0.574   3.977
 4258SOL     OW13672   5.207   5.941   1.233
 4258SOL    HW113673   5.219   6.030   1.277
 4258SOL    HW213674   5.153   5.952   1.149
 4259SOL     OW13675   2.777   0.634   0.292
 4259SOL    HW113676   2.736   0.573   0.360
 4259SOL    HW213677   2.804   0.719   0.336
 4260SOL     OW13678   5.160   7.022   6.686
 4260SOL    HW113679   5.124   0.001   6.779
 4260SOL    HW213680   5.152   6.930   6.649
 4261SOL     OW13681   1.775   0.036   1.888
 4261SOL    HW113682   1.777   7.018   1.979
 4261SOL    HW213683   1.779   0.136   1.897
 4262SOL     OW13684   0.457   4.201   5.165
 4262SOL    HW113685   0.433   4.123   5.222
 4262SOL    HW213686   0.383   4.267   5.165
 4263SOL     OW13687   2.786   6.540   3.489
 4263SOL    HW113688   2.749   6.501   3.405
 4263SOL    HW213689   2.864   6.599   3.467
 4264SOL     OW13690   0.386   2.797   2.710
 4264SOL    HW113691   0.460   2.849   2.753
 4264SOL    HW213692   0.425   2.721   2.658
 4265SOL     OW13693   5.487   1.319   0.785
 4265SOL    HW113694   5.394   1.288   0.801
 4265SOL    HW213695   5.518   1.289   0.695
 4266SOL     OW13696   1.989   4.936   0.494
 4266SOL    HW113697   2.058   4.890   0.439
 4266SOL    HW213698   2.017   4.937   0.590
 4267SOL     OW13699   1.924   3.663   4.525
 4267SOL    HW113700   2.003   3.633   4.578
 4267SOL    HW213701   1.862   3.715   4.584
 4268SOL     OW13702   1.415   5.954   6.358
 4268SOL    HW113703   1.381   5.964   6.452
 4268SOL    HW213704   1.455   5.863   6.347
 4269SOL     OW13705   2.544   1.333   1.920
 4269SOL    HW113706   2.616   1.354   1.986
 4269SOL    HW213707   2.455   1.363   1.956
 4270SOL     OW13708   4.007   3.869   3.811
 4270SOL    HW113709   4.037   3.822   3.728
 4270SOL    HW213710   3.910   3.894   3.802
 4271SOL     OW13711   0.402   1.400   6.923
 4271SOL    HW113712   0.405   1.313   6.873
 4271SOL    HW213713   0.318   1.448   6.900
 4272SOL     OW13714   0.017   2.845   5.024
 4272SOL    HW113715   6.995   2.758   5.002
 4272SOL    HW213716   0.044   2.845   5.121
 4273SOL     OW13717   4.615   6.109   5.269
 4273SOL    HW113718   4.705   6.087   5.231
 4273SOL    HW213719   4.585   6.199   5.235
 4274SOL     OW13720   1.732   6.744   1.696
 4274SOL    HW113721   1.797   6.820   1.697
 4274SOL    HW213722   1.687   6.736   1.785
 4275SOL     OW13723   6.442   1.319   4.774
 4275SOL    HW113724   6.541   1.306   4.765
 4275SOL    HW213725   6.422   1.416   4.788
 4276SOL     OW13726   2.053   4.836   3.737
 4276SOL    HW113727   2.141   4.865   3.701
 4276SOL    HW213728   1.980   4.875   3.681
 4277SOL     OW13729   6.303   4.898   4.316
 4277SOL    HW113730   6.294   4.813   4.369
 4277SOL    HW213731   6.400   4.919   4.305
 4278SOL     OW13732   0.320   0.499   4.683
 4278SOL    HW113733   0.253   0.425   4.686
 4278SOL    HW213734   0.274   0.584   4.659
 4279SOL     OW13735   3.597   0.111   5.112
 4279SOL    HW113736   3.672   0.160   5.067
 4279SOL    HW213737   3.538   0.071   5.042
 4280SOL     OW13738   5.269   0.208   6.271
 4280SOL    HW113739   5.177   0.238   6.296
 4280SOL    HW213740   5.300   0.258   6.191
 4281SOL     OW13741   1.042   5.351   3.938
 4281SOL    HW113742   0.965   5.400   3.979
 4281SOL    HW213743   1.127   5.399   3.959
 4282SOL     OW13744   3.471   3.742   6.684
 4282SOL    HW113745   3.456   3.811   6.613
 4282SOL    HW213746   3.522   3.665   6.645
 4283SOL     OW13747   2.080   0.686   3.400
 4283SOL    HW113748   2.062   0.712   3.495
 4283SOL    HW213749   2.055   0.591   3.386
 4284SOL     OW13750   4.255   4.950   1.309
 4284SOL    HW113751   4.205   4.921   1.391
 4284SOL    HW213752   4.311   5.029   1.331
 4285SOL     OW13753   0.360   0.665   5.994
 4285SOL    HW113754   0.331   0.591   6.054
 4285SOL    HW213755   0.281   0.701   5.944
 4286SOL     OW13756   5.005   5.889   6.260
 4286SOL    HW113757   4.973   5.945   6.184
 4286SOL    HW213758   5.105   5.897   6.268
 4287SOL     OW13759   5.472   1.632   6.814
 4287SOL    HW113760   5.511   1.712   6.858
 4287SOL    HW213761   5.425   1.576   6.882
 4288SOL     OW13762   1.497   5.849   3.492
 4288SOL    HW113763   1.518   5.754   3.518
 4288SOL    HW213764   1.431   5.887   3.556
 4289SOL     OW13765   6.670   3.430   1.032
 4289SOL    HW113766   6.711   3.343   1.057
 4289SOL    HW213767   6.632   3.425   0.940
 4290SOL     OW13768   1.978   6.976   2.865
 4290SOL    HW113769   1.950   6.937   2.953
 4290SOL    HW213770   2.075   7.002   2.870
 4291SOL     OW13771   3.829   3.679   1.330
 4291SOL    HW113772   3.875   3.629   1.256
 4291SOL    HW213773   3.733   3.692   1.307
 4292SOL     OW13774   6.348   4.792   6.381
 4292SOL    HW113775   6.439   4.771   6.344
 4292SOL    HW213776   6.287   4.820   6.307
 4293SOL     OW13777   1.118   3.493   0.727
 4293SOL    HW113778   1.109   3.415   0.666
 4293SOL    HW213779   1.056   3.482   0.805
 4294SOL     OW13780   2.955   2.926   0.122
 4294SOL    HW113781   2.929   2.951   0.029
 4294SOL    HW213782   2.932   3.000   0.184
 4295SOL     OW13783   4.063   5.620   4.449
 4295SOL    HW113784   3.993   5.552   4.470
 4295SOL    HW213785   4.096   5.661   4.534
 4296SOL     OW13786   4.381   0.721   0.589
 4296SOL    HW113787   4.288   0.695   0.562
 4296SOL    HW213788   4.433   0.746   0.507
 4297SOL     OW13789   5.495   0.801   6.828
 4297SOL    HW113790   5.545   0.759   6.752
 4297SOL    HW213791   5.490   0.736   6.904
 4298SOL     OW13792   3.285   5.340   6.836
 4298SOL    HW113793   3.220   5.265   6.820
 4298SOL    HW213794   3.264   5.383   6.924
 4299SOL     OW13795   1.174   2.801   6.971
 4299SOL    HW113796   1.143   2.887   6.932
 4299SOL    HW213797   1.252   2.767   6.920
 4300SOL     OW13798   4.224   0.652   6.851
 4300SOL    HW113799   4.297   0.630   6.915
 4300SOL    HW213800   4.191   0.568   6.808
 4301SOL     OW13801   3.789   1.904   1.028
 4301SOL    HW113802   3.735   1.822   1.049
 4301SOL    HW213803   3.804   1.956   1.112
 4302SOL     OW13804   1.447   6.778   5.607
 4302SOL    HW113805   1.501   6.857   5.635
 4302SOL    HW213806   1.496   6.694   5.630
 4303SOL     OW13807   6.049   4.606   4.391
 4303SOL    HW113808   6.044   4.551   4.308
 4303SOL    HW213809   5.961   4.653   4.405
 4304SOL     OW13810   3.117   3.933   3.218
 4304SOL    HW113811   3.200   3.934   3.163
 4304SOL    HW213812   3.040   3.901   3.161
 4305SOL     OW13813   6.583   0.636   4.444
 4305SOL    HW113814   6.602   0.544   4.478
 4305SOL    HW213815   6.628   0.649   4.356
 4306SOL     OW13816   6.499   3.391   6.965
 4306SOL    HW113817   6.433   3.384   6.890
 4306SOL    HW213818   6.523   3.300   6.997
 4307SOL     OW13819   4.313   3.501   5.960
 4307SOL    HW113820   4.390   3.463   6.011
 4307SOL    HW213821   4.335   3.595   5.933
 4308SOL     OW13822   5.916   5.633   6.624
 4308SOL    HW113823   5.869   5.587   6.699
 4308SOL    HW213824   5.886   5.595   6.537
 4309SOL     OW13825   1.395   1.538   0.638
 4309SOL    HW113826   1.302   1.504   0.624
 4309SOL    HW213827   1.395   1.605   0.712
 4310SOL     OW13828   1.725   2.933   3.191
 4310SOL    HW113829   1.804   2.990   3.212
 4310SOL    HW213830   1.645   2.990   3.178
 4311SOL     OW13831   1.857   5.732   3.697
 4311SOL    HW113832   1.954   5.712   3.684
 4311SOL    HW213833   1.811   5.650   3.732
 4312SOL     OW13834   1.370   4.772   0.556
 4312SOL    HW113835   1.392   4.810   0.466
 4312SOL    HW213836   1.327   4.843   0.612
 4313SOL     OW13837   4.638   1.922   1.216
 4313SOL    HW113838   4.730   1.960   1.215
 4313SOL    HW213839   4.634   1.848   1.284
 4314SOL     OW13840   5.697   1.392   4.554
 4314SOL    HW113841   5.661   1.344   4.635
 4314SOL    HW213842   5.796   1.379   4.549
 4315SOL     OW13843   2.709   6.871   2.153
 4315SOL    HW113844   2.693   6.889   2.056
 4315SOL    HW213845   2.621   6.865   2.200
 4316SOL     OW13846   5.043   6.806   1.439
 4316SOL    HW113847   4.973   6.745   1.403
 4316SOL    HW213848   5.067   6.778   1.532
 4317SOL     OW13849   4.028   1.287   5.056
 4317SOL    HW113850   3.930   1.282   5.079
 4317SOL    HW213851   4.044   1.366   4.997
 4318SOL     OW13852   0.698   3.604   3.905
 4318SOL    HW113853   0.745   3.590   3.818
 4318SOL    HW213854   0.646   3.522   3.927
 4319SOL     OW13855   1.912   2.737   0.414
 4319SOL    HW113856   1.920   2.836   0.432
 4319SOL    HW213857   1.816   2.713   0.403
 4320SOL     OW13858   5.833   6.384   2.107
 4320SOL    HW113859   5.809   6.344   2.018
 4320SOL    HW213860   5.790   6.474   2.116
 4321SOL     OW13861   0.004   6.563   4.944
 4321SOL    HW113862   7.019   6.527   4.851
 4321SOL    HW213863   6.976   6.505   5.007
 4322SOL     OW13864   6.452   2.149   6.692
 4322SOL    HW113865   6.417   2.192   6.609
 4322SOL    HW213866   6.541   2.107   6.673
 4323SOL     OW13867   5.045   4.041   1.191
 4323SOL    HW113868   5.132   4.061   1.147
 4323SOL    HW213869   4.971   4.050   1.124
 4324SOL     OW13870   5.479   4.158   6.180
 4324SOL    HW113871   5.491   4.110   6.267
 4324SOL    HW213872   5.384   4.188   6.171
 4325SOL     OW13873   2.733   1.300   1.527
 4325SOL    HW113874   2.808   1.252   1.482
 4325SOL    HW213875   2.770   1.367   1.592
 4326SOL     OW13876   5.299   4.127   5.353
 4326SOL    HW113877   5.211   4.082   5.369
 4326SOL    HW213878   5.371   4.059   5.344
 4327SOL     OW13879   6.206   5.705   2.148
 4327SOL    HW113880   6.133   5.772   2.135
 4327SOL    HW213881   6.177   5.636   2.214
 4328SOL     OW13882   4.254   3.521   5.693
 4328SOL    HW113883   4.317   3.465   5.747
 4328SOL    HW213884   4.227   3.472   5.610
 4329SOL     OW13885   4.081   2.042   5.537
 4329SOL    HW113886   4.093   1.943   5.550
 4329SOL    HW213887   4.023   2.078   5.610
 4330SOL     OW13888   3.008   0.551   5.100
 4330SOL    HW113889   3.064   0.537   5.018
 4330SOL    HW213890   3.060   0.604   5.168
 4331SOL     OW13891   5.272   2.800   0.470
 4331SOL    HW113892   5.319   2.809   0.382
 4331SOL    HW213893   5.339   2.774   0.540
 4332SOL     OW13894   5.018   4.684   2.400
 4332SOL    HW113895   5.034   4.668   2.302
 4332SOL    HW213896   4.920   4.692   2.417
 4333SOL     OW13897   3.908   0.658   5.111
 4333SOL    HW113898   3.871   0.750   5.125
 4333SOL    HW213899   4.008   0.661   5.119
 4334SOL     OW13900   1.845   2.114   2.688
 4334SOL    HW113901   1.921   2.155   2.739
 4334SOL    HW213902   1.881   2.076   2.602
 4335SOL     OW13903   3.590   3.761   2.918
 4335SOL    HW113904   3.617   3.857   2.913
 4335SOL    HW213905   3.642   3.709   2.850
 4336SOL     OW13906   1.502   6.769   6.523
 4336SOL    HW113907   1.485   6.850   6.580
 4336SOL    HW213908   1.426   6.705   6.534
 4337SOL     OW13909   0.469   4.673   0.739
 4337SOL    HW113910   0.490   4.652   0.643
 4337SOL    HW213911   0.422   4.595   0.780
 4338SOL     OW13912   5.208   5.671   4.522
 4338SOL    HW113913   5.190   5.672   4.620
 4338SOL    HW213914   5.124   5.692   4.472
 4339SOL     OW13915   5.928   3.088   5.350
 4339SOL    HW113916   6.012   3.103   5.298
 4339SOL    HW213917   5.884   3.004   5.320
 4340SOL     OW13918   6.384   4.157   1.724
 4340SOL    HW113919   6.429   4.119   1.806
 4340SOL    HW213920   6.296   4.112   1.711
 4341SOL     OW13921   0.314   5.917   2.249
 4341SOL    HW113922   0.329   5.849   2.177
 4341SOL    HW213923   0.255   5.990   2.214
 4342SOL     OW13924   6.246   3.486   4.128
 4342SOL    HW113925   6.147   3.493   4.141
 4342SOL    HW213926   6.265   3.435   4.045
 4343SOL     OW13927   2.649   6.359   6.159
 4343SOL    HW113928   2.721   6.343   6.226
 4343SOL    HW213929   2.646   6.456   6.136
 4344SOL     OW13930   1.684   5.513   3.057
 4344SOL    HW113931   1.782   5.510   3.037
 4344SOL    HW213932   1.663   5.445   3.128
 4345SOL     OW13933   2.515   2.777   5.289
 4345SOL    HW113934   2.584   2.779   5.361
 4345SOL    HW213935   2.492   2.870   5.261
 4346SOL     OW13936   1.813   3.176   2.025
 4346SOL    HW113937   1.871   3.255   2.003
 4346SOL    HW213938   1.747   3.162   1.951
 4347SOL     OW13939   5.887   6.801   2.916
 4347SOL    HW113940   5.789   6.799   2.938
 4347SOL    HW213941   5.906   6.731   2.846
 4348SOL     OW13942   6.923   4.145   2.602
 4348SOL    HW113943   6.866   4.065   2.618
 4348SOL    HW213944   6.986   4.157   2.680
 4349SOL     OW13945   6.871   2.003   2.359
 4349SOL    HW113946   6.837   1.971   2.448
 4349SOL    HW213947   6.965   1.972   2.346
 4350SOL     OW13948   5.288   2.182   3.909
 4350SOL    HW113949   5.215   2.123   3.875
 4350SOL    HW213950   5.324   2.145   3.995
 4351SOL     OW13951   1.847   6.549   1.085
 4351SOL    HW113952   1.863   6.510   0.995
 4351SOL    HW213953   1.809   6.479   1.146
 4352SOL     OW13954   1.107   3.077   2.260
 4352SOL    HW113955   1.196   3.111   2.292
 4352SOL    HW213956   1.118   2.984   2.225
 4353SOL     OW13957   3.490   3.344   0.056
 4353SOL    HW113958   3.554   3.387   7.015
 4353SOL    HW213959   3.412   3.306   0.005
 4354SOL     OW13960   2.578   6.898   5.775
 4354SOL    HW113961   2.534   6.982   5.742
 4354SOL    HW213962   2.543   6.877   5.867
 4355SOL     OW13963   3.212   0.199   2.321
 4355SOL    HW113964   3.174   0.129   2.261
 4355SOL    HW213965   3.258   0.269   2.266
 4356SOL     OW13966   4.820   4.273   0.986
 4356SOL    HW113967   4.808   4.174   0.980
 4356SOL    HW213968   4.832   4.300   1.081
 4357SOL     OW13969   5.989   0.415   0.223
 4357SOL    HW113970   5.998   0.470   0.139
 4357SOL    HW213971   6.060   0.345   0.224
 4358SOL     OW13972   0.035   6.518   0.239
 4358SOL    HW113973   0.087   6.511   0.154
 4358SOL    HW213974   6.960   6.517   0.218
 4359SOL     OW13975   2.186   2.023   6.462
 4359SOL    HW113976   2.123   2.096   6.435
 4359SOL    HW213977   2.277   2.041   6.424
 4360SOL     OW13978   1.312   2.518   4.225
 4360SOL    HW113979   1.409   2.505   4.207
 4360SOL    HW213980   1.261   2.517   4.139
 4361SOL     OW13981   2.761   3.378   1.314
 4361SOL    HW113982   2.845   3.389   1.368
 4361SOL    HW213983   2.759   3.446   1.241
 4362SOL     OW13984   6.279   5.222   2.893
 4362SOL    HW113985   6.211   5.276   2.842
 4362SOL    HW213986   6.296   5.137   2.845
 4363SOL     OW13987   4.801   2.735   0.127
 4363SOL    HW113988   4.719   2.755   0.074
 4363SOL    HW213989   4.815   2.807   0.196
 4364SOL     OW13990   3.412   3.559   5.105
 4364SOL    HW113991   3.374   3.640   5.061
 4364SOL    HW213992   3.495   3.531   5.058
 4365SOL     OW13993   2.160   2.232   2.030
 4365SOL    HW113994   2.160   2.244   1.931
 4365SOL    HW213995   2.215   2.152   2.053
 4366SOL     OW13996   6.175   6.407   0.322
 4366SOL    HW113997   6.193   6.368   0.412
 4366SOL    HW213998   6.133   6.497   0.332
 4367SOL     OW13999   2.480   4.516   4.900
 4367SOL    HW114000   2.507   4.600   4.853
 4367SOL    HW214001   2.548   4.494   4.970
 4368SOL     OW14002   4.181   4.258   0.832
 4368SOL    HW114003   4.197   4.190   0.904
 4368SOL    HW214004   4.116   4.220   0.765
 4369SOL     OW14005   3.506   5.767   4.118
 4369SOL    HW114006   3.546   5.858   4.122
 4369SOL    HW214007   3.575   5.701   4.090
 4370SOL     OW14008   5.111   5.153   2.890
 4370SOL    HW114009   5.206   5.181   2.883
 4370SOL    HW214010   5.104   5.067   2.940
 4371SOL     OW14011   0.775   1.537   1.447
 4371SOL    HW114012   0.717   1.614   1.474
 4371SOL    HW214013   0.805   1.549   1.352
 4372SOL     OW14014   3.791   1.001   3.008
 4372SOL    HW114015   3.798   1.067   3.083
 4372SOL    HW214016   3.708   1.020   2.956
 4373SOL     OW14017   6.932   2.273   6.593
 4373SOL    HW114018   6.934   2.262   6.494
 4373SOL    HW214019   6.882   2.357   6.616
 4374SOL     OW14020   0.971   1.807   2.446
 4374SOL    HW114021   1.054   1.763   2.411
 4374SOL    HW214022   0.933   1.752   2.520
 4375SOL     OW14023   3.579   0.426   3.115
 4375SOL    HW114024   3.512   0.362   3.152
 4375SOL    HW214025   3.657   0.376   3.077
 4376SOL     OW14026   6.261   6.686   2.430
 4376SOL    HW114027   6.326   6.741   2.378
 4376SOL    HW214028   6.182   6.665   2.372
 4377SOL     OW14029   5.409   4.228   0.747
 4377SOL    HW114030   5.344   4.195   0.815
 4377SOL    HW214031   5.409   4.328   0.748
 4378SOL     OW14032   2.259   1.528   2.762
 4378SOL    HW114033   2.314   1.611   2.760
 4378SOL    HW214034   2.235   1.505   2.857
 4379SOL     OW14035   1.910   0.983   2.676
 4379SOL    HW114036   1.900   0.909   2.609
 4379SOL    HW214037   1.997   1.029   2.662
 4380SOL     OW14038   1.601   6.776   2.993
 4380SOL    HW114039   1.527   6.843   2.988
 4380SOL    HW214040   1.686   6.823   3.017
 4381SOL     OW14041   0.678   5.820   5.447
 4381SOL    HW114042   0.716   5.912   5.436
 4381SOL    HW214043   0.628   5.815   5.533
 4382SOL     OW14044   0.810   3.866   5.213
 4382SOL    HW114045   0.772   3.928   5.144
 4382SOL    HW214046   0.737   3.835   5.274
 4383SOL     OW14047   0.206   3.443   0.084
 4383SOL    HW114048   0.108   3.428   0.099
 4383SOL    HW214049   0.258   3.386   0.147
 4384SOL     OW14050   6.010   0.271   4.592
 4384SOL    HW114051   5.992   0.300   4.686
 4384SOL    HW214052   5.975   0.340   4.529
 4385SOL     OW14053   5.313   2.726   4.942
 4385SOL    HW114054   5.222   2.767   4.939
 4385SOL    HW214055   5.313   2.649   5.005
 4386SOL     OW14056   1.837   3.423   6.020
 4386SOL    HW114057   1.776   3.347   6.042
 4386SOL    HW214058   1.810   3.464   5.933
 4387SOL     OW14059   6.598   2.544   1.721
 4387SOL    HW114060   6.532   2.570   1.792
 4387SOL    HW214061   6.690   2.566   1.753
 4388SOL     OW14062   4.332   2.407   5.779
 4388SOL    HW114063   4.240   2.434   5.751
 4388SOL    HW214064   4.379   2.363   5.703
 4389SOL     OW14065   6.004   3.180   1.278
 4389SOL    HW114066   5.964   3.179   1.187
 4389SOL    HW214067   6.050   3.093   1.296
 4390SOL     OW14068   3.633   6.786   1.801
 4390SOL    HW114069   3.594   6.697   1.776
 4390SOL    HW214070   3.728   6.773   1.831
 4391SOL     OW14071   2.199   5.956   0.152
 4391SOL    HW114072   2.100   5.964   0.156
 4391SOL    HW214073   2.239   6.044   0.126
 4392SOL     OW14074   0.343   2.771   5.318
 4392SOL    HW114075   0.440   2.787   5.338
 4392SOL    HW214076   0.321   2.675   5.334
 4393SOL     OW14077   6.293   1.204   1.757
 4393SOL    HW114078   6.241   1.119   1.760
 4393SOL    HW214079   6.356   1.202   1.680
 4394SOL     OW14080   6.854   5.439   2.311
 4394SOL    HW114081   6.791   5.388   2.370
 4394SOL    HW214082   6.861   5.533   2.343
 4395SOL     OW14083   2.122   0.392   2.010
 4395SOL    HW114084   2.040   0.346   2.046
 4395SOL    HW214085   2.111   0.405   1.911
 4396SOL     OW14086   1.794   1.419   3.970
 4396SOL    HW114087   1.743   1.473   4.037
 4396SOL    HW214088   1.890   1.413   3.998
 4397SOL     OW14089   1.887   2.637   3.918
 4397SOL    HW114090   1.843   2.724   3.939
 4397SOL    HW214091   1.844   2.564   3.971
 4398SOL     OW14092   1.113   3.510   6.022
 4398SOL    HW114093   1.171   3.499   5.941
 4398SOL    HW214094   1.065   3.425   6.041
 4399SOL     OW14095   3.502   6.249   2.643
 4399SOL    HW114096   3.539   6.210   2.728
 4399SOL    HW214097   3.524   6.346   2.639
 4400SOL     OW14098   2.094   6.635   5.085
 4400SOL    HW114099   2.024   6.667   5.148
 4400SOL    HW214100   2.183   6.638   5.130
 4401SOL     OW14101   2.820   6.918   5.631
 4401SOL    HW114102   2.737   6.893   5.680
 4401SOL    HW214103   2.818   7.016   5.609
 4402SOL     OW14104   1.553   0.379   2.526
 4402SOL    HW114105   1.457   0.350   2.534
 4402SOL    HW214106   1.560   0.477   2.542
 4403SOL     OW14107   0.815   0.582   0.721
 4403SOL    HW114108   0.863   0.651   0.775
 4403SOL    HW214109   0.729   0.619   0.686
 4404SOL     OW14110   1.825   6.388   5.876
 4404SOL    HW114111   1.788   6.388   5.783
 4404SOL    HW214112   1.822   6.481   5.913
 4405SOL     OW14113   1.960   4.280   1.696
 4405SOL    HW114114   1.953   4.311   1.601
 4405SOL    HW214115   1.915   4.191   1.705
 4406SOL     OW14116   0.889   2.684   0.770
 4406SOL    HW114117   0.790   2.674   0.760
 4406SOL    HW214118   0.935   2.631   0.699
 4407SOL     OW14119   6.599   5.847   1.343
 4407SOL    HW114120   6.615   5.808   1.253
 4407SOL    HW214121   6.687   5.858   1.391
 4408SOL     OW14122   2.375   6.996   0.709
 4408SOL    HW114123   2.285   7.013   0.749
 4408SOL    HW214124   2.398   0.047   0.646
 4409SOL     OW14125   4.539   1.253   2.298
 4409SOL    HW114126   4.522   1.204   2.384
 4409SOL    HW214127   4.477   1.221   2.227
 4410SOL     OW14128   0.476   4.522   0.475
 4410SOL    HW114129   0.396   4.481   0.431
 4410SOL    HW214130   0.559   4.487   0.431
 4411SOL     OW14131   3.934   4.223   5.151
 4411SOL    HW114132   3.891   4.309   5.180
 4411SOL    HW214133   4.029   4.239   5.127
 4412SOL     OW14134   4.720   6.240   3.875
 4412SOL    HW114135   4.785   6.251   3.800
 4412SOL    HW214136   4.679   6.328   3.897
 4413SOL     OW14137   5.864   4.731   4.023
 4413SOL    HW114138   5.961   4.722   4.042
 4413SOL    HW214139   5.822   4.640   4.021
 4414SOL     OW14140   3.612   5.729   1.193
 4414SOL    HW114141   3.614   5.633   1.165
 4414SOL    HW214142   3.652   5.786   1.121
 4415SOL     OW14143   4.499   2.621   0.137
 4415SOL    HW114144   4.556   2.591   0.061
 4415SOL    HW214145   4.461   2.711   0.117
 4416SOL     OW14146   4.296   1.814   3.818
 4416SOL    HW114147   4.224   1.882   3.827
 4416SOL    HW214148   4.262   1.734   3.768
 4417SOL     OW14149   6.130   3.986   4.004
 4417SOL    HW114150   6.097   3.982   4.098
 4417SOL    HW214151   6.170   4.077   3.986
 4418SOL     OW14152   6.317   1.578   2.688
 4418SOL    HW114153   6.285   1.575   2.593
 4418SOL    HW214154   6.302   1.669   2.725
 4419SOL     OW14155   5.903   0.406   5.478
 4419SOL    HW114156   5.982   0.409   5.540
 4419SOL    HW214157   5.819   0.401   5.531
 4420SOL     OW14158   4.061   1.058   1.810
 4420SOL    HW114159   3.985   1.001   1.779
 4420SOL    HW214160   4.041   1.093   1.901
 4421SOL     OW14161   1.953   1.906   4.675
 4421SOL    HW114162   1.970   1.916   4.577
 4421SOL    HW214163   1.896   1.982   4.707
 4422SOL     OW14164   1.393   4.420   6.741
 4422SOL    HW114165   1.322   4.478   6.701
 4422SOL    HW214166   1.351   4.349   6.797
 4423SOL     OW14167   0.017   3.652   5.443
 4423SOL    HW114168   0.083   3.706   5.497
 4423SOL    HW214169   0.001   3.697   5.355
 4424SOL     OW14170   5.460   0.685   4.088
 4424SOL    HW114171   5.446   0.750   4.163
 4424SOL    HW214172   5.425   0.595   4.116
 4425SOL     OW14173   3.567   4.805   0.126
 4425SOL    HW114174   3.521   4.863   0.059
 4425SOL    HW214175   3.499   4.763   0.187
 4426SOL     OW14176   1.086   0.892   3.852
 4426SOL    HW114177   0.996   0.936   3.844
 4426SOL    HW214178   1.117   0.898   3.947
 4427SOL     OW14179   5.920   6.616   2.661
 4427SOL    HW114180   5.961   6.528   2.687
 4427SOL    HW214181   5.976   6.659   2.589
 4428SOL     OW14182   4.065   0.557   3.467
 4428SOL    HW114183   4.146   0.498   3.477
 4428SOL    HW214184   4.034   0.587   3.557
 4429SOL     OW14185   2.941   0.280   2.017
 4429SOL    HW114186   2.864   0.343   2.017
 4429SOL    HW214187   2.931   0.214   2.092
 4430SOL     OW14188   5.050   5.010   4.965
 4430SOL    HW114189   4.989   4.936   4.992
 4430SOL    HW214190   5.138   4.971   4.937
 4431SOL     OW14191   2.386   0.773   2.891
 4431SOL    HW114192   2.395   0.872   2.903
 4431SOL    HW214193   2.426   0.726   2.969
 4432SOL     OW14194   2.691   3.207   6.052
 4432SOL    HW114195   2.646   3.294   6.031
 4432SOL    HW214196   2.622   3.134   6.054
 4433SOL     OW14197   6.155   2.217   4.194
 4433SOL    HW114198   6.100   2.300   4.189
 4433SOL    HW214199   6.178   2.186   4.102
 4434SOL     OW14200   5.682   1.639   3.023
 4434SOL    HW114201   5.676   1.736   3.000
 4434SOL    HW214202   5.757   1.598   2.972
 4435SOL     OW14203   4.439   3.598   1.175
 4435SOL    HW114204   4.495   3.620   1.255
 4435SOL    HW214205   4.351   3.562   1.204
 4436SOL     OW14206   4.481   1.003   1.555
 4436SOL    HW114207   4.553   1.059   1.597
 4436SOL    HW214208   4.523   0.920   1.516
 4437SOL     OW14209   1.069   2.993   2.885
 4437SOL    HW114210   1.042   3.023   2.793
 4437SOL    HW214211   1.158   2.946   2.879
 4438SOL     OW14212   4.689   6.964   6.605
 4438SOL    HW114213   4.741   7.007   6.530
 4438SOL    HW214214   4.746   6.958   6.686
 4439SOL     OW14215   0.339   4.191   1.792
 4439SOL    HW114216   0.293   4.150   1.870
 4439SOL    HW214217   0.274   4.245   1.739
 4440SOL     OW14218   3.164   5.008   1.024
 4440SOL    HW114219   3.184   5.103   0.999
 4440SOL    HW214220   3.205   4.988   1.113
 4441SOL     OW14221   0.352   1.436   1.751
 4441SOL    HW114222   0.282   1.475   1.691
 4441SOL    HW214223   0.387   1.507   1.813
 4442SOL     OW14224   1.748   5.120   4.319
 4442SOL    HW114225   1.740   5.060   4.398
 4442SOL    HW214226   1.711   5.210   4.342
 4443SOL     OW14227   1.524   3.540   5.698
 4443SOL    HW114228   1.491   3.527   5.605
 4443SOL    HW214229   1.573   3.458   5.728
 4444SOL     OW14230   3.498   3.873   7.020
 4444SOL    HW114231   3.565   3.915   6.960
 4444SOL    HW214232   3.408   3.914   7.004
 4445SOL     OW14233   1.294   6.605   0.128
 4445SOL    HW114234   1.384   6.564   0.116
 4445SOL    HW214235   1.295   6.666   0.207
 4446SOL     OW14236   5.052   2.140   0.902
 4446SOL    HW114237   4.968   2.193   0.888
 4446SOL    HW214238   5.097   2.169   0.986
 4447SOL     OW14239   5.803   3.998   5.338
 4447SOL    HW114240   5.768   3.986   5.431
 4447SOL    HW214241   5.781   4.091   5.306
 4448SOL     OW14242   2.476   5.425   1.570
 4448SOL    HW114243   2.386   5.466   1.561
 4448SOL    HW214244   2.476   5.334   1.529
 4449SOL     OW14245   5.263   0.905   5.930
 4449SOL    HW114246   5.208   0.824   5.951
 4449SOL    HW214247   5.208   0.972   5.880
 4450SOL     OW14248   3.561   2.171   6.061
 4450SOL    HW114249   3.470   2.207   6.082
 4450SOL    HW214250   3.630   2.237   6.090
 4451SOL     OW14251   5.292   4.940   4.198
 4451SOL    HW114252   5.197   4.963   4.177
 4451SOL    HW214253   5.348   5.023   4.192
 4452SOL     OW14254   5.688   5.914   4.163
 4452SOL    HW114255   5.698   5.956   4.073
 4452SOL    HW214256   5.674   5.815   4.152
 4453SOL     OW14257   1.523   2.838   1.678
 4453SOL    HW114258   1.486   2.856   1.587
 4453SOL    HW214259   1.601   2.897   1.696
 4454SOL     OW14260   1.431   1.534   0.119
 4454SOL    HW114261   1.333   1.539   0.137
 4454SOL    HW214262   1.456   1.439   0.098
 4455SOL     OW14263   5.513   5.446   5.498
 4455SOL    HW114264   5.573   5.509   5.450
 4455SOL    HW214265   5.468   5.385   5.432
 4456SOL     OW14266   2.447   6.369   3.381
 4456SOL    HW114267   2.514   6.400   3.314
 4456SOL    HW214268   2.364   6.338   3.333
 4457SOL     OW14269   3.758   1.446   3.377
 4457SOL    HW114270   3.715   1.501   3.306
 4457SOL    HW214271   3.816   1.504   3.434
 4458SOL     OW14272   2.272   3.325   0.844
 4458SOL    HW114273   2.214   3.399   0.879
 4458SOL    HW214274   2.245   3.303   0.751
 4459SOL     OW14275   4.096   2.212   4.639
 4459SOL    HW114276   4.100   2.246   4.733
 4459SOL    HW214277   4.141   2.124   4.633
 4460SOL     OW14278   0.950   3.025   0.308
 4460SOL    HW114279   1.033   2.973   0.288
 4460SOL    HW214280   0.878   2.998   0.245
 4461SOL     OW14281   1.895   0.717   0.901
 4461SOL    HW114282   1.918   0.645   0.967
 4461SOL    HW214283   1.928   0.805   0.935
 4462SOL     OW14284   5.790   4.893   2.404
 4462SOL    HW114285   5.864   4.961   2.398
 4462SOL    HW214286   5.778   4.850   2.315
 4463SOL     OW14287   4.611   1.315   0.662
 4463SOL    HW114288   4.558   1.343   0.742
 4463SOL    HW214289   4.585   1.223   0.636
 4464SOL     OW14290   0.307   5.773   0.569
 4464SOL    HW114291   0.382   5.831   0.599
 4464SOL    HW214292   0.234   5.830   0.531
 4465SOL     OW14293   3.593   5.197   0.967
 4465SOL    HW114294   3.632   5.125   1.024
 4465SOL    HW214295   3.526   5.158   0.904
 4466SOL     OW14296   1.119   2.123   3.266
 4466SOL    HW114297   1.106   2.055   3.194
 4466SOL    HW214298   1.030   2.158   3.295
 4467SOL     OW14299   2.214   5.094   3.276
 4467SOL    HW114300   2.154   5.116   3.353
 4467SOL    HW214301   2.175   5.016   3.226
 4468SOL     OW14302   1.773   4.095   0.796
 4468SOL    HW114303   1.787   4.041   0.713
 4468SOL    HW214304   1.852   4.086   0.857
 4469SOL     OW14305   3.489   0.951   1.001
 4469SOL    HW114306   3.525   1.044   0.998
 4469SOL    HW214307   3.389   0.954   0.995
 4470SOL     OW14308   0.472   1.583   2.646
 4470SOL    HW114309   0.526   1.659   2.610
 4470SOL    HW214310   0.479   1.581   2.746
 4471SOL     OW14311   0.772   2.803   6.834
 4471SOL    HW114312   0.852   2.754   6.867
 4471SOL    HW214313   0.765   2.792   6.735
 4472SOL     OW14314   0.103   2.802   1.701
 4472SOL    HW114315   0.105   2.716   1.752
 4472SOL    HW214316   0.153   2.872   1.753
 4473SOL     OW14317   6.018   3.088   4.456
 4473SOL    HW114318   6.112   3.118   4.438
 4473SOL    HW214319   6.019   3.009   4.516
 4474SOL     OW14320   3.267   6.709   2.007
 4474SOL    HW114321   3.365   6.720   2.026
 4474SOL    HW214322   3.237   6.620   2.042
 4475SOL     OW14323   1.380   3.917   1.905
 4475SOL    HW114324   1.377   4.009   1.866
 4475SOL    HW214325   1.470   3.877   1.888
 4476SOL     OW14326   6.186   1.365   3.414
 4476SOL    HW114327   6.262   1.339   3.474
 4476SOL    HW214328   6.128   1.285   3.399
 4477SOL     OW14329   1.799   0.582   5.219
 4477SOL    HW114330   1.831   0.543   5.133
 4477SOL    HW214331   1.703   0.607   5.211
 4478SOL     OW14332   2.794   6.878   2.631
 4478SOL    HW114333   2.797   6.902   2.728
 4478SOL    HW214334   2.798   6.962   2.576
 4479SOL     OW14335   0.244   2.142   1.681
 4479SOL    HW114336   0.152   2.180   1.689
 4479SOL    HW214337   0.238   2.045   1.659
 4480SOL     OW14338   0.022   3.975   4.916
 4480SOL    HW114339   0.035   4.067   4.951
 4480SOL    HW214340   0.098   3.917   4.945
 4481SOL     OW14341   2.303   5.271   5.119
 4481SOL    HW114342   2.218   5.229   5.151
 4481SOL    HW214343   2.307   5.365   5.152
 4482SOL     OW14344   1.961   3.084   5.404
 4482SOL    HW114345   2.044   3.119   5.360
 4482SOL    HW214346   1.918   3.015   5.346
 4483SOL     OW14347   6.690   2.166   2.289
 4483SOL    HW114348   6.771   2.117   2.320
 4483SOL    HW214349   6.629   2.183   2.367
 4484SOL     OW14350   3.171   2.266   6.627
 4484SOL    HW114351   3.095   2.258   6.692
 4484SOL    HW214352   3.245   2.320   6.668
 4485SOL     OW14353   5.792   2.632   4.795
 4485SOL    HW114354   5.780   2.706   4.729
 4485SOL    HW214355   5.716   2.567   4.786
 4486SOL     OW14356   6.140   5.410   4.575
 4486SOL    HW114357   6.192   5.325   4.565
 4486SOL    HW214358   6.050   5.390   4.613
 4487SOL     OW14359   2.750   2.714   6.896
 4487SOL    HW114360   2.675   2.685   6.956
 4487SOL    HW214361   2.833   2.664   6.920
 4488SOL     OW14362   1.320   3.391   5.188
 4488SOL    HW114363   1.305   3.477   5.236
 4488SOL    HW214364   1.239   3.333   5.198
 4489SOL     OW14365   4.932   5.388   4.783
 4489SOL    HW114366   5.011   5.449   4.789
 4489SOL    HW214367   4.860   5.420   4.844
 4490SOL     OW14368   5.102   2.218   1.358
 4490SOL    HW114369   5.083   2.316   1.355
 4490SOL    HW214370   5.118   2.190   1.452
 4491SOL     OW14371   0.121   3.619   3.803
 4491SOL    HW114372   0.174   3.665   3.732
 4491SOL    HW214373   0.177   3.609   3.885
 4492SOL     OW14374   6.185   3.542   1.923
 4492SOL    HW114375   6.110   3.607   1.913
 4492SOL    HW214376   6.160   3.471   1.989
 4493SOL     OW14377   5.381   5.982   4.875
 4493SOL    HW114378   5.337   5.926   4.945
 4493SOL    HW214379   5.466   5.938   4.845
 4494SOL     OW14380   0.120   0.731   5.876
 4494SOL    HW114381   0.090   0.670   5.802
 4494SOL    HW214382   0.046   0.744   5.941
 4495SOL     OW14383   4.606   0.326   3.857
 4495SOL    HW114384   4.675   0.378   3.908
 4495SOL    HW214385   4.649   0.278   3.781
 4496SOL     OW14386   5.432   6.280   0.607
 4496SOL    HW114387   5.439   6.267   0.706
 4496SOL    HW214388   5.408   6.375   0.588
 4497SOL     OW14389   4.116   1.955   6.589
 4497SOL    HW114390   4.142   1.951   6.493
 4497SOL    HW214391   4.186   1.910   6.645
 4498SOL     OW14392   6.797   4.658   6.893
 4498SOL    HW114393   6.709   4.637   6.851
 4498SOL    HW214394   6.870   4.616   6.840
 4499SOL     OW14395   6.127   3.287   3.441
 4499SOL    HW114396   6.108   3.334   3.527
 4499SOL    HW214397   6.224   3.295   3.419
 4500SOL     OW14398   3.631   3.915   5.991
 4500SOL    HW114399   3.543   3.958   6.013
 4500SOL    HW214400   3.641   3.909   5.891
 4501SOL     OW14401   6.735   3.605   2.853
 4501SOL    HW114402   6.751   3.532   2.920
 4501SOL    HW214403   6.808   3.672   2.860
 4502SOL     OW14404   0.670   3.490   0.132
 4502SOL    HW114405   0.720   3.453   0.210
 4502SOL    HW214406   0.641   3.416   0.071
 4503SOL     OW14407   3.696   6.862   1.513
 4503SOL    HW114408   3.650   6.802   1.578
 4503SOL    HW214409   3.637   6.877   1.434
 4504SOL     OW14410   0.808   1.422   4.293
 4504SOL    HW114411   0.857   1.345   4.335
 4504SOL    HW214412   0.790   1.492   4.361
 4505SOL     OW14413   6.368   4.913   1.919
 4505SOL    HW114414   6.344   4.977   1.846
 4505SOL    HW214415   6.449   4.861   1.893
 4506SOL     OW14416   5.194   2.976   3.304
 4506SOL    HW114417   5.156   2.925   3.227
 4506SOL    HW214418   5.171   2.930   3.390
 4507SOL     OW14419   6.862   3.534   3.365
 4507SOL    HW114420   6.888   3.620   3.410
 4507SOL    HW214421   6.924   3.461   3.395
 4508SOL     OW14422   1.609   4.989   6.663
 4508SOL    HW114423   1.628   4.891   6.669
 4508SOL    HW214424   1.635   5.022   6.572
 4509SOL     OW14425   4.802   1.999   3.134
 4509SOL    HW114426   4.768   1.926   3.193
 4509SOL    HW214427   4.878   1.965   3.079
 4510SOL     OW14428   4.135   1.661   4.374
 4510SOL    HW114429   4.077   1.657   4.456
 4510SOL    HW214430   4.219   1.609   4.390
 4511SOL     OW14431   6.088   3.458   6.406
 4511SOL    HW114432   6.041   3.537   6.366
 4511SOL    HW214433   6.101   3.388   6.337
 4512SOL     OW14434   3.264   0.631   6.011
 4512SOL    HW114435   3.223   0.714   6.049
 4512SOL    HW214436   3.196   0.557   6.010
 4513SOL     OW14437   0.814   4.957   6.390
 4513SOL    HW114438   0.738   4.945   6.454
 4513SOL    HW214439   0.878   4.880   6.400
 4514SOL     OW14440   3.246   2.555   5.931
 4514SOL    HW114441   3.160   2.520   5.893
 4514SOL    HW214442   3.296   2.605   5.860
 4515SOL     OW14443   5.868   2.285   5.080
 4515SOL    HW114444   5.827   2.199   5.050
 4515SOL    HW214445   5.859   2.294   5.179
 4516SOL     OW14446   2.516   0.199   0.085
 4516SOL    HW114447   2.479   0.250   0.007
 4516SOL    HW214448   2.454   0.209   0.163
 4517SOL     OW14449   5.147   6.744   6.611
 4517SOL    HW114450   5.077   6.750   6.682
 4517SOL    HW214451   5.122   6.674   6.545
 4518SOL     OW14452   0.157   6.705   2.324
 4518SOL    HW114453   0.184   6.795   2.360
 4518SOL    HW214454   0.221   6.679   2.251
 4519SOL     OW14455   5.440   6.825   0.870
 4519SOL    HW114456   5.447   6.882   0.788
 4519SOL    HW214457   5.514   6.847   0.934
 4520SOL     OW14458   4.319   6.095   6.012
 4520SOL    HW114459   4.232   6.089   5.963
 4520SOL    HW214460   4.359   6.003   6.020
 4521SOL     OW14461   5.686   2.273   5.695
 4521SOL    HW114462   5.781   2.269   5.663
 4521SOL    HW214463   5.669   2.197   5.758
 4522SOL     OW14464   5.664   4.715   3.279
 4522SOL    HW114465   5.741   4.674   3.230
 4522SOL    HW214466   5.680   4.813   3.289
 4523SOL     OW14467   1.791   4.258   0.253
 4523SOL    HW114468   1.744   4.318   0.318
 4523SOL    HW214469   1.781   4.163   0.281
 4524SOL     OW14470   6.194   3.419   2.350
 4524SOL    HW114471   6.168   3.327   2.378
 4524SOL    HW214472   6.294   3.426   2.347
 4525SOL     OW14473   3.975   2.148   5.324
 4525SOL    HW114474   3.888   2.099   5.313
 4525SOL    HW214475   4.020   2.117   5.408
 4526SOL     OW14476   6.522   0.213   6.724
 4526SOL    HW114477   6.512   0.119   6.690
 4526SOL    HW214478   6.512   0.214   6.823
 4527SOL     OW14479   6.719   6.888   2.804
 4527SOL    HW114480   6.744   6.818   2.737
 4527SOL    HW214481   6.620   6.897   2.808
 4528SOL     OW14482   4.338   0.462   6.575
 4528SOL    HW114483   4.336   0.526   6.498
 4528SOL    HW214484   4.429   0.462   6.616
 4529SOL     OW14485   2.264   0.872   5.197
 4529SOL    HW114486   2.281   0.774   5.210
 4529SOL    HW214487   2.307   0.923   5.271
 4530SOL     OW14488   2.682   5.458   3.406
 4530SOL    HW114489   2.779   5.469   3.383
 4530SOL    HW214490   2.653   5.365   3.383
 4531SOL     OW14491   0.472   3.157   6.198
 4531SOL    HW114492   0.555   3.173   6.252
 4531SOL    HW214493   0.494   3.101   6.119
 4532SOL     OW14494   6.707   1.250   2.404
 4532SOL    HW114495   6.751   1.182   2.463
 4532SOL    HW214496   6.648   1.308   2.460
 4533SOL     OW14497   1.893   1.013   2.949
 4533SOL    HW114498   1.967   0.959   2.989
 4533SOL    HW214499   1.878   0.984   2.854
 4534SOL     OW14500   5.383   3.658   5.403
 4534SOL    HW114501   5.341   3.631   5.490
 4534SOL    HW214502   5.464   3.601   5.387
 4535SOL     OW14503   3.991   0.826   2.012
 4535SOL    HW114504   3.909   0.794   2.060
 4535SOL    HW214505   4.019   0.758   1.944
 4536SOL     OW14506   3.431   1.758   4.864
 4536SOL    HW114507   3.493   1.824   4.906
 4536SOL    HW214508   3.352   1.742   4.924
 4537SOL     OW14509   4.204   3.399   1.271
 4537SOL    HW114510   4.111   3.395   1.306
 4537SOL    HW214511   4.267   3.359   1.337
 4538SOL     OW14512   2.719   0.743   2.102
 4538SOL    HW114513   2.761   0.817   2.049
 4538SOL    HW214514   2.746   0.655   2.064
 4539SOL     OW14515   2.943   5.633   5.174
 4539SOL    HW114516   2.919   5.729   5.166
 4539SOL    HW214517   2.893   5.592   5.251
 4540SOL     OW14518   2.330   1.358   0.239
 4540SOL    HW114519   2.318   1.304   0.323
 4540SOL    HW214520   2.241   1.395   0.211
 4541SOL     OW14521   5.198   1.510   6.555
 4541SOL    HW114522   5.160   1.518   6.463
 4541SOL    HW214523   5.298   1.509   6.550
 4542SOL     OW14524   0.235   2.926   2.116
 4542SOL    HW114525   0.153   2.894   2.163
 4542SOL    HW214526   0.311   2.864   2.137
 4543SOL     OW14527   4.998   2.456   1.089
 4543SOL    HW114528   5.009   2.483   0.993
 4543SOL    HW214529   4.902   2.440   1.108
 4544SOL     OW14530   3.333   5.600   0.025
 4544SOL    HW114531   3.392   5.586   0.104
 4544SOL    HW214532   3.388   5.596   6.965
 4545SOL     OW14533   6.670   2.972   5.290
 4545SOL    HW114534   6.755   3.010   5.254
 4545SOL    HW214535   6.605   3.046   5.307
 4546SOL     OW14536   2.811   6.781   4.253
 4546SOL    HW114537   2.880   6.747   4.190
 4546SOL    HW214538   2.720   6.767   4.214
 4547SOL     OW14539   6.514   1.578   0.593
 4547SOL    HW114540   6.463   1.608   0.513
 4547SOL    HW214541   6.597   1.531   0.564
 4548SOL     OW14542   2.545   2.487   3.552
 4548SOL    HW114543   2.489   2.519   3.628
 4548SOL    HW214544   2.516   2.533   3.467
 4549SOL     OW14545   5.541   3.859   2.193
 4549SOL    HW114546   5.569   3.792   2.262
 4549SOL    HW214547   5.460   3.826   2.145
 4550SOL     OW14548   1.024   4.391   2.576
 4550SOL    HW114549   1.072   4.429   2.497
 4550SOL    HW214550   0.964   4.461   2.615
 4551SOL     OW14551   0.746   3.802   4.769
 4551SOL    HW114552   0.760   3.716   4.818
 4551SOL    HW214553   0.650   3.811   4.745
 4552SOL     OW14554   5.222   2.193   1.102
 4552SOL    HW114555   5.257   2.285   1.087
 4552SOL    HW214556   5.166   2.191   1.185
 4553SOL     OW14557   5.107   3.649   0.239
 4553SOL    HW114558   5.144   3.569   0.286
 4553SOL    HW214559   5.038   3.620   0.172
 4554SOL     OW14560   6.744   0.310   1.655
 4554SOL    HW114561   6.835   0.269   1.643
 4554SOL    HW214562   6.730   0.380   1.586
 4555SOL     OW14563   1.682   0.942   5.821
 4555SOL    HW114564   1.657   0.850   5.790
 4555SOL    HW214565   1.660   1.008   5.749
 4556SOL     OW14566   5.781   3.471   4.603
 4556SOL    HW114567   5.690   3.509   4.619
 4556SOL    HW214568   5.814   3.428   4.687
 4557SOL     OW14569   4.880   5.462   4.186
 4557SOL    HW114570   4.817   5.429   4.257
 4557SOL    HW214571   4.945   5.389   4.164
 4558SOL     OW14572   0.006   3.944   4.626
 4558SOL    HW114573   0.034   3.855   4.591
 4558SOL    HW214574   0.019   3.946   4.725
 4559SOL     OW14575   6.984   3.490   2.748
 4559SOL    HW114576   6.922   3.503   2.671
 4559SOL    HW214577   6.987   3.573   2.803
 4560SOL     OW14578   5.961   3.566   1.320
 4560SOL    HW114579   6.013   3.594   1.401
 4560SOL    HW214580   5.915   3.479   1.338
 4561SOL     OW14581   3.526   2.047   3.507
 4561SOL    HW114582   3.442   1.993   3.516
 4561SOL    HW214583   3.589   2.001   3.446
 4562SOL     OW14584   1.449   0.180   0.549
 4562SOL    HW114585   1.395   0.259   0.576
 4562SOL    HW214586   1.391   0.098   0.551
 4563SOL     OW14587   0.112   3.196   1.367
 4563SOL    HW114588   0.182   3.209   1.438
 4563SOL    HW214589   0.119   3.104   1.330
 4564SOL     OW14590   6.715   6.265   1.952
 4564SOL    HW114591   6.801   6.304   1.919
 4564SOL    HW214592   6.716   6.166   1.936
 4565SOL     OW14593   1.603   0.663   4.381
 4565SOL    HW114594   1.555   0.578   4.404
 4565SOL    HW214595   1.630   0.661   4.285
 4566SOL     OW14596   6.758   3.571   1.437
 4566SOL    HW114597   6.833   3.633   1.457
 4566SOL    HW214598   6.703   3.608   1.362
 4567SOL     OW14599   7.014   1.473   6.219
 4567SOL    HW114600   6.934   1.524   6.253
 4567SOL    HW214601   7.000   1.375   6.235
 4568SOL     OW14602   1.788   3.633   5.794
 4568SOL    HW114603   1.796   3.705   5.863
 4568SOL    HW214604   1.692   3.620   5.770
 4569SOL     OW14605   2.364   0.532   3.404
 4569SOL    HW114606   2.293   0.507   3.471
 4569SOL    HW214607   2.343   0.490   3.316
 4570SOL     OW14608   6.274   6.351   2.514
 4570SOL    HW114609   6.365   6.382   2.541
 4570SOL    HW214610   6.268   6.345   2.415
 4571SOL     OW14611   4.877   3.067   6.496
 4571SOL    HW114612   4.837   3.063   6.405
 4571SOL    HW214613   4.975   3.084   6.489
 4572SOL     OW14614   2.403   0.974   6.282
 4572SOL    HW114615   2.378   0.889   6.328
 4572SOL    HW214616   2.321   1.030   6.269
 4573SOL     OW14617   0.248   7.023   0.481
 4573SOL    HW114618   0.286   6.985   0.396
 4573SOL    HW214619   0.188   0.076   0.459
 4574SOL     OW14620   5.544   3.998   0.297
 4574SOL    HW114621   5.487   4.004   0.379
 4574SOL    HW214622   5.531   4.080   0.241
 4575SOL     OW14623   5.351   0.306   4.965
 4575SOL    HW114624   5.258   0.335   4.941
 4575SOL    HW214625   5.383   0.360   5.043
 4576SOL     OW14626   3.314   5.289   5.240
 4576SOL    HW114627   3.283   5.341   5.160
 4576SOL    HW214628   3.408   5.315   5.262
 4577SOL     OW14629   1.193   2.842   4.075
 4577SOL    HW114630   1.240   2.893   4.004
 4577SOL    HW214631   1.161   2.906   4.146
 4578SOL     OW14632   1.028   1.767   5.041
 4578SOL    HW114633   1.058   1.680   5.003
 4578SOL    HW214634   0.949   1.801   4.988
 4579SOL     OW14635   4.644   0.773   2.706
 4579SOL    HW114636   4.606   0.704   2.645
 4579SOL    HW214637   4.656   0.859   2.657
 4580SOL     OW14638   5.492   3.812   0.718
 4580SOL    HW114639   5.585   3.847   0.708
 4580SOL    HW214640   5.484   3.725   0.669
 4581SOL     OW14641   2.413   6.019   2.650
 4581SOL    HW114642   2.470   6.101   2.660
 4581SOL    HW214643   2.451   5.945   2.706
 4582SOL     OW14644   4.700   0.985   3.827
 4582SOL    HW114645   4.646   1.008   3.908
 4582SOL    HW214646   4.689   1.057   3.758
 4583SOL     OW14647   2.932   1.427   6.890
 4583SOL    HW114648   2.964   1.447   6.983
 4583SOL    HW214649   3.006   1.383   6.839
 4584SOL     OW14650   1.290   5.055   5.086
 4584SOL    HW114651   1.241   5.120   5.144
 4584SOL    HW214652   1.360   5.009   5.140
 4585SOL     OW14653   2.420   4.830   3.333
 4585SOL    HW114654   2.467   4.887   3.401
 4585SOL    HW214655   2.452   4.735   3.342
 4586SOL     OW14656   3.955   3.852   0.599
 4586SOL    HW114657   3.938   3.761   0.639
 4586SOL    HW214658   3.872   3.885   0.556
 4587SOL     OW14659   3.284   3.587   3.594
 4587SOL    HW114660   3.212   3.532   3.551
 4587SOL    HW214661   3.324   3.648   3.526
 4588SOL     OW14662   3.121   2.834   6.004
 4588SOL    HW114663   3.203   2.889   5.992
 4588SOL    HW214664   3.053   2.862   5.936
 4589SOL     OW14665   5.746   0.624   1.975
 4589SOL    HW114666   5.799   0.637   1.891
 4589SOL    HW214667   5.745   0.527   1.999
 4590SOL     OW14668   3.857   5.016   1.063
 4590SOL    HW114669   3.928   5.085   1.047
 4590SOL    HW214670   3.867   4.979   1.155
 4591SOL     OW14671   1.868   0.419   4.995
 4591SOL    HW114672   1.952   0.380   4.957
 4591SOL    HW214673   1.795   0.351   4.990
 4592SOL     OW14674   3.271   0.984   3.006
 4592SOL    HW114675   3.259   0.901   2.952
 4592SOL    HW214676   3.181   1.020   3.032
 4593SOL     OW14677   6.086   6.466   2.061
 4593SOL    HW114678   6.004   6.420   2.094
 4593SOL    HW214679   6.089   6.461   1.961
 4594SOL     OW14680   3.256   0.275   3.060
 4594SOL    HW114681   3.187   0.210   3.091
 4594SOL    HW214682   3.335   0.226   3.026
 4595SOL     OW14683   4.754   3.207   5.707
 4595SOL    HW114684   4.699   3.269   5.652
 4595SOL    HW214685   4.694   3.137   5.748
 4596SOL     OW14686   6.665   0.202   2.863
 4596SOL    HW114687   6.757   0.169   2.886
 4596SOL    HW214688   6.673   0.278   2.799
 4597SOL     OW14689   2.933   5.452   6.483
 4597SOL    HW114690   2.870   5.401   6.424
 4597SOL    HW214691   3.025   5.414   6.475
 4598SOL     OW14692   1.324   5.549   1.259
 4598SOL    HW114693   1.262   5.625   1.244
 4598SOL    HW214694   1.324   5.524   1.356
 4599SOL     OW14695   1.012   4.735   1.249
 4599SOL    HW114696   0.976   4.813   1.198
 4599SOL    HW214697   1.084   4.766   1.312
 4600SOL     OW14698   0.559   6.239   5.599
 4600SOL    HW114699   0.523   6.172   5.664
 4600SOL    HW214700   0.495   6.252   5.524
 4601SOL     OW14701   0.918   1.497   5.187
 4601SOL    HW114702   0.879   1.558   5.119
 4601SOL    HW214703   0.876   1.406   5.179
 4602SOL     OW14704   3.211   6.262   0.442
 4602SOL    HW114705   3.144   6.334   0.425
 4602SOL    HW214706   3.274   6.256   0.365
 4603SOL     OW14707   3.791   5.803   0.478
 4603SOL    HW114708   3.692   5.789   0.478
 4603SOL    HW214709   3.834   5.732   0.534
 4604SOL     OW14710   4.445   6.944   6.971
 4604SOL    HW114711   4.483   6.863   6.925
 4604SOL    HW214712   4.514   6.984   0.007
 4605SOL     OW14713   1.856   6.475   1.735
 4605SOL    HW114714   1.826   6.523   1.653
 4605SOL    HW214715   1.912   6.536   1.791
 4606SOL     OW14716   0.453   6.496   2.749
 4606SOL    HW114717   0.463   6.445   2.663
 4606SOL    HW214718   0.442   6.432   2.825
 4607SOL     OW14719   1.937   3.324   3.233
 4607SOL    HW114720   2.012   3.388   3.219
 4607SOL    HW214721   1.851   3.368   3.206
 4608SOL     OW14722   0.166   4.609   3.831
 4608SOL    HW114723   0.207   4.534   3.780
 4608SOL    HW214724   0.236   4.654   3.887
 4609SOL     OW14725   4.875   4.960   6.633
 4609SOL    HW114726   4.853   5.031   6.700
 4609SOL    HW214727   4.969   4.929   6.645
 4610SOL     OW14728   4.201   1.939   7.021
 4610SOL    HW114729   4.110   1.980   7.010
 4610SOL    HW214730   4.192   1.841   0.016
 4611SOL     OW14731   0.651   6.874   6.235
 4611SOL    HW114732   0.691   6.879   6.143
 4611SOL    HW214733   0.723   6.854   6.301
 4612SOL     OW14734   2.440   6.718   0.770
 4612SOL    HW114735   2.411   6.813   0.764
 4612SOL    HW214736   2.475   6.699   0.862
 4613SOL     OW14737   1.706   5.804   2.408
 4613SOL    HW114738   1.677   5.729   2.468
 4613SOL    HW214739   1.766   5.866   2.458
 4614SOL     OW14740   5.861   3.467   3.409
 4614SOL    HW114741   5.960   3.467   3.394
 4614SOL    HW214742   5.822   3.384   3.372
 4615SOL     OW14743   0.730   1.535   0.546
 4615SOL    HW114744   0.677   1.539   0.462
 4615SOL    HW214745   0.813   1.480   0.531
 4616SOL     OW14746   5.621   1.650   4.590
 4616SOL    HW114747   5.701   1.678   4.643
 4616SOL    HW214748   5.627   1.552   4.570
 4617SOL     OW14749   1.504   2.019   2.421
 4617SOL    HW114750   1.455   2.106   2.425
 4617SOL    HW214751   1.515   1.991   2.326
 4618SOL     OW14752   2.275   3.885   5.538
 4618SOL    HW114753   2.325   3.800   5.553
 4618SOL    HW214754   2.252   3.894   5.441
 4619SOL     OW14755   2.892   6.173   4.025
 4619SOL    HW114756   2.876   6.114   3.946
 4619SOL    HW214757   2.949   6.250   3.998
 4620SOL     OW14758   0.836   4.850   0.932
 4620SOL    HW114759   0.859   4.907   1.011
 4620SOL    HW214760   0.737   4.850   0.918
 4621SOL     OW14761   4.877   0.867   2.404
 4621SOL    HW114762   4.906   0.960   2.426
 4621SOL    HW214763   4.887   0.809   2.485
 4622SOL     OW14764   3.865   4.872   0.721
 4622SOL    HW114765   3.771   4.889   0.691
 4622SOL    HW214766   3.864   4.830   0.812
 4623SOL     OW14767   4.822   5.521   1.379
 4623SOL    HW114768   4.915   5.500   1.407
 4623SOL    HW214769   4.773   5.563   1.456
 4624SOL     OW14770   3.458   0.336   2.753
 4624SOL    HW114771   3.473   0.283   2.669
 4624SOL    HW214772   3.542   0.383   2.779
 4625SOL     OW14773   1.656   5.278   2.011
 4625SOL    HW114774   1.606   5.204   2.057
 4625SOL    HW214775   1.754   5.266   2.027
 4626SOL     OW14776   4.731   4.395   1.900
 4626SOL    HW114777   4.642   4.353   1.920
 4626SOL    HW214778   4.797   4.324   1.875
 4627SOL     OW14779   1.073   4.939   4.917
 4627SOL    HW114780   1.158   4.959   4.965
 4627SOL    HW214781   1.000   4.995   4.955
 4628SOL     OW14782   4.609   4.437   4.932
 4628SOL    HW114783   4.517   4.472   4.951
 4628SOL    HW214784   4.613   4.406   4.837
 4629SOL     OW14785   2.327   5.147   5.572
 4629SOL    HW114786   2.414   5.190   5.547
 4629SOL    HW214787   2.252   5.206   5.543
 4630SOL     OW14788   2.260   5.337   1.979
 4630SOL    HW114789   2.290   5.432   1.977
 4630SOL    HW214790   2.215   5.317   2.066
 4631SOL     OW14791   1.300   6.239   3.469
 4631SOL    HW114792   1.372   6.272   3.530
 4631SOL    HW214793   1.222   6.208   3.523
 4632SOL     OW14794   2.470   4.672   2.784
 4632SOL    HW114795   2.458   4.659   2.882
 4632SOL    HW214796   2.381   4.665   2.738
 4633SOL     OW14797   5.998   1.271   4.548
 4633SOL    HW114798   6.003   1.277   4.448
 4633SOL    HW214799   6.038   1.184   4.578
 4634SOL     OW14800   2.565   3.807   5.314
 4634SOL    HW114801   2.493   3.753   5.358
 4634SOL    HW214802   2.525   3.888   5.272
 4635SOL     OW14803   4.314   4.369   1.687
 4635SOL    HW114804   4.364   4.295   1.733
 4635SOL    HW214805   4.284   4.436   1.755
 4636SOL     OW14806   1.945   4.014   1.017
 4636SOL    HW114807   1.925   3.975   1.107
 4636SOL    HW214808   2.010   3.954   0.969
 4637SOL     OW14809   0.954   6.913   1.390
 4637SOL    HW114810   1.020   6.873   1.454
 4637SOL    HW214811   0.958   7.013   1.395
 4638SOL     OW14812   3.760   6.091   6.830
 4638SOL    HW114813   3.661   6.077   6.818
 4638SOL    HW214814   3.801   6.113   6.742
 4639SOL     OW14815   3.021   2.734   6.275
 4639SOL    HW114816   3.107   2.762   6.318
 4639SOL    HW214817   3.014   2.775   6.184
 4640SOL     OW14818   5.835   3.755   4.498
 4640SOL    HW114819   5.743   3.782   4.468
 4640SOL    HW214820   5.836   3.656   4.515
 4641SOL     OW14821   2.384   0.456   4.111
 4641SOL    HW114822   2.402   0.553   4.131
 4641SOL    HW214823   2.470   0.409   4.096
 4642SOL     OW14824   1.345   6.261   2.789
 4642SOL    HW114825   1.351   6.167   2.756
 4642SOL    HW214826   1.283   6.313   2.730
 4643SOL     OW14827   6.721   1.521   0.129
 4643SOL    HW114828   6.710   1.614   0.164
 4643SOL    HW214829   6.818   1.497   0.131
 4644SOL     OW14830   6.823   0.541   5.289
 4644SOL    HW114831   6.902   0.482   5.307
 4644SOL    HW214832   6.780   0.567   5.375
 4645SOL     OW14833   1.533   0.904   4.548
 4645SOL    HW114834   1.460   0.871   4.608
 4645SOL    HW214835   1.559   0.832   4.484
 4646SOL     OW14836   2.673   5.832   3.719
 4646SOL    HW114837   2.673   5.736   3.690
 4646SOL    HW214838   2.670   5.891   3.639
 4647SOL     OW14839   2.052   0.441   2.703
 4647SOL    HW114840   2.103   0.396   2.776
 4647SOL    HW214841   1.987   0.505   2.743
 4648SOL     OW14842   3.695   1.063   3.792
 4648SOL    HW114843   3.740   1.031   3.875
 4648SOL    HW214844   3.640   0.989   3.754
 4649SOL     OW14845   6.642   0.932   0.799
 4649SOL    HW114846   6.703   0.872   0.851
 4649SOL    HW214847   6.677   0.942   0.706
 4650SOL     OW14848   4.699   5.264   2.045
 4650SOL    HW114849   4.755   5.182   2.031
 4650SOL    HW214850   4.677   5.273   2.142
 4651SOL     OW14851   0.102   3.247   6.730
 4651SOL    HW114852   0.167   3.231   6.656
 4651SOL    HW214853   0.082   3.344   6.736
 4652SOL     OW14854   6.592   6.067   5.193
 4652SOL    HW114855   6.612   6.157   5.155
 4652SOL    HW214856   6.522   6.022   5.138
 4653SOL     OW14857   4.937   5.978   1.073
 4653SOL    HW114858   4.904   5.912   1.140
 4653SOL    HW214859   4.980   5.930   0.997
 4654SOL     OW14860   0.767   5.813   6.072
 4654SOL    HW114861   0.831   5.807   6.149
 4654SOL    HW214862   0.691   5.750   6.087
 4655SOL     OW14863   5.830   3.790   1.309
 4655SOL    HW114864   5.735   3.768   1.286
 4655SOL    HW214865   5.879   3.707   1.333
 4656SOL     OW14866   1.367   1.137   1.666
 4656SOL    HW114867   1.421   1.054   1.658
 4656SOL    HW214868   1.274   1.114   1.695
 4657SOL     OW14869   4.377   5.484   1.810
 4657SOL    HW114870   4.353   5.393   1.844
 4657SOL    HW214871   4.357   5.552   1.880
 4658SOL     OW14872   3.039   1.612   4.797
 4658SOL    HW114873   3.034   1.520   4.757
 4658SOL    HW214874   3.135   1.634   4.818
 4659SOL     OW14875   2.900   4.054   6.564
 4659SOL    HW114876   2.872   3.965   6.601
 4659SOL    HW214877   2.823   4.095   6.515
 4660SOL     OW14878   1.115   6.232   4.697
 4660SOL    HW114879   1.206   6.227   4.657
 4660SOL    HW214880   1.055   6.283   4.636
 4661SOL     OW14881   2.839   4.827   5.943
 4661SOL    HW114882   2.838   4.910   5.887
 4661SOL    HW214883   2.915   4.769   5.915
 4662SOL     OW14884   2.985   0.355   5.554
 4662SOL    HW114885   2.903   0.396   5.513
 4662SOL    HW214886   3.052   0.427   5.572
 4663SOL     OW14887   0.570   0.644   0.919
 4663SOL    HW114888   0.582   0.657   0.820
 4663SOL    HW214889   0.660   0.638   0.963
 4664SOL     OW14890   0.518   0.721   0.317
 4664SOL    HW114891   0.567   0.635   0.312
 4664SOL    HW214892   0.579   0.796   0.288
 4665SOL     OW14893   2.809   6.953   6.241
 4665SOL    HW114894   2.802   6.853   6.238
 4665SOL    HW214895   2.796   6.989   6.149
 4666SOL     OW14896   1.738   2.289   0.151
 4666SOL    HW114897   1.738   2.389   0.152
 4666SOL    HW214898   1.645   2.255   0.164
 4667SOL     OW14899   6.170   3.995   1.609
 4667SOL    HW114900   6.239   3.924   1.595
 4667SOL    HW214901   6.136   3.989   1.703
 4668SOL     OW14902   4.573   1.483   4.164
 4668SOL    HW114903   4.621   1.559   4.209
 4668SOL    HW214904   4.619   1.461   4.077
 4669SOL     OW14905   5.153   6.387   6.241
 4669SOL    HW114906   5.172   6.323   6.315
 4669SOL    HW214907   5.235   6.441   6.221
 4670SOL     OW14908   1.060   2.889   6.742
 4670SOL    HW114909   1.039   2.985   6.722
 4670SOL    HW214910   0.998   2.831   6.689
 4671SOL     OW14911   0.217   3.536   6.669
 4671SOL    HW114912   0.236   3.571   6.577
 4671SOL    HW214913   0.118   3.536   6.684
 4672SOL     OW14914   3.631   4.736   6.397
 4672SOL    HW114915   3.549   4.794   6.398
 4672SOL    HW214916   3.692   4.763   6.472
 4673SOL     OW14917   4.823   0.057   1.456
 4673SOL    HW114918   4.785   0.055   1.363
 4673SOL    HW214919   4.862   6.991   1.477
 4674SOL     OW14920   5.440   1.590   0.438
 4674SOL    HW114921   5.348   1.552   0.424
 4674SOL    HW214922   5.459   1.598   0.536
 4675SOL     OW14923   3.657   0.602   7.017
 4675SOL    HW114924   3.587   0.535   0.014
 4675SOL    HW214925   3.627   0.693   0.025
 4676SOL     OW14926   0.155   6.452   4.269
 4676SOL    HW114927   0.058   6.474   4.258
 4676SOL    HW214928   0.202   6.530   4.311
 4677SOL     OW14929   2.780   0.797   0.528
 4677SOL    HW114930   2.811   0.886   0.496
 4677SOL    HW214931   2.841   0.764   0.599
 4678SOL     OW14932   1.871   4.505   2.456
 4678SOL    HW114933   1.891   4.512   2.359
 4678SOL    HW214934   1.947   4.460   2.503
 4679SOL     OW14935   3.857   1.081   6.666
 4679SOL    HW114936   3.826   1.168   6.629
 4679SOL    HW214937   3.833   1.074   6.763
 4680SOL     OW14938   1.791   0.410   1.948
 4680SOL    HW114939   1.875   0.464   1.939
 4680SOL    HW214940   1.765   0.405   2.044
 4681SOL     OW14941   5.988   5.558   5.266
 4681SOL    HW114942   6.024   5.549   5.173
 4681SOL    HW214943   6.061   5.539   5.332
 4682SOL     OW14944   4.675   4.334   6.690
 4682SOL    HW114945   4.724   4.386   6.620
 4682SOL    HW214946   4.735   4.265   6.730
 4683SOL     OW14947   4.901   4.714   2.777
 4683SOL    HW114948   4.841   4.729   2.856
 4683SOL    HW214949   4.911   4.616   2.761
 4684SOL     OW14950   0.135   1.560   4.229
 4684SOL    HW114951   0.110   1.648   4.189
 4684SOL    HW214952   0.053   1.506   4.245
 4685SOL     OW14953   0.491   6.304   4.960
 4685SOL    HW114954   0.543   6.226   4.926
 4685SOL    HW214955   0.542   6.348   5.035
 4686SOL     OW14956   5.407   5.898   0.213
 4686SOL    HW114957   5.496   5.878   0.171
 4686SOL    HW214958   5.414   5.979   0.270
 4687SOL     OW14959   0.003   4.769   4.924
 4687SOL    HW114960   0.081   4.708   4.936
 4687SOL    HW214961   6.989   4.793   5.014
 4688SOL     OW14962   0.051   3.426   6.164
 4688SOL    HW114963   0.025   3.455   6.072
 4688SOL    HW214964   0.068   3.506   6.221
 4689SOL     OW14965   5.980   0.363   6.781
 4689SOL    HW114966   5.971   0.448   6.730
 4689SOL    HW214967   6.065   0.365   6.834
 4690SOL     OW14968   1.159   1.292   0.184
 4690SOL    HW114969   1.251   1.254   0.195
 4690SOL    HW214970   1.166   1.391   0.171
 4691SOL     OW14971   3.101   4.721   1.746
 4691SOL    HW114972   3.035   4.664   1.795
 4691SOL    HW214973   3.058   4.760   1.665
 4692SOL     OW14974   6.852   5.568   2.677
 4692SOL    HW114975   6.931   5.608   2.630
 4692SOL    HW214976   6.835   5.619   2.761
 4693SOL     OW14977   0.835   0.647   4.398
 4693SOL    HW114978   0.890   0.706   4.456
 4693SOL    HW214979   0.882   0.633   4.311
 4694SOL     OW14980   3.128   0.358   0.202
 4694SOL    HW114981   3.147   0.343   0.299
 4694SOL    HW214982   3.120   0.456   0.185
 4695SOL     OW14983   2.542   3.273   1.712
 4695SOL    HW114984   2.486   3.323   1.778
 4695SOL    HW214985   2.493   3.265   1.626
 4696SOL     OW14986   0.406   3.972   5.346
 4696SOL    HW114987   0.325   3.986   5.403
 4696SOL    HW214988   0.488   3.992   5.399
 4697SOL     OW14989   1.484   3.006   0.829
 4697SOL    HW114990   1.534   3.092   0.834
 4697SOL    HW214991   1.532   2.943   0.769
 4698SOL     OW14992   3.875   5.882   3.079
 4698SOL    HW114993   3.847   5.916   3.170
 4698SOL    HW214994   3.842   5.788   3.068
 4699SOL     OW14995   0.991   6.697   1.957
 4699SOL    HW114996   1.064   6.713   2.024
 4699SOL    HW214997   1.029   6.651   1.877
 4700SOL     OW14998   5.940   1.603   2.201
 4700SOL    HW114999   6.006   1.678   2.191
 4700SOL    HW215000   5.974   1.522   2.155
 4701SOL     OW15001   1.196   2.187   0.711
 4701SOL    HW115002   1.293   2.202   0.689
 4701SOL    HW215003   1.155   2.272   0.743
 4702SOL     OW15004   6.008   5.026   6.575
 4702SOL    HW115005   5.927   5.014   6.518
 4702SOL    HW215006   6.015   4.951   6.641
 4703SOL     OW15007   1.817   2.739   1.700
 4703SOL    HW115008   1.777   2.711   1.613
 4703SOL    HW215009   1.867   2.825   1.687
 4704SOL     OW15010   0.663   6.518   7.016
 4704SOL    HW115011   0.669   6.557   6.925
 4704SOL    HW215012   0.599   6.442   7.016
 4705SOL     OW15013   3.814   3.373   2.670
 4705SOL    HW115014   3.740   3.306   2.670
 4705SOL    HW215015   3.785   3.456   2.717
 4706SOL     OW15016   3.689   6.295   6.476
 4706SOL    HW115017   3.670   6.351   6.395
 4706SOL    HW215018   3.604   6.282   6.528
 4707SOL     OW15019   2.211   5.822   0.858
 4707SOL    HW115020   2.237   5.799   0.951
 4707SOL    HW215021   2.162   5.744   0.817
 4708SOL     OW15022   1.291   2.140   6.584
 4708SOL    HW115023   1.268   2.123   6.680
 4708SOL    HW215024   1.296   2.239   6.568
 4709SOL     OW15025   3.948   5.078   5.322
 4709SOL    HW115026   3.912   4.989   5.292
 4709SOL    HW215027   3.986   5.126   5.243
 4710SOL     OW15028   3.822   1.047   5.452
 4710SOL    HW115029   3.767   1.029   5.371
 4710SOL    HW215030   3.834   0.962   5.504
 4711SOL     OW15031   5.352   0.630   2.046
 4711SOL    HW115032   5.432   0.691   2.040
 4711SOL    HW215033   5.374   0.543   2.002
 4712SOL     OW15034   3.248   4.629   0.672
 4712SOL    HW115035   3.212   4.713   0.714
 4712SOL    HW215036   3.235   4.633   0.573
 4713SOL     OW15037   2.756   3.999   1.331
 4713SOL    HW115038   2.710   4.002   1.243
 4713SOL    HW215039   2.787   4.091   1.355
 4714SOL     OW15040   1.862   1.880   0.081
 4714SOL    HW115041   1.889   1.784   0.077
 4714SOL    HW215042   1.779   1.889   0.136
 4715SOL     OW15043   6.662   3.689   1.902
 4715SOL    HW115044   6.685   3.591   1.897
 4715SOL    HW215045   6.624   3.718   1.815
 4716SOL     OW15046   4.117   5.952   6.645
 4716SOL    HW115047   4.021   5.977   6.630
 4716SOL    HW215048   4.153   5.909   6.562
 4717SOL     OW15049   0.187   6.560   3.282
 4717SOL    HW115050   0.208   6.533   3.188
 4717SOL    HW215051   0.262   6.532   3.343
 4718SOL     OW15052   5.966   2.047   6.742
 4718SOL    HW115053   5.990   2.077   6.835
 4718SOL    HW215054   5.867   2.036   6.736
 4719SOL     OW15055   4.871   3.197   2.636
 4719SOL    HW115056   4.853   3.136   2.714
 4719SOL    HW215057   4.847   3.150   2.551
 4720SOL     OW15058   2.295   5.845   5.375
 4720SOL    HW115059   2.234   5.850   5.454
 4720SOL    HW215060   2.390   5.843   5.407
 4721SOL     OW15061   6.606   2.432   1.474
 4721SOL    HW115062   6.605   2.480   1.561
 4721SOL    HW215063   6.700   2.420   1.443
 4722SOL     OW15064   1.341   5.865   6.859
 4722SOL    HW115065   1.349   5.765   6.862
 4722SOL    HW215066   1.271   5.894   6.925
 4723SOL     OW15067   1.966   4.889   6.075
 4723SOL    HW115068   1.961   4.795   6.041
 4723SOL    HW215069   1.954   4.889   6.174
 4724SOL     OW15070   4.739   5.794   2.977
 4724SOL    HW115071   4.805   5.725   2.948
 4724SOL    HW215072   4.757   5.820   3.072
 4725SOL     OW15073   6.081   6.390   2.703
 4725SOL    HW115074   6.152   6.391   2.633
 4725SOL    HW215075   6.123   6.369   2.792
 4726SOL     OW15076   1.670   3.119   6.600
 4726SOL    HW115077   1.667   3.070   6.513
 4726SOL    HW215078   1.764   3.117   6.636
 4727SOL     OW15079   0.218   6.686   0.378
 4727SOL    HW115080   0.138   6.635   0.347
 4727SOL    HW215081   0.191   6.780   0.399
 4728SOL     OW15082   4.493   1.803   0.754
 4728SOL    HW115083   4.532   1.894   0.742
 4728SOL    HW215084   4.394   1.810   0.765
 4729SOL     OW15085   2.475   1.333   2.417
 4729SOL    HW115086   2.391   1.369   2.459
 4729SOL    HW215087   2.455   1.302   2.324
 4730SOL     OW15088   2.132   5.589   5.256
 4730SOL    HW115089   2.104   5.665   5.315
 4730SOL    HW215090   2.145   5.507   5.312
 4731SOL     OW15091   4.443   0.256   6.375
 4731SOL    HW115092   4.470   0.191   6.446
 4731SOL    HW215093   4.348   0.284   6.391
 4732SOL     OW15094   6.766   3.714   5.885
 4732SOL    HW115095   6.797   3.772   5.960
 4732SOL    HW215096   6.829   3.637   5.874
 4733SOL     OW15097   1.271   4.363   2.954
 4733SOL    HW115098   1.219   4.313   2.886
 4733SOL    HW215099   1.315   4.443   2.912
 4734SOL     OW15100   4.743   3.308   6.854
 4734SOL    HW115101   4.785   3.374   6.791
 4734SOL    HW215102   4.674   3.355   6.909
 4735SOL     OW15103   0.809   5.425   4.061
 4735SOL    HW115104   0.770   5.501   4.011
 4735SOL    HW215105   0.737   5.360   4.085
 4736SOL     OW15106   0.010   1.446   6.600
 4736SOL    HW115107   0.072   1.470   6.525
 4736SOL    HW215108   0.059   1.456   6.687
 4737SOL     OW15109   1.161   5.340   2.345
 4737SOL    HW115110   1.227   5.347   2.271
 4737SOL    HW215111   1.110   5.426   2.353
 4738SOL     OW15112   6.904   5.886   2.920
 4738SOL    HW115113   7.001   5.885   2.945
 4738SOL    HW215114   6.861   5.801   2.952
 4739SOL     OW15115   4.473   6.478   3.188
 4739SOL    HW115116   4.409   6.530   3.244
 4739SOL    HW215117   4.423   6.431   3.115
 4740SOL     OW15118   0.558   1.252   1.441
 4740SOL    HW115119   0.585   1.296   1.527
 4740SOL    HW215120   0.588   1.309   1.364
 4741SOL     OW15121   3.408   2.259   1.526
 4741SOL    HW115122   3.358   2.284   1.443
 4741SOL    HW215123   3.388   2.164   1.551
 4742SOL     OW15124   1.757   6.634   5.379
 4742SOL    HW115125   1.788   6.699   5.309
 4742SOL    HW215126   1.726   6.550   5.334
 4743SOL     OW15127   1.999   3.663   2.924
 4743SOL    HW115128   2.041   3.753   2.937
 4743SOL    HW215129   1.923   3.671   2.859
 4744SOL     OW15130   2.161   5.203   0.960
 4744SOL    HW115131   2.070   5.226   0.925
 4744SOL    HW215132   2.211   5.287   0.979
 4745SOL     OW15133   3.265   3.870   6.811
 4745SOL    HW115134   3.346   3.816   6.789
 4745SOL    HW215135   3.183   3.818   6.788
 4746SOL     OW15136   4.700   6.485   3.591
 4746SOL    HW115137   4.679   6.551   3.664
 4746SOL    HW215138   4.781   6.515   3.542
 4747SOL     OW15139   0.875   4.031   0.329
 4747SOL    HW115140   0.927   3.967   0.386
 4747SOL    HW215141   0.938   4.098   0.289
 4748SOL     OW15142   1.628   6.112   1.411
 4748SOL    HW115143   1.631   6.027   1.463
 4748SOL    HW215144   1.580   6.182   1.463
 4749SOL     OW15145   1.647   0.094   6.429
 4749SOL    HW115146   1.653   0.026   6.356
 4749SOL    HW215147   1.737   0.134   6.445
 4750SOL     OW15148   6.657   3.355   5.585
 4750SOL    HW115149   6.583   3.391   5.528
 4750SOL    HW215150   6.645   3.256   5.597
 4751SOL     OW15151   4.550   2.530   2.902
 4751SOL    HW115152   4.524   2.494   2.992
 4751SOL    HW215153   4.488   2.493   2.833
 4752SOL     OW15154   4.575   0.495   0.415
 4752SOL    HW115155   4.480   0.505   0.383
 4752SOL    HW215156   4.618   0.585   0.421
 4753SOL     OW15157   0.973   6.746   3.514
 4753SOL    HW115158   1.039   6.737   3.439
 4753SOL    HW215159   0.971   6.842   3.544
 4754SOL     OW15160   5.083   3.750   4.953
 4754SOL    HW115161   4.990   3.721   4.978
 4754SOL    HW215162   5.139   3.753   5.036
 4755SOL     OW15163   2.896   0.799   0.762
 4755SOL    HW115164   2.848   0.848   0.835
 4755SOL    HW215165   2.994   0.811   0.773
 4756SOL     OW15166   6.350   3.889   5.662
 4756SOL    HW115167   6.252   3.903   5.646
 4756SOL    HW215168   6.399   3.974   5.647
 4757SOL     OW15169   1.826   2.368   1.408
 4757SOL    HW115170   1.794   2.463   1.405
 4757SOL    HW215171   1.779   2.315   1.337
 4758SOL     OW15172   1.397   6.573   3.429
 4758SOL    HW115173   1.487   6.556   3.388
 4758SOL    HW215174   1.405   6.568   3.528
 4759SOL     OW15175   0.711   5.171   6.109
 4759SOL    HW115176   0.665   5.158   6.197
 4759SOL    HW215177   0.772   5.249   6.114
 4760SOL     OW15178   2.086   1.388   0.640
 4760SOL    HW115179   2.168   1.357   0.689
 4760SOL    HW215180   2.114   1.440   0.559
 4761SOL     OW15181   1.527   0.821   1.058
 4761SOL    HW115182   1.451   0.856   1.003
 4761SOL    HW215183   1.552   0.888   1.128
 4762SOL     OW15184   1.554   6.155   2.116
 4762SOL    HW115185   1.500   6.192   2.192
 4762SOL    HW215186   1.505   6.170   2.030
 4763SOL     OW15187   4.816   0.467   2.805
 4763SOL    HW115188   4.845   0.529   2.878
 4763SOL    HW215189   4.719   0.445   2.816
 4764SOL     OW15190   4.568   3.579   5.367
 4764SOL    HW115191   4.623   3.561   5.285
 4764SOL    HW215192   4.621   3.556   5.448
 4765SOL     OW15193   3.878   0.755   5.515
 4765SOL    HW115194   3.881   0.791   5.608
 4765SOL    HW215195   3.803   0.689   5.508
 4766SOL     OW15196   6.308   6.331   4.060
 4766SOL    HW115197   6.208   6.334   4.069
 4766SOL    HW215198   6.338   6.236   4.062
 4767SOL     OW15199   3.090   4.908   5.293
 4767SOL    HW115200   3.100   5.001   5.327
 4767SOL    HW215201   3.013   4.863   5.340
 4768SOL     OW15202   3.433   2.983   5.797
 4768SOL    HW115203   3.425   2.884   5.807
 4768SOL    HW215204   3.462   3.005   5.704
 4769SOL     OW15205   3.887   6.113   0.985
 4769SOL    HW115206   3.912   6.167   1.065
 4769SOL    HW215207   3.961   6.116   0.918
 4770SOL     OW15208   0.459   1.936   4.611
 4770SOL    HW115209   0.466   1.948   4.512
 4770SOL    HW215210   0.374   1.888   4.633
 4771SOL     OW15211   2.362   6.570   6.385
 4771SOL    HW115212   2.381   6.628   6.464
 4771SOL    HW215213   2.317   6.485   6.415
 4772SOL     OW15214   3.282   4.738   1.205
 4772SOL    HW115215   3.259   4.818   1.260
 4772SOL    HW215216   3.339   4.675   1.259
 4773SOL     OW15217   0.550   5.846   5.218
 4773SOL    HW115218   0.476   5.909   5.242
 4773SOL    HW215219   0.604   5.825   5.299
 4774SOL     OW15220   1.294   4.100   1.291
 4774SOL    HW115221   1.342   4.021   1.252
 4774SOL    HW215222   1.300   4.097   1.391
 4775SOL     OW15223   4.996   0.315   3.974
 4775SOL    HW115224   5.036   0.401   4.004
 4775SOL    HW215225   5.008   0.304   3.875
 4776SOL     OW15226   0.901   0.900   5.218
 4776SOL    HW115227   0.861   0.819   5.176
 4776SOL    HW215228   0.915   0.970   5.148
 4777SOL     OW15229   1.931   5.837   1.116
 4777SOL    HW115230   1.996   5.762   1.113
 4777SOL    HW215231   1.846   5.806   1.158
 4778SOL     OW15232   6.837   2.548   4.500
 4778SOL    HW115233   6.832   2.647   4.502
 4778SOL    HW215234   6.746   2.511   4.479
 4779SOL     OW15235   5.476   7.008   3.614
 4779SOL    HW115236   5.509   6.969   3.527
 4779SOL    HW215237   5.530   0.065   3.637
 4780SOL     OW15238   5.640   2.538   6.628
 4780SOL    HW115239   5.646   2.629   6.587
 4780SOL    HW215240   5.553   2.495   6.604
 4781SOL     OW15241   2.840   5.471   1.888
 4781SOL    HW115242   2.809   5.376   1.885
 4781SOL    HW215243   2.934   5.477   1.853
 4782SOL     OW15244   6.356   5.776   6.534
 4782SOL    HW115245   6.431   5.842   6.538
 4782SOL    HW215246   6.269   5.825   6.529
 4783SOL     OW15247   5.764   3.716   7.021
 4783SOL    HW115248   5.668   3.739   7.006
 4783SOL    HW215249   5.821   3.790   6.986
 4784SOL     OW15250   6.393   1.996   6.178
 4784SOL    HW115251   6.429   1.961   6.091
 4784SOL    HW215252   6.309   1.948   6.201
 4785SOL     OW15253   0.351   6.549   3.044
 4785SOL    HW115254   0.351   6.646   3.068
 4785SOL    HW215255   0.434   6.506   3.078
 4786SOL     OW15256   2.218   6.762   6.777
 4786SOL    HW115257   2.243   6.667   6.793
 4786SOL    HW215258   2.234   6.815   6.861
 4787SOL     OW15259   3.918   1.933   3.534
 4787SOL    HW115260   3.877   1.963   3.448
 4787SOL    HW215261   3.877   1.984   3.610
 4788SOL     OW15262   6.742   5.913   0.794
 4788SOL    HW115263   6.774   5.987   0.735
 4788SOL    HW215264   6.671   5.948   0.855
 4789SOL     OW15265   4.765   2.049   1.600
 4789SOL    HW115266   4.834   2.018   1.534
 4789SOL    HW215267   4.735   2.141   1.576
 4790SOL     OW15268   5.618   2.056   5.800
 4790SOL    HW115269   5.673   2.024   5.877
 4790SOL    HW215270   5.529   2.011   5.802
 4791SOL     OW15271   6.991   3.014   1.948
 4791SOL    HW115272   6.984   2.926   1.995
 4791SOL    HW215273   0.016   3.079   2.005
 4792SOL     OW15274   2.214   4.238   4.590
 4792SOL    HW115275   2.218   4.207   4.685
 4792SOL    HW215276   2.248   4.332   4.584
 4793SOL     OW15277   1.868   3.830   5.219
 4793SOL    HW115278   1.941   3.863   5.278
 4793SOL    HW215279   1.847   3.899   5.150
 4794SOL     OW15280   4.487   6.620   4.377
 4794SOL    HW115281   4.457   6.532   4.338
 4794SOL    HW215282   4.556   6.603   4.448
 4795SOL     OW15283   6.418   1.776   4.237
 4795SOL    HW115284   6.468   1.690   4.232
 4795SOL    HW215285   6.480   1.852   4.221
 4796SOL     OW15286   3.783   0.049   6.291
 4796SOL    HW115287   3.823   0.068   6.380
 4796SOL    HW215288   3.849   7.022   6.235
 4797SOL     OW15289   0.596   6.005   4.525
 4797SOL    HW115290   0.501   5.978   4.513
 4797SOL    HW215291   0.604   6.064   4.606
 4798SOL     OW15292   6.058   4.912   5.116
 4798SOL    HW115293   6.088   4.952   5.203
 4798SOL    HW215294   6.009   4.980   5.063
 4799SOL     OW15295   4.096   1.489   0.284
 4799SOL    HW115296   4.069   1.394   0.303
 4799SOL    HW215297   4.192   1.491   0.255
 4800SOL     OW15298   1.587   4.132   6.864
 4800SOL    HW115299   1.659   4.119   6.931
 4800SOL    HW215300   1.608   4.212   6.807
 4801SOL     OW15301   3.616   2.535   6.669
 4801SOL    HW115302   3.649   2.627   6.687
 4801SOL    HW215303   3.556   2.537   6.589
 4802SOL     OW15304   6.616   6.621   1.888
 4802SOL    HW115305   6.562   6.539   1.906
 4802SOL    HW215306   6.645   6.662   1.974
 4803SOL     OW15307   6.648   4.653   0.894
 4803SOL    HW115308   6.685   4.644   0.801
 4803SOL    HW215309   6.668   4.745   0.928
 4804SOL     OW15310   5.940   7.012   0.997
 4804SOL    HW115311   5.962   0.082   0.967
 4804SOL    HW215312   6.024   6.965   1.023
 4805SOL     OW15313   6.555   1.350   2.191
 4805SOL    HW115314   6.634   1.336   2.250
 4805SOL    HW215315   6.577   1.322   2.098
 4806SOL     OW15316   0.802   3.419   2.628
 4806SOL    HW115317   0.716   3.465   2.606
 4806SOL    HW215318   0.788   3.320   2.633
 4807SOL     OW15319   1.350   3.691   6.510
 4807SOL    HW115320   1.447   3.670   6.525
 4807SOL    HW215321   1.342   3.769   6.448
 4808SOL     OW15322   4.380   5.232   0.568
 4808SOL    HW115323   4.296   5.179   0.557
 4808SOL    HW215324   4.380   5.275   0.659
 4809SOL     OW15325   3.791   4.638   1.192
 4809SOL    HW115326   3.807   4.540   1.203
 4809SOL    HW215327   3.756   4.676   1.277
 4810SOL     OW15328   1.651   4.702   3.383
 4810SOL    HW115329   1.580   4.727   3.449
 4810SOL    HW215330   1.740   4.704   3.429
 4811SOL     OW15331   4.071   3.745   3.569
 4811SOL    HW115332   4.115   3.662   3.602
 4811SOL    HW215333   4.044   3.732   3.473
 4812SOL     OW15334   0.451   0.075   2.348
 4812SOL    HW115335   0.519   0.044   2.282
 4812SOL    HW215336   0.494   0.090   2.437
 4813SOL     OW15337   6.207   1.520   6.499
 4813SOL    HW115338   6.235   1.483   6.587
 4813SOL    HW215339   6.199   1.620   6.506
 4814SOL     OW15340   6.702   3.432   1.961
 4814SOL    HW115341   6.622   3.392   1.916
 4814SOL    HW215342   6.772   3.361   1.973
 4815SOL     OW15343   5.431   4.718   2.973
 4815SOL    HW115344   5.493   4.711   2.894
 4815SOL    HW215345   5.337   4.725   2.940
 4816SOL     OW15346   2.174   5.193   1.760
 4816SOL    HW115347   2.188   5.239   1.847
 4816SOL    HW215348   2.208   5.251   1.686
 4817SOL     OW15349   3.344   1.112   1.704
 4817SOL    HW115350   3.360   1.195   1.758
 4817SOL    HW215351   3.428   1.088   1.655
 4818SOL     OW15352   0.750   1.819   4.006
 4818SOL    HW115353   0.799   1.739   4.042
 4818SOL    HW215354   0.669   1.837   4.063
 4819SOL     OW15355   3.288   1.930   1.223
 4819SOL    HW115356   3.189   1.946   1.224
 4819SOL    HW215357   3.310   1.863   1.152
 4820SOL     OW15358   6.225   2.429   0.499
 4820SOL    HW115359   6.143   2.472   0.461
 4820SOL    HW215360   6.210   2.407   0.595
 4821SOL     OW15361   6.844   6.946   1.384
 4821SOL    HW115362   6.913   6.933   1.313
 4821SOL    HW215363   6.766   6.995   1.345
 4822SOL     OW15364   1.648   3.077   3.885
 4822SOL    HW115365   1.573   3.126   3.931
 4822SOL    HW215366   1.692   3.139   3.820
 4823SOL     OW15367   0.174   1.483   3.717
 4823SOL    HW115368   0.237   1.559   3.727
 4823SOL    HW215369   0.206   1.405   3.772
 4824SOL     OW15370   5.915   1.747   3.706
 4824SOL    HW115371   5.854   1.756   3.627
 4824SOL    HW215372   5.860   1.730   3.788
 4825SOL     OW15373   2.101   2.737   4.472
 4825SOL    HW115374   2.119   2.743   4.374
 4825SOL    HW215375   2.183   2.765   4.523
 4826SOL     OW15376   0.659   0.746   6.945
 4826SOL    HW115377   0.611   0.805   6.881
 4826SOL    HW215378   0.649   0.650   6.916
 4827SOL     OW15379   6.277   0.699   1.552
 4827SOL    HW115380   6.362   0.669   1.595
 4827SOL    HW215381   6.249   0.786   1.590
 4828SOL     OW15382   5.400   3.378   0.902
 4828SOL    HW115383   5.442   3.450   0.957
 4828SOL    HW215384   5.321   3.414   0.853
 4829SOL     OW15385   3.760   6.529   6.613
 4829SOL    HW115386   3.690   6.521   6.684
 4829SOL    HW215387   3.754   6.450   6.551
 4830SOL     OW15388   5.438   6.082   3.882
 4830SOL    HW115389   5.369   6.084   3.954
 4830SOL    HW215390   5.528   6.072   3.923
 4831SOL     OW15391   6.709   5.565   6.347
 4831SOL    HW115392   6.626   5.537   6.395
 4831SOL    HW215393   6.788   5.519   6.387
 4832SOL     OW15394   2.227   2.528   5.925
 4832SOL    HW115395   2.135   2.559   5.902
 4832SOL    HW215396   2.294   2.577   5.870
 4833SOL     OW15397   5.414   1.084   2.939
 4833SOL    HW115398   5.404   0.985   2.947
 4833SOL    HW215399   5.443   1.108   2.846
 4834SOL     OW15400   3.731   0.615   0.365
 4834SOL    HW115401   3.746   0.543   0.433
 4834SOL    HW215402   3.650   0.592   0.311
 4835SOL     OW15403   1.225   0.983   6.450
 4835SOL    HW115404   1.258   0.937   6.533
 4835SOL    HW215405   1.294   0.975   6.378
 4836SOL     OW15406   4.595   2.613   3.346
 4836SOL    HW115407   4.525   2.626   3.416
 4836SOL    HW215408   4.569   2.538   3.286
 4837SOL     OW15409   4.408   3.396   1.728
 4837SOL    HW115410   4.380   3.490   1.746
 4837SOL    HW215411   4.355   3.334   1.786
 4838SOL     OW15412   2.456   5.125   1.975
 4838SOL    HW115413   2.461   5.035   1.931
 4838SOL    HW215414   2.373   5.172   1.945
 4839SOL     OW15415   1.594   4.039   5.599
 4839SOL    HW115416   1.538   4.083   5.669
 4839SOL    HW215417   1.535   3.998   5.530
 4840SOL     OW15418   0.893   6.614   5.725
 4840SOL    HW115419   0.897   6.705   5.683
 4840SOL    HW215420   0.803   6.600   5.766
 4841SOL     OW15421   3.138   6.283   1.540
 4841SOL    HW115422   3.083   6.216   1.490
 4841SOL    HW215423   3.083   6.364   1.559
 4842SOL     OW15424   3.292   4.884   1.923
 4842SOL    HW115425   3.216   4.888   1.988
 4842SOL    HW215426   3.378   4.873   1.973
 4843SOL     OW15427   5.946   4.060   0.680
 4843SOL    HW115428   5.995   4.076   0.594
 4843SOL    HW215429   6.011   4.052   0.755
 4844SOL     OW15430   6.811   3.243   5.993
 4844SOL    HW115431   6.881   3.186   6.036
 4844SOL    HW215432   6.736   3.257   6.058
 4845SOL     OW15433   6.872   5.980   4.554
 4845SOL    HW115434   6.854   5.950   4.461
 4845SOL    HW215435   6.903   5.902   4.609
 4846SOL     OW15436   6.662   3.110   2.869
 4846SOL    HW115437   6.609   3.135   2.787
 4846SOL    HW215438   6.675   3.011   2.871
 4847SOL     OW15439   3.799   1.674   5.745
 4847SOL    HW115440   3.885   1.716   5.718
 4847SOL    HW215441   3.759   1.726   5.821
 4848SOL     OW15442   1.685   0.653   3.634
 4848SOL    HW115443   1.663   0.716   3.708
 4848SOL    HW215444   1.601   0.614   3.596
 4849SOL     OW15445   0.921   6.993   6.828
 4849SOL    HW115446   1.019   6.982   6.844
 4849SOL    HW215447   0.876   7.019   6.913
 4850SOL     OW15448   4.062   1.220   2.590
 4850SOL    HW115449   4.115   1.185   2.667
 4850SOL    HW215450   4.074   1.160   2.511
 4851SOL     OW15451   3.291   5.555   4.598
 4851SOL    HW115452   3.377   5.526   4.558
 4851SOL    HW215453   3.285   5.523   4.692
 4852SOL     OW15454   0.980   0.557   5.895
 4852SOL    HW115455   1.018   0.642   5.932
 4852SOL    HW215456   1.051   0.488   5.891
 4853SOL     OW15457   2.705   1.225   2.506
 4853SOL    HW115458   2.617   1.269   2.485
 4853SOL    HW215459   2.723   1.154   2.439
 4854SOL     OW15460   4.789   6.556   2.440
 4854SOL    HW115461   4.807   6.602   2.526
 4854SOL    HW215462   4.691   6.543   2.428
 4855SOL     OW15463   5.535   2.479   2.354
 4855SOL    HW115464   5.502   2.533   2.276
 4855SOL    HW215465   5.613   2.424   2.326
 4856SOL     OW15466   2.340   4.243   2.777
 4856SOL    HW115467   2.384   4.315   2.722
 4856SOL    HW215468   2.316   4.167   2.718
 4857SOL     OW15469   1.792   2.918   5.610
 4857SOL    HW115470   1.778   2.842   5.546
 4857SOL    HW215471   1.888   2.945   5.609
 4858SOL     OW15472   1.684   1.282   4.356
 4858SOL    HW115473   1.590   1.280   4.320
 4858SOL    HW215474   1.683   1.322   4.448
 4859SOL     OW15475   1.470   0.384   4.347
 4859SOL    HW115476   1.546   0.348   4.294
 4859SOL    HW215477   1.397   0.414   4.285
 4860SOL     OW15478   3.527   5.078   1.974
 4860SOL    HW115479   3.470   5.091   2.055
 4860SOL    HW215480   3.551   4.981   1.965
 4861SOL     OW15481   5.320   5.403   0.485
 4861SOL    HW115482   5.409   5.360   0.504
 4861SOL    HW215483   5.247   5.339   0.508
 4862SOL     OW15484   3.009   4.832   5.021
 4862SOL    HW115485   2.945   4.758   5.039
 4862SOL    HW215486   3.035   4.877   5.106
 4863SOL     OW15487   6.011   4.286   1.951
 4863SOL    HW115488   6.037   4.322   1.862
 4863SOL    HW215489   5.929   4.229   1.941
 4864SOL     OW15490   3.901   1.248   3.697
 4864SOL    HW115491   3.844   1.168   3.714
 4864SOL    HW215492   3.850   1.331   3.723
 4865SOL     OW15493   2.255   6.987   5.853
 4865SOL    HW115494   2.303   6.930   5.920
 4865SOL    HW215495   2.274   6.954   5.761
 4866SOL     OW15496   6.703   2.726   0.585
 4866SOL    HW115497   6.725   2.629   0.596
 4866SOL    HW215498   6.750   2.779   0.655
 4867SOL     OW15499   3.757   5.433   3.629
 4867SOL    HW115500   3.692   5.465   3.560
 4867SOL    HW215501   3.733   5.339   3.655
 4868SOL     OW15502   0.119   5.140   2.706
 4868SOL    HW115503   0.144   5.197   2.785
 4868SOL    HW215504   0.114   5.044   2.735
 4869SOL     OW15505   1.489   1.725   2.268
 4869SOL    HW115506   1.417   1.676   2.219
 4869SOL    HW215507   1.482   1.705   2.366
 4870SOL     OW15508   0.416   6.316   2.212
 4870SOL    HW115509   0.483   6.384   2.184
 4870SOL    HW215510   0.432   6.230   2.163
 4871SOL     OW15511   1.424   0.796   3.599
 4871SOL    HW115512   1.510   0.835   3.569
 4871SOL    HW215513   1.388   0.735   3.529
 4872SOL     OW15514   5.705   0.230   3.269
 4872SOL    HW115515   5.766   0.153   3.288
 4872SOL    HW215516   5.745   0.314   3.305
 4873SOL     OW15517   6.342   5.329   4.266
 4873SOL    HW115518   6.318   5.422   4.295
 4873SOL    HW215519   6.319   5.265   4.339
 4874SOL     OW15520   5.706   3.713   2.378
 4874SOL    HW115521   5.763   3.794   2.392
 4874SOL    HW215522   5.760   3.642   2.333
 4875SOL     OW15523   6.250   1.636   0.403
 4875SOL    HW115524   6.160   1.637   0.361
 4875SOL    HW215525   6.293   1.725   0.392
 4876SOL     OW15526   6.264   2.174   3.293
 4876SOL    HW115527   6.306   2.123   3.218
 4876SOL    HW215528   6.256   2.115   3.373
 4877SOL     OW15529   1.106   1.359   5.669
 4877SOL    HW115530   1.171   1.286   5.649
 4877SOL    HW215531   1.064   1.391   5.584
 4878SOL     OW15532   6.324   1.656   1.724
 4878SOL    HW115533   6.258   1.581   1.717
 4878SOL    HW215534   6.360   1.677   1.633
 4879SOL     OW15535   4.400   1.605   2.158
 4879SOL    HW115536   4.310   1.562   2.147
 4879SOL    HW215537   4.388   1.700   2.184
 4880SOL     OW15538   5.689   3.632   0.262
 4880SOL    HW115539   5.668   3.673   0.172
 4880SOL    HW215540   5.732   3.701   0.320
 4881SOL     OW15541   1.632   1.616   0.287
 4881SOL    HW115542   1.695   1.693   0.279
 4881SOL    HW215543   1.545   1.639   0.244
 4882SOL     OW15544   4.721   0.698   4.855
 4882SOL    HW115545   4.746   0.757   4.932
 4882SOL    HW215546   4.804   0.656   4.817
 4883SOL     OW15547   4.815   4.650   1.532
 4883SOL    HW115548   4.817   4.600   1.445
 4883SOL    HW215549   4.894   4.625   1.587
 4884SOL     OW15550   2.946   6.043   1.850
 4884SOL    HW115551   2.917   6.067   1.942
 4884SOL    HW215552   2.873   5.991   1.805
 4885SOL     OW15553   2.405   5.274   1.175
 4885SOL    HW115554   2.418   5.190   1.122
 4885SOL    HW215555   2.434   5.258   1.269
 4886SOL     OW15556   2.007   6.045   1.950
 4886SOL    HW115557   2.022   6.125   1.893
 4886SOL    HW215558   1.941   5.984   1.906
 4887SOL     OW15559   0.039   6.851   1.224
 4887SOL    HW115560   0.050   6.920   1.152
 4887SOL    HW215561   0.025   6.761   1.182
 4888SOL     OW15562   3.055   0.481   4.369
 4888SOL    HW115563   3.129   0.474   4.436
 4888SOL    HW215564   3.047   0.394   4.320
 4889SOL     OW15565   6.980   1.313   5.453
 4889SOL    HW115566   6.891   1.322   5.497
 4889SOL    HW215567   7.005   1.216   5.448
 4890SOL     OW15568   6.599   1.219   6.101
 4890SOL    HW115569   6.618   1.305   6.053
 4890SOL    HW215570   6.679   1.159   6.096
 4891SOL     OW15571   2.083   4.678   0.372
 4891SOL    HW115572   2.032   4.601   0.409
 4891SOL    HW215573   2.065   4.688   0.275
 4892SOL     OW15574   3.967   5.468   2.300
 4892SOL    HW115575   4.020   5.481   2.384
 4892SOL    HW215576   3.917   5.552   2.279
 4893SOL     OW15577   5.945   2.953   1.586
 4893SOL    HW115578   5.880   2.887   1.550
 4893SOL    HW215579   6.004   2.909   1.653
 4894SOL     OW15580   3.642   0.933   2.477
 4894SOL    HW115581   3.595   0.941   2.389
 4894SOL    HW215582   3.662   1.024   2.513
 4895SOL     OW15583   0.429   4.945   4.463
 4895SOL    HW115584   0.420   4.970   4.560
 4895SOL    HW215585   0.486   4.864   4.455
 4896SOL     OW15586   2.382   4.268   2.011
 4896SOL    HW115587   2.353   4.172   2.017
 4896SOL    HW215588   2.440   4.280   1.930
 4897SOL     OW15589   1.494   5.205   5.619
 4897SOL    HW115590   1.577   5.213   5.674
 4897SOL    HW215591   1.461   5.297   5.596
 4898SOL     OW15592   4.624   1.351   5.110
 4898SOL    HW115593   4.590   1.283   5.176
 4898SOL    HW215594   4.692   1.308   5.051
 4899SOL     OW15595   5.867   5.401   2.953
 4899SOL    HW115596   5.867   5.366   3.047
 4899SOL    HW215597   5.773   5.426   2.927
 4900SOL     OW15598   3.812   6.418   4.991
 4900SOL    HW115599   3.881   6.368   5.041
 4900SOL    HW215600   3.743   6.355   4.956
 4901SOL     OW15601   2.245   1.248   5.321
 4901SOL    HW115602   2.291   1.335   5.303
 4901SOL    HW215603   2.311   1.183   5.359
 4902SOL     OW15604   1.666   1.745   5.024
 4902SOL    HW115605   1.758   1.735   4.986
 4902SOL    HW215606   1.643   1.843   5.031
 4903SOL     OW15607   3.976   5.726   6.960
 4903SOL    HW115608   3.989   5.823   6.981
 4903SOL    HW215609   4.058   5.675   6.984
 4904SOL     OW15610   2.170   0.367   5.238
 4904SOL    HW115611   2.243   0.315   5.283
 4904SOL    HW215612   2.153   0.329   5.148
 4905SOL     OW15613   3.301   0.500   3.250
 4905SOL    HW115614   3.296   0.428   3.181
 4905SOL    HW215615   3.368   0.475   3.320
 4906SOL     OW15616   5.132   1.783   6.379
 4906SOL    HW115617   5.047   1.784   6.432
 4906SOL    HW215618   5.210   1.779   6.441
 4907SOL     OW15619   4.455   6.522   2.056
 4907SOL    HW115620   4.492   6.609   2.022
 4907SOL    HW215621   4.366   6.505   2.015
 4908SOL     OW15622   5.794   6.391   6.804
 4908SOL    HW115623   5.779   6.292   6.809
 4908SOL    HW215624   5.891   6.410   6.821
 4909SOL     OW15625   0.427   5.736   3.744
 4909SOL    HW115626   0.431   5.664   3.675
 4909SOL    HW215627   0.331   5.752   3.769
 4910SOL     OW15628   5.023   1.097   4.256
 4910SOL    HW115629   4.977   1.059   4.176
 4910SOL    HW215630   5.121   1.079   4.251
 4911SOL     OW15631   1.664   4.381   2.911
 4911SOL    HW115632   1.693   4.474   2.932
 4911SOL    HW215633   1.657   4.328   2.995
 4912SOL     OW15634   5.824   1.165   6.340
 4912SOL    HW115635   5.870   1.207   6.262
 4912SOL    HW215636   5.880   1.176   6.423
 4913SOL     OW15637   3.866   3.239   4.980
 4913SOL    HW115638   3.928   3.266   5.054
 4913SOL    HW215639   3.862   3.139   4.975
 4914SOL     OW15640   4.425   6.605   5.200
 4914SOL    HW115641   4.395   6.676   5.136
 4914SOL    HW215642   4.449   6.647   5.287
 4915SOL     OW15643   2.897   5.747   5.820
 4915SOL    HW115644   2.918   5.792   5.733
 4915SOL    HW215645   2.890   5.816   5.892
 4916SOL     OW15646   0.704   0.858   4.085
 4916SOL    HW115647   0.706   0.913   4.001
 4916SOL    HW215648   0.796   0.826   4.106
 4917SOL     OW15649   2.560   5.753   1.438
 4917SOL    HW115650   2.608   5.724   1.521
 4917SOL    HW215651   2.606   5.713   1.358
 4918SOL     OW15652   5.192   6.343   1.894
 4918SOL    HW115653   5.240   6.259   1.869
 4918SOL    HW215654   5.247   6.394   1.960
 4919SOL     OW15655   3.279   2.954   0.662
 4919SOL    HW115656   3.216   2.992   0.594
 4919SOL    HW215657   3.367   2.933   0.618
 4920SOL     OW15658   5.342   0.190   4.572
 4920SOL    HW115659   5.242   0.198   4.571
 4920SOL    HW215660   5.371   0.133   4.495
 4921SOL     OW15661   0.872   5.813   6.983
 4921SOL    HW115662   0.850   5.853   6.894
 4921SOL    HW215663   0.838   5.872   0.033
 4922SOL     OW15664   2.706   2.436   4.997
 4922SOL    HW115665   2.722   2.534   5.000
 4922SOL    HW215666   2.622   2.416   4.947
 4923SOL     OW15667   3.020   1.037   2.623
 4923SOL    HW115668   3.111   0.998   2.630
 4923SOL    HW215669   2.951   0.964   2.626
 4924SOL     OW15670   3.620   1.315   4.598
 4924SOL    HW115671   3.524   1.309   4.571
 4924SOL    HW215672   3.652   1.409   4.588
 4925SOL     OW15673   5.957   0.080   2.668
 4925SOL    HW115674   5.992   7.013   2.693
 4925SOL    HW215675   6.028   0.148   2.681
 4926SOL     OW15676   5.441   2.049   1.353
 4926SOL    HW115677   5.480   1.963   1.319
 4926SOL    HW215678   5.378   2.086   1.285
 4927SOL     OW15679   2.967   3.569   4.553
 4927SOL    HW115680   2.943   3.495   4.615
 4927SOL    HW215681   2.948   3.657   4.597
 4928SOL     OW15682   1.547   0.922   0.124
 4928SOL    HW115683   1.555   0.837   0.175
 4928SOL    HW215684   1.631   0.975   0.133
 4929SOL     OW15685   6.351   6.747   4.737
 4929SOL    HW115686   6.359   6.818   4.667
 4929SOL    HW215687   6.256   6.741   4.768
 4930SOL     OW15688   5.947   0.658   3.217
 4930SOL    HW115689   5.879   0.717   3.173
 4930SOL    HW215690   5.993   0.603   3.147
 4931SOL     OW15691   6.583   6.641   1.262
 4931SOL    HW115692   6.595   6.660   1.164
 4931SOL    HW215693   6.671   6.619   1.303
 4932SOL     OW15694   4.102   3.198   2.629
 4932SOL    HW115695   4.005   3.175   2.632
 4932SOL    HW215696   4.151   3.128   2.577
 4933SOL     OW15697   2.484   6.868   2.301
 4933SOL    HW115698   2.513   6.795   2.363
 4933SOL    HW215699   2.399   6.909   2.335
 4934SOL     OW15700   3.634   5.534   3.394
 4934SOL    HW115701   3.701   5.600   3.363
 4934SOL    HW215702   3.555   5.536   3.333
 4935SOL     OW15703   1.523   2.041   6.163
 4935SOL    HW115704   1.604   1.983   6.173
 4935SOL    HW215705   1.516   2.103   6.242
 4936SOL     OW15706   3.463   5.256   1.500
 4936SOL    HW115707   3.460   5.278   1.597
 4936SOL    HW215708   3.462   5.341   1.447
 4937SOL     OW15709   5.759   3.007   6.074
 4937SOL    HW115710   5.826   3.012   6.148
 4937SOL    HW215711   5.739   3.100   6.041
 4938SOL     OW15712   1.659   5.485   5.637
 4938SOL    HW115713   1.684   5.572   5.680
 4938SOL    HW215714   1.671   5.411   5.703
 4939SOL     OW15715   5.573   2.074   4.945
 4939SOL    HW115716   5.480   2.073   4.981
 4939SOL    HW215717   5.572   2.053   4.848
 4940SOL     OW15718   0.724   1.388   4.774
 4940SOL    HW115719   0.657   1.315   4.791
 4940SOL    HW215720   0.735   1.401   4.676
 4941SOL     OW15721   4.801   1.758   5.853
 4941SOL    HW115722   4.775   1.850   5.882
 4941SOL    HW215723   4.720   1.699   5.854
 4942SOL     OW15724   5.575   2.828   6.169
 4942SOL    HW115725   5.643   2.868   6.107
 4942SOL    HW215726   5.516   2.765   6.117
 4943SOL     OW15727   4.011   3.618   0.262
 4943SOL    HW115728   4.111   3.611   0.255
 4943SOL    HW215729   3.980   3.563   0.340
 4944SOL     OW15730   2.383   4.430   2.544
 4944SOL    HW115731   2.336   4.396   2.462
 4944SOL    HW215732   2.442   4.506   2.519
 4945SOL     OW15733   1.152   1.349   3.921
 4945SOL    HW115734   1.219   1.370   3.850
 4945SOL    HW215735   1.071   1.307   3.878
 4946SOL     OW15736   0.310   3.239   1.185
 4946SOL    HW115737   0.228   3.235   1.242
 4946SOL    HW215738   0.369   3.313   1.216
 4947SOL     OW15739   1.689   0.993   1.213
 4947SOL    HW115740   1.776   0.999   1.164
 4947SOL    HW215741   1.688   1.061   1.287
 4948SOL     OW15742   1.964   0.643   2.893
 4948SOL    HW115743   1.891   0.672   2.955
 4948SOL    HW215744   2.045   0.618   2.945
 4949SOL     OW15745   4.651   6.845   5.845
 4949SOL    HW115746   4.552   6.832   5.837
 4949SOL    HW215747   4.697   6.781   5.783
 4950SOL     OW15748   2.794   5.678   4.167
 4950SOL    HW115749   2.713   5.622   4.151
 4950SOL    HW215750   2.822   5.670   4.262
 4951SOL     OW15751   5.126   1.491   4.824
 4951SOL    HW115752   5.177   1.406   4.818
 4951SOL    HW215753   5.063   1.499   4.747
 4952SOL     OW15754   0.249   0.758   4.942
 4952SOL    HW115755   0.278   0.663   4.946
 4952SOL    HW215756   0.304   0.813   5.006
 4953SOL     OW15757   1.680   6.793   2.596
 4953SOL    HW115758   1.682   6.781   2.497
 4953SOL    HW215759   1.751   6.858   2.624
 4954SOL     OW15760   4.518   3.767   0.038
 4954SOL    HW115761   4.497   3.864   0.025
 4954SOL    HW215762   4.563   3.754   0.126
 4955SOL     OW15763   1.700   6.586   6.220
 4955SOL    HW115764   1.703   6.566   6.318
 4955SOL    HW215765   1.778   6.543   6.175
 4956SOL     OW15766   2.418   0.185   4.569
 4956SOL    HW115767   2.463   0.221   4.650
 4956SOL    HW215768   2.325   0.156   4.593
 4957SOL     OW15769   0.156   1.546   3.458
 4957SOL    HW115770   0.168   1.527   3.556
 4957SOL    HW215771   0.149   1.459   3.409
 4958SOL     OW15772   0.227   5.896   5.561
 4958SOL    HW115773   0.261   5.821   5.617
 4958SOL    HW215774   0.193   5.969   5.620
 4959SOL     OW15775   6.843   1.162   6.476
 4959SOL    HW115776   6.778   1.172   6.552
 4959SOL    HW215777   6.935   1.183   6.508
 4960SOL     OW15778   3.257   5.750   4.024
 4960SOL    HW115779   3.345   5.760   4.070
 4960SOL    HW215780   3.264   5.785   3.930
 4961SOL     OW15781   5.306   1.728   5.442
 4961SOL    HW115782   5.318   1.661   5.515
 4961SOL    HW215783   5.384   1.723   5.379
 4962SOL     OW15784   6.243   2.783   0.910
 4962SOL    HW115785   6.165   2.834   0.874
 4962SOL    HW215786   6.279   2.829   0.991
 4963SOL     OW15787   6.125   6.087   0.340
 4963SOL    HW115788   6.111   6.178   0.301
 4963SOL    HW215789   6.181   6.033   0.278
 4964SOL     OW15790   3.689   6.513   3.300
 4964SOL    HW115791   3.727   6.566   3.375
 4964SOL    HW215792   3.759   6.496   3.231
 4965SOL     OW15793   0.201   0.338   3.677
 4965SOL    HW115794   0.111   0.379   3.661
 4965SOL    HW215795   0.193   0.238   3.673
 4966SOL     OW15796   2.132   0.306   4.966
 4966SOL    HW115797   2.175   0.336   4.880
 4966SOL    HW215798   2.149   0.208   4.978
 4967SOL     OW15799   3.975   3.399   5.716
 4967SOL    HW115800   4.036   3.440   5.649
 4967SOL    HW215801   4.028   3.358   5.790
 4968SOL     OW15802   5.461   3.200   2.891
 4968SOL    HW115803   5.474   3.141   2.972
 4968SOL    HW215804   5.547   3.247   2.871
 4969SOL     OW15805   2.198   1.172   1.785
 4969SOL    HW115806   2.201   1.271   1.797
 4969SOL    HW215807   2.280   1.131   1.825
 4970SOL     OW15808   1.785   2.137   4.551
 4970SOL    HW115809   1.746   2.159   4.640
 4970SOL    HW215810   1.744   2.194   4.480
 4971SOL     OW15811   6.051   6.047   3.741
 4971SOL    HW115812   6.048   6.060   3.840
 4971SOL    HW215813   6.005   5.962   3.717
 4972SOL     OW15814   1.554   3.264   0.622
 4972SOL    HW115815   1.541   3.165   0.629
 4972SOL    HW215816   1.476   3.304   0.574
 4973SOL     OW15817   6.714   0.067   1.906
 4973SOL    HW115818   6.686   0.014   1.826
 4973SOL    HW215819   6.753   0.005   1.975
 4974SOL     OW15820   5.793   4.230   0.866
 4974SOL    HW115821   5.731   4.198   0.938
 4974SOL    HW215822   5.849   4.154   0.834
 4975SOL     OW15823   5.406   6.028   6.121
 4975SOL    HW115824   5.464   6.104   6.150
 4975SOL    HW215825   5.340   6.007   6.193
 4976SOL     OW15826   3.337   0.196   4.817
 4976SOL    HW115827   3.349   0.226   4.723
 4976SOL    HW215828   3.388   0.257   4.878
 4977SOL     OW15829   4.627   4.319   0.498
 4977SOL    HW115830   4.709   4.266   0.478
 4977SOL    HW215831   4.620   4.333   0.597
 4978SOL     OW15832   6.982   3.460   5.899
 4978SOL    HW115833   6.932   3.482   5.816
 4978SOL    HW215834   6.938   3.384   5.946
 4979SOL     OW15835   0.093   1.302   5.118
 4979SOL    HW115836   0.151   1.276   5.195
 4979SOL    HW215837   0.004   1.334   5.152
 4980SOL     OW15838   4.746   0.224   3.362
 4980SOL    HW115839   4.763   0.268   3.274
 4980SOL    HW215840   4.690   0.143   3.348
 4981SOL     OW15841   4.827   5.483   6.303
 4981SOL    HW115842   4.786   5.565   6.263
 4981SOL    HW215843   4.834   5.412   6.233
 4982SOL     OW15844   2.038   1.772   6.705
 4982SOL    HW115845   2.095   1.695   6.736
 4982SOL    HW215846   1.943   1.757   6.733
 4983SOL     OW15847   5.158   2.674   4.324
 4983SOL    HW115848   5.172   2.673   4.423
 4983SOL    HW215849   5.233   2.627   4.278
 4984SOL     OW15850   5.546   3.662   4.156
 4984SOL    HW115851   5.480   3.665   4.231
 4984SOL    HW215852   5.639   3.662   4.193
 4985SOL     OW15853   6.784   5.998   3.348
 4985SOL    HW115854   6.725   6.031   3.275
 4985SOL    HW215855   6.775   6.058   3.428
 4986SOL     OW15856   6.817   4.364   3.034
 4986SOL    HW115857   6.876   4.445   3.030
 4986SOL    HW215858   6.795   4.334   2.941
 4987SOL     OW15859   0.549   2.524   1.444
 4987SOL    HW115860   0.467   2.580   1.442
 4987SOL    HW215861   0.558   2.474   1.358
 4988SOL     OW15862   6.554   1.881   3.425
 4988SOL    HW115863   6.536   1.980   3.427
 4988SOL    HW215864   6.511   1.838   3.504
 4989SOL     OW15865   5.274   0.935   1.306
 4989SOL    HW115866   5.207   0.968   1.239
 4989SOL    HW215867   5.366   0.950   1.271
 4990SOL     OW15868   1.301   1.361   6.210
 4990SOL    HW115869   1.330   1.277   6.165
 4990SOL    HW215870   1.216   1.345   6.259
 4991SOL     OW15871   1.052   3.907   3.900
 4991SOL    HW115872   1.039   3.918   3.802
 4991SOL    HW215873   1.127   3.966   3.930
 4992SOL     OW15874   4.948   1.043   3.995
 4992SOL    HW115875   5.047   1.050   3.985
 4992SOL    HW215876   4.907   1.024   3.906
 4993SOL     OW15877   3.152   5.310   4.248
 4993SOL    HW115878   3.177   5.253   4.326
 4993SOL    HW215879   3.231   5.366   4.222
 4994SOL     OW15880   1.327   0.277   2.282
 4994SOL    HW115881   1.263   0.302   2.354
 4994SOL    HW215882   1.352   0.358   2.229
 4995SOL     OW15883   6.662   2.981   5.857
 4995SOL    HW115884   6.586   3.021   5.907
 4995SOL    HW215885   6.656   3.007   5.760
 4996SOL     OW15886   1.477   1.193   2.542
 4996SOL    HW115887   1.566   1.234   2.559
 4996SOL    HW215888   1.406   1.252   2.580
 4997SOL     OW15889   5.914   2.079   2.961
 4997SOL    HW115890   5.848   2.089   2.887
 4997SOL    HW215891   5.942   1.983   2.968
 4998SOL     OW15892   2.120   3.789   4.984
 4998SOL    HW115893   2.177   3.871   4.975
 4998SOL    HW215894   2.106   3.769   5.081
 4999SOL     OW15895   5.343   5.569   1.375
 4999SOL    HW115896   5.258   5.620   1.370
 4999SOL    HW215897   5.401   5.605   1.448
 5000SOL     OW15898   1.011   0.048   4.124
 5000SOL    HW115899   0.924   0.097   4.135
 5000SOL    HW215900   1.046   0.023   4.214
 5001SOL     OW15901   1.458   4.122   5.824
 5001SOL    HW115902   1.412   4.047   5.872
 5001SOL    HW215903   1.480   4.194   5.890
 5002SOL     OW15904   1.469   3.336   3.115
 5002SOL    HW115905   1.400   3.394   3.160
 5002SOL    HW215906   1.437   3.309   3.025
 5003SOL     OW15907   1.589   6.044   3.281
 5003SOL    HW115908   1.599   5.998   3.369
 5003SOL    HW215909   1.569   6.141   3.297
 5004SOL     OW15910   2.629   5.204   5.523
 5004SOL    HW115911   2.729   5.205   5.523
 5004SOL    HW215912   2.595   5.296   5.504
 5005SOL     OW15913   3.477   2.470   1.026
 5005SOL    HW115914   3.388   2.479   0.981
 5005SOL    HW215915   3.532   2.551   1.007
 5006SOL     OW15916   5.497   6.864   6.563
 5006SOL    HW115917   5.580   6.918   6.551
 5006SOL    HW215918   5.427   6.895   6.499
 5007SOL     OW15919   2.591   0.366   6.649
 5007SOL    HW115920   2.544   0.282   6.675
 5007SOL    HW215921   2.529   0.424   6.596
 5008SOL     OW15922   6.931   0.278   3.941
 5008SOL    HW115923   6.925   0.287   4.040
 5008SOL    HW215924   0.001   0.250   3.916
 5009SOL     OW15925   2.082   6.548   1.955
 5009SOL    HW115926   2.164   6.506   1.915
 5009SOL    HW215927   2.042   6.485   2.021
 5010SOL     OW15928   3.114   3.245   3.975
 5010SOL    HW115929   3.015   3.232   3.981
 5010SOL    HW215930   3.135   3.342   3.976
 5011SOL     OW15931   2.133   3.621   2.216
 5011SOL    HW115932   2.145   3.550   2.285
 5011SOL    HW215933   2.170   3.589   2.128
 5012SOL     OW15934   4.938   3.422   6.698
 5012SOL    HW115935   4.893   3.405   6.611
 5012SOL    HW215936   5.016   3.361   6.709
 5013SOL     OW15937   5.508   1.198   0.102
 5013SOL    HW115938   5.546   1.106   0.106
 5013SOL    HW215939   5.451   1.214   0.182
 5014SOL     OW15940   5.595   5.590   0.508
 5014SOL    HW115941   5.576   5.492   0.498
 5014SOL    HW215942   5.547   5.626   0.587
 5015SOL     OW15943   4.289   1.638   3.582
 5015SOL    HW115944   4.253   1.731   3.572
 5015SOL    HW215945   4.213   1.574   3.593
 5016SOL     OW15946   2.702   1.759   1.794
 5016SOL    HW115947   2.715   1.858   1.792
 5016SOL    HW215948   2.649   1.730   1.714
 5017SOL     OW15949   2.006   1.984   0.740
 5017SOL    HW115950   2.092   1.942   0.771
 5017SOL    HW215951   2.027   2.060   0.679
 5018SOL     OW15952   0.907   4.973   1.157
 5018SOL    HW115953   0.967   5.048   1.184
 5018SOL    HW215954   0.823   4.976   1.212
 5019SOL     OW15955   2.545   4.509   0.547
 5019SOL    HW115956   2.449   4.507   0.521
 5019SOL    HW215957   2.583   4.417   0.540
 5020SOL     OW15958   4.984   6.309   5.722
 5020SOL    HW115959   5.003   6.235   5.658
 5020SOL    HW215960   4.887   6.333   5.718
 5021SOL     OW15961   1.465   2.818   5.500
 5021SOL    HW115962   1.416   2.772   5.573
 5021SOL    HW215963   1.409   2.820   5.418
 5022SOL     OW15964   1.975   0.567   1.149
 5022SOL    HW115965   1.972   0.576   1.249
 5022SOL    HW215966   2.062   0.524   1.122
 5023SOL     OW15967   6.397   3.496   1.390
 5023SOL    HW115968   6.437   3.429   1.452
 5023SOL    HW215969   6.325   3.454   1.336
 5024SOL     OW15970   6.816   4.402   2.755
 5024SOL    HW115971   6.889   4.470   2.750
 5024SOL    HW215972   6.837   4.326   2.694
 5025SOL     OW15973   4.162   1.996   1.955
 5025SOL    HW115974   4.089   2.062   1.974
 5025SOL    HW215975   4.234   2.005   2.024
 5026SOL     OW15976   6.071   5.803   6.497
 5026SOL    HW115977   6.012   5.742   6.550
 5026SOL    HW215978   6.017   5.851   6.429
 5027SOL     OW15979   0.710   0.012   2.303
 5027SOL    HW115980   0.759   6.954   2.334
 5027SOL    HW215981   0.760   0.094   2.332
 5028SOL     OW15982   0.242   6.967   2.454
 5028SOL    HW115983   0.281   6.905   2.522
 5028SOL    HW215984   0.316   7.012   2.403
 5029SOL     OW15985   6.599   3.071   3.252
 5029SOL    HW115986   6.602   3.166   3.286
 5029SOL    HW215987   6.687   3.047   3.212
 5030SOL     OW15988   6.284   0.401   6.999
 5030SOL    HW115989   6.360   0.343   6.968
 5030SOL    HW215990   6.318   0.492   7.021
 5031SOL     OW15991   5.565   1.315   4.811
 5031SOL    HW115992   5.571   1.366   4.897
 5031SOL    HW215993   5.497   1.358   4.752
 5032SOL     OW15994   0.875   4.241   1.384
 5032SOL    HW115995   0.823   4.274   1.305
 5032SOL    HW215996   0.952   4.303   1.402
 5033SOL     OW15997   1.888   4.687   6.928
 5033SOL    HW115998   1.902   4.708   6.831
 5033SOL    HW215999   1.794   4.656   6.942
 5034SOL     OW16000   6.839   3.071   2.321
 5034SOL    HW116001   6.939   3.076   2.319
 5034SOL    HW216002   6.805   3.045   2.231
 5035SOL     OW16003   6.089   4.706   0.857
 5035SOL    HW116004   6.111   4.778   0.922
 5035SOL    HW216005   5.993   4.680   0.867
 5036SOL     OW16006   0.481   5.126   6.864
 5036SOL    HW116007   0.457   5.029   6.863
 5036SOL    HW216008   0.557   5.141   6.928
 5037SOL     OW16009   4.591   2.589   2.508
 5037SOL    HW116010   4.624   2.683   2.516
 5037SOL    HW216011   4.670   2.527   2.506
 5038SOL     OW16012   1.608   4.944   5.515
 5038SOL    HW116013   1.706   4.944   5.537
 5038SOL    HW216014   1.565   5.026   5.553
 5039SOL     OW16015   2.215   3.612   5.315
 5039SOL    HW116016   2.267   3.601   5.400
 5039SOL    HW216017   2.179   3.523   5.286
 5040SOL     OW16018   2.345   4.175   6.591
 5040SOL    HW116019   2.433   4.221   6.602
 5040SOL    HW216020   2.330   4.154   6.495
 5041SOL     OW16021   0.768   3.550   1.260
 5041SOL    HW116022   0.825   3.483   1.306
 5041SOL    HW216023   0.826   3.618   1.215
 5042SOL     OW16024   0.047   3.158   6.998
 5042SOL    HW116025   0.060   3.200   6.908
 5042SOL    HW216026   0.040   3.229   0.044
 5043SOL     OW16027   3.282   0.980   5.433
 5043SOL    HW116028   3.317   0.952   5.522
 5043SOL    HW216029   3.275   1.080   5.430
 5044SOL     OW16030   5.833   7.008   3.277
 5044SOL    HW116031   5.892   7.017   3.357
 5044SOL    HW216032   5.878   6.949   3.209
 5045SOL     OW16033   5.253   3.451   0.342
 5045SOL    HW116034   5.323   3.411   0.283
 5045SOL    HW216035   5.276   3.434   0.438
 5046SOL     OW16036   3.912   2.968   4.652
 5046SOL    HW116037   3.874   2.960   4.745
 5046SOL    HW216038   3.918   3.065   4.627
 5047SOL     OW16039   6.496   2.040   2.807
 5047SOL    HW116040   6.475   2.130   2.768
 5047SOL    HW216041   6.417   2.008   2.860
 5048SOL     OW16042   6.447   2.633   1.365
 5048SOL    HW116043   6.472   2.544   1.403
 5048SOL    HW216044   6.479   2.706   1.426
 5049SOL     OW16045   6.893   0.932   3.375
 5049SOL    HW116046   6.849   1.015   3.407
 5049SOL    HW216047   6.878   0.922   3.276
 5050SOL     OW16048   0.707   1.038   2.297
 5050SOL    HW116049   0.701   1.130   2.335
 5050SOL    HW216050   0.772   1.038   2.220
 5051SOL     OW16051   3.889   3.333   0.671
 5051SOL    HW116052   3.819   3.274   0.630
 5051SOL    HW216053   3.964   3.277   0.705
 5052SOL     OW16054   2.353   4.937   6.280
 5052SOL    HW116055   2.449   4.929   6.253
 5052SOL    HW216056   2.315   4.847   6.297
 5053SOL     OW16057   2.166   4.025   3.205
 5053SOL    HW116058   2.090   4.087   3.222
 5053SOL    HW216059   2.133   3.931   3.203
 5054SOL     OW16060   3.536   5.719   5.173
 5054SOL    HW116061   3.621   5.770   5.162
 5054SOL    HW216062   3.544   5.631   5.126
 5055SOL     OW16063   6.906   1.654   4.536
 5055SOL    HW116064   6.865   1.566   4.561
 5055SOL    HW216065   6.916   1.710   4.618
 5056SOL     OW16066   6.027   4.079   6.129
 5056SOL    HW116067   6.086   4.160   6.131
 5056SOL    HW216068   6.047   4.021   6.208
 5057SOL     OW16069   1.570   5.633   3.670
 5057SOL    HW116070   1.498   5.564   3.676
 5057SOL    HW216071   1.629   5.626   3.751
 5058SOL     OW16072   3.036   3.689   6.809
 5058SOL    HW116073   3.051   3.629   6.730
 5058SOL    HW216074   3.087   3.654   6.888
 5059SOL     OW16075   5.164   3.207   4.658
 5059SOL    HW116076   5.097   3.133   4.666
 5059SOL    HW216077   5.121   3.295   4.677
 5060SOL     OW16078   0.278   2.553   5.103
 5060SOL    HW116079   0.352   2.517   5.046
 5060SOL    HW216080   0.197   2.496   5.091
 5061SOL     OW16081   2.935   3.578   3.710
 5061SOL    HW116082   2.997   3.520   3.657
 5061SOL    HW216083   2.926   3.667   3.665
 5062SOL     OW16084   6.261   0.801   2.050
 5062SOL    HW116085   6.247   0.892   2.091
 5062SOL    HW216086   6.186   0.741   2.076
 5063SOL     OW16087   1.080   6.131   1.708
 5063SOL    HW116088   1.011   6.061   1.727
 5063SOL    HW216089   1.056   6.215   1.757
 5064SOL     OW16090   5.035   5.605   1.006
 5064SOL    HW116091   5.053   5.581   1.101
 5064SOL    HW216092   4.947   5.568   0.978
 5065SOL     OW16093   1.537   0.477   2.852
 5065SOL    HW116094   1.528   0.469   2.752
 5065SOL    HW216095   1.554   0.573   2.876
 5066SOL     OW16096   2.692   4.265   1.632
 5066SOL    HW116097   2.743   4.330   1.575
 5066SOL    HW216098   2.756   4.214   1.690
 5067SOL     OW16099   4.550   1.532   2.357
 5067SOL    HW116100   4.498   1.554   2.275
 5067SOL    HW216101   4.545   1.434   2.375
 5068SOL     OW16102   3.077   5.608   6.946
 5068SOL    HW116103   3.169   5.597   6.985
 5068SOL    HW216104   3.020   5.659   7.011
 5069SOL     OW16105   1.943   3.204   5.851
 5069SOL    HW116106   1.952   3.112   5.888
 5069SOL    HW216107   1.915   3.267   5.924
 5070SOL     OW16108   5.858   3.973   4.696
 5070SOL    HW116109   5.860   3.911   4.618
 5070SOL    HW216110   5.771   3.965   4.743
 5071SOL     OW16111   4.056   2.221   3.479
 5071SOL    HW116112   4.136   2.280   3.467
 5071SOL    HW216113   4.053   2.189   3.574
 5072SOL     OW16114   2.009   1.534   1.520
 5072SOL    HW116115   2.079   1.513   1.451
 5072SOL    HW216116   1.958   1.615   1.492
 5073SOL     OW16117   1.681   5.264   1.507
 5073SOL    HW116118   1.584   5.247   1.523
 5073SOL    HW216119   1.728   5.272   1.594
 5074SOL     OW16120   4.156   2.131   1.452
 5074SOL    HW116121   4.166   2.088   1.542
 5074SOL    HW216122   4.122   2.064   1.386
 5075SOL     OW16123   1.099   2.436   6.735
 5075SOL    HW116124   1.098   2.353   6.791
 5075SOL    HW216125   1.190   2.451   6.699
 5076SOL     OW16126   5.719   0.010   6.923
 5076SOL    HW116127   5.652   0.032   6.852
 5076SOL    HW216128   5.762   0.094   6.955
 5077SOL     OW16129   0.275   3.886   6.228
 5077SOL    HW116130   0.237   3.902   6.137
 5077SOL    HW216131   0.367   3.847   6.220
 5078SOL     OW16132   0.214   1.015   4.331
 5078SOL    HW116133   0.269   0.983   4.408
 5078SOL    HW216134   0.271   1.069   4.269
 5079SOL     OW16135   2.122   2.962   5.673
 5079SOL    HW116136   2.147   3.027   5.602
 5079SOL    HW216137   2.135   2.869   5.639
 5080SOL     OW16138   5.653   5.639   5.371
 5080SOL    HW116139   5.602   5.668   5.291
 5080SOL    HW216140   5.750   5.628   5.347
 5081SOL     OW16141   3.181   4.560   5.592
 5081SOL    HW116142   3.091   4.517   5.591
 5081SOL    HW216143   3.190   4.620   5.513
 5082SOL     OW16144   5.306   6.755   0.224
 5082SOL    HW116145   5.377   6.723   0.161
 5082SOL    HW216146   5.303   6.695   0.304
 5083SOL     OW16147   3.743   0.448   1.253
 5083SOL    HW116148   3.709   0.357   1.277
 5083SOL    HW216149   3.683   0.518   1.293
 5084SOL     OW16150   0.579   5.125   4.322
 5084SOL    HW116151   0.516   5.064   4.371
 5084SOL    HW216152   0.622   5.075   4.247
 5085SOL     OW16153   0.979   3.324   5.660
 5085SOL    HW116154   1.067   3.357   5.694
 5085SOL    HW216155   0.974   3.225   5.671
 5086SOL     OW16156   0.489   4.443   2.368
 5086SOL    HW116157   0.537   4.404   2.446
 5086SOL    HW216158   0.544   4.431   2.285
 5087SOL     OW16159   6.817   5.725   2.278
 5087SOL    HW116160   6.911   5.755   2.262
 5087SOL    HW216161   6.754   5.786   2.230
 5088SOL     OW16162   4.633   6.858   3.662
 5088SOL    HW116163   4.582   6.938   3.693
 5088SOL    HW216164   4.591   6.775   3.699
 5089SOL     OW16165   5.861   4.291   4.422
 5089SOL    HW116166   5.842   4.268   4.517
 5089SOL    HW216167   5.804   4.369   4.395
 5090SOL     OW16168   2.172   1.388   2.531
 5090SOL    HW116169   2.216   1.429   2.611
 5090SOL    HW216170   2.073   1.405   2.535
 5091SOL     OW16171   6.127   0.393   1.146
 5091SOL    HW116172   6.174   0.450   1.214
 5091SOL    HW216173   6.075   0.322   1.193
 5092SOL     OW16174   3.439   2.895   3.841
 5092SOL    HW116175   3.388   2.940   3.915
 5092SOL    HW216176   3.535   2.889   3.866
 5093SOL     OW16177   3.394   1.509   0.951
 5093SOL    HW116178   3.309   1.502   0.899
 5093SOL    HW216179   3.373   1.526   1.048
 5094SOL     OW16180   1.931   5.756   6.452
 5094SOL    HW116181   1.973   5.808   6.526
 5094SOL    HW216182   1.832   5.762   6.459
 5095SOL     OW16183   0.750   2.201   3.126
 5095SOL    HW116184   0.823   2.168   3.066
 5095SOL    HW216185   0.663   2.161   3.097
 5096SOL     OW16186   4.685   4.865   6.182
 5096SOL    HW116187   4.697   4.861   6.082
 5096SOL    HW216188   4.773   4.849   6.226
 5097SOL     OW16189   6.729   6.900   0.250
 5097SOL    HW116190   6.729   6.924   0.347
 5097SOL    HW216191   6.818   6.920   0.210
 5098SOL     OW16192   3.659   1.717   1.505
 5098SOL    HW116193   3.737   1.733   1.566
 5098SOL    HW216194   3.625   1.804   1.471
 5099SOL     OW16195   7.010   6.449   2.135
 5099SOL    HW116196   6.962   6.529   2.173
 5099SOL    HW216197   0.084   6.469   2.128
 5100SOL     OW16198   3.288   5.219   4.025
 5100SOL    HW116199   3.218   5.225   4.097
 5100SOL    HW216200   3.375   5.249   4.062
 5101SOL     OW16201   4.750   0.195   5.612
 5101SOL    HW116202   4.771   0.132   5.687
 5101SOL    HW216203   4.672   0.159   5.560
 5102SOL     OW16204   5.263   6.644   4.412
 5102SOL    HW116205   5.245   6.546   4.406
 5102SOL    HW216206   5.341   6.667   4.354
 5103SOL     OW16207   1.034   1.806   4.154
 5103SOL    HW116208   1.069   1.713   4.140
 5103SOL    HW216209   1.107   1.865   4.188
 5104SOL     OW16210   2.457   5.999   1.591
 5104SOL    HW116211   2.459   5.955   1.501
 5104SOL    HW216212   2.420   6.091   1.582
 5105SOL     OW16213   3.062   2.713   6.710
 5105SOL    HW116214   3.127   2.674   6.646
 5105SOL    HW216215   3.047   2.810   6.688
 5106SOL     OW16216   4.037   1.389   1.170
 5106SOL    HW116217   4.017   1.393   1.268
 5106SOL    HW216218   4.008   1.474   1.127
 5107SOL     OW16219   4.837   2.522   1.367
 5107SOL    HW116220   4.780   2.447   1.332
 5107SOL    HW216221   4.799   2.554   1.454
 5108SOL     OW16222   4.045   3.921   5.085
 5108SOL    HW116223   4.028   3.982   5.162
 5108SOL    HW216224   4.138   3.936   5.050
 5109SOL     OW16225   1.315   2.306   0.417
 5109SOL    HW116226   1.219   2.282   0.419
 5109SOL    HW216227   1.348   2.305   0.323
 5110SOL     OW16228   0.485   0.613   6.331
 5110SOL    HW116229   0.458   0.519   6.354
 5110SOL    HW216230   0.583   0.616   6.312
 5111SOL     OW16231   1.086   6.664   4.306
 5111SOL    HW116232   1.082   6.583   4.247
 5111SOL    HW216233   1.042   6.644   4.393
 5112SOL     OW16234   1.049   0.171   2.699
 5112SOL    HW116235   0.961   0.153   2.654
 5112SOL    HW216236   1.049   0.127   2.789
 5113SOL     OW16237   1.616   5.619   1.471
 5113SOL    HW116238   1.639   5.645   1.377
 5113SOL    HW216239   1.529   5.570   1.473
 5114SOL     OW16240   3.588   6.485   6.797
 5114SOL    HW116241   3.493   6.511   6.813
 5114SOL    HW216242   3.630   6.458   6.883
 5115SOL     OW16243   1.121   4.817   2.537
 5115SOL    HW116244   1.218   4.816   2.562
 5115SOL    HW216245   1.069   4.862   2.610
 5116SOL     OW16246   1.606   6.900   0.553
 5116SOL    HW116247   1.598   6.837   0.631
 5116SOL    HW216248   1.699   6.935   0.548
 5117SOL     OW16249   0.559   3.805   3.638
 5117SOL    HW116250   0.562   3.835   3.733
 5117SOL    HW216251   0.543   3.707   3.634
 5118SOL     OW16252   5.614   0.939   0.039
 5118SOL    HW116253   5.658   0.965   6.976
 5118SOL    HW216254   5.559   0.856   0.026
 5119SOL     OW16255   4.793   1.029   1.975
 5119SOL    HW116256   4.756   1.116   2.008
 5119SOL    HW216257   4.722   0.959   1.980
 5120SOL     OW16258   4.586   6.376   5.141
 5120SOL    HW116259   4.605   6.382   5.043
 5120SOL    HW216260   4.539   6.459   5.170
 5121SOL     OW16261   3.385   3.014   6.417
 5121SOL    HW116262   3.426   3.062   6.494
 5121SOL    HW216263   3.454   2.998   6.346
 5122SOL     OW16264   3.345   5.942   2.992
 5122SOL    HW116265   3.433   5.963   3.034
 5122SOL    HW216266   3.349   5.962   2.894
 5123SOL     OW16267   5.732   2.302   4.508
 5123SOL    HW116268   5.776   2.319   4.596
 5123SOL    HW216269   5.647   2.354   4.503
 5124SOL     OW16270   2.581   5.910   4.253
 5124SOL    HW116271   2.662   5.910   4.195
 5124SOL    HW216272   2.500   5.931   4.198
 5125SOL     OW16273   6.486   2.105   3.707
 5125SOL    HW116274   6.543   2.114   3.626
 5125SOL    HW216275   6.456   2.010   3.717
 5126SOL     OW16276   0.388   5.751   6.982
 5126SOL    HW116277   0.460   5.812   7.014
 5126SOL    HW216278   0.327   5.729   0.034
 5127SOL     OW16279   0.043   4.724   0.064
 5127SOL    HW116280   0.056   4.811   0.017
 5127SOL    HW216281   6.987   4.677   0.026
 5128SOL     OW16282   0.338   6.457   0.635
 5128SOL    HW116283   0.379   6.524   0.697
 5128SOL    HW216284   0.317   6.501   0.547
 5129SOL     OW16285   5.643   6.853   3.025
 5129SOL    HW116286   5.595   6.877   2.941
 5129SOL    HW216287   5.583   6.867   3.104
 5130SOL     OW16288   0.120   5.607   2.847
 5130SOL    HW116289   0.183   5.566   2.782
 5130SOL    HW216290   0.155   5.696   2.877
 5131SOL     OW16291   1.798   3.793   4.296
 5131SOL    HW116292   1.868   3.787   4.224
 5131SOL    HW216293   1.834   3.754   4.381
 5132SOL     OW16294   4.448   2.922   5.999
 5132SOL    HW116295   4.382   2.903   6.071
 5132SOL    HW216296   4.524   2.975   6.036
 5133SOL     OW16297   2.261   4.936   0.042
 5133SOL    HW116298   2.338   4.874   0.053
 5133SOL    HW216299   2.291   5.020   7.019
 5134SOL     OW16300   6.620   2.605   2.229
 5134SOL    HW116301   6.627   2.567   2.321
 5134SOL    HW216302   6.708   2.598   2.183
 5135SOL     OW16303   6.434   2.649   5.259
 5135SOL    HW116304   6.446   2.613   5.166
 5135SOL    HW216305   6.372   2.727   5.256
 5136SOL     OW16306   4.624   0.521   6.185
 5136SOL    HW116307   4.627   0.428   6.221
 5136SOL    HW216308   4.704   0.572   6.217
 5137SOL     OW16309   5.627   3.490   6.806
 5137SOL    HW116310   5.585   3.445   6.728
 5137SOL    HW216311   5.702   3.549   6.775
 5138SOL     OW16312   2.853   2.555   6.018
 5138SOL    HW116313   2.764   2.520   6.046
 5138SOL    HW216314   2.922   2.533   6.087
 5139SOL     OW16315   1.565   6.877   3.324
 5139SOL    HW116316   1.622   6.796   3.307
 5139SOL    HW216317   1.534   6.915   3.236
 5140SOL     OW16318   3.637   1.744   6.846
 5140SOL    HW116319   3.677   1.719   6.758
 5140SOL    HW216320   3.709   1.781   6.905
 5141SOL     OW16321   6.441   3.997   1.126
 5141SOL    HW116322   6.432   3.968   1.031
 5141SOL    HW216323   6.505   3.938   1.174
 5142SOL     OW16324   6.188   1.083   4.133
 5142SOL    HW116325   6.126   1.009   4.107
 5142SOL    HW216326   6.134   1.164   4.156
 5143SOL     OW16327   0.551   4.445   3.829
 5143SOL    HW116328   0.528   4.348   3.828
 5143SOL    HW216329   0.517   4.488   3.745
 5144SOL     OW16330   1.211   5.174   6.646
 5144SOL    HW116331   1.130   5.208   6.695
 5144SOL    HW216332   1.288   5.168   6.710
 5145SOL     OW16333   2.296   4.542   6.005
 5145SOL    HW116334   2.290   4.459   5.949
 5145SOL    HW216335   2.333   4.617   5.949
 5146SOL     OW16336   3.773   4.241   5.514
 5146SOL    HW116337   3.711   4.185   5.460
 5146SOL    HW216338   3.819   4.307   5.454
 5147SOL     OW16339   0.022   4.699   2.579
 5147SOL    HW116340   7.023   4.781   2.631
 5147SOL    HW216341   6.962   4.658   2.543
 5148SOL     OW16342   0.918   6.399   1.415
 5148SOL    HW116343   0.882   6.481   1.459
 5148SOL    HW216344   1.014   6.413   1.391
 5149SOL     OW16345   6.292   6.116   4.400
 5149SOL    HW116346   6.326   6.034   4.354
 5149SOL    HW216347   6.192   6.114   4.403
 5150SOL     OW16348   2.228   5.242   2.715
 5150SOL    HW116349   2.253   5.155   2.759
 5150SOL    HW216350   2.129   5.251   2.713
 5151SOL     OW16351   5.010   1.663   0.430
 5151SOL    HW116352   5.049   1.743   0.474
 5151SOL    HW216353   4.914   1.681   0.406
 5152SOL     OW16354   2.546   4.183   7.003
 5152SOL    HW116355   2.460   4.229   0.003
 5152SOL    HW216356   2.610   4.251   6.967
 5153SOL     OW16357   2.400   0.521   6.564
 5153SOL    HW116358   2.340   0.476   6.630
 5153SOL    HW216359   2.382   0.619   6.563
 5154SOL     OW16360   1.928   3.040   6.641
 5154SOL    HW116361   1.965   3.115   6.585
 5154SOL    HW216362   2.000   2.973   6.658
 5155SOL     OW16363   3.466   0.206   2.521
 5155SOL    HW116364   3.523   0.206   2.438
 5155SOL    HW216365   3.437   0.113   2.541
 5156SOL     OW16366   0.132   3.011   5.917
 5156SOL    HW116367   0.188   3.047   5.843
 5156SOL    HW216368   0.112   3.083   5.983
 5157SOL     OW16369   4.217   2.245   3.880
 5157SOL    HW116370   4.121   2.240   3.851
 5157SOL    HW216371   4.224   2.213   3.975
 5158SOL     OW16372   3.668   1.490   1.214
 5158SOL    HW116373   3.653   1.412   1.153
 5158SOL    HW216374   3.684   1.456   1.307
 5159SOL     OW16375   0.267   2.946   4.093
 5159SOL    HW116376   0.366   2.937   4.088
 5159SOL    HW216377   0.235   2.915   4.183
 5160SOL     OW16378   0.802   4.225   3.349
 5160SOL    HW116379   0.793   4.248   3.446
 5160SOL    HW216380   0.737   4.152   3.326
 5161SOL     OW16381   1.457   3.291   4.397
 5161SOL    HW116382   1.527   3.224   4.372
 5161SOL    HW216383   1.496   3.361   4.457
 5162SOL     OW16384   1.175   4.911   4.151
 5162SOL    HW116385   1.268   4.874   4.160
 5162SOL    HW216386   1.140   4.890   4.059
 5163SOL     OW16387   4.031   5.527   0.901
 5163SOL    HW116388   3.988   5.503   0.988
 5163SOL    HW216389   4.013   5.455   0.834
 5164SOL     OW16390   4.585   2.434   6.427
 5164SOL    HW116391   4.595   2.532   6.409
 5164SOL    HW216392   4.613   2.382   6.347
 5165SOL     OW16393   6.262   4.040   5.351
 5165SOL    HW116394   6.191   3.970   5.349
 5165SOL    HW216395   6.225   4.127   5.322
 5166SOL     OW16396   0.487   6.062   2.099
 5166SOL    HW116397   0.444   6.007   2.171
 5166SOL    HW216398   0.581   6.030   2.084
 5167SOL     OW16399   6.401   6.291   5.553
 5167SOL    HW116400   6.419   6.365   5.489
 5167SOL    HW216401   6.479   6.279   5.614
 5168SOL     OW16402   5.366   3.427   3.258
 5168SOL    HW116403   5.462   3.448   3.241
 5168SOL    HW216404   5.358   3.332   3.287
 5169SOL     OW16405   3.959   1.817   4.998
 5169SOL    HW116406   3.949   1.793   5.094
 5169SOL    HW216407   3.920   1.908   4.982
 5170SOL     OW16408   6.846   3.912   5.673
 5170SOL    HW116409   6.887   3.821   5.675
 5170SOL    HW216410   6.906   3.974   5.622
 5171SOL     OW16411   2.212   5.048   4.090
 5171SOL    HW116412   2.140   4.979   4.080
 5171SOL    HW216413   2.171   5.138   4.101
 5172SOL     OW16414   6.505   2.886   2.296
 5172SOL    HW116415   6.509   2.790   2.270
 5172SOL    HW216416   6.550   2.942   2.226
 5173SOL     OW16417   5.700   4.834   5.888
 5173SOL    HW116418   5.786   4.800   5.925
 5173SOL    HW216419   5.625   4.815   5.952
 5174SOL     OW16420   2.501   5.022   4.120
 5174SOL    HW116421   2.410   5.039   4.082
 5174SOL    HW216422   2.571   5.047   4.053
 5175SOL     OW16423   2.553   3.909   0.052
 5175SOL    HW116424   2.480   3.890   0.118
 5175SOL    HW216425   2.562   4.008   0.040
 5176SOL     OW16426   4.274   3.005   6.862
 5176SOL    HW116427   4.323   3.092   6.854
 5176SOL    HW216428   4.333   2.931   6.831
 5177SOL     OW16429   5.001   0.271   6.351
 5177SOL    HW116430   4.903   0.289   6.354
 5177SOL    HW216431   5.040   0.286   6.442
 5178SOL     OW16432   1.671   2.875   1.218
 5178SOL    HW116433   1.609   2.860   1.141
 5178SOL    HW216434   1.645   2.959   1.266
 5179SOL     OW16435   3.835   5.957   4.755
 5179SOL    HW116436   3.780   5.874   4.740
 5179SOL    HW216437   3.780   6.038   4.734
 5180SOL     OW16438   2.938   2.986   6.576
 5180SOL    HW116439   2.844   3.017   6.561
 5180SOL    HW216440   2.998   3.024   6.506
 5181SOL     OW16441   4.902   1.804   1.932
 5181SOL    HW116442   4.975   1.860   1.970
 5181SOL    HW216443   4.825   1.862   1.905
 5182SOL     OW16444   4.057   4.908   1.537
 5182SOL    HW116445   4.033   4.850   1.614
 5182SOL    HW216446   4.115   4.984   1.568
 5183SOL     OW16447   3.900   0.892   2.569
 5183SOL    HW116448   3.963   0.939   2.509
 5183SOL    HW216449   3.809   0.890   2.528
 5184SOL     OW16450   0.561   2.335   3.984
 5184SOL    HW116451   0.592   2.341   4.079
 5184SOL    HW216452   0.551   2.427   3.947
 5185SOL     OW16453   5.201   0.401   2.456
 5185SOL    HW116454   5.256   0.482   2.437
 5185SOL    HW216455   5.258   0.334   2.505
 5186SOL     OW16456   5.441   3.585   1.102
 5186SOL    HW116457   5.442   3.504   1.161
 5186SOL    HW216458   5.494   3.658   1.145
 5187SOL     OW16459   0.209   0.902   3.809
 5187SOL    HW116460   0.117   0.919   3.776
 5187SOL    HW216461   0.205   0.865   3.902
 5188SOL     OW16462   0.846   5.253   0.265
 5188SOL    HW116463   0.792   5.298   0.336
 5188SOL    HW216464   0.822   5.157   0.259
 5189SOL     OW16465   5.242   4.890   1.368
 5189SOL    HW116466   5.179   4.959   1.331
 5189SOL    HW216467   5.262   4.822   1.298
 5190SOL     OW16468   0.428   2.589   4.121
 5190SOL    HW116469   0.526   2.578   4.139
 5190SOL    HW216470   0.415   2.626   4.029
 5191SOL     OW16471   4.264   0.243   1.966
 5191SOL    HW116472   4.166   0.261   1.957
 5191SOL    HW216473   4.315   0.326   1.944
 5192SOL     OW16474   2.860   5.822   3.060
 5192SOL    HW116475   2.785   5.756   3.057
 5192SOL    HW216476   2.896   5.836   2.967
 5193SOL     OW16477   4.986   5.116   3.950
 5193SOL    HW116478   5.011   5.085   3.858
 5193SOL    HW216479   4.990   5.038   4.013
 5194SOL     OW16480   4.410   0.946   7.002
 5194SOL    HW116481   4.472   0.978   6.930
 5194SOL    HW216482   4.318   0.983   6.985
 5195SOL     OW16483   6.977   5.818   4.057
 5195SOL    HW116484   7.014   5.730   4.086
 5195SOL    HW216485   0.028   5.884   4.049
 5196SOL     OW16486   1.317   3.476   1.070
 5196SOL    HW116487   1.397   3.428   1.107
 5196SOL    HW216488   1.341   3.521   0.985
 5197SOL     OW16489   1.388   5.550   5.043
 5197SOL    HW116490   1.425   5.498   4.966
 5197SOL    HW216491   1.367   5.643   5.013
 5198SOL     OW16492   3.945   0.337   3.732
 5198SOL    HW116493   3.980   0.429   3.716
 5198SOL    HW216494   3.963   0.280   3.652
 5199SOL     OW16495   1.139   5.988   0.258
 5199SOL    HW116496   1.232   5.959   0.278
 5199SOL    HW216497   1.121   6.076   0.303
 5200SOL     OW16498   1.262   1.787   5.192
 5200SOL    HW116499   1.227   1.746   5.276
 5200SOL    HW216500   1.187   1.796   5.126
 5201SOL     OW16501   5.467   6.047   4.314
 5201SOL    HW116502   5.383   6.048   4.259
 5201SOL    HW216503   5.533   5.984   4.273
 5202SOL     OW16504   5.973   3.838   5.934
 5202SOL    HW116505   5.998   3.845   5.838
 5202SOL    HW216506   6.009   3.917   5.984
 5203SOL     OW16507   2.514   0.818   6.725
 5203SOL    HW116508   2.448   0.828   6.651
 5203SOL    HW216509   2.478   0.753   6.793
 5204SOL     OW16510   3.663   6.294   0.504
 5204SOL    HW116511   3.576   6.296   0.554
 5204SOL    HW216512   3.705   6.204   0.513
 5205SOL     OW16513   6.996   5.686   0.242
 5205SOL    HW116514   6.944   5.679   0.157
 5205SOL    HW216515   0.027   5.604   0.255
 5206SOL     OW16516   0.745   4.782   5.920
 5206SOL    HW116517   0.674   4.785   5.849
 5206SOL    HW216518   0.796   4.868   5.920
 5207SOL     OW16519   0.932   0.702   3.618
 5207SOL    HW116520   0.943   0.683   3.715
 5207SOL    HW216521   0.951   0.619   3.565
 5208SOL     OW16522   4.041   2.670   6.771
 5208SOL    HW116523   4.138   2.660   6.792
 5208SOL    HW216524   4.029   2.744   6.704
 5209SOL     OW16525   5.511   1.160   1.550
 5209SOL    HW116526   5.535   1.071   1.587
 5209SOL    HW216527   5.424   1.190   1.588
 5210SOL     OW16528   4.828   4.000   1.033
 5210SOL    HW116529   4.824   3.951   0.946
 5210SOL    HW216530   4.758   3.964   1.095
 5211SOL     OW16531   4.833   1.773   4.583
 5211SOL    HW116532   4.765   1.802   4.516
 5211SOL    HW216533   4.798   1.790   4.675
 5212SOL     OW16534   1.275   2.183   1.080
 5212SOL    HW116535   1.289   2.210   0.985
 5212SOL    HW216536   1.352   2.214   1.136
 5213SOL     OW16537   4.313   3.631   0.769
 5213SOL    HW116538   4.269   3.634   0.859
 5213SOL    HW216539   4.253   3.675   0.702
 5214SOL     OW16540   5.351   2.771   5.952
 5214SOL    HW116541   5.412   2.814   5.885
 5214SOL    HW216542   5.260   2.812   5.945
 5215SOL     OW16543   0.472   4.428   4.422
 5215SOL    HW116544   0.408   4.356   4.395
 5215SOL    HW216545   0.565   4.399   4.401
 5216SOL     OW16546   5.075   5.445   1.464
 5216SOL    HW116547   5.075   5.492   1.552
 5216SOL    HW216548   5.160   5.466   1.415
 5217SOL     OW16549   3.745   5.603   4.844
 5217SOL    HW116550   3.805   5.526   4.822
 5217SOL    HW216551   3.692   5.581   4.926
 5218SOL     OW16552   0.405   1.039   1.406
 5218SOL    HW116553   0.464   1.119   1.410
 5218SOL    HW216554   0.418   0.984   1.489
 5219SOL     OW16555   3.638   1.805   4.100
 5219SOL    HW116556   3.612   1.710   4.082
 5219SOL    HW216557   3.633   1.822   4.199
 5220SOL     OW16558   1.439   4.710   2.312
 5220SOL    HW116559   1.500   4.735   2.387
 5220SOL    HW216560   1.493   4.677   2.234
 5221SOL     OW16561   6.500   0.251   2.379
 5221SOL    HW116562   6.525   0.171   2.433
 5221SOL    HW216563   6.521   0.234   2.283
 5222SOL     OW16564   3.626   5.981   2.143
 5222SOL    HW116565   3.559   5.907   2.137
 5222SOL    HW216566   3.589   6.064   2.102
 5223SOL     OW16567   0.158   2.659   0.265
 5223SOL    HW116568   0.158   2.651   0.364
 5223SOL    HW216569   0.063   2.659   0.232
 5224SOL     OW16570   0.014   2.604   3.953
 5224SOL    HW116571   6.965   2.587   4.020
 5224SOL    HW216572   0.082   2.531   3.959
 5225SOL     OW16573   6.671   0.667   3.387
 5225SOL    HW116574   6.619   0.688   3.470
 5225SOL    HW216575   6.764   0.641   3.413
 5226SOL     OW16576   0.300   6.385   3.743
 5226SOL    HW116577   0.316   6.378   3.842
 5226SOL    HW216578   0.252   6.470   3.724
 5227SOL     OW16579   6.579   4.283   5.766
 5227SOL    HW116580   6.485   4.249   5.764
 5227SOL    HW216581   6.584   4.370   5.718
 5228SOL     OW16582   0.640   2.458   0.033
 5228SOL    HW116583   0.663   2.386   6.990
 5228SOL    HW216584   0.715   2.467   0.098
 5229SOL     OW16585   2.973   6.346   0.053
 5229SOL    HW116586   2.920   6.310   0.130
 5229SOL    HW216587   3.046   6.406   0.087
 5230SOL     OW16588   6.548   6.107   2.358
 5230SOL    HW116589   6.459   6.071   2.388
 5230SOL    HW216590   6.620   6.076   2.419
 5231SOL     OW16591   4.488   2.501   3.602
 5231SOL    HW116592   4.434   2.503   3.687
 5231SOL    HW216593   4.518   2.407   3.584
 5232SOL     OW16594   1.031   3.992   6.022
 5232SOL    HW116595   0.979   3.970   6.105
 5232SOL    HW216596   0.971   3.983   5.942
 5233SOL     OW16597   3.342   0.969   2.365
 5233SOL    HW116598   3.291   0.966   2.451
 5233SOL    HW216599   3.364   0.876   2.336
 5234SOL     OW16600   2.895   2.969   6.856
 5234SOL    HW116601   2.846   2.882   6.852
 5234SOL    HW216602   2.933   2.990   6.766
 5235SOL     OW16603   2.116   2.413   1.191
 5235SOL    HW116604   2.204   2.393   1.148
 5235SOL    HW216605   2.048   2.431   1.121
 5236SOL     OW16606   3.743   5.333   2.239
 5236SOL    HW116607   3.744   5.283   2.153
 5236SOL    HW216608   3.836   5.362   2.262
 5237SOL     OW16609   1.753   1.307   4.646
 5237SOL    HW116610   1.793   1.394   4.676
 5237SOL    HW216611   1.709   1.262   4.723
 5238SOL     OW16612   0.621   5.905   0.900
 5238SOL    HW116613   0.688   5.968   0.937
 5238SOL    HW216614   0.663   5.851   0.827
 5239SOL     OW16615   3.501   2.885   0.531
 5239SOL    HW116616   3.567   2.898   0.457
 5239SOL    HW216617   3.499   2.789   0.558
 5240SOL     OW16618   2.997   2.208   5.260
 5240SOL    HW116619   2.911   2.258   5.249
 5240SOL    HW216620   3.058   2.231   5.184
 5241SOL     OW16621   0.834   5.867   3.548
 5241SOL    HW116622   0.831   5.967   3.545
 5241SOL    HW216623   0.798   5.830   3.463
 5242SOL     OW16624   5.108   0.048   2.133
 5242SOL    HW116625   5.092   0.049   2.034
 5242SOL    HW216626   5.130   0.141   2.164
 5243SOL     OW16627   2.317   6.057   1.096
 5243SOL    HW116628   2.393   6.120   1.113
 5243SOL    HW216629   2.330   5.974   1.151
 5244SOL     OW16630   4.214   3.858   0.082
 5244SOL    HW116631   4.290   3.905   0.129
 5244SOL    HW216632   4.127   3.892   0.118
 5245SOL     OW16633   3.541   4.698   0.695
 5245SOL    HW116634   3.451   4.704   0.653
 5245SOL    HW216635   3.598   4.774   0.665
 5246SOL     OW16636   6.235   2.659   2.202
 5246SOL    HW116637   6.163   2.605   2.246
 5246SOL    HW216638   6.258   2.618   2.114
 5247SOL     OW16639   3.151   0.263   6.441
 5247SOL    HW116640   3.164   0.274   6.540
 5247SOL    HW216641   3.085   0.190   6.423
 5248SOL     OW16642   6.839   2.335   3.039
 5248SOL    HW116643   6.932   2.339   3.074
 5248SOL    HW216644   6.785   2.408   3.081
 5249SOL     OW16645   1.327   5.498   6.437
 5249SOL    HW116646   1.301   5.452   6.521
 5249SOL    HW216647   1.245   5.523   6.385
 5250SOL     OW16648   0.779   5.721   0.766
 5250SOL    HW116649   0.856   5.709   0.703
 5250SOL    HW216650   0.782   5.650   0.836
 5251SOL     OW16651   0.735   3.513   0.842
 5251SOL    HW116652   0.730   3.608   0.812
 5251SOL    HW216653   0.820   3.498   0.891
 5252SOL     OW16654   2.497   6.550   1.332
 5252SOL    HW116655   2.429   6.487   1.294
 5252SOL    HW216656   2.459   6.642   1.333
 5253SOL     OW16657   6.785   3.656   4.416
 5253SOL    HW116658   6.720   3.581   4.408
 5253SOL    HW216659   6.744   3.730   4.470
 5254SOL     OW16660   5.574   0.776   3.625
 5254SOL    HW116661   5.611   0.839   3.557
 5254SOL    HW216662   5.541   0.693   3.579
 5255SOL     OW16663   5.190   2.380   4.773
 5255SOL    HW116664   5.132   2.322   4.828
 5255SOL    HW216665   5.134   2.431   4.707
 5256SOL     OW16666   4.928   2.048   4.038
 5256SOL    HW116667   5.004   2.039   3.974
 5256SOL    HW216668   4.841   2.035   3.990
 5257SOL     OW16669   4.434   6.986   1.710
 5257SOL    HW116670   4.385   6.916   1.657
 5257SOL    HW216671   4.498   0.011   1.650
 5258SOL     OW16672   5.699   2.548   1.990
 5258SOL    HW116673   5.768   2.618   2.011
 5258SOL    HW216674   5.609   2.591   1.989
 5259SOL     OW16675   4.821   5.897   3.221
 5259SOL    HW116676   4.788   5.872   3.312
 5259SOL    HW216677   4.855   5.991   3.223
 5260SOL     OW16678   4.398   4.446   0.846
 5260SOL    HW116679   4.316   4.404   0.807
 5260SOL    HW216680   4.407   4.540   0.811
 5261SOL     OW16681   6.431   3.964   6.356
 5261SOL    HW116682   6.371   4.039   6.328
 5261SOL    HW216683   6.377   3.880   6.369
 5262SOL     OW16684   2.997   1.452   3.540
 5262SOL    HW116685   2.952   1.364   3.552
 5262SOL    HW216686   3.044   1.454   3.452
 5263SOL     OW16687   1.962   1.509   3.337
 5263SOL    HW116688   2.045   1.457   3.356
 5263SOL    HW216689   1.922   1.478   3.251
 5264SOL     OW16690   6.467   2.542   1.998
 5264SOL    HW116691   6.389   2.591   1.960
 5264SOL    HW216692   6.517   2.601   2.061
 5265SOL     OW16693   6.286   3.158   4.360
 5265SOL    HW116694   6.329   3.134   4.273
 5265SOL    HW216695   6.352   3.147   4.434
 5266SOL     OW16696   2.755   5.749   6.573
 5266SOL    HW116697   2.854   5.735   6.572
 5266SOL    HW216698   2.734   5.842   6.603
 5267SOL     OW16699   5.035   2.511   4.578
 5267SOL    HW116700   4.944   2.520   4.537
 5267SOL    HW216701   5.097   2.469   4.512
 5268SOL     OW16702   5.091   0.857   0.421
 5268SOL    HW116703   5.007   0.808   0.399
 5268SOL    HW216704   5.126   0.902   0.338
 5269SOL     OW16705   0.627   6.376   2.493
 5269SOL    HW116706   0.670   6.450   2.543
 5269SOL    HW216707   0.685   6.351   2.415
 5270SOL     OW16708   5.683   1.425   2.029
 5270SOL    HW116709   5.704   1.494   2.098
 5270SOL    HW216710   5.591   1.389   2.044
 5271SOL     OW16711   5.983   4.563   5.059
 5271SOL    HW116712   5.917   4.586   4.988
 5271SOL    HW216713   5.993   4.641   5.121
 5272SOL     OW16714   3.198   5.971   1.391
 5272SOL    HW116715   3.277   5.913   1.375
 5272SOL    HW216716   3.169   5.964   1.486
 5273SOL     OW16717   0.420   3.275   3.393
 5273SOL    HW116718   0.501   3.281   3.336
 5273SOL    HW216719   0.344   3.237   3.339
 5274SOL     OW16720   5.670   0.195   2.717
 5274SOL    HW116721   5.669   0.167   2.813
 5274SOL    HW216722   5.764   0.212   2.688
 5275SOL     OW16723   4.073   1.718   0.464
 5275SOL    HW116724   4.046   1.804   0.420
 5275SOL    HW216725   4.101   1.653   0.394
 5276SOL     OW16726   2.081   0.206   1.025
 5276SOL    HW116727   2.077   0.126   1.086
 5276SOL    HW216728   1.991   0.248   1.020
 5277SOL     OW16729   2.558   1.723   2.632
 5277SOL    HW116730   2.625   1.788   2.667
 5277SOL    HW216731   2.559   1.723   2.532
 5278SOL     OW16732   5.175   5.696   3.846
 5278SOL    HW116733   5.129   5.756   3.913
 5278SOL    HW216734   5.265   5.734   3.824
 5279SOL     OW16735   2.632   5.145   0.432
 5279SOL    HW116736   2.609   5.239   0.459
 5279SOL    HW216737   2.588   5.124   0.344
 5280SOL     OW16738   3.035   6.194   5.281
 5280SOL    HW116739   3.124   6.184   5.325
 5280SOL    HW216740   3.036   6.150   5.192
 5281SOL     OW16741   6.273   1.931   2.456
 5281SOL    HW116742   6.234   1.958   2.544
 5281SOL    HW216743   6.221   1.972   2.381
 5282SOL     OW16744   3.964   1.606   3.470
 5282SOL    HW116745   3.930   1.690   3.513
 5282SOL    HW216746   3.965   1.618   3.371
 5283SOL     OW16747   4.597   6.279   2.061
 5283SOL    HW116748   4.640   6.253   1.975
 5283SOL    HW216749   4.566   6.374   2.056
 5284SOL     OW16750   4.811   4.260   3.233
 5284SOL    HW116751   4.803   4.181   3.172
 5284SOL    HW216752   4.816   4.344   3.178
 5285SOL     OW16753   2.872   4.825   4.565
 5285SOL    HW116754   2.875   4.824   4.665
 5285SOL    HW216755   2.811   4.753   4.533
 5286SOL     OW16756   2.160   4.702   1.043
 5286SOL    HW116757   2.107   4.781   1.074
 5286SOL    HW216758   2.250   4.703   1.088
 5287SOL     OW16759   3.539   0.849   0.139
 5287SOL    HW116760   3.634   0.855   0.170
 5287SOL    HW216761   3.525   0.913   0.064
 5288SOL     OW16762   3.204   0.719   1.615
 5288SOL    HW116763   3.240   0.797   1.563
 5288SOL    HW216764   3.109   0.701   1.587
 5289SOL     OW16765   1.901   4.770   6.547
 5289SOL    HW116766   1.819   4.728   6.585
 5289SOL    HW216767   1.918   4.857   6.593
 5290SOL     OW16768   2.441   5.391   5.891
 5290SOL    HW116769   2.366   5.448   5.858
 5290SOL    HW216770   2.407   5.326   5.959
 5291SOL     OW16771   2.577   5.914   5.408
 5291SOL    HW116772   2.589   5.873   5.498
 5291SOL    HW216773   2.624   6.003   5.404
 5292SOL     OW16774   5.745   2.738   0.220
 5292SOL    HW116775   5.663   2.698   0.178
 5292SOL    HW216776   5.717   2.806   0.288
 5293SOL     OW16777   0.736   1.013   4.730
 5293SOL    HW116778   0.649   1.034   4.775
 5293SOL    HW216779   0.742   1.063   4.644
 5294SOL     OW16780   5.271   3.675   6.305
 5294SOL    HW116781   5.261   3.584   6.265
 5294SOL    HW216782   5.327   3.732   6.244
 5295SOL     OW16783   5.845   1.076   2.736
 5295SOL    HW116784   5.798   1.120   2.813
 5295SOL    HW216785   5.943   1.077   2.752
 5296SOL     OW16786   1.697   5.454   0.028
 5296SOL    HW116787   1.630   5.525   0.008
 5296SOL    HW216788   1.789   5.493   0.021
 5297SOL     OW16789   1.695   2.355   1.137
 5297SOL    HW116790   1.779   2.409   1.138
 5297SOL    HW216791   1.638   2.385   1.060
 5298SOL     OW16792   6.427   5.835   2.397
 5298SOL    HW116793   6.450   5.845   2.301
 5298SOL    HW216794   6.493   5.774   2.441
 5299SOL     OW16795   3.145   1.516   1.189
 5299SOL    HW116796   3.156   1.434   1.245
 5299SOL    HW216797   3.217   1.582   1.211
 5300SOL     OW16798   0.492   5.434   3.154
 5300SOL    HW116799   0.477   5.356   3.094
 5300SOL    HW216800   0.563   5.413   3.220
 5301SOL     OW16801   4.259   1.443   6.971
 5301SOL    HW116802   4.209   1.524   7.000
 5301SOL    HW216803   4.354   1.449   7.002
 5302SOL     OW16804   6.056   4.465   2.449
 5302SOL    HW116805   6.104   4.377   2.443
 5302SOL    HW216806   6.025   4.493   2.359
 5303SOL     OW16807   6.606   6.139   3.909
 5303SOL    HW116808   6.612   6.206   3.835
 5303SOL    HW216809   6.547   6.064   3.880
 5304SOL     OW16810   5.435   1.983   6.189
 5304SOL    HW116811   5.338   2.002   6.173
 5304SOL    HW216812   5.491   2.045   6.135
 5305SOL     OW16813   1.267   0.478   4.179
 5305SOL    HW116814   1.216   0.465   4.093
 5305SOL    HW216815   1.204   0.511   4.250
 5306SOL     OW16816   2.317   0.009   5.289
 5306SOL    HW116817   2.338   7.002   5.196
 5306SOL    HW216818   2.232   6.989   5.320
 5307SOL     OW16819   4.286   6.029   6.389
 5307SOL    HW116820   4.308   6.118   6.350
 5307SOL    HW216821   4.370   5.985   6.421
 5308SOL     OW16822   0.416   1.055   3.898
 5308SOL    HW116823   0.487   1.045   3.829
 5308SOL    HW216824   0.341   0.992   3.878
 5309SOL     OW16825   4.049   3.738   3.256
 5309SOL    HW116826   4.046   3.692   3.167
 5309SOL    HW216827   3.994   3.821   3.252
 5310SOL     OW16828   4.983   2.880   1.563
 5310SOL    HW116829   4.973   2.979   1.572
 5310SOL    HW216830   5.009   2.858   1.469
 5311SOL     OW16831   0.915   5.649   6.696
 5311SOL    HW116832   0.817   5.641   6.715
 5311SOL    HW216833   0.966   5.647   6.782
 5312SOL     OW16834   0.561   4.767   1.958
 5312SOL    HW116835   0.490   4.787   2.026
 5312SOL    HW216836   0.519   4.727   1.877
 5313SOL     OW16837   0.639   5.436   0.001
 5313SOL    HW116838   0.547   5.434   6.986
 5313SOL    HW216839   0.634   5.441   0.101
 5314SOL     OW16840   4.605   5.168   0.411
 5314SOL    HW116841   4.592   5.070   0.399
 5314SOL    HW216842   4.531   5.205   0.467
 5315SOL     OW16843   4.745   4.275   2.183
 5315SOL    HW116844   4.778   4.330   2.106
 5315SOL    HW216845   4.645   4.277   2.184
 5316SOL     OW16846   0.519   5.050   5.000
 5316SOL    HW116847   0.614   5.024   4.981
 5316SOL    HW216848   0.516   5.146   5.029
 5317SOL     OW16849   5.402   1.989   4.083
 5317SOL    HW116850   5.482   1.934   4.108
 5317SOL    HW216851   5.374   1.967   3.989
 5318SOL     OW16852   6.893   2.144   4.513
 5318SOL    HW116853   6.954   2.065   4.512
 5318SOL    HW216854   6.801   2.115   4.487
 5319SOL     OW16855   5.742   6.971   6.484
 5319SOL    HW116856   5.779   0.011   6.552
 5319SOL    HW216857   5.772   7.000   6.393
 5320SOL     OW16858   6.100   4.731   0.042
 5320SOL    HW116859   6.172   4.785   7.022
 5320SOL    HW216860   6.011   4.771   0.019
 5321SOL     OW16861   1.470   5.213   3.541
 5321SOL    HW116862   1.410   5.293   3.543
 5321SOL    HW216863   1.419   5.133   3.572
 5322SOL     OW16864   4.109   6.472   6.692
 5322SOL    HW116865   4.051   6.400   6.729
 5322SOL    HW216866   4.072   6.561   6.718
 5323SOL     OW16867   4.755   2.707   1.166
 5323SOL    HW116868   4.796   2.687   1.255
 5323SOL    HW216869   4.804   2.782   1.123
 5324SOL     OW16870   3.708   2.048   1.792
 5324SOL    HW116871   3.730   2.004   1.879
 5324SOL    HW216872   3.690   2.145   1.806
 5325SOL     OW16873   5.218   0.197   2.783
 5325SOL    HW116874   5.272   0.178   2.700
 5325SOL    HW216875   5.211   0.296   2.795
 5326SOL     OW16876   6.458   5.236   1.916
 5326SOL    HW116877   6.529   5.264   1.851
 5326SOL    HW216878   6.373   5.217   1.866
 5327SOL     OW16879   0.214   6.734   5.066
 5327SOL    HW116880   0.141   6.798   5.089
 5327SOL    HW216881   0.178   6.663   5.004
 5328SOL     OW16882   3.531   2.540   5.547
 5328SOL    HW116883   3.494   2.516   5.458
 5328SOL    HW216884   3.606   2.478   5.570
 5329SOL     OW16885   7.016   4.518   0.772
 5329SOL    HW116886   6.978   4.458   0.843
 5329SOL    HW216887   0.062   4.577   0.812
 5330SOL     OW16888   3.916   3.652   0.009
 5330SOL    HW116889   3.978   3.670   0.085
 5330SOL    HW216890   3.897   3.737   6.984
 5331SOL     OW16891   4.430   2.287   0.661
 5331SOL    HW116892   4.423   2.369   0.604
 5331SOL    HW216893   4.342   2.242   0.665
 5332SOL     OW16894   6.108   5.117   0.468
 5332SOL    HW116895   6.019   5.157   0.445
 5332SOL    HW216896   6.112   5.101   0.567
 5333SOL     OW16897   2.068   0.764   3.657
 5333SOL    HW116898   2.158   0.726   3.680
 5333SOL    HW216899   2.077   0.862   3.642
 5334SOL     OW16900   4.926   4.622   4.221
 5334SOL    HW116901   4.902   4.709   4.266
 5334SOL    HW216902   4.947   4.639   4.125
 5335SOL     OW16903   6.271   3.981   2.432
 5335SOL    HW116904   6.250   3.890   2.396
 5335SOL    HW216905   6.257   3.982   2.531
 5336SOL     OW16906   2.134   1.907   3.983
 5336SOL    HW116907   2.185   1.942   3.904
 5336SOL    HW216908   2.097   1.817   3.960
 5337SOL     OW16909   5.795   4.845   1.475
 5337SOL    HW116910   5.888   4.832   1.509
 5337SOL    HW216911   5.743   4.760   1.487
 5338SOL     OW16912   5.405   3.004   0.281
 5338SOL    HW116913   5.407   2.957   0.192
 5338SOL    HW216914   5.498   3.032   0.306
 5339SOL     OW16915   5.659   1.784   1.967
 5339SOL    HW116916   5.697   1.874   1.947
 5339SOL    HW216917   5.632   1.779   2.063
 5340SOL     OW16918   5.324   3.277   1.870
 5340SOL    HW116919   5.369   3.366   1.862
 5340SOL    HW216920   5.393   3.204   1.861
 5341SOL     OW16921   4.366   4.867   3.681
 5341SOL    HW116922   4.330   4.774   3.687
 5341SOL    HW216923   4.399   4.897   3.771
 5342SOL     OW16924   5.322   6.725   5.598
 5342SOL    HW116925   5.253   6.666   5.640
 5342SOL    HW216926   5.277   6.795   5.543
 5343SOL     OW16927   3.659   3.466   4.676
 5343SOL    HW116928   3.720   3.483   4.599
 5343SOL    HW216929   3.571   3.512   4.660
 5344SOL     OW16930   0.468   1.572   0.430
 5344SOL    HW116931   0.494   1.667   0.446
 5344SOL    HW216932   0.469   1.554   0.331
 5345SOL     OW16933   4.776   1.089   0.006
 5345SOL    HW116934   4.796   1.180   0.042
 5345SOL    HW216935   4.743   1.030   0.080
 5346SOL     OW16936   2.602   5.101   4.439
 5346SOL    HW116937   2.513   5.063   4.463
 5346SOL    HW216938   2.613   5.102   4.339
 5347SOL     OW16939   0.048   2.233   3.473
 5347SOL    HW116940   0.042   2.150   3.527
 5347SOL    HW216941   6.992   2.240   3.413
 5348SOL     OW16942   6.768   1.556   4.943
 5348SOL    HW116943   6.750   1.539   4.846
 5348SOL    HW216944   6.829   1.486   4.979
 5349SOL     OW16945   1.024   2.736   1.724
 5349SOL    HW116946   1.023   2.832   1.752
 5349SOL    HW216947   1.054   2.680   1.801
 5350SOL     OW16948   1.628   0.027   5.311
 5350SOL    HW116949   1.594   0.114   5.275
 5350SOL    HW216950   1.709   0.045   5.368
 5351SOL     OW16951   0.329   5.558   1.805
 5351SOL    HW116952   0.273   5.517   1.733
 5351SOL    HW216953   0.282   5.550   1.893
 5352SOL     OW16954   2.091   4.356   3.067
 5352SOL    HW116955   2.185   4.322   3.064
 5352SOL    HW216956   2.092   4.453   3.094
 5353SOL     OW16957   3.540   5.569   3.759
 5353SOL    HW116958   3.591   5.484   3.770
 5353SOL    HW216959   3.555   5.628   3.838
 5354SOL     OW16960   3.664   4.132   0.339
 5354SOL    HW116961   3.587   4.067   0.339
 5354SOL    HW216962   3.630   4.223   0.362
 5355SOL     OW16963   4.845   5.408   5.201
 5355SOL    HW116964   4.748   5.387   5.214
 5355SOL    HW216965   4.897   5.372   5.279
 5356SOL     OW16966   6.426   3.504   1.804
 5356SOL    HW116967   6.332   3.534   1.816
 5356SOL    HW216968   6.437   3.468   1.711
 5357SOL     OW16969   4.250   4.666   1.826
 5357SOL    HW116970   4.246   4.740   1.892
 5357SOL    HW216971   4.318   4.686   1.756
 5358SOL     OW16972   4.310   2.002   0.285
 5358SOL    HW116973   4.299   1.981   0.187
 5358SOL    HW216974   4.222   1.992   0.331
 5359SOL     OW16975   2.051   2.397   0.521
 5359SOL    HW116976   2.091   2.481   0.483
 5359SOL    HW216977   1.976   2.366   0.462
 5360SOL     OW16978   5.810   5.684   3.606
 5360SOL    HW116979   5.714   5.710   3.600
 5360SOL    HW216980   5.854   5.693   3.517
 5361SOL     OW16981   3.070   6.422   2.868
 5361SOL    HW116982   3.086   6.329   2.901
 5361SOL    HW216983   3.080   6.424   2.769
 5362SOL     OW16984   5.577   6.863   2.722
 5362SOL    HW116985   5.596   6.959   2.699
 5362SOL    HW216986   5.567   6.810   2.637
 5363SOL     OW16987   5.157   6.476   4.839
 5363SOL    HW116988   5.237   6.529   4.812
 5363SOL    HW216989   5.171   6.380   4.816
 5364SOL     OW16990   5.248   0.909   2.136
 5364SOL    HW116991   5.297   0.829   2.101
 5364SOL    HW216992   5.301   0.992   2.115
 5365SOL     OW16993   3.001   3.588   2.907
 5365SOL    HW116994   2.949   3.580   2.822
 5365SOL    HW216995   3.085   3.536   2.900
 5366SOL     OW16996   6.662   0.556   1.861
 5366SOL    HW116997   6.643   0.541   1.958
 5366SOL    HW216998   6.678   0.468   1.817
 5367SOL     OW16999   5.884   0.187   0.510
 5367SOL    HW117000   5.982   0.167   0.519
 5367SOL    HW217001   5.851   0.150   0.423
 5368SOL     OW17002   6.625   5.915   2.178
 5368SOL    HW117003   6.603   5.988   2.242
 5368SOL    HW217004   6.694   5.947   2.113
 5369SOL     OW17005   2.982   5.712   1.364
 5369SOL    HW117006   2.899   5.698   1.418
 5369SOL    HW217007   2.983   5.807   1.330
 5370SOL     OW17008   4.090   3.571   1.904
 5370SOL    HW117009   4.003   3.599   1.863
 5370SOL    HW217010   4.166   3.609   1.852
 5371SOL     OW17011   0.229   5.031   5.124
 5371SOL    HW117012   0.202   5.055   5.031
 5371SOL    HW217013   0.228   5.113   5.181
 5372SOL     OW17014   1.756   0.243   2.908
 5372SOL    HW117015   1.718   0.198   2.828
 5372SOL    HW217016   1.704   0.326   2.928
 5373SOL     OW17017   4.056   6.252   6.487
 5373SOL    HW117018   4.095   6.313   6.557
 5373SOL    HW217019   4.020   6.170   6.531
 5374SOL     OW17020   2.481   4.612   1.226
 5374SOL    HW117021   2.520   4.527   1.190
 5374SOL    HW217022   2.455   4.672   1.151
 5375SOL     OW17023   1.016   6.319   5.721
 5375SOL    HW117024   1.097   6.368   5.691
 5375SOL    HW217025   0.938   6.382   5.726
 5376SOL     OW17026   1.203   1.893   1.974
 5376SOL    HW117027   1.287   1.926   1.930
 5376SOL    HW217028   1.123   1.927   1.925
 5377SOL     OW17029   2.402   1.064   2.925
 5377SOL    HW117030   2.392   1.090   3.021
 5377SOL    HW217031   2.498   1.077   2.897
 5378SOL     OW17032   6.139   0.481   0.902
 5378SOL    HW117033   6.106   0.575   0.911
 5378SOL    HW217034   6.163   0.445   0.992
 5379SOL     OW17035   1.488   2.667   5.943
 5379SOL    HW117036   1.472   2.582   5.993
 5379SOL    HW217037   1.449   2.744   5.994
 5380SOL     OW17038   3.205   6.873   1.054
 5380SOL    HW117039   3.158   6.943   1.107
 5380SOL    HW217040   3.142   6.832   0.988
 5381SOL     OW17041   5.923   6.301   2.435
 5381SOL    HW117042   6.000   6.237   2.440
 5381SOL    HW217043   5.958   6.394   2.424
 5382SOL     OW17044   3.918   2.052   2.720
 5382SOL    HW117045   3.910   1.980   2.651
 5382SOL    HW217046   4.014   2.078   2.730
 5383SOL     OW17047   1.024   2.628   4.682
 5383SOL    HW117048   1.067   2.648   4.594
 5383SOL    HW217049   1.080   2.563   4.733
 5384SOL     OW17050   4.365   5.282   5.380
 5384SOL    HW117051   4.279   5.239   5.408
 5384SOL    HW217052   4.347   5.375   5.347
 5385SOL     OW17053   6.379   2.903   6.352
 5385SOL    HW117054   6.471   2.892   6.390
 5385SOL    HW217055   6.332   2.814   6.350
 5386SOL     OW17056   6.009   3.039   4.092
 5386SOL    HW117057   5.968   2.964   4.041
 5386SOL    HW217058   5.940   3.110   4.109
 5387SOL     OW17059   2.549   0.141   3.115
 5387SOL    HW117060   2.636   0.111   3.074
 5387SOL    HW217061   2.552   0.127   3.214
 5388SOL     OW17062   1.109   6.547   2.885
 5388SOL    HW117063   1.071   6.500   2.806
 5388SOL    HW217064   1.206   6.526   2.894
 5389SOL     OW17065   4.522   2.140   4.438
 5389SOL    HW117066   4.537   2.114   4.534
 5389SOL    HW217067   4.447   2.086   4.400
 5390SOL     OW17068   5.941   3.557   4.176
 5390SOL    HW117069   5.887   3.511   4.247
 5390SOL    HW217070   5.965   3.649   4.207
 5391SOL     OW17071   2.443   2.429   0.268
 5391SOL    HW117072   2.419   2.523   0.247
 5391SOL    HW217073   2.465   2.420   0.365
 5392SOL     OW17074   5.059   2.801   3.130
 5392SOL    HW117075   4.967   2.809   3.169
 5392SOL    HW217076   5.070   2.712   3.087
 5393SOL     OW17077   4.219   0.054   5.179
 5393SOL    HW117078   4.214   0.150   5.151
 5393SOL    HW217079   4.196   0.046   5.275
 5394SOL     OW17080   1.011   6.679   1.197
 5394SOL    HW117081   0.943   6.625   1.147
 5394SOL    HW217082   0.965   6.754   1.245
 5395SOL     OW17083   4.674   1.829   0.941
 5395SOL    HW117084   4.615   1.804   0.865
 5395SOL    HW217085   4.628   1.899   0.997
 5396SOL     OW17086   5.298   5.595   2.376
 5396SOL    HW117087   5.324   5.635   2.288
 5396SOL    HW217088   5.380   5.578   2.431
 5397SOL     OW17089   6.458   1.741   2.415
 5397SOL    HW117090   6.424   1.659   2.460
 5397SOL    HW217091   6.400   1.819   2.437
 5398SOL     OW17092   4.481   2.064   3.931
 5398SOL    HW117093   4.456   1.995   3.863
 5398SOL    HW217094   4.453   2.154   3.900
 5399SOL     OW17095   1.666   6.570   5.634
 5399SOL    HW117096   1.681   6.473   5.611
 5399SOL    HW217097   1.705   6.628   5.563
 5400SOL     OW17098   3.480   3.234   1.056
 5400SOL    HW117099   3.508   3.153   1.107
 5400SOL    HW217100   3.423   3.292   1.114
 5401SOL     OW17101   4.920   4.850   3.713
 5401SOL    HW117102   4.919   4.763   3.761
 5401SOL    HW217103   4.838   4.859   3.657
 5402SOL     OW17104   2.732   6.566   0.891
 5402SOL    HW117105   2.736   6.466   0.898
 5402SOL    HW217106   2.804   6.598   0.829
 5403SOL     OW17107   5.213   3.175   6.673
 5403SOL    HW117108   5.303   3.134   6.687
 5403SOL    HW217109   5.181   3.154   6.581
 5404SOL     OW17110   0.532   1.059   0.909
 5404SOL    HW117111   0.530   1.029   1.004
 5404SOL    HW217112   0.528   1.159   0.906
 5405SOL     OW17113   5.447   5.567   6.907
 5405SOL    HW117114   5.463   5.536   7.001
 5405SOL    HW217115   5.388   5.648   6.908
 5406SOL     OW17116   2.223   0.850   4.622
 5406SOL    HW117117   2.144   0.789   4.627
 5406SOL    HW217118   2.202   0.928   4.564
 5407SOL     OW17119   2.841   0.738   1.211
 5407SOL    HW117120   2.806   0.789   1.133
 5407SOL    HW217121   2.797   0.649   1.216
 5408SOL     OW17122   3.577   2.086   4.494
 5408SOL    HW117123   3.657   2.118   4.544
 5408SOL    HW217124   3.498   2.081   4.556
 5409SOL     OW17125   6.265   2.863   1.568
 5409SOL    HW117126   6.199   2.787   1.562
 5409SOL    HW217127   6.356   2.828   1.545
 5410SOL     OW17128   6.773   3.184   1.147
 5410SOL    HW117129   6.816   3.239   1.220
 5410SOL    HW217130   6.844   3.145   1.089
 5411SOL     OW17131   5.322   4.511   6.924
 5411SOL    HW117132   5.382   4.577   6.969
 5411SOL    HW217133   5.285   4.551   6.840
 5412SOL     OW17134   1.798   1.244   5.908
 5412SOL    HW117135   1.768   1.338   5.892
 5412SOL    HW217136   1.842   1.208   5.826
 5413SOL     OW17137   6.142   0.024   5.436
 5413SOL    HW117138   6.126   0.097   5.503
 5413SOL    HW217139   6.111   6.960   5.475
 5414SOL     OW17140   0.278   4.392   5.243
 5414SOL    HW117141   0.358   4.452   5.251
 5414SOL    HW217142   0.203   4.429   5.297
 5415SOL     OW17143   3.027   5.844   0.523
 5415SOL    HW117144   2.928   5.830   0.521
 5415SOL    HW217145   3.058   5.877   0.434
 5416SOL     OW17146   2.731   5.168   4.841
 5416SOL    HW117147   2.728   5.224   4.758
 5416SOL    HW217148   2.643   5.173   4.888
 5417SOL     OW17149   4.919   6.228   3.689
 5417SOL    HW117150   4.974   6.211   3.771
 5417SOL    HW217151   4.918   6.146   3.632
 5418SOL     OW17152   5.657   4.483   4.343
 5418SOL    HW117153   5.564   4.498   4.378
 5418SOL    HW217154   5.699   4.571   4.321
 5419SOL     OW17155   4.187   6.875   0.285
 5419SOL    HW117156   4.188   6.964   0.241
 5419SOL    HW217157   4.208   6.803   0.218
 5420SOL     OW17158   1.310   1.571   1.871
 5420SOL    HW117159   1.358   1.486   1.855
 5420SOL    HW217160   1.364   1.648   1.836
 5421SOL     OW17161   3.480   5.404   2.301
 5421SOL    HW117162   3.450   5.362   2.215
 5421SOL    HW217163   3.580   5.406   2.304
 5422SOL     OW17164   2.150   6.270   4.093
 5422SOL    HW117165   2.246   6.248   4.109
 5422SOL    HW217166   2.109   6.302   4.178
 5423SOL     OW17167   6.696   5.672   1.915
 5423SOL    HW117168   6.713   5.752   1.858
 5423SOL    HW217169   6.608   5.683   1.962
 5424SOL     OW17170   5.073   4.297   5.037
 5424SOL    HW117171   5.159   4.254   5.009
 5424SOL    HW217172   5.077   4.319   5.135
 5425SOL     OW17173   6.898   2.957   4.806
 5425SOL    HW117174   6.866   3.051   4.818
 5425SOL    HW217175   6.945   2.927   4.889
 5426SOL     OW17176   5.036   5.199   2.215
 5426SOL    HW117177   5.074   5.258   2.286
 5426SOL    HW217178   4.992   5.120   2.257
 5427SOL     OW17179   4.492   2.497   6.678
 5427SOL    HW117180   4.542   2.471   6.596
 5427SOL    HW217181   4.546   2.474   6.759
 5428SOL     OW17182   5.949   5.711   2.820
 5428SOL    HW117183   5.880   5.773   2.782
 5428SOL    HW217184   5.963   5.732   2.917
 5429SOL     OW17185   2.942   0.323   4.048
 5429SOL    HW117186   2.855   0.310   4.096
 5429SOL    HW217187   3.015   0.277   4.098
 5430SOL     OW17188   2.113   3.514   6.256
 5430SOL    HW117189   2.112   3.533   6.158
 5430SOL    HW217190   2.147   3.421   6.272
 5431SOL     OW17191   3.729   5.213   6.246
 5431SOL    HW117192   3.737   5.126   6.295
 5431SOL    HW217193   3.638   5.251   6.261
 5432SOL     OW17194   5.428   5.740   1.038
 5432SOL    HW117195   5.379   5.730   1.125
 5432SOL    HW217196   5.510   5.795   1.052
 5433SOL     OW17197   1.260   0.746   1.222
 5433SOL    HW117198   1.330   0.675   1.223
 5433SOL    HW217199   1.252   0.786   1.313
 5434SOL     OW17200   4.933   0.949   4.838
 5434SOL    HW117201   4.972   0.857   4.834
 5434SOL    HW217202   4.964   1.002   4.759
 5435SOL     OW17203   6.241   4.203   0.471
 5435SOL    HW117204   6.157   4.210   0.418
 5435SOL    HW217205   6.317   4.182   0.410
 5436SOL     OW17206   0.859   5.853   2.577
 5436SOL    HW117207   0.906   5.912   2.512
 5436SOL    HW217208   0.769   5.891   2.599
 5437SOL     OW17209   2.907   5.023   6.161
 5437SOL    HW117210   2.920   4.975   6.074
 5437SOL    HW217211   2.837   5.093   6.150
 5438SOL     OW17212   5.131   4.310   2.231
 5438SOL    HW117213   5.180   4.293   2.316
 5438SOL    HW217214   5.061   4.240   2.218
 5439SOL     OW17215   0.717   4.490   0.253
 5439SOL    HW117216   0.800   4.497   0.198
 5439SOL    HW217217   0.644   4.449   0.199
 5440SOL     OW17218   5.611   6.891   3.398
 5440SOL    HW117219   5.701   6.916   3.363
 5440SOL    HW217220   5.540   6.930   3.340
 5441SOL     OW17221   4.893   3.112   4.071
 5441SOL    HW117222   4.972   3.095   4.130
 5441SOL    HW217223   4.827   3.037   4.081
 5442SOL     OW17224   5.662   0.296   3.880
 5442SOL    HW117225   5.648   0.391   3.854
 5442SOL    HW217226   5.611   0.275   3.963
 5443SOL     OW17227   5.030   6.643   5.005
 5443SOL    HW117228   5.059   6.572   4.940
 5443SOL    HW217229   4.958   6.699   4.963
 5444SOL     OW17230   0.369   1.864   3.986
 5444SOL    HW117231   0.363   1.930   4.061
 5444SOL    HW217232   0.416   1.905   3.908
 5445SOL     OW17233   5.016   5.006   5.300
 5445SOL    HW117234   4.969   4.974   5.382
 5445SOL    HW217235   4.967   4.976   5.219
 5446SOL     OW17236   6.890   4.603   4.758
 5446SOL    HW117237   6.911   4.640   4.668
 5446SOL    HW217238   6.922   4.666   4.828
 5447SOL     OW17239   1.924   1.771   1.400
 5447SOL    HW117240   1.991   1.838   1.368
 5447SOL    HW217241   1.856   1.755   1.329
 5448SOL     OW17242   5.002   6.140   3.968
 5448SOL    HW117243   4.981   6.056   4.019
 5448SOL    HW217244   4.918   6.190   3.951
 5449SOL     OW17245   3.284   1.790   1.928
 5449SOL    HW117246   3.249   1.825   2.015
 5449SOL    HW217247   3.212   1.791   1.860
 5450SOL     OW17248   3.843   6.160   2.036
 5450SOL    HW117249   3.924   6.165   1.977
 5450SOL    HW217250   3.821   6.064   2.055
 5451SOL     OW17251   1.392   6.937   3.007
 5451SOL    HW117252   1.405   7.007   3.077
 5451SOL    HW217253   1.305   6.889   3.023
 5452SOL     OW17254   1.750   5.083   1.141
 5452SOL    HW117255   1.726   5.105   1.046
 5452SOL    HW217256   1.699   5.002   1.170
 5453SOL     OW17257   5.308   4.425   2.662
 5453SOL    HW117258   5.294   4.352   2.729
 5453SOL    HW217259   5.219   4.460   2.633
 5454SOL     OW17260   5.516   5.640   2.789
 5454SOL    HW117261   5.523   5.633   2.888
 5454SOL    HW217262   5.456   5.716   2.765
 5455SOL     OW17263   0.733   1.420   2.620
 5455SOL    HW117264   0.663   1.361   2.662
 5455SOL    HW217265   0.699   1.454   2.532
 5456SOL     OW17266   5.036   0.969   6.696
 5456SOL    HW117267   5.024   1.065   6.670
 5456SOL    HW217268   5.134   0.946   6.694
 5457SOL     OW17269   6.200   2.356   0.082
 5457SOL    HW117270   6.273   2.391   0.140
 5457SOL    HW217271   6.120   2.334   0.138
 5458SOL     OW17272   6.355   4.891   0.769
 5458SOL    HW117273   6.401   4.902   0.681
 5458SOL    HW217274   6.368   4.798   0.802
 5459SOL     OW17275   1.554   4.681   5.522
 5459SOL    HW117276   1.580   4.776   5.540
 5459SOL    HW217277   1.584   4.655   5.430
 5460SOL     OW17278   2.050   1.554   1.196
 5460SOL    HW117279   2.016   1.632   1.144
 5460SOL    HW217280   2.150   1.555   1.196
 5461SOL     OW17281   0.768   1.477   5.655
 5461SOL    HW117282   0.836   1.495   5.726
 5461SOL    HW217283   0.781   1.541   5.579
 5462SOL     OW17284   5.757   6.120   6.781
 5462SOL    HW117285   5.739   6.025   6.758
 5462SOL    HW217286   5.803   6.125   6.870
 5463SOL     OW17287   6.654   2.225   6.357
 5463SOL    HW117288   6.657   2.310   6.409
 5463SOL    HW217289   6.669   2.245   6.260
 5464SOL     OW17290   6.561   5.824   5.647
 5464SOL    HW117291   6.490   5.830   5.577
 5464SOL    HW217292   6.553   5.736   5.695
 5465SOL     OW17293   6.272   6.518   3.282
 5465SOL    HW117294   6.289   6.509   3.380
 5465SOL    HW217295   6.237   6.431   3.246
 5466SOL     OW17296   5.770   2.881   5.268
 5466SOL    HW117297   5.690   2.863   5.325
 5466SOL    HW217298   5.745   2.873   5.171
 5467SOL     OW17299   5.973   3.838   3.831
 5467SOL    HW117300   5.966   3.748   3.874
 5467SOL    HW217301   6.046   3.891   3.874
 5468SOL     OW17302   6.676   2.093   2.992
 5468SOL    HW117303   6.742   2.168   2.983
 5468SOL    HW217304   6.615   2.092   2.912
 5469SOL     OW17305   2.334   0.575   6.085
 5469SOL    HW117306   2.324   0.631   6.002
 5469SOL    HW217307   2.416   0.604   6.135
 5470SOL     OW17308   4.119   5.501   4.091
 5470SOL    HW117309   4.131   5.584   4.145
 5470SOL    HW217310   4.197   5.490   4.029
 5471SOL     OW17311   5.763   0.540   3.010
 5471SOL    HW117312   5.817   0.606   2.957
 5471SOL    HW217313   5.801   0.448   2.997
 5472SOL     OW17314   3.035   2.347   5.875
 5472SOL    HW117315   3.016   2.380   5.967
 5472SOL    HW217316   2.967   2.279   5.848
 5473SOL     OW17317   1.486   4.296   0.568
 5473SOL    HW117318   1.532   4.312   0.655
 5473SOL    HW217319   1.541   4.335   0.494
 5474SOL     OW17320   1.119   5.427   3.044
 5474SOL    HW117321   1.136   5.421   2.945
 5474SOL    HW217322   1.201   5.461   3.090
 5475SOL     OW17323   1.497   1.991   0.553
 5475SOL    HW117324   1.495   1.934   0.635
 5475SOL    HW217325   1.490   2.088   0.579
 5476SOL     OW17326   2.065   4.684   5.373
 5476SOL    HW117327   2.131   4.620   5.334
 5476SOL    HW217328   2.108   4.773   5.385
 5477SOL     OW17329   1.637   4.367   2.632
 5477SOL    HW117330   1.693   4.441   2.595
 5477SOL    HW217331   1.624   4.382   2.730
 5478SOL     OW17332   5.032   5.544   6.537
 5478SOL    HW117333   4.940   5.542   6.497
 5478SOL    HW217334   5.100   5.553   6.464
 5479SOL     OW17335   4.574   1.022   4.070
 5479SOL    HW117336   4.491   1.017   4.014
 5479SOL    HW217337   4.573   0.948   4.137
 5480SOL     OW17338   6.307   4.508   4.794
 5480SOL    HW117339   6.319   4.435   4.862
 5480SOL    HW217340   6.383   4.572   4.800
 5481SOL     OW17341   4.765   0.446   5.273
 5481SOL    HW117342   4.712   0.496   5.205
 5481SOL    HW217343   4.712   0.369   5.307
 5482SOL     OW17344   3.350   3.988   2.296
 5482SOL    HW117345   3.392   3.898   2.288
 5482SOL    HW217346   3.313   3.999   2.388
 5483SOL     OW17347   6.453   2.848   5.569
 5483SOL    HW117348   6.475   2.776   5.635
 5483SOL    HW217349   6.365   2.827   5.526
 5484SOL     OW17350   5.984   7.004   3.500
 5484SOL    HW117351   6.081   6.986   3.513
 5484SOL    HW217352   5.930   6.943   3.558
 5485SOL     OW17353   2.828   0.293   4.290
 5485SOL    HW117354   2.852   0.196   4.292
 5485SOL    HW217355   2.772   0.316   4.370
 5486SOL     OW17356   1.899   0.152   4.086
 5486SOL    HW117357   1.988   0.194   4.104
 5486SOL    HW217358   1.870   0.174   3.993
 5487SOL     OW17359   5.863   3.644   6.781
 5487SOL    HW117360   5.941   3.696   6.746
 5487SOL    HW217361   5.858   3.654   6.880
 5488SOL     OW17362   4.395   1.469   0.338
 5488SOL    HW117363   4.457   1.453   0.261
 5488SOL    HW217364   4.409   1.561   0.374
 5489SOL     OW17365   1.810   4.033   1.744
 5489SOL    HW117366   1.747   4.081   1.806
 5489SOL    HW217367   1.758   3.978   1.679
 5490SOL     OW17368   3.374   6.940   0.245
 5490SOL    HW117369   3.431   7.022   0.253
 5490SOL    HW217370   3.394   6.894   0.158
 5491SOL     OW17371   1.665   4.343   6.721
 5491SOL    HW117372   1.744   4.381   6.673
 5491SOL    HW217373   1.581   4.378   6.679
 5492SOL     OW17374   1.037   1.255   6.245
 5492SOL    HW117375   1.106   1.183   6.236
 5492SOL    HW217376   0.982   1.258   6.161
 5493SOL     OW17377   3.247   3.071   5.291
 5493SOL    HW117378   3.245   2.975   5.261
 5493SOL    HW217379   3.304   3.124   5.229
 5494SOL     OW17380   6.285   2.776   0.354
 5494SOL    HW117381   6.375   2.803   0.387
 5494SOL    HW217382   6.295   2.717   0.273
 5495SOL     OW17383   3.129   2.937   1.608
 5495SOL    HW117384   3.151   2.855   1.660
 5495SOL    HW217385   3.046   2.922   1.554
 5496SOL     OW17386   2.977   6.507   1.927
 5496SOL    HW117387   3.034   6.581   1.889
 5496SOL    HW217388   3.024   6.420   1.916
 5497SOL     OW17389   0.906   1.974   3.199
 5497SOL    HW117390   0.842   1.897   3.195
 5497SOL    HW217391   0.855   2.059   3.207
 5498SOL     OW17392   4.858   0.654   0.537
 5498SOL    HW117393   4.776   0.674   0.591
 5498SOL    HW217394   4.844   0.683   0.442
 5499SOL     OW17395   0.888   1.305   3.833
 5499SOL    HW117396   0.819   1.305   3.760
 5499SOL    HW217397   0.862   1.371   3.903
 5500SOL     OW17398   1.757   6.030   0.034
 5500SOL    HW117399   1.718   6.109   0.082
 5500SOL    HW217400   1.704   6.013   6.974
 5501SOL     OW17401   2.730   6.880   1.367
 5501SOL    HW117402   2.765   6.868   1.275
 5501SOL    HW217403   2.773   6.814   1.428
 5502SOL     OW17404   5.813   4.448   6.057
 5502SOL    HW117405   5.714   4.465   6.059
 5502SOL    HW217406   5.831   4.366   6.002
 5503SOL     OW17407   0.522   4.591   2.778
 5503SOL    HW117408   0.443   4.530   2.767
 5503SOL    HW217409   0.533   4.645   2.694
 5504SOL     OW17410   2.957   1.212   5.544
 5504SOL    HW117411   2.903   1.220   5.627
 5504SOL    HW217412   2.896   1.201   5.465
 5505SOL     OW17413   2.418   5.772   4.949
 5505SOL    HW117414   2.514   5.754   4.929
 5505SOL    HW217415   2.365   5.770   4.865
 5506SOL     OW17416   6.611   6.994   5.587
 5506SOL    HW117417   6.677   6.927   5.551
 5506SOL    HW217418   6.521   6.976   5.548
 5507SOL     OW17419   2.751   6.919   2.896
 5507SOL    HW117420   2.785   6.991   2.957
 5507SOL    HW217421   2.656   6.899   2.917
 5508SOL     OW17422   2.651   1.001   0.013
 5508SOL    HW117423   2.618   0.907   0.003
 5508SOL    HW217424   2.573   1.062   0.024
 5509SOL     OW17425   0.802   6.319   0.544
 5509SOL    HW117426   0.802   6.277   0.635
 5509SOL    HW217427   0.858   6.264   0.482
 5510SOL     OW17428   5.421   6.560   0.544
 5510SOL    HW117429   5.483   6.626   0.503
 5510SOL    HW217430   5.370   6.603   0.619
 5511SOL     OW17431   2.241   0.324   3.943
 5511SOL    HW117432   2.287   0.392   3.999
 5511SOL    HW217433   2.308   0.258   3.908
 5512SOL     OW17434   6.328   2.141   0.527
 5512SOL    HW117435   6.272   2.112   0.604
 5512SOL    HW217436   6.313   2.239   0.510
 5513SOL     OW17437   4.718   4.312   5.737
 5513SOL    HW117438   4.648   4.383   5.732
 5513SOL    HW217439   4.797   4.346   5.788
 5514SOL     OW17440   5.108   5.507   2.642
 5514SOL    HW117441   5.202   5.472   2.644
 5514SOL    HW217442   5.054   5.460   2.712
 5515SOL     OW17443   6.928   3.973   1.356
 5515SOL    HW117444   6.838   3.975   1.313
 5515SOL    HW217445   6.981   3.897   1.318
 5516SOL     OW17446   1.311   2.990   0.532
 5516SOL    HW117447   1.277   3.066   0.587
 5516SOL    HW217448   1.282   2.904   0.574
 5517SOL     OW17449   2.523   2.501   2.368
 5517SOL    HW117450   2.459   2.563   2.325
 5517SOL    HW217451   2.513   2.410   2.328
 5518SOL     OW17452   6.428   5.915   6.089
 5518SOL    HW117453   6.339   5.884   6.122
 5518SOL    HW217454   6.500   5.876   6.146
 5519SOL     OW17455   4.971   3.478   2.869
 5519SOL    HW117456   4.879   3.441   2.884
 5519SOL    HW217457   4.964   3.560   2.811
 5520SOL     OW17458   0.953   4.663   2.988
 5520SOL    HW117459   0.854   4.665   3.005
 5520SOL    HW217460   0.997   4.609   3.059
 5521SOL     OW17461   3.907   5.682   2.676
 5521SOL    HW117462   3.995   5.686   2.724
 5521SOL    HW217463   3.833   5.673   2.743
 5522SOL     OW17464   1.432   4.154   1.042
 5522SOL    HW117465   1.377   4.197   0.971
 5522SOL    HW217466   1.386   4.161   1.130
 5523SOL     OW17467   3.069   6.952   2.802
 5523SOL    HW117468   3.088   6.932   2.705
 5523SOL    HW217469   3.069   0.027   2.816
 5524SOL     OW17470   6.933   5.495   4.598
 5524SOL    HW117471   7.012   5.461   4.649
 5524SOL    HW217472   6.849   5.459   4.638
 5525SOL     OW17473   6.546   4.285   0.854
 5525SOL    HW117474   6.449   4.268   0.834
 5525SOL    HW217475   6.578   4.219   0.922
 5526SOL     OW17476   5.951   3.646   4.927
 5526SOL    HW117477   6.006   3.715   4.882
 5526SOL    HW217478   5.859   3.646   4.889
 5527SOL     OW17479   1.027   3.680   3.165
 5527SOL    HW117480   0.995   3.672   3.071
 5527SOL    HW217481   1.085   3.762   3.174
 5528SOL     OW17482   0.887   2.165   5.932
 5528SOL    HW117483   0.980   2.191   5.957
 5528SOL    HW217484   0.888   2.075   5.888
 5529SOL     OW17485   2.480   0.090   4.322
 5529SOL    HW117486   2.468   0.110   4.419
 5529SOL    HW217487   2.531   0.165   4.279
 5530SOL     OW17488   0.314   2.426   2.217
 5530SOL    HW117489   0.226   2.425   2.170
 5530SOL    HW217490   0.337   2.520   2.241
 5531SOL     OW17491   3.854   4.044   3.645
 5531SOL    HW117492   3.798   3.997   3.713
 5531SOL    HW217493   3.951   4.025   3.663
 5532SOL     OW17494   1.187   1.483   1.126
 5532SOL    HW117495   1.231   1.402   1.166
 5532SOL    HW217496   1.247   1.562   1.139
 5533SOL     OW17497   2.731   1.111   2.262
 5533SOL    HW117498   2.736   1.015   2.289
 5533SOL    HW217499   2.640   1.131   2.227
 5534SOL     OW17500   0.977   3.264   6.374
 5534SOL    HW117501   0.974   3.334   6.446
 5534SOL    HW217502   1.030   3.186   6.405
 5535SOL     OW17503   0.495   2.731   3.507
 5535SOL    HW117504   0.436   2.793   3.559
 5535SOL    HW217505   0.587   2.731   3.547
 5536SOL     OW17506   3.375   1.159   4.116
 5536SOL    HW117507   3.401   1.167   4.020
 5536SOL    HW217508   3.345   1.248   4.150
 5537SOL     OW17509   3.359   0.661   4.178
 5537SOL    HW117510   3.273   0.690   4.219
 5537SOL    HW217511   3.414   0.741   4.156
 5538SOL     OW17512   3.401   6.989   4.948
 5538SOL    HW117513   3.360   0.028   4.882
 5538SOL    HW217514   3.457   6.921   4.901
 5539SOL     OW17515   1.140   2.221   1.416
 5539SOL    HW117516   1.066   2.155   1.427
 5539SOL    HW217517   1.126   2.297   1.480
 5540SOL     OW17518   5.315   3.728   2.059
 5540SOL    HW117519   5.286   3.788   1.984
 5540SOL    HW217520   5.236   3.704   2.115
 5541SOL     OW17521   5.271   2.494   6.279
 5541SOL    HW117522   5.284   2.506   6.181
 5541SOL    HW217523   5.182   2.531   6.306
 5542SOL     OW17524   5.993   6.049   5.461
 5542SOL    HW117525   5.917   6.041   5.525
 5542SOL    HW217526   6.074   6.081   5.510
 5543SOL     OW17527   2.129   5.076   6.387
 5543SOL    HW117528   2.140   5.131   6.470
 5543SOL    HW217529   2.212   5.022   6.372
 5544SOL     OW17530   5.360   5.662   6.050
 5544SOL    HW117531   5.299   5.595   6.091
 5544SOL    HW217532   5.353   5.657   5.950
 5545SOL     OW17533   4.989   1.210   3.018
 5545SOL    HW117534   5.044   1.196   2.935
 5545SOL    HW217535   5.001   1.304   3.049
 5546SOL     OW17536   0.967   6.614   4.572
 5546SOL    HW117537   0.946   6.615   4.670
 5546SOL    HW217538   0.882   6.607   4.520
 5547SOL     OW17539   4.254   0.511   4.861
 5547SOL    HW117540   4.292   0.592   4.905
 5547SOL    HW217541   4.190   0.540   4.789
 5548SOL     OW17542   6.470   3.445   5.413
 5548SOL    HW117543   6.466   3.461   5.314
 5548SOL    HW217544   6.442   3.528   5.461
 5549SOL     OW17545   4.082   4.504   0.917
 5549SOL    HW117546   4.115   4.419   0.875
 5549SOL    HW217547   4.150   4.537   0.982
 5550SOL     OW17548   2.393   4.435   2.262
 5550SOL    HW117549   2.490   4.448   2.239
 5550SOL    HW217550   2.342   4.411   2.180
 5551SOL     OW17551   1.222   6.198   3.205
 5551SOL    HW117552   1.146   6.134   3.216
 5551SOL    HW217553   1.251   6.231   3.294
 5552SOL     OW17554   6.535   0.734   6.511
 5552SOL    HW117555   6.556   0.640   6.541
 5552SOL    HW217556   6.467   0.774   6.572
 5553SOL     OW17557   4.861   6.284   6.522
 5553SOL    HW117558   4.945   6.243   6.556
 5553SOL    HW217559   4.782   6.240   6.566
 5554SOL     OW17560   4.627   2.087   6.787
 5554SOL    HW117561   4.564   2.137   6.846
 5554SOL    HW217562   4.676   2.152   6.729
 5555SOL     OW17563   0.778   3.678   2.311
 5555SOL    HW117564   0.756   3.748   2.244
 5555SOL    HW217565   0.694   3.635   2.344
 5556SOL     OW17566   5.951   1.775   3.177
 5556SOL    HW117567   5.971   1.716   3.256
 5556SOL    HW217568   5.978   1.727   3.093
 5557SOL     OW17569   3.904   6.512   2.518
 5557SOL    HW117570   3.987   6.563   2.539
 5557SOL    HW217571   3.882   6.450   2.593
 5558SOL     OW17572   2.912   3.492   6.356
 5558SOL    HW117573   2.858   3.571   6.326
 5558SOL    HW217574   2.993   3.485   6.298
 5559SOL     OW17575   2.111   0.006   1.196
 5559SOL    HW117576   2.186   6.970   1.165
 5559SOL    HW217577   2.061   6.984   1.269
 5560SOL     OW17578   0.549   5.642   1.644
 5560SOL    HW117579   0.472   5.632   1.708
 5560SOL    HW217580   0.517   5.624   1.551
 5561SOL     OW17581   1.897   1.012   4.185
 5561SOL    HW117582   1.844   0.981   4.264
 5561SOL    HW217583   1.856   1.096   4.148
 5562SOL     OW17584   4.281   2.916   6.250
 5562SOL    HW117585   4.322   2.926   6.341
 5562SOL    HW217586   4.210   2.845   6.254
 5563SOL     OW17587   3.254   4.955   2.595
 5563SOL    HW117588   3.195   4.967   2.515
 5563SOL    HW217589   3.202   4.909   2.667
 5564SOL     OW17590   4.815   0.299   1.047
 5564SOL    HW117591   4.722   0.282   1.078
 5564SOL    HW217592   4.822   0.391   1.009
 5565SOL     OW17593   4.492   2.465   5.992
 5565SOL    HW117594   4.430   2.448   5.915
 5565SOL    HW217595   4.441   2.511   6.065
 5566SOL     OW17596   0.992   4.217   6.739
 5566SOL    HW117597   1.016   4.290   6.675
 5566SOL    HW217598   0.901   4.233   6.776
 5567SOL     OW17599   6.917   3.325   1.323
 5567SOL    HW117600   6.992   3.281   1.372
 5567SOL    HW217601   6.925   3.424   1.333
 5568SOL     OW17602   5.302   0.974   3.692
 5568SOL    HW117603   5.367   0.911   3.734
 5568SOL    HW217604   5.209   0.948   3.718
 5569SOL     OW17605   1.728   1.649   2.529
 5569SOL    HW117606   1.705   1.706   2.608
 5569SOL    HW217607   1.774   1.705   2.460
 5570SOL     OW17608   6.717   3.870   4.571
 5570SOL    HW117609   6.783   3.941   4.596
 5570SOL    HW217610   6.629   3.912   4.551
 5571SOL     OW17611   6.089   6.272   0.985
 5571SOL    HW117612   6.025   6.203   0.951
 5571SOL    HW217613   6.065   6.361   0.945
 5572SOL     OW17614   1.385   3.494   4.662
 5572SOL    HW117615   1.476   3.454   4.663
 5572SOL    HW217616   1.337   3.471   4.747
 5573SOL     OW17617   1.723   5.330   4.990
 5573SOL    HW117618   1.811   5.323   4.943
 5573SOL    HW217619   1.657   5.377   4.931
 5574SOL     OW17620   7.010   1.738   2.615
 5574SOL    HW117621   0.029   1.792   2.688
 5574SOL    HW217622   0.042   1.658   2.595
 5575SOL     OW17623   0.019   1.241   1.189
 5575SOL    HW117624   7.013   1.155   1.231
 5575SOL    HW217625   0.116   1.256   1.208
 5576SOL     OW17626   0.811   4.775   1.492
 5576SOL    HW117627   0.819   4.746   1.397
 5576SOL    HW217628   0.817   4.695   1.552
 5577SOL     OW17629   2.913   3.102   5.962
 5577SOL    HW117630   2.893   3.012   5.922
 5577SOL    HW217631   2.839   3.128   6.025
 5578SOL     OW17632   3.321   3.770   1.378
 5578SOL    HW117633   3.408   3.761   1.331
 5578SOL    HW217634   3.247   3.774   1.311
 5579SOL     OW17635   0.458   3.415   0.861
 5579SOL    HW117636   0.553   3.448   0.858
 5579SOL    HW217637   0.419   3.435   0.951
 5580SOL     OW17638   5.237   2.641   5.332
 5580SOL    HW117639   5.148   2.682   5.351
 5580SOL    HW217640   5.227   2.542   5.320
 5581SOL     OW17641   1.513   0.128   1.746
 5581SOL    HW117642   1.584   0.081   1.798
 5581SOL    HW217643   1.547   0.217   1.716
 5582SOL     OW17644   3.050   3.624   5.742
 5582SOL    HW117645   3.128   3.675   5.705
 5582SOL    HW217646   3.065   3.608   5.840
 5583SOL     OW17647   5.269   0.653   3.041
 5583SOL    HW117648   5.196   0.711   3.005
 5583SOL    HW217649   5.246   0.625   3.135
 5584SOL     OW17650   6.177   5.275   4.023
 5584SOL    HW117651   6.227   5.191   4.002
 5584SOL    HW217652   6.213   5.316   4.107
 5585SOL     OW17653   5.248   5.210   3.360
 5585SOL    HW117654   5.159   5.168   3.377
 5585SOL    HW217655   5.243   5.308   3.381
 5586SOL     OW17656   0.758   2.813   6.032
 5586SOL    HW117657   0.669   2.790   6.072
 5586SOL    HW217658   0.780   2.748   5.960
 5587SOL     OW17659   4.312   6.597   1.207
 5587SOL    HW117660   4.244   6.529   1.235
 5587SOL    HW217661   4.275   6.654   1.134
 5588SOL     OW17662   2.571   5.079   3.041
 5588SOL    HW117663   2.634   5.066   2.964
 5588SOL    HW217664   2.515   4.996   3.052
 5589SOL     OW17665   6.641   3.064   5.605
 5589SOL    HW117666   6.588   2.988   5.565
 5589SOL    HW217667   6.735   3.058   5.572
 5590SOL     OW17668   6.951   6.491   3.646
 5590SOL    HW117669   6.957   6.451   3.554
 5590SOL    HW217670   6.986   6.426   3.713
 5591SOL     OW17671   5.228   1.579   1.145
 5591SOL    HW117672   5.313   1.579   1.092
 5591SOL    HW217673   5.162   1.518   1.103
 5592SOL     OW17674   0.526   5.667   2.354
 5592SOL    HW117675   0.451   5.699   2.413
 5592SOL    HW217676   0.594   5.619   2.409
 5593SOL     OW17677   0.835   3.000   0.665
 5593SOL    HW117678   0.835   3.092   0.706
 5593SOL    HW217679   0.884   3.003   0.578
 5594SOL     OW17680   4.572   0.780   6.358
 5594SOL    HW117681   4.566   0.747   6.264
 5594SOL    HW217682   4.483   0.768   6.403
 5595SOL     OW17683   6.925   0.879   4.524
 5595SOL    HW117684   6.999   0.812   4.529
 5595SOL    HW217685   6.881   0.873   4.434
 5596SOL     OW17686   5.072   0.805   2.947
 5596SOL    HW117687   5.026   0.832   2.863
 5596SOL    HW217688   5.024   0.727   2.988
 5597SOL     OW17689   4.954   2.962   5.082
 5597SOL    HW117690   5.047   2.981   5.114
 5597SOL    HW217691   4.922   3.038   5.025
 5598SOL     OW17692   5.561   4.124   3.610
 5598SOL    HW117693   5.553   4.222   3.592
 5598SOL    HW217694   5.503   4.100   3.688
 5599SOL     OW17695   0.991   2.046   1.849
 5599SOL    HW117696   1.058   2.113   1.880
 5599SOL    HW217697   0.959   2.070   1.757
 5600SOL     OW17698   1.784   1.335   1.595
 5600SOL    HW117699   1.706   1.395   1.612
 5600SOL    HW217700   1.857   1.387   1.551
 5601SOL     OW17701   2.296   0.810   6.549
 5601SOL    HW117702   2.227   0.787   6.480
 5601SOL    HW217703   2.261   0.786   6.640
 5602SOL     OW17704   0.205   1.873   1.603
 5602SOL    HW117705   0.173   1.837   1.516
 5602SOL    HW217706   0.182   1.809   1.676
 5603SOL     OW17707   6.178   2.775   0.604
 5603SOL    HW117708   6.224   2.783   0.516
 5603SOL    HW217709   6.220   2.702   0.658
 5604SOL     OW17710   6.096   2.617   4.539
 5604SOL    HW117711   6.178   2.620   4.481
 5604SOL    HW217712   6.042   2.537   4.516
 5605SOL     OW17713   6.871   0.974   4.881
 5605SOL    HW117714   6.902   0.883   4.852
 5605SOL    HW217715   6.919   1.000   4.965
 5606SOL     OW17716   5.202   6.555   0.391
 5606SOL    HW117717   5.280   6.547   0.453
 5606SOL    HW217718   5.122   6.587   0.442
 5607SOL     OW17719   5.687   1.288   2.928
 5607SOL    HW117720   5.770   1.336   2.956
 5607SOL    HW217721   5.631   1.269   3.009
 5608SOL     OW17722   5.543   0.546   3.838
 5608SOL    HW117723   5.459   0.500   3.811
 5608SOL    HW217724   5.526   0.606   3.916
 5609SOL     OW17725   3.469   5.810   1.412
 5609SOL    HW117726   3.452   5.723   1.458
 5609SOL    HW217727   3.508   5.793   1.322
 5610SOL     OW17728   4.785   5.886   0.571
 5610SOL    HW117729   4.715   5.819   0.596
 5610SOL    HW217730   4.778   5.907   0.474
 5611SOL     OW17731   0.779   5.984   3.075
 5611SOL    HW117732   0.839   5.990   2.996
 5611SOL    HW217733   0.819   6.034   3.152
 5612SOL     OW17734   3.912   2.082   5.771
 5612SOL    HW117735   3.851   2.080   5.850
 5612SOL    HW217736   3.871   2.032   5.695
 5613SOL     OW17737   6.712   4.682   3.577
 5613SOL    HW117738   6.805   4.706   3.606
 5613SOL    HW217739   6.715   4.596   3.526
 5614SOL     OW17740   4.635   2.124   4.181
 5614SOL    HW117741   4.570   2.117   4.105
 5614SOL    HW217742   4.586   2.140   4.266
 5615SOL     OW17743   6.896   1.544   3.435
 5615SOL    HW117744   6.990   1.564   3.408
 5615SOL    HW217745   6.896   1.470   3.503
 5616SOL     OW17746   2.653   2.482   4.305
 5616SOL    HW117747   2.679   2.465   4.400
 5616SOL    HW217748   2.722   2.445   4.243
 5617SOL     OW17749   3.060   6.195   5.833
 5617SOL    HW117750   3.144   6.147   5.809
 5617SOL    HW217751   3.027   6.161   5.921
 5618SOL     OW17752   0.700   4.116   3.654
 5618SOL    HW117753   0.614   4.145   3.695
 5618SOL    HW217754   0.681   4.072   3.566
 5619SOL     OW17755   3.435   3.831   4.815
 5619SOL    HW117756   3.432   3.757   4.748
 5619SOL    HW217757   3.395   3.913   4.775
 5620SOL     OW17758   4.216   3.308   0.529
 5620SOL    HW117759   4.316   3.308   0.528
 5620SOL    HW217760   4.182   3.215   0.517
 5621SOL     OW17761   2.545   2.737   0.077
 5621SOL    HW117762   2.460   2.733   0.130
 5621SOL    HW217763   2.600   2.815   0.107
 5622SOL     OW17764   4.624   0.771   5.435
 5622SOL    HW117765   4.705   0.756   5.492
 5622SOL    HW217766   4.609   0.693   5.375
 5623SOL     OW17767   3.846   5.460   5.599
 5623SOL    HW117768   3.818   5.365   5.585
 5623SOL    HW217769   3.838   5.511   5.514
 5624SOL     OW17770   1.152   4.829   3.469
 5624SOL    HW117771   1.147   4.729   3.462
 5624SOL    HW217772   1.078   4.863   3.527
 5625SOL     OW17773   5.390   0.508   5.159
 5625SOL    HW117774   5.419   0.582   5.098
 5625SOL    HW217775   5.294   0.521   5.185
 5626SOL     OW17776   2.363   6.043   4.717
 5626SOL    HW117777   2.309   6.054   4.801
 5626SOL    HW217778   2.388   5.947   4.706
 5627SOL     OW17779   0.494   5.927   6.166
 5627SOL    HW117780   0.443   5.991   6.108
 5627SOL    HW217781   0.481   5.834   6.131
 5628SOL     OW17782   1.425   2.039   1.867
 5628SOL    HW117783   1.519   2.010   1.882
 5628SOL    HW217784   1.413   2.065   1.771
 5629SOL     OW17785   3.657   3.785   2.470
 5629SOL    HW117786   3.580   3.743   2.423
 5629SOL    HW217787   3.669   3.879   2.438
 5630SOL     OW17788   1.014   3.591   6.865
 5630SOL    HW117789   0.916   3.581   6.846
 5630SOL    HW217790   1.045   3.681   6.833
 5631SOL     OW17791   4.673   2.414   1.174
 5631SOL    HW117792   4.675   2.514   1.185
 5631SOL    HW217793   4.652   2.391   1.079
 5632SOL     OW17794   3.040   2.457   6.194
 5632SOL    HW117795   3.078   2.408   6.272
 5632SOL    HW217796   3.055   2.555   6.206
 5633SOL     OW17797   6.198   3.918   4.490
 5633SOL    HW117798   6.175   3.868   4.406
 5633SOL    HW217799   6.188   4.016   4.473
 5634SOL     OW17800   2.306   5.053   4.429
 5634SOL    HW117801   2.212   5.021   4.412
 5634SOL    HW217802   2.339   5.102   4.348
 5635SOL     OW17803   1.560   4.565   5.241
 5635SOL    HW117804   1.591   4.616   5.161
 5635SOL    HW217805   1.637   4.516   5.282
 5636SOL     OW17806   4.724   6.783   4.353
 5636SOL    HW117807   4.640   6.728   4.352
 5636SOL    HW217808   4.703   6.875   4.321
 5637SOL     OW17809   5.129   0.642   3.453
 5637SOL    HW117810   5.219   0.605   3.432
 5637SOL    HW217811   5.068   0.568   3.482
 5638SOL     OW17812   6.121   3.996   0.899
 5638SOL    HW117813   6.208   3.946   0.902
 5638SOL    HW217814   6.046   3.934   0.919
 5639SOL     OW17815   1.124   0.763   2.680
 5639SOL    HW117816   1.184   0.810   2.745
 5639SOL    HW217817   1.178   0.701   2.624
 5640SOL     OW17818   3.636   0.239   3.487
 5640SOL    HW117819   3.644   0.339   3.486
 5640SOL    HW217820   3.727   0.198   3.480
 5641SOL     OW17821   1.066   4.707   5.157
 5641SOL    HW117822   1.088   4.801   5.185
 5641SOL    HW217823   0.969   4.703   5.132
 5642SOL     OW17824   1.315   6.408   5.415
 5642SOL    HW117825   1.355   6.469   5.347
 5642SOL    HW217826   1.216   6.401   5.401
 5643SOL     OW17827   4.129   0.731   5.370
 5643SOL    HW117828   4.131   0.777   5.281
 5643SOL    HW217829   4.041   0.749   5.415
 5644SOL     OW17830   3.080   0.195   5.138
 5644SOL    HW117831   3.080   0.289   5.174
 5644SOL    HW217832   3.154   0.144   5.181
 5645SOL     OW17833   6.300   5.041   3.908
 5645SOL    HW117834   6.386   5.077   3.872
 5645SOL    HW217835   6.292   4.945   3.883
 5646SOL     OW17836   1.730   5.130   3.254
 5646SOL    HW117837   1.735   5.200   3.183
 5646SOL    HW217838   1.646   5.142   3.307
 5647SOL     OW17839   4.766   5.733   1.581
 5647SOL    HW117840   4.788   5.789   1.661
 5647SOL    HW217841   4.675   5.758   1.547
 5648SOL     OW17842   2.100   6.420   2.617
 5648SOL    HW117843   2.112   6.321   2.623
 5648SOL    HW217844   2.056   6.452   2.701
 5649SOL     OW17845   0.597   6.984   3.747
 5649SOL    HW117846   0.650   6.918   3.801
 5649SOL    HW217847   0.659   0.024   3.703
 5650SOL     OW17848   0.474   5.500   0.917
 5650SOL    HW117849   0.386   5.451   0.915
 5650SOL    HW217850   0.471   5.571   0.988
 5651SOL     OW17851   1.609   0.744   1.417
 5651SOL    HW117852   1.552   0.743   1.499
 5651SOL    HW217853   1.554   0.768   1.338
 5652SOL     OW17854   6.303   0.175   1.427
 5652SOL    HW117855   6.230   0.198   1.492
 5652SOL    HW217856   6.376   0.126   1.475
 5653SOL     OW17857   5.859   6.474   6.296
 5653SOL    HW117858   5.780   6.426   6.335
 5653SOL    HW217859   5.920   6.504   6.369
 5654SOL     OW17860   0.635   6.522   5.222
 5654SOL    HW117861   0.570   6.597   5.211
 5654SOL    HW217862   0.728   6.556   5.210
 5655SOL     OW17863   1.391   3.590   3.921
 5655SOL    HW117864   1.363   3.610   4.015
 5655SOL    HW217865   1.388   3.491   3.906
 5656SOL     OW17866   6.814   4.156   6.571
 5656SOL    HW117867   6.857   4.066   6.555
 5656SOL    HW217868   6.814   4.176   6.669
 5657SOL     OW17869   5.885   2.865   6.527
 5657SOL    HW117870   5.786   2.858   6.513
 5657SOL    HW217871   5.906   2.950   6.575
 5658SOL     OW17872   3.130   3.088   6.371
 5658SOL    HW117873   3.113   3.129   6.281
 5658SOL    HW217874   3.222   3.050   6.374
 5659SOL     OW17875   3.025   3.356   5.499
 5659SOL    HW117876   2.958   3.334   5.570
 5659SOL    HW217877   2.979   3.396   5.420
 5660SOL     OW17878   4.271   6.565   6.353
 5660SOL    HW117879   4.174   6.555   6.376
 5660SOL    HW217880   4.327   6.545   6.433
 5661SOL     OW17881   1.672   5.847   5.146
 5661SOL    HW117882   1.596   5.793   5.182
 5661SOL    HW217883   1.732   5.873   5.222
 5662SOL     OW17884   2.953   6.722   3.643
 5662SOL    HW117885   2.864   6.680   3.658
 5662SOL    HW217886   2.977   6.715   3.546
 5663SOL     OW17887   2.246   2.247   0.874
 5663SOL    HW117888   2.240   2.211   0.968
 5663SOL    HW217889   2.294   2.181   0.817
 5664SOL     OW17890   0.100   3.344   4.160
 5664SOL    HW117891   0.107   3.266   4.223
 5664SOL    HW217892   0.071   3.312   4.070
 5665SOL     OW17893   2.208   0.543   0.377
 5665SOL    HW117894   2.177   0.633   0.349
 5665SOL    HW217895   2.134   0.477   0.367
 5666SOL     OW17896   6.444   0.113   3.458
 5666SOL    HW117897   6.441   0.058   3.374
 5666SOL    HW217898   6.371   0.083   3.520
 5667SOL     OW17899   1.710   4.862   4.507
 5667SOL    HW117900   1.726   4.766   4.481
 5667SOL    HW217901   1.786   4.895   4.563
 5668SOL     OW17902   5.700   3.339   2.922
 5668SOL    HW117903   5.672   3.346   3.018
 5668SOL    HW217904   5.646   3.403   2.867
 5669SOL     OW17905   6.720   3.876   1.165
 5669SOL    HW117906   6.670   3.789   1.161
 5669SOL    HW217907   6.795   3.873   1.100
 5670SOL     OW17908   1.239   4.063   4.034
 5670SOL    HW117909   1.283   4.152   4.045
 5670SOL    HW217910   1.300   3.991   4.069
 5671SOL     OW17911   5.922   5.837   5.280
 5671SOL    HW117912   5.941   5.739   5.284
 5671SOL    HW217913   5.968   5.883   5.356
 5672SOL     OW17914   4.645   3.720   6.830
 5672SOL    HW117915   4.599   3.749   6.913
 5672SOL    HW217916   4.578   3.683   6.765
 5673SOL     OW17917   1.807   6.997   0.816
 5673SOL    HW117918   1.798   0.072   0.806
 5673SOL    HW217919   1.752   6.966   0.893
 5674SOL     OW17920   0.832   4.233   5.262
 5674SOL    HW117921   0.870   4.179   5.188
 5674SOL    HW217922   0.851   4.330   5.247
 5675SOL     OW17923   4.638   3.096   6.103
 5675SOL    HW117924   4.723   3.056   6.069
 5675SOL    HW217925   4.623   3.068   6.198
 5676SOL     OW17926   2.219   2.021   2.632
 5676SOL    HW117927   2.154   2.081   2.678
 5676SOL    HW217928   2.224   1.934   2.681
 5677SOL     OW17929   0.684   1.305   0.869
 5677SOL    HW117930   0.741   1.301   0.950
 5677SOL    HW217931   0.726   1.251   0.796
 5678SOL     OW17932   4.039   7.005   2.784
 5678SOL    HW117933   3.978   0.007   2.709
 5678SOL    HW217934   4.026   6.908   2.805
 5679SOL     OW17935   6.315   1.522   3.850
 5679SOL    HW117936   6.329   1.620   3.834
 5679SOL    HW217937   6.217   1.502   3.855
 5680SOL     OW17938   1.540   5.449   6.284
 5680SOL    HW117939   1.520   5.426   6.188
 5680SOL    HW217940   1.456   5.444   6.337
 5681SOL     OW17941   0.605   3.790   2.138
 5681SOL    HW117942   0.611   3.890   2.137
 5681SOL    HW217943   0.599   3.756   2.044
 5682SOL     OW17944   1.936   5.539   4.614
 5682SOL    HW117945   1.838   5.534   4.628
 5682SOL    HW217946   1.955   5.576   4.523
 5683SOL     OW17947   4.052   1.341   5.690
 5683SOL    HW117948   4.035   1.304   5.782
 5683SOL    HW217949   4.118   1.416   5.696
 5684SOL     OW17950   2.345   4.067   6.334
 5684SOL    HW117951   2.298   3.981   6.354
 5684SOL    HW217952   2.417   4.050   6.265
 5685SOL     OW17953   2.555   1.328   3.573
 5685SOL    HW117954   2.483   1.313   3.641
 5685SOL    HW217955   2.568   1.426   3.559
 5686SOL     OW17956   2.963   1.790   5.988
 5686SOL    HW117957   2.907   1.861   5.947
 5686SOL    HW217958   3.059   1.806   5.965
 5687SOL     OW17959   0.504   5.448   6.284
 5687SOL    HW117960   0.533   5.363   6.327
 5687SOL    HW217961   0.448   5.501   6.349
 5688SOL     OW17962   1.479   2.803   2.604
 5688SOL    HW117963   1.462   2.704   2.605
 5688SOL    HW217964   1.577   2.819   2.589
 5689SOL     OW17965   3.121   1.523   1.525
 5689SOL    HW117966   3.129   1.425   1.541
 5689SOL    HW217967   3.168   1.572   1.599
 5690SOL     OW17968   1.413   6.043   0.295
 5690SOL    HW117969   1.462   5.960   0.318
 5690SOL    HW217970   1.462   6.123   0.330
 5691SOL     OW17971   3.860   0.442   1.765
 5691SOL    HW117972   3.770   0.473   1.735
 5691SOL    HW217973   3.929   0.470   1.698
 5692SOL     OW17974   5.504   4.054   0.556
 5692SOL    HW117975   5.492   3.965   0.598
 5692SOL    HW217976   5.478   4.126   0.620
 5693SOL     OW17977   4.241   1.413   2.379
 5693SOL    HW117978   4.197   1.344   2.322
 5693SOL    HW217979   4.259   1.375   2.470
 5694SOL     OW17980   1.327   0.876   2.845
 5694SOL    HW117981   1.356   0.970   2.865
 5694SOL    HW217982   1.280   0.838   2.924
 5695SOL     OW17983   1.616   1.933   3.847
 5695SOL    HW117984   1.715   1.936   3.858
 5695SOL    HW217985   1.590   1.848   3.800
 5696SOL     OW17986   1.012   0.415   4.125
 5696SOL    HW117987   0.962   0.340   4.167
 5696SOL    HW217988   0.960   0.450   4.047
 5697SOL     OW17989   5.762   2.050   1.930
 5697SOL    HW117990   5.722   2.123   1.985
 5697SOL    HW217991   5.861   2.051   1.940
 5698SOL     OW17992   0.752   4.598   3.616
 5698SOL    HW117993   0.844   4.631   3.636
 5698SOL    HW217994   0.688   4.636   3.684
 5699SOL     OW17995   1.048   2.677   2.857
 5699SOL    HW117996   1.037   2.587   2.901
 5699SOL    HW217997   1.145   2.698   2.848
 5700SOL     OW17998   6.676   0.090   3.959
 5700SOL    HW117999   6.761   0.113   3.911
 5700SOL    HW218000   6.657   0.159   4.028
 5701SOL     OW18001   0.641   0.445   1.178
 5701SOL    HW118002   0.588   0.465   1.260
 5701SOL    HW218003   0.596   0.485   1.098
 5702SOL     OW18004   2.501   5.507   4.696
 5702SOL    HW118005   2.561   5.584   4.717
 5702SOL    HW218006   2.425   5.505   4.761
 5703SOL     OW18007   6.336   4.457   0.496
 5703SOL    HW118008   6.293   4.367   0.493
 5703SOL    HW218009   6.268   4.525   0.523
 5704SOL     OW18010   4.446   4.483   3.224
 5704SOL    HW118011   4.477   4.472   3.130
 5704SOL    HW218012   4.428   4.393   3.264
 5705SOL     OW18013   5.405   6.255   0.013
 5705SOL    HW118014   5.308   6.280   0.023
 5705SOL    HW218015   5.454   6.276   0.098
 5706SOL     OW18016   6.170   2.896   2.098
 5706SOL    HW118017   6.234   2.968   2.070
 5706SOL    HW218018   6.219   2.825   2.149
 5707SOL     OW18019   6.510   6.906   0.929
 5707SOL    HW118020   6.438   6.847   0.891
 5707SOL    HW218021   6.504   6.997   0.887
 5708SOL     OW18022   4.849   5.657   2.237
 5708SOL    HW118023   4.796   5.703   2.308
 5708SOL    HW218024   4.888   5.573   2.274
 5709SOL     OW18025   1.119   1.148   2.395
 5709SOL    HW118026   1.071   1.084   2.455
 5709SOL    HW218027   1.066   1.160   2.311
 5710SOL     OW18028   3.404   2.638   0.692
 5710SOL    HW118029   3.320   2.641   0.747
 5710SOL    HW218030   3.458   2.557   0.717
 5711SOL     OW18031   5.020   1.085   2.432
 5711SOL    HW118032   4.987   1.163   2.379
 5711SOL    HW218033   5.016   1.107   2.530
 5712SOL     OW18034   6.151   6.882   0.170
 5712SOL    HW118035   6.143   6.797   0.223
 5712SOL    HW218036   6.061   6.925   0.162
 5713SOL     OW18037   2.887   3.712   1.617
 5713SOL    HW118038   2.805   3.768   1.621
 5713SOL    HW218039   2.869   3.622   1.656
 5714SOL     OW18040   6.964   5.980   0.971
 5714SOL    HW118041   6.933   6.036   1.048
 5714SOL    HW218042   6.908   6.000   0.890
 5715SOL     OW18043   0.723   0.551   2.425
 5715SOL    HW118044   0.737   0.556   2.326
 5715SOL    HW218045   0.689   0.640   2.458
 5716SOL     OW18046   1.310   4.965   6.006
 5716SOL    HW118047   1.289   5.016   5.922
 5716SOL    HW218048   1.409   4.955   6.014
 5717SOL     OW18049   1.904   4.752   0.813
 5717SOL    HW118050   1.820   4.800   0.788
 5717SOL    HW218051   1.974   4.818   0.840
 5718SOL     OW18052   0.735   3.434   0.394
 5718SOL    HW118053   0.658   3.471   0.447
 5718SOL    HW218054   0.788   3.510   0.356
 5719SOL     OW18055   2.124   2.809   0.020
 5719SOL    HW118056   2.072   2.725   0.031
 5719SOL    HW218057   2.175   2.827   0.105
 5720SOL     OW18058   2.047   6.545   4.840
 5720SOL    HW118059   2.096   6.462   4.814
 5720SOL    HW218060   2.084   6.580   4.926
 5721SOL     OW18061   5.948   3.798   1.038
 5721SOL    HW118062   5.973   3.705   1.013
 5721SOL    HW218063   5.907   3.799   1.129
 5722SOL     OW18064   6.808   2.232   5.173
 5722SOL    HW118065   6.708   2.234   5.181
 5722SOL    HW218066   6.835   2.156   5.114
 5723SOL     OW18067   3.837   3.116   0.131
 5723SOL    HW118068   3.846   3.214   0.148
 5723SOL    HW218069   3.917   3.069   0.167
 5724SOL     OW18070   5.584   2.726   4.324
 5724SOL    HW118071   5.520   2.662   4.281
 5724SOL    HW218072   5.677   2.701   4.300
 5725SOL     OW18073   6.209   5.119   3.564
 5725SOL    HW118074   6.207   5.112   3.663
 5725SOL    HW218075   6.198   5.214   3.537
 5726SOL     OW18076   6.872   5.394   4.241
 5726SOL    HW118077   6.875   5.412   4.143
 5726SOL    HW218078   6.894   5.478   4.291
 5727SOL     OW18079   5.961   2.412   4.435
 5727SOL    HW118080   5.958   2.423   4.336
 5727SOL    HW218081   5.871   2.384   4.468
 5728SOL     OW18082   4.666   6.341   5.678
 5728SOL    HW118083   4.661   6.274   5.604
 5728SOL    HW218084   4.591   6.325   5.742
 5729SOL     OW18085   2.091   0.568   0.067
 5729SOL    HW118086   2.026   0.644   0.075
 5729SOL    HW218087   2.184   0.604   0.057
 5730SOL     OW18088   5.156   4.980   6.031
 5730SOL    HW118089   5.239   4.963   6.083
 5730SOL    HW218090   5.101   5.049   6.077
 5731SOL     OW18091   0.337   0.131   2.800
 5731SOL    HW118092   0.293   0.212   2.760
 5731SOL    HW218093   0.357   0.149   2.896
 5732SOL     OW18094   0.653   5.472   3.802
 5732SOL    HW118095   0.725   5.404   3.791
 5732SOL    HW218096   0.633   5.513   3.713
 5733SOL     OW18097   2.986   6.452   5.276
 5733SOL    HW118098   3.000   6.484   5.183
 5733SOL    HW218099   2.984   6.352   5.277
 5734SOL     OW18100   1.242   0.308   5.245
 5734SOL    HW118101   1.159   0.260   5.275
 5734SOL    HW218102   1.272   0.371   5.316
 5735SOL     OW18103   3.948   1.622   1.065
 5735SOL    HW118104   4.031   1.662   1.028
 5735SOL    HW218105   3.872   1.636   1.001
 5736SOL     OW18106   5.975   4.226   0.343
 5736SOL    HW118107   5.946   4.250   0.250
 5736SOL    HW218108   6.003   4.130   0.345
 5737SOL     OW18109   6.122   6.316   0.066
 5737SOL    HW118110   6.137   6.358   0.156
 5737SOL    HW218111   6.119   6.388   7.020
 5738SOL     OW18112   2.257   2.870   6.159
 5738SOL    HW118113   2.218   2.960   6.181
 5738SOL    HW218114   2.184   2.803   6.148
 5739SOL     OW18115   1.960   0.988   5.841
 5739SOL    HW118116   1.861   0.970   5.835
 5739SOL    HW218117   1.984   1.064   5.780
 5740SOL     OW18118   4.402   4.694   0.753
 5740SOL    HW118119   4.411   4.704   0.654
 5740SOL    HW218120   4.336   4.760   0.788
 5741SOL     OW18121   0.694   5.453   4.589
 5741SOL    HW118122   0.720   5.483   4.497
 5741SOL    HW218123   0.628   5.517   4.627
 5742SOL     OW18124   5.418   6.289   2.629
 5742SOL    HW118125   5.375   6.200   2.613
 5742SOL    HW218126   5.387   6.326   2.716
 5743SOL     OW18127   2.392   6.785   4.785
 5743SOL    HW118128   2.345   6.781   4.696
 5743SOL    HW218129   2.454   6.707   4.794
 5744SOL     OW18130   4.456   6.891   2.158
 5744SOL    HW118131   4.542   6.860   2.200
 5744SOL    HW218132   4.477   6.944   2.076
 5745SOL     OW18133   3.998   0.571   4.119
 5745SOL    HW118134   3.965   0.564   4.213
 5745SOL    HW218135   4.070   0.503   4.105
 5746SOL     OW18136   4.902   0.588   1.318
 5746SOL    HW118137   5.001   0.601   1.326
 5746SOL    HW218138   4.877   0.497   1.351
 5747SOL     OW18139   0.451   5.203   2.285
 5747SOL    HW118140   0.538   5.164   2.254
 5747SOL    HW218141   0.396   5.131   2.328
 5748SOL     OW18142   1.629   5.050   0.891
 5748SOL    HW118143   1.533   5.080   0.886
 5748SOL    HW218144   1.643   4.974   0.828
 5749SOL     OW18145   2.728   0.964   4.742
 5749SOL    HW118146   2.756   0.889   4.802
 5749SOL    HW218147   2.653   0.934   4.683
 5750SOL     OW18148   6.382   5.245   4.812
 5750SOL    HW118149   6.404   5.195   4.729
 5750SOL    HW218150   6.285   5.233   4.834
 5751SOL     OW18151   2.312   2.813   4.656
 5751SOL    HW118152   2.395   2.776   4.614
 5751SOL    HW218153   2.302   2.775   4.748
 5752SOL     OW18154   6.510   0.373   6.374
 5752SOL    HW118155   6.500   0.415   6.464
 5752SOL    HW218156   6.513   0.443   6.304
 5753SOL     OW18157   2.767   3.699   5.968
 5753SOL    HW118158   2.848   3.642   5.955
 5753SOL    HW218159   2.733   3.728   5.879
 5754SOL     OW18160   5.813   5.430   1.282
 5754SOL    HW118161   5.808   5.529   1.295
 5754SOL    HW218162   5.786   5.408   1.188
 5755SOL     OW18163   2.464   3.451   5.777
 5755SOL    HW118164   2.367   3.424   5.776
 5755SOL    HW218165   2.505   3.431   5.688
 5756SOL     OW18166   6.223   5.355   3.436
 5756SOL    HW118167   6.286   5.350   3.358
 5756SOL    HW218168   6.188   5.449   3.443
 5757SOL     OW18169   6.491   6.398   2.671
 5757SOL    HW118170   6.583   6.425   2.643
 5757SOL    HW218171   6.493   6.370   2.767
 5758SOL     OW18172   3.084   1.809   4.063
 5758SOL    HW118173   3.164   1.828   4.120
 5758SOL    HW218174   3.094   1.719   4.021
 5759SOL     OW18175   4.717   1.505   6.063
 5759SOL    HW118176   4.780   1.579   6.087
 5759SOL    HW218177   4.716   1.438   6.137
 5760SOL     OW18178   1.623   5.491   1.874
 5760SOL    HW118179   1.681   5.484   1.792
 5760SOL    HW218180   1.643   5.414   1.935
 5761SOL     OW18181   5.124   0.688   6.051
 5761SOL    HW118182   5.117   0.588   6.051
 5761SOL    HW218183   5.094   0.723   6.139
 5762SOL     OW18184   5.009   6.775   6.867
 5762SOL    HW118185   4.934   6.749   6.928
 5762SOL    HW218186   5.090   6.798   6.922
 5763SOL     OW18187   0.401   0.283   0.554
 5763SOL    HW118188   0.380   0.318   0.645
 5763SOL    HW218189   0.317   0.251   0.510
 5764SOL     OW18190   5.395   4.682   6.436
 5764SOL    HW118191   5.485   4.708   6.401
 5764SOL    HW218192   5.393   4.583   6.451
 5765SOL     OW18193   6.572   4.189   6.446
 5765SOL    HW118194   6.530   4.111   6.400
 5765SOL    HW218195   6.668   4.168   6.467
 5766SOL     OW18196   2.906   1.735   0.936
 5766SOL    HW118197   2.811   1.764   0.929
 5766SOL    HW218198   2.962   1.812   0.966
 5767SOL     OW18199   2.659   0.117   0.318
 5767SOL    HW118200   2.754   0.101   0.344
 5767SOL    HW218201   2.648   0.101   0.220
 5768SOL     OW18202   0.020   6.967   3.362
 5768SOL    HW118203   0.041   0.031   3.318
 5768SOL    HW218204   0.019   6.895   3.293
 5769SOL     OW18205   2.542   0.040   3.368
 5769SOL    HW118206   2.606   0.001   3.434
 5769SOL    HW218207   2.536   0.139   3.380
 5770SOL     OW18208   0.218   6.538   0.976
 5770SOL    HW118209   0.273   6.589   1.042
 5770SOL    HW218210   0.264   6.453   0.952
 5771SOL     OW18211   1.308   6.001   1.641
 5771SOL    HW118212   1.329   6.001   1.543
 5771SOL    HW218213   1.220   6.048   1.656
 5772SOL     OW18214   5.914   2.734   0.594
 5772SOL    HW118215   6.013   2.735   0.584
 5772SOL    HW218216   5.887   2.799   0.665
 5773SOL     OW18217   5.734   0.698   4.196
 5773SOL    HW118218   5.792   0.617   4.203
 5773SOL    HW218219   5.643   0.671   4.166
 5774SOL     OW18220   2.383   5.289   4.198
 5774SOL    HW118221   2.381   5.347   4.279
 5774SOL    HW218222   2.478   5.273   4.171
 5775SOL     OW18223   1.653   0.068   1.254
 5775SOL    HW118224   1.655   0.008   1.173
 5775SOL    HW218225   1.650   0.012   1.337
 5776SOL     OW18226   6.947   0.809   6.061
 5776SOL    HW118227   6.951   0.799   6.160
 5776SOL    HW218228   6.855   0.787   6.029
 5777SOL     OW18229   6.135   0.852   4.384
 5777SOL    HW118230   6.143   0.753   4.394
 5777SOL    HW218231   6.220   0.889   4.349
 5778SOL     OW18232   2.211   0.019   1.877
 5778SOL    HW118233   2.155   0.088   1.922
 5778SOL    HW218234   2.152   6.972   1.836
 5779SOL     OW18235   4.327   0.498   1.245
 5779SOL    HW118236   4.393   0.572   1.253
 5779SOL    HW218237   4.371   0.411   1.266
 5780SOL     OW18238   6.330   5.312   2.158
 5780SOL    HW118239   6.290   5.232   2.203
 5780SOL    HW218240   6.381   5.282   2.077
 5781SOL     OW18241   1.858   4.370   4.867
 5781SOL    HW118242   1.939   4.417   4.833
 5781SOL    HW218243   1.793   4.357   4.793
 5782SOL     OW18244   1.713   1.080   1.881
 5782SOL    HW118245   1.658   1.046   1.805
 5782SOL    HW218246   1.809   1.086   1.853
 5783SOL     OW18247   1.783   1.190   0.898
 5783SOL    HW118248   1.843   1.120   0.937
 5783SOL    HW218249   1.730   1.233   0.971
 5784SOL     OW18250   0.589   6.416   0.290
 5784SOL    HW118251   0.607   6.389   0.385
 5784SOL    HW218252   0.676   6.430   0.243
 5785SOL     OW18253   1.420   1.690   0.993
 5785SOL    HW118254   1.413   1.705   1.091
 5785SOL    HW218255   1.445   1.595   0.975
 5786SOL     OW18256   1.383   3.894   1.126
 5786SOL    HW118257   1.306   3.898   1.062
 5786SOL    HW218258   1.463   3.938   1.085
 5787SOL     OW18259   5.109   2.391   4.152
 5787SOL    HW118260   5.025   2.339   4.162
 5787SOL    HW218261   5.134   2.396   4.055
 5788SOL     OW18262   2.966   0.107   1.141
 5788SOL    HW118263   3.018   0.053   1.206
 5788SOL    HW218264   2.869   0.084   1.147
 5789SOL     OW18265   3.870   2.550   6.239
 5789SOL    HW118266   3.819   2.465   6.227
 5789SOL    HW218267   3.860   2.607   6.158
 5790SOL     OW18268   6.548   5.735   5.228
 5790SOL    HW118269   6.648   5.741   5.232
 5790SOL    HW218270   6.508   5.794   5.298
 5791SOL     OW18271   3.488   1.331   2.565
 5791SOL    HW118272   3.435   1.328   2.480
 5791SOL    HW218273   3.522   1.424   2.580
 5792SOL     OW18274   4.996   3.630   3.122
 5792SOL    HW118275   5.049   3.714   3.106
 5792SOL    HW218276   5.010   3.568   3.045
 5793SOL     OW18277   5.963   1.989   5.692
 5793SOL    HW118278   5.911   2.062   5.647
 5793SOL    HW218279   5.995   1.924   5.623
 5794SOL     OW18280   3.308   6.837   6.539
 5794SOL    HW118281   3.356   6.759   6.579
 5794SOL    HW218282   3.363   6.920   6.550
 5795SOL     OW18283   0.972   6.315   1.899
 5795SOL    HW118284   1.009   6.321   1.991
 5795SOL    HW218285   0.966   6.407   1.859
 5796SOL     OW18286   4.555   0.953   6.745
 5796SOL    HW118287   4.587   1.048   6.744
 5796SOL    HW218288   4.464   0.949   6.703
 5797SOL     OW18289   5.680   1.506   0.287
 5797SOL    HW118290   5.752   1.553   0.339
 5797SOL    HW218291   5.593   1.515   0.336
 5798SOL     OW18292   1.067   4.098   4.597
 5798SOL    HW118293   1.082   4.158   4.518
 5798SOL    HW218294   0.990   4.037   4.579
 5799SOL     OW18295   0.640   6.692   2.855
 5799SOL    HW118296   0.585   6.776   2.853
 5799SOL    HW218297   0.590   6.619   2.808
 5800SOL     OW18298   0.863   0.079   0.903
 5800SOL    HW118299   0.794   0.007   0.894
 5800SOL    HW218300   0.832   0.161   0.856
 5801SOL     OW18301   2.423   2.643   3.369
 5801SOL    HW118302   2.465   2.648   3.278
 5801SOL    HW218303   2.367   2.725   3.384
 5802SOL     OW18304   6.036   3.343   2.724
 5802SOL    HW118305   6.007   3.425   2.773
 5802SOL    HW218306   5.985   3.264   2.758
 5803SOL     OW18307   0.794   4.637   3.907
 5803SOL    HW118308   0.796   4.587   3.993
 5803SOL    HW218309   0.700   4.661   3.885
 5804SOL     OW18310   6.710   6.612   3.599
 5804SOL    HW118311   6.785   6.547   3.606
 5804SOL    HW218312   6.700   6.641   3.504
 5805SOL     OW18313   1.231   3.155   0.787
 5805SOL    HW118314   1.185   3.208   0.859
 5805SOL    HW218315   1.287   3.084   0.829
 5806SOL     OW18316   6.999   4.035   4.269
 5806SOL    HW118317   6.959   4.054   4.359
 5806SOL    HW218318   6.949   4.087   4.200
 5807SOL     OW18319   1.143   6.167   1.140
 5807SOL    HW118320   1.050   6.170   1.175
 5807SOL    HW218321   1.207   6.151   1.215
 5808SOL     OW18322   6.697   6.787   4.431
 5808SOL    HW118323   6.662   6.696   4.407
 5808SOL    HW218324   6.708   6.841   4.347
 5809SOL     OW18325   0.175   2.285   5.928
 5809SOL    HW118326   0.178   2.200   5.981
 5809SOL    HW218327   0.206   2.361   5.986
 5810SOL     OW18328   4.205   6.973   4.846
 5810SOL    HW118329   4.117   6.932   4.820
 5810SOL    HW218330   4.258   6.994   4.764
 5811SOL     OW18331   2.900   2.516   5.640
 5811SOL    HW118332   2.930   2.475   5.726
 5811SOL    HW218333   2.964   2.588   5.614
 5812SOL     OW18334   6.107   3.497   6.902
 5812SOL    HW118335   6.038   3.480   6.833
 5812SOL    HW218336   6.064   3.505   6.992
 5813SOL     OW18337   3.190   6.189   1.193
 5813SOL    HW118338   3.222   6.280   1.219
 5813SOL    HW218339   3.215   6.123   1.264
 5814SOL     OW18340   6.926   2.040   2.037
 5814SOL    HW118341   6.965   2.057   2.127
 5814SOL    HW218342   6.939   1.944   2.013
 5815SOL     OW18343   5.815   2.103   4.073
 5815SOL    HW118344   5.891   2.112   4.009
 5815SOL    HW218345   5.738   2.158   4.041
 5816SOL     OW18346   7.010   5.365   1.851
 5816SOL    HW118347   6.942   5.382   1.923
 5816SOL    HW218348   0.045   5.288   1.879
 5817SOL     OW18349   5.568   4.140   5.125
 5817SOL    HW118350   5.541   4.062   5.182
 5817SOL    HW218351   5.487   4.177   5.079
 5818SOL     OW18352   0.974   5.826   5.329
 5818SOL    HW118353   0.882   5.792   5.349
 5818SOL    HW218354   0.976   5.866   5.237
 5819SOL     OW18355   2.695   5.277   0.056
 5819SOL    HW118356   2.661   5.358   0.009
 5819SOL    HW218357   2.646   5.196   0.025
 5820SOL     OW18358   4.719   4.687   2.436
 5820SOL    HW118359   4.702   4.659   2.531
 5820SOL    HW218360   4.686   4.780   2.422
 5821SOL     OW18361   6.541   1.157   1.297
 5821SOL    HW118362   6.527   1.114   1.386
 5821SOL    HW218363   6.599   1.099   1.240
 5822SOL     OW18364   1.295   2.376   2.800
 5822SOL    HW118365   1.395   2.383   2.791
 5822SOL    HW218366   1.272   2.348   2.893
 5823SOL     OW18367   2.064   6.419   4.340
 5823SOL    HW118368   2.076   6.494   4.276
 5823SOL    HW218369   2.113   6.439   4.425
 5824SOL     OW18370   1.045   0.074   2.364
 5824SOL    HW118371   0.964   0.123   2.395
 5824SOL    HW218372   1.048   0.074   2.265
 5825SOL     OW18373   0.237   6.158   4.678
 5825SOL    HW118374   0.151   6.135   4.723
 5825SOL    HW218375   0.290   6.075   4.662
 5826SOL     OW18376   6.832   0.134   5.444
 5826SOL    HW118377   6.747   0.179   5.470
 5826SOL    HW218378   6.822   0.035   5.455
 5827SOL     OW18379   1.014   3.564   5.094
 5827SOL    HW118380   0.987   3.561   5.190
 5827SOL    HW218381   1.091   3.626   5.082
 5828SOL     OW18382   5.382   0.402   4.091
 5828SOL    HW118383   5.393   0.306   4.114
 5828SOL    HW218384   5.284   0.425   4.089
 5829SOL     OW18385   1.549   0.613   4.914
 5829SOL    HW118386   1.468   0.619   4.855
 5829SOL    HW218387   1.520   0.607   5.009
 5830SOL     OW18388   4.103   5.096   5.713
 5830SOL    HW118389   4.187   5.094   5.767
 5830SOL    HW218390   4.033   5.040   5.758
 5831SOL     OW18391   0.771   1.626   5.420
 5831SOL    HW118392   0.835   1.591   5.352
 5831SOL    HW218393   0.691   1.664   5.375
 5832SOL     OW18394   3.489   4.563   1.280
 5832SOL    HW118395   3.535   4.616   1.209
 5832SOL    HW218396   3.525   4.469   1.280
 5833SOL     OW18397   4.161   3.700   5.289
 5833SOL    HW118398   4.121   3.788   5.262
 5833SOL    HW218399   4.100   3.654   5.353
 5834SOL     OW18400   6.815   3.700   6.507
 5834SOL    HW118401   6.762   3.750   6.438
 5834SOL    HW218402   6.860   3.621   6.464
 5835SOL     OW18403   5.982   1.435   2.573
 5835SOL    HW118404   6.071   1.426   2.618
 5835SOL    HW218405   5.972   1.363   2.504
 5836SOL     OW18406   3.404   6.664   2.263
 5836SOL    HW118407   3.360   6.693   2.348
 5836SOL    HW218408   3.498   6.697   2.260
 5837SOL     OW18409   3.766   4.134   0.086
 5837SOL    HW118410   3.786   4.229   0.060
 5837SOL    HW218411   3.759   4.128   0.186
 5838SOL     OW18412   2.785   1.925   1.496
 5838SOL    HW118413   2.881   1.900   1.510
 5838SOL    HW218414   2.776   2.024   1.496
 5839SOL     OW18415   0.240   2.953   1.386
 5839SOL    HW118416   0.326   2.987   1.350
 5839SOL    HW218417   0.250   2.856   1.411
 5840SOL     OW18418   0.146   3.840   1.846
 5840SOL    HW118419   0.181   3.894   1.923
 5840SOL    HW218420   0.051   3.814   1.864
 5841SOL     OW18421   4.625   0.636   1.931
 5841SOL    HW118422   4.680   0.651   1.849
 5841SOL    HW218423   4.685   0.618   2.009
 5842SOL     OW18424   3.688   2.396   0.230
 5842SOL    HW118425   3.625   2.443   0.292
 5842SOL    HW218426   3.642   2.317   0.190
 5843SOL     OW18427   2.161   3.537   1.261
 5843SOL    HW118428   2.260   3.545   1.265
 5843SOL    HW218429   2.133   3.450   1.302
 5844SOL     OW18430   0.332   6.513   4.871
 5844SOL    HW118431   0.373   6.432   4.914
 5844SOL    HW218432   0.399   6.588   4.872
 5845SOL     OW18433   0.212   6.901   1.834
 5845SOL    HW118434   0.250   6.809   1.836
 5845SOL    HW218435   0.126   6.900   1.782
 5846SOL     OW18436   6.514   4.129   5.338
 5846SOL    HW118437   6.421   4.097   5.354
 5846SOL    HW218438   6.532   4.131   5.240
 5847SOL     OW18439   2.711   2.836   1.672
 5847SOL    HW118440   2.802   2.797   1.690
 5847SOL    HW218441   2.641   2.767   1.692
 5848SOL     OW18442   2.411   6.155   4.194
 5848SOL    HW118443   2.500   6.164   4.150
 5848SOL    HW218444   2.422   6.146   4.293
 5849SOL     OW18445   2.110   6.868   5.351
 5849SOL    HW118446   2.145   6.786   5.396
 5849SOL    HW218447   2.021   6.848   5.310
 5850SOL     OW18448   1.276   2.824   1.848
 5850SOL    HW118449   1.288   2.725   1.846
 5850SOL    HW218450   1.355   2.868   1.804
 5851SOL     OW18451   5.428   3.582   3.925
 5851SOL    HW118452   5.472   3.640   3.994
 5851SOL    HW218453   5.332   3.569   3.949
 5852SOL     OW18454   4.448   5.853   3.192
 5852SOL    HW118455   4.491   5.838   3.281
 5852SOL    HW218456   4.496   5.802   3.121
 5853SOL     OW18457   4.212   4.986   4.935
 5853SOL    HW118458   4.278   4.917   4.965
 5853SOL    HW218459   4.220   5.067   4.992
 5854SOL     OW18460   3.775   4.390   5.299
 5854SOL    HW118461   3.679   4.421   5.302
 5854SOL    HW218462   3.835   4.470   5.302
 5855SOL     OW18463   2.104   2.787   3.800
 5855SOL    HW118464   2.129   2.875   3.840
 5855SOL    HW218465   2.037   2.742   3.859
 5856SOL     OW18466   1.407   6.895   2.596
 5856SOL    HW118467   1.497   6.851   2.590
 5856SOL    HW218468   1.394   6.954   2.516
 5857SOL     OW18469   0.257   3.123   5.725
 5857SOL    HW118470   0.317   3.108   5.646
 5857SOL    HW218471   0.293   3.198   5.780
 5858SOL     OW18472   2.479   2.099   2.556
 5858SOL    HW118473   2.380   2.093   2.572
 5858SOL    HW218474   2.527   2.070   2.639
 5859SOL     OW18475   5.618   6.486   1.949
 5859SOL    HW118476   5.615   6.566   1.889
 5859SOL    HW218477   5.528   6.471   1.990
 5860SOL     OW18478   0.692   4.308   3.090
 5860SOL    HW118479   0.674   4.404   3.115
 5860SOL    HW218480   0.758   4.269   3.154
 5861SOL     OW18481   5.587   0.538   4.886
 5861SOL    HW118482   5.608   0.461   4.946
 5861SOL    HW218483   5.534   0.606   4.937
 5862SOL     OW18484   6.198   5.801   2.544
 5862SOL    HW118485   6.116   5.821   2.492
 5862SOL    HW218486   6.278   5.810   2.485
 5863SOL     OW18487   3.038   0.963   4.277
 5863SOL    HW118488   3.127   1.000   4.303
 5863SOL    HW218489   3.050   0.869   4.244
 5864SOL     OW18490   3.345   3.713   2.981
 5864SOL    HW118491   3.434   3.731   2.939
 5864SOL    HW218492   3.306   3.630   2.942
 5865SOL     OW18493   5.748   0.982   5.646
 5865SOL    HW118494   5.795   1.034   5.717
 5865SOL    HW218495   5.760   0.884   5.662
 5866SOL     OW18496   3.134   2.735   0.801
 5866SOL    HW118497   3.106   2.770   0.890
 5866SOL    HW218498   3.168   2.810   0.744
 5867SOL     OW18499   2.113   2.263   1.750
 5867SOL    HW118500   2.137   2.199   1.677
 5867SOL    HW218501   2.045   2.328   1.716
 5868SOL     OW18502   0.881   1.901   5.830
 5868SOL    HW118503   0.936   1.887   5.748
 5868SOL    HW218504   0.892   1.823   5.891
 5869SOL     OW18505   1.429   4.505   3.540
 5869SOL    HW118506   1.526   4.523   3.561
 5869SOL    HW218507   1.420   4.415   3.500
 5870SOL     OW18508   3.903   4.982   5.820
 5870SOL    HW118509   3.822   4.977   5.878
 5870SOL    HW218510   3.895   4.915   5.746
 5871SOL     OW18511   3.944   3.901   2.885
 5871SOL    HW118512   3.915   3.939   2.797
 5871SOL    HW218513   3.976   3.974   2.945
 5872SOL     OW18514   3.927   6.029   1.488
 5872SOL    HW118515   4.003   5.966   1.503
 5872SOL    HW218516   3.949   6.091   1.414
 5873SOL     OW18517   2.843   5.589   2.160
 5873SOL    HW118518   2.834   5.558   2.066
 5873SOL    HW218519   2.934   5.628   2.173
 5874SOL     OW18520   2.215   4.218   5.191
 5874SOL    HW118521   2.258   4.150   5.130
 5874SOL    HW218522   2.119   4.228   5.167
 5875SOL     OW18523   3.381   2.203   0.352
 5875SOL    HW118524   3.440   2.191   0.272
 5875SOL    HW218525   3.286   2.216   0.322
 5876SOL     OW18526   3.901   3.503   2.420
 5876SOL    HW118527   3.886   3.435   2.492
 5876SOL    HW218528   3.934   3.458   2.338
 5877SOL     OW18529   5.988   6.167   0.568
 5877SOL    HW118530   6.032   6.115   0.494
 5877SOL    HW218531   5.916   6.224   0.530
 5878SOL     OW18532   1.302   6.238   3.858
 5878SOL    HW118533   1.365   6.243   3.935
 5878SOL    HW218534   1.228   6.304   3.870
 5879SOL     OW18535   0.096   3.702   0.733
 5879SOL    HW118536   0.095   3.751   0.646
 5879SOL    HW218537   0.113   3.766   0.807
 5880SOL     OW18538   2.914   5.301   0.982
 5880SOL    HW118539   2.858   5.222   0.957
 5880SOL    HW218540   2.965   5.333   0.903
 5881SOL     OW18541   0.412   4.837   3.470
 5881SOL    HW118542   0.458   4.925   3.459
 5881SOL    HW218543   0.336   4.832   3.405
 5882SOL     OW18544   6.370   6.468   1.279
 5882SOL    HW118545   6.385   6.434   1.186
 5882SOL    HW218546   6.431   6.546   1.295
 5883SOL     OW18547   0.831   2.350   6.654
 5883SOL    HW118548   0.847   2.270   6.596
 5883SOL    HW218549   0.917   2.377   6.697
 5884SOL     OW18550   2.538   1.232   3.315
 5884SOL    HW118551   2.539   1.243   3.414
 5884SOL    HW218552   2.627   1.198   3.284
 5885SOL     OW18553   6.698   6.827   1.736
 5885SOL    HW118554   6.702   6.743   1.789
 5885SOL    HW218555   6.603   6.861   1.734
 5886SOL     OW18556   0.465   1.882   4.996
 5886SOL    HW118557   0.451   1.974   4.958
 5886SOL    HW218558   0.485   1.889   5.093
 5887SOL     OW18559   3.759   0.781   3.425
 5887SOL    HW118560   3.827   0.850   3.399
 5887SOL    HW218561   3.699   0.762   3.347
 5888SOL     OW18562   2.676   0.391   2.656
 5888SOL    HW118563   2.744   0.437   2.713
 5888SOL    HW218564   2.598   0.364   2.712
 5889SOL     OW18565   1.597   6.663   1.136
 5889SOL    HW118566   1.619   6.708   1.223
 5889SOL    HW218567   1.675   6.609   1.106
 5890SOL     OW18568   1.308   7.002   5.853
 5890SOL    HW118569   1.371   6.989   5.776
 5890SOL    HW218570   1.360   0.009   5.933
 5891SOL     OW18571   3.661   3.062   5.945
 5891SOL    HW118572   3.582   3.063   5.883
 5891SOL    HW218573   3.727   3.131   5.917
 5892SOL     OW18574   0.715   6.051   1.369
 5892SOL    HW118575   0.663   6.090   1.445
 5892SOL    HW218576   0.812   6.076   1.379
 5893SOL     OW18577   1.542   4.000   3.778
 5893SOL    HW118578   1.622   4.007   3.719
 5893SOL    HW218579   1.534   4.082   3.835
 5894SOL     OW18580   0.877   5.572   3.175
 5894SOL    HW118581   0.837   5.481   3.185
 5894SOL    HW218582   0.966   5.564   3.130
 5895SOL     OW18583   5.305   3.164   3.849
 5895SOL    HW118584   5.312   3.105   3.929
 5895SOL    HW218585   5.351   3.121   3.772
 5896SOL     OW18586   3.869   1.580   0.159
 5896SOL    HW118587   3.857   1.510   0.089
 5896SOL    HW218588   3.946   1.556   0.218
 5897SOL     OW18589   3.337   0.488   1.710
 5897SOL    HW118590   3.272   0.417   1.739
 5897SOL    HW218591   3.288   0.574   1.698
 5898SOL     OW18592   1.882   6.892   3.373
 5898SOL    HW118593   1.833   6.812   3.337
 5898SOL    HW218594   1.824   6.941   3.437
 5899SOL     OW18595   5.099   6.583   5.674
 5899SOL    HW118596   5.077   6.639   5.753
 5899SOL    HW218597   5.081   6.486   5.694
 5900SOL     OW18598   4.665   5.544   3.720
 5900SOL    HW118599   4.628   5.464   3.768
 5900SOL    HW218600   4.743   5.515   3.663
 5901SOL     OW18601   3.108   0.310   6.728
 5901SOL    HW118602   3.093   0.392   6.673
 5901SOL    HW218603   3.040   0.307   6.802
 5902SOL     OW18604   6.988   2.391   0.047
 5902SOL    HW118605   6.914   2.343   7.023
 5902SOL    HW218606   6.984   2.369   0.144
 5903SOL     OW18607   4.325   3.960   0.752
 5903SOL    HW118608   4.416   3.989   0.782
 5903SOL    HW218609   4.262   3.967   0.829
 5904SOL     OW18610   0.706   3.634   1.906
 5904SOL    HW118611   0.694   3.627   1.807
 5904SOL    HW218612   0.678   3.548   1.950
 5905SOL     OW18613   6.716   5.710   3.055
 5905SOL    HW118614   6.675   5.625   3.089
 5905SOL    HW218615   6.783   5.743   3.121
 5906SOL     OW18616   4.599   1.373   4.499
 5906SOL    HW118617   4.638   1.293   4.453
 5906SOL    HW218618   4.533   1.343   4.568
 5907SOL     OW18619   2.056   5.904   2.519
 5907SOL    HW118620   2.061   5.810   2.484
 5907SOL    HW218621   2.038   5.967   2.444
 5908SOL     OW18622   0.855   2.245   5.537
 5908SOL    HW118623   0.797   2.271   5.614
 5908SOL    HW218624   0.930   2.311   5.529
 5909SOL     OW18625   6.911   5.142   0.883
 5909SOL    HW118626   6.985   5.202   0.854
 5909SOL    HW218627   6.889   5.078   0.809
 5910SOL     OW18628   0.780   2.927   3.561
 5910SOL    HW118629   0.816   3.018   3.543
 5910SOL    HW218630   0.785   2.872   3.477
 5911SOL     OW18631   6.620   5.784   6.775
 5911SOL    HW118632   6.624   5.779   6.875
 5911SOL    HW218633   6.539   5.835   6.747
 5912SOL     OW18634   6.299   1.157   5.148
 5912SOL    HW118635   6.346   1.240   5.179
 5912SOL    HW218636   6.234   1.128   5.218
 5913SOL     OW18637   4.499   2.857   6.779
 5913SOL    HW118638   4.559   2.848   6.700
 5913SOL    HW218639   4.543   2.816   6.859
 5914SOL     OW18640   0.755   6.512   6.687
 5914SOL    HW118641   0.842   6.509   6.736
 5914SOL    HW218642   0.708   6.424   6.697
 5915SOL     OW18643   4.336   5.949   0.748
 5915SOL    HW118644   4.266   5.881   0.730
 5915SOL    HW218645   4.360   5.995   0.662
 5916SOL     OW18646   6.727   6.474   2.502
 5916SOL    HW118647   6.672   6.501   2.424
 5916SOL    HW218648   6.760   6.380   2.489
 5917SOL     OW18649   3.279   3.794   5.027
 5917SOL    HW118650   3.237   3.884   5.044
 5917SOL    HW218651   3.323   3.794   4.938
 5918SOL     OW18652   1.749   4.971   5.928
 5918SOL    HW118653   1.823   4.958   5.995
 5918SOL    HW218654   1.683   4.896   5.937
 5919SOL     OW18655   2.897   3.548   2.620
 5919SOL    HW118656   2.882   3.605   2.539
 5919SOL    HW218657   2.945   3.464   2.593
 5920SOL     OW18658   5.261   0.764   6.484
 5920SOL    HW118659   5.324   0.716   6.422
 5920SOL    HW218660   5.313   0.822   6.546
 5921SOL     OW18661   4.230   5.403   6.133
 5921SOL    HW118662   4.293   5.468   6.174
 5921SOL    HW218663   4.143   5.448   6.114
 5922SOL     OW18664   6.280   3.731   4.293
 5922SOL    HW118665   6.245   3.671   4.220
 5922SOL    HW218666   6.358   3.783   4.258
 5923SOL     OW18667   6.807   0.802   1.862
 5923SOL    HW118668   6.751   0.885   1.869
 5923SOL    HW218669   6.748   0.724   1.843
 5924SOL     OW18670   5.619   6.717   2.501
 5924SOL    HW118671   5.633   6.619   2.487
 5924SOL    HW218672   5.706   6.766   2.493
 5925SOL     OW18673   3.369   6.212   2.167
 5925SOL    HW118674   3.332   6.175   2.082
 5925SOL    HW218675   3.348   6.150   2.242
 5926SOL     OW18676   4.856   4.427   2.793
 5926SOL    HW118677   4.888   4.436   2.887
 5926SOL    HW218678   4.842   4.330   2.772
 5927SOL     OW18679   1.398   4.182   1.842
 5927SOL    HW118680   1.497   4.184   1.856
 5927SOL    HW218681   1.356   4.258   1.892
 5928SOL     OW18682   3.457   6.588   1.677
 5928SOL    HW118683   3.373   6.640   1.656
 5928SOL    HW218684   3.432   6.502   1.721
 5929SOL     OW18685   5.610   0.712   5.746
 5929SOL    HW118686   5.547   0.713   5.668
 5929SOL    HW218687   5.579   0.779   5.814
 5930SOL     OW18688   0.955   2.816   3.096
 5930SOL    HW118689   0.963   2.899   3.040
 5930SOL    HW218690   1.008   2.743   3.055
 5931SOL     OW18691   6.150   5.986   2.760
 5931SOL    HW118692   6.193   5.953   2.844
 5931SOL    HW218693   6.150   5.913   2.691
 5932SOL     OW18694   3.344   0.198   0.037
 5932SOL    HW118695   3.395   0.186   0.122
 5932SOL    HW218696   3.246   0.206   0.058
 5933SOL     OW18697   7.016   4.804   4.145
 5933SOL    HW118698   0.063   4.846   4.089
 5933SOL    HW218699   6.943   4.870   4.163
 5934SOL     OW18700   3.668   2.830   5.369
 5934SOL    HW118701   3.667   2.895   5.445
 5934SOL    HW218702   3.763   2.818   5.338
 5935SOL     OW18703   0.297   5.686   5.978
 5935SOL    HW118704   0.283   5.593   6.013
 5935SOL    HW218705   0.226   5.706   5.910
 5936SOL     OW18706   3.047   3.601   2.100
 5936SOL    HW118707   3.096   3.522   2.136
 5936SOL    HW218708   2.957   3.573   2.068
 5937SOL     OW18709   5.856   3.227   2.032
 5937SOL    HW118710   5.882   3.139   2.073
 5937SOL    HW218711   5.759   3.243   2.048
 5938SOL     OW18712   6.529   6.245   4.478
 5938SOL    HW118713   6.596   6.257   4.404
 5938SOL    HW218714   6.449   6.198   4.442
 5939SOL     OW18715   3.231   6.349   4.164
 5939SOL    HW118716   3.226   6.250   4.172
 5939SOL    HW218717   3.139   6.388   4.165
 5940SOL     OW18718   3.958   5.307   3.939
 5940SOL    HW118719   4.049   5.274   3.912
 5940SOL    HW218720   3.967   5.368   4.017
 5941SOL     OW18721   5.436   2.874   2.840
 5941SOL    HW118722   5.436   2.841   2.746
 5941SOL    HW218723   5.355   2.928   2.857
 5942SOL     OW18724   5.274   3.696   6.782
 5942SOL    HW118725   5.257   3.605   6.745
 5942SOL    HW218726   5.246   3.699   6.878
 5943SOL     OW18727   3.329   3.059   6.067
 5943SOL    HW118728   3.367   3.033   5.978
 5943SOL    HW218729   3.387   3.130   6.108
 5944SOL     OW18730   1.043   2.645   0.438
 5944SOL    HW118731   1.048   2.709   0.361
 5944SOL    HW218732   1.114   2.668   0.505
 5945SOL     OW18733   0.227   5.294   5.252
 5945SOL    HW118734   0.205   5.290   5.349
 5945SOL    HW218735   0.324   5.315   5.240
 5946SOL     OW18736   3.544   4.352   0.339
 5946SOL    HW118737   3.455   4.349   0.385
 5946SOL    HW218738   3.537   4.407   0.256
 5947SOL     OW18739   3.337   3.457   3.250
 5947SOL    HW118740   3.310   3.551   3.271
 5947SOL    HW218741   3.260   3.396   3.269
 5948SOL     OW18742   4.425   4.689   2.431
 5948SOL    HW118743   4.410   4.594   2.402
 5948SOL    HW218744   4.405   4.751   2.356
 5949SOL     OW18745   5.073   5.166   0.928
 5949SOL    HW118746   5.134   5.134   0.856
 5949SOL    HW218747   5.032   5.087   0.975
 5950SOL     OW18748   5.315   2.077   5.028
 5950SOL    HW118749   5.252   2.031   4.966
 5950SOL    HW218750   5.293   2.050   5.122
 5951SOL     OW18751   0.703   5.496   5.364
 5951SOL    HW118752   0.701   5.594   5.349
 5951SOL    HW218753   0.718   5.477   5.461
 5952SOL     OW18754   4.990   5.637   3.377
 5952SOL    HW118755   5.025   5.692   3.301
 5952SOL    HW218756   5.012   5.682   3.464
 5953SOL     OW18757   6.624   4.393   5.010
 5953SOL    HW118758   6.662   4.371   4.920
 5953SOL    HW218759   6.573   4.315   5.045
 5954SOL     OW18760   0.212   5.539   5.054
 5954SOL    HW118761   0.194   5.446   5.085
 5954SOL    HW218762   0.310   5.557   5.057
 5955SOL     OW18763   4.311   4.894   2.249
 5955SOL    HW118764   4.219   4.877   2.283
 5955SOL    HW218765   4.351   4.972   2.296
 5956SOL     OW18766   5.791   2.057   3.807
 5956SOL    HW118767   5.810   2.109   3.724
 5956SOL    HW218768   5.693   2.036   3.812
 5957SOL     OW18769   2.681   1.934   4.023
 5957SOL    HW118770   2.629   1.921   3.939
 5957SOL    HW218771   2.728   2.022   4.020
 5958SOL     OW18772   3.963   0.404   2.383
 5958SOL    HW118773   3.893   0.448   2.439
 5958SOL    HW218774   4.054   0.437   2.411
 5959SOL     OW18775   4.657   2.684   5.535
 5959SOL    HW118776   4.701   2.774   5.529
 5959SOL    HW218777   4.644   2.660   5.631
 5960SOL     OW18778   3.401   6.160   4.416
 5960SOL    HW118779   3.474   6.091   4.420
 5960SOL    HW218780   3.330   6.129   4.353
 5961SOL     OW18781   4.317   1.566   2.616
 5961SOL    HW118782   4.356   1.511   2.690
 5961SOL    HW218783   4.357   1.538   2.529
 5962SOL     OW18784   5.575   5.660   5.835
 5962SOL    HW118785   5.539   5.571   5.806
 5962SOL    HW218786   5.563   5.727   5.762
 5963SOL     OW18787   3.270   3.593   6.435
 5963SOL    HW118788   3.346   3.564   6.494
 5963SOL    HW218789   3.184   3.561   6.473
 5964SOL     OW18790   2.254   6.674   4.564
 5964SOL    HW118791   2.272   6.578   4.583
 5964SOL    HW218792   2.157   6.687   4.543
 5965SOL     OW18793   2.311   0.779   0.016
 5965SOL    HW118794   2.266   0.824   0.093
 5965SOL    HW218795   2.409   0.802   0.016
 5966SOL     OW18796   1.206   6.807   6.540
 5966SOL    HW118797   1.117   6.846   6.514
 5966SOL    HW218798   1.216   6.813   6.640
 5967SOL     OW18799   2.253   0.311   6.124
 5967SOL    HW118800   2.222   0.264   6.042
 5967SOL    HW218801   2.287   0.402   6.100
 5968SOL     OW18802   5.663   2.133   6.881
 5968SOL    HW118803   5.751   2.180   6.868
 5968SOL    HW218804   5.628   2.104   6.792
 5969SOL     OW18805   5.382   1.272   6.888
 5969SOL    HW118806   5.441   1.253   6.966
 5969SOL    HW218807   5.407   1.213   6.811
 5970SOL     OW18808   0.564   4.856   0.907
 5970SOL    HW118809   0.538   4.781   0.846
 5970SOL    HW218810   0.516   4.939   0.881
 5971SOL     OW18811   0.080   0.495   0.980
 5971SOL    HW118812   0.168   0.457   1.011
 5971SOL    HW218813   0.081   0.594   0.993
 5972SOL     OW18814   4.924   5.932   6.709
 5972SOL    HW118815   4.893   5.916   6.616
 5972SOL    HW218816   4.899   6.025   6.737
 5973SOL     OW18817   1.769   2.988   2.865
 5973SOL    HW118818   1.809   2.968   2.955
 5973SOL    HW218819   1.836   2.965   2.794
 5974SOL     OW18820   5.090   0.101   7.009
 5974SOL    HW118821   5.069   0.060   0.075
 5974SOL    HW218822   5.085   0.200   7.016
 5975SOL     OW18823   3.882   6.396   1.117
 5975SOL    HW118824   3.945   6.457   1.070
 5975SOL    HW218825   3.787   6.422   1.096
 5976SOL     OW18826   3.632   2.988   5.587
 5976SOL    HW118827   3.692   3.058   5.627
 5976SOL    HW218828   3.551   3.033   5.548
 5977SOL     OW18829   1.133   5.934   7.020
 5977SOL    HW118830   1.061   5.866   7.004
 5977SOL    HW218831   1.129   5.965   0.092
 5978SOL     OW18832   3.389   5.567   1.558
 5978SOL    HW118833   3.361   5.597   1.649
 5978SOL    HW218834   3.485   5.537   1.560
 5979SOL     OW18835   0.033   0.889   1.830
 5979SOL    HW118836   6.966   0.845   1.833
 5979SOL    HW218837   0.028   0.972   1.774
 5980SOL     OW18838   4.013   3.627   1.559
 5980SOL    HW118839   4.036   3.529   1.562
 5980SOL    HW218840   3.962   3.647   1.476
 5981SOL     OW18841   4.821   1.479   6.980
 5981SOL    HW118842   4.770   1.549   0.007
 5981SOL    HW218843   4.910   1.516   6.953
 5982SOL     OW18844   6.155   1.907   2.703
 5982SOL    HW118845   6.102   1.839   2.651
 5982SOL    HW218846   6.169   1.873   2.796
 5983SOL     OW18847   1.453   1.228   4.186
 5983SOL    HW118848   1.377   1.201   4.244
 5983SOL    HW218849   1.441   1.323   4.158
 5984SOL     OW18850   5.141   6.741   3.260
 5984SOL    HW118851   5.174   6.691   3.180
 5984SOL    HW218852   5.198   6.719   3.339
 5985SOL     OW18853   6.781   3.056   3.639
 5985SOL    HW118854   6.685   3.080   3.650
 5985SOL    HW218855   6.801   3.039   3.542
 5986SOL     OW18856   3.574   3.859   5.275
 5986SOL    HW118857   3.603   3.954   5.265
 5986SOL    HW218858   3.584   3.811   5.187
 5987SOL     OW18859   5.499   0.161   4.814
 5987SOL    HW118860   5.459   0.165   4.722
 5987SOL    HW218861   5.440   0.210   4.878
 5988SOL     OW18862   3.961   0.675   6.568
 5988SOL    HW118863   3.961   0.579   6.595
 5988SOL    HW218864   3.881   0.721   6.606
 5989SOL     OW18865   1.875   5.425   6.022
 5989SOL    HW118866   1.925   5.372   6.090
 5989SOL    HW218867   1.857   5.517   6.058
 5990SOL     OW18868   3.598   3.624   6.975
 5990SOL    HW118869   3.663   3.638   0.027
 5990SOL    HW218870   3.548   3.709   6.959
 5991SOL     OW18871   4.600   6.065   6.802
 5991SOL    HW118872   4.506   6.090   6.823
 5991SOL    HW218873   4.621   5.977   6.844
 5992SOL     OW18874   3.555   6.929   2.100
 5992SOL    HW118875   3.612   6.850   2.121
 5992SOL    HW218876   3.603   6.990   2.036
 5993SOL     OW18877   4.824   3.897   6.168
 5993SOL    HW118878   4.725   3.905   6.179
 5993SOL    HW218879   4.853   3.804   6.192
 5994SOL     OW18880   6.412   2.394   0.277
 5994SOL    HW118881   6.505   2.363   0.295
 5994SOL    HW218882   6.364   2.408   0.363
 5995SOL     OW18883   5.127   3.229   2.081
 5995SOL    HW118884   5.029   3.223   2.100
 5995SOL    HW218885   5.145   3.307   2.021
 5996SOL     OW18886   0.835   5.638   1.162
 5996SOL    HW118887   0.827   5.610   1.067
 5996SOL    HW218888   0.744   5.647   1.202
 5997SOL     OW18889   1.382   6.392   3.077
 5997SOL    HW118890   1.314   6.335   3.123
 5997SOL    HW218891   1.474   6.370   3.111
 5998SOL     OW18892   6.309   1.344   2.325
 5998SOL    HW118893   6.256   1.349   2.240
 5998SOL    HW218894   6.402   1.316   2.304
 5999SOL     OW18895   2.927   2.861   1.454
 5999SOL    HW118896   2.874   2.942   1.426
 5999SOL    HW218897   2.876   2.778   1.430
 6000SOL     OW18898   1.239   6.396   0.578
 6000SOL    HW118899   1.161   6.450   0.548
 6000SOL    HW218900   1.301   6.454   0.631
 6001SOL     OW18901   6.471   4.865   6.958
 6001SOL    HW118902   6.489   4.921   6.878
 6001SOL    HW218903   6.531   4.894   0.010
 6002SOL     OW18904   6.516   6.935   5.913
 6002SOL    HW118905   6.417   6.941   5.901
 6002SOL    HW218906   6.562   6.983   5.838
 6003SOL     OW18907   6.082   2.387   4.944
 6003SOL    HW118908   5.990   2.362   4.975
 6003SOL    HW218909   6.085   2.485   4.924
 6004SOL     OW18910   6.151   2.709   3.757
 6004SOL    HW118911   6.079   2.683   3.693
 6004SOL    HW218912   6.210   2.630   3.775
 6005SOL     OW18913   6.225   4.908   4.864
 6005SOL    HW118914   6.173   4.873   4.942
 6005SOL    HW218915   6.204   5.004   4.851
 6006SOL     OW18916   2.915   0.902   5.038
 6006SOL    HW118917   2.921   0.840   4.959
 6006SOL    HW218918   3.002   0.902   5.087
 6007SOL     OW18919   0.020   3.162   6.121
 6007SOL    HW118920   0.036   3.256   6.152
 6007SOL    HW218921   7.021   3.104   6.199
 6008SOL     OW18922   2.867   4.811   5.419
 6008SOL    HW118923   2.795   4.791   5.353
 6008SOL    HW218924   2.834   4.791   5.511
 6009SOL     OW18925   3.722   6.823   3.419
 6009SOL    HW118926   3.627   6.848   3.439
 6009SOL    HW218927   3.766   6.792   3.503
 6010SOL     OW18928   0.880   4.323   3.647
 6010SOL    HW118929   0.831   4.410   3.644
 6010SOL    HW218930   0.815   4.250   3.669
 6011SOL     OW18931   4.962   3.224   2.974
 6011SOL    HW118932   4.997   3.310   2.937
 6011SOL    HW218933   4.952   3.232   3.073
 6012SOL     OW18934   6.070   0.553   0.452
 6012SOL    HW118935   6.151   0.537   0.508
 6012SOL    HW218936   6.051   0.472   0.396
 6013SOL     OW18937   5.062   0.986   3.176
 6013SOL    HW118938   5.053   1.073   3.127
 6013SOL    HW218939   5.053   0.910   3.111
 6014SOL     OW18940   3.103   4.031   3.480
 6014SOL    HW118941   3.109   4.010   3.382
 6014SOL    HW218942   3.033   4.101   3.494
 6015SOL     OW18943   6.092   3.823   4.758
 6015SOL    HW118944   6.151   3.869   4.691
 6015SOL    HW218945   6.001   3.864   4.754
 6016SOL     OW18946   6.085   1.426   5.728
 6016SOL    HW118947   5.992   1.394   5.707
 6016SOL    HW218948   6.095   1.438   5.827
 6017SOL     OW18949   6.613   5.001   4.367
 6017SOL    HW118950   6.661   4.935   4.425
 6017SOL    HW218951   6.680   5.057   4.318
 6018SOL     OW18952   3.388   1.369   5.491
 6018SOL    HW118953   3.324   1.308   5.444
 6018SOL    HW218954   3.469   1.318   5.519
 6019SOL     OW18955   0.701   3.073   5.477
 6019SOL    HW118956   0.642   3.123   5.540
 6019SOL    HW218957   0.766   3.136   5.435
 6020SOL     OW18958   1.276   5.447   0.062
 6020SOL    HW118959   1.310   5.519   0.124
 6020SOL    HW218960   1.182   5.424   0.087
 6021SOL     OW18961   4.433   0.178   2.914
 6021SOL    HW118962   4.379   0.135   2.842
 6021SOL    HW218963   4.465   0.267   2.883
 6022SOL     OW18964   0.311   1.782   3.438
 6022SOL    HW118965   0.275   1.689   3.434
 6022SOL    HW218966   0.245   1.841   3.486
 6023SOL     OW18967   4.837   0.590   2.103
 6023SOL    HW118968   4.850   0.519   2.173
 6023SOL    HW218969   4.891   0.670   2.127
 6024SOL     OW18970   1.032   4.483   1.129
 6024SOL    HW118971   1.119   4.475   1.177
 6024SOL    HW218972   0.971   4.545   1.179
 6025SOL     OW18973   3.233   1.893   2.953
 6025SOL    HW118974   3.277   1.908   3.041
 6025SOL    HW218975   3.258   1.803   2.918
 6026SOL     OW18976   0.303   5.647   4.712
 6026SOL    HW118977   0.232   5.639   4.641
 6026SOL    HW218978   0.334   5.556   4.737
 6027SOL     OW18979   0.282   3.606   6.428
 6027SOL    HW118980   0.211   3.621   6.360
 6027SOL    HW218981   0.335   3.525   6.403
 6028SOL     OW18982   5.450   4.390   1.392
 6028SOL    HW118983   5.455   4.356   1.299
 6028SOL    HW218984   5.536   4.373   1.440
 6029SOL     OW18985   2.761   6.952   3.512
 6029SOL    HW118986   2.840   6.998   3.554
 6029SOL    HW218987   2.712   6.900   3.582
 6030SOL     OW18988   5.150   4.209   4.476
 6030SOL    HW118989   5.221   4.148   4.513
 6030SOL    HW218990   5.095   4.158   4.410
 6031SOL     OW18991   2.507   5.644   4.297
 6031SOL    HW118992   2.514   5.744   4.295
 6031SOL    HW218993   2.588   5.606   4.343
 6032SOL     OW18994   2.501   5.074   2.607
 6032SOL    HW118995   2.516   5.162   2.651
 6032SOL    HW218996   2.440   5.019   2.664
 6033SOL     OW18997   2.077   3.186   2.826
 6033SOL    HW118998   2.143   3.115   2.847
 6033SOL    HW218999   2.002   3.183   2.893
 6034SOL     OW19000   1.064   0.784   6.019
 6034SOL    HW119001   0.974   0.825   5.999
 6034SOL    HW219002   1.084   0.796   6.117
 6035SOL     OW19003   1.535   0.733   1.989
 6035SOL    HW119004   1.629   0.736   2.021
 6035SOL    HW219005   1.505   0.825   1.963
 6036SOL     OW19006   5.486   4.535   1.832
 6036SOL    HW119007   5.406   4.499   1.786
 6036SOL    HW219008   5.559   4.550   1.766
 6037SOL     OW19009   3.872   6.961   0.680
 6037SOL    HW119010   3.922   6.914   0.753
 6037SOL    HW219011   3.893   6.918   0.592
 6038SOL     OW19012   1.375   2.386   6.608
 6038SOL    HW119013   1.361   2.461   6.543
 6038SOL    HW219014   1.454   2.408   6.666
 6039SOL     OW19015   3.634   2.849   3.330
 6039SOL    HW119016   3.733   2.856   3.346
 6039SOL    HW219017   3.585   2.862   3.416
 6040SOL     OW19018   1.802   1.338   0.565
 6040SOL    HW119019   1.746   1.419   0.581
 6040SOL    HW219020   1.896   1.356   0.595
 6041SOL     OW19021   2.873   2.231   4.954
 6041SOL    HW119022   2.807   2.305   4.969
 6041SOL    HW219023   2.963   2.260   4.986
 6042SOL     OW19024   3.757   6.580   2.905
 6042SOL    HW119025   3.776   6.515   2.831
 6042SOL    HW219026   3.748   6.531   2.991
 6043SOL     OW19027   0.566   0.320   4.851
 6043SOL    HW119028   0.580   0.279   4.941
 6043SOL    HW219029   0.606   0.262   4.780
 6044SOL     OW19030   2.740   2.429   1.694
 6044SOL    HW119031   2.824   2.426   1.749
 6044SOL    HW219032   2.718   2.524   1.672
 6045SOL     OW19033   5.728   3.299   3.612
 6045SOL    HW119034   5.709   3.345   3.698
 6045SOL    HW219035   5.763   3.365   3.546
 6046SOL     OW19036   3.633   2.663   0.912
 6046SOL    HW119037   3.605   2.749   0.869
 6046SOL    HW219038   3.702   2.618   0.855
 6047SOL     OW19039   5.234   2.406   1.539
 6047SOL    HW119040   5.204   2.439   1.449
 6047SOL    HW219041   5.264   2.484   1.595
 6048SOL     OW19042   5.060   5.285   5.052
 6048SOL    HW119043   5.048   5.194   5.011
 6048SOL    HW219044   4.973   5.318   5.087
 6049SOL     OW19045   4.809   4.526   6.489
 6049SOL    HW119046   4.894   4.475   6.480
 6049SOL    HW219047   4.769   4.540   6.398
 6050SOL     OW19048   1.888   5.154   0.137
 6050SOL    HW119049   1.868   5.247   0.106
 6050SOL    HW219050   1.860   5.144   0.233
 6051SOL     OW19051   1.949   6.482   2.826
 6051SOL    HW119052   1.957   6.544   2.904
 6051SOL    HW219053   1.960   6.388   2.858
 6052SOL     OW19054   4.942   1.645   1.722
 6052SOL    HW119055   5.031   1.683   1.697
 6052SOL    HW219056   4.909   1.690   1.805
 6053SOL     OW19057   4.124   0.481   5.796
 6053SOL    HW119058   4.108   0.425   5.876
 6053SOL    HW219059   4.101   0.576   5.816
 6054SOL     OW19060   2.601   3.887   0.425
 6054SOL    HW119061   2.558   3.807   0.383
 6054SOL    HW219062   2.701   3.877   0.421
 6055SOL     OW19063   4.144   5.509   5.383
 6055SOL    HW119064   4.099   5.435   5.434
 6055SOL    HW219065   4.202   5.562   5.445
 6056SOL     OW19066   4.877   3.334   5.206
 6056SOL    HW119067   4.806   3.390   5.164
 6056SOL    HW219068   4.946   3.311   5.138
 6057SOL     OW19069   6.060   0.653   2.226
 6057SOL    HW119070   6.130   0.686   2.289
 6057SOL    HW219071   6.069   0.554   2.215
 6058SOL     OW19072   5.135   4.281   0.535
 6058SOL    HW119073   5.119   4.205   0.473
 6058SOL    HW219074   5.185   4.249   0.616
 6059SOL     OW19075   4.718   4.527   6.008
 6059SOL    HW119076   4.695   4.562   6.099
 6059SOL    HW219077   4.661   4.447   5.989
 6060SOL     OW19078   2.250   3.470   6.616
 6060SOL    HW119079   2.289   3.425   6.697
 6060SOL    HW219080   2.193   3.547   6.645
 6061SOL     OW19081   4.779   4.052   0.200
 6061SOL    HW119082   4.691   4.095   0.216
 6061SOL    HW219083   4.838   4.066   0.280
 6062SOL     OW19084   2.625   1.739   6.568
 6062SOL    HW119085   2.671   1.675   6.506
 6062SOL    HW219086   2.527   1.741   6.546
 6063SOL     OW19087   3.939   2.733   5.579
 6063SOL    HW119088   3.849   2.750   5.620
 6063SOL    HW219089   3.967   2.639   5.598
 6064SOL     OW19090   1.271   1.150   0.950
 6064SOL    HW119091   1.342   1.198   0.899
 6064SOL    HW219092   1.284   1.051   0.941
 6065SOL     OW19093   0.741   6.172   1.982
 6065SOL    HW119094   0.742   6.076   1.953
 6065SOL    HW219095   0.802   6.224   1.923
 6066SOL     OW19096   5.601   1.193   5.898
 6066SOL    HW119097   5.584   1.219   5.993
 6066SOL    HW219098   5.564   1.263   5.837
 6067SOL     OW19099   4.930   0.615   5.432
 6067SOL    HW119100   4.881   0.612   5.519
 6067SOL    HW219101   4.892   0.547   5.369
 6068SOL     OW19102   5.102   2.811   4.577
 6068SOL    HW119103   5.112   2.809   4.676
 6068SOL    HW219104   5.006   2.799   4.552
 6069SOL     OW19105   6.430   3.383   5.113
 6069SOL    HW119106   6.334   3.410   5.117
 6069SOL    HW219107   6.487   3.464   5.100
 6070SOL     OW19108   2.710   2.763   1.321
 6070SOL    HW119109   2.665   2.704   1.255
 6070SOL    HW219110   2.733   2.850   1.278
 6071SOL     OW19111   0.842   6.096   4.703
 6071SOL    HW119112   0.865   5.998   4.700
 6071SOL    HW219113   0.926   6.150   4.696
 6072SOL     OW19114   0.170   0.748   1.438
 6072SOL    HW119115   0.211   0.745   1.529
 6072SOL    HW219116   0.136   0.657   1.414
 6073SOL     OW19117   5.008   3.380   0.775
 6073SOL    HW119118   5.091   3.434   0.782
 6073SOL    HW219119   5.023   3.303   0.713
 6074SOL     OW19120   1.809   6.088   2.171
 6074SOL    HW119121   1.713   6.113   2.162
 6074SOL    HW219122   1.851   6.082   2.081
 6075SOL     OW19123   4.719   6.741   5.258
 6075SOL    HW119124   4.798   6.692   5.292
 6075SOL    HW219125   4.646   6.740   5.326
 6076SOL     OW19126   2.952   5.106   3.023
 6076SOL    HW119127   2.918   5.013   3.016
 6076SOL    HW219128   3.041   5.105   3.069
 6077SOL     OW19129   6.276   5.149   0.974
 6077SOL    HW119130   6.213   5.076   1.001
 6077SOL    HW219131   6.345   5.113   0.912
 6078SOL     OW19132   4.851   4.935   0.203
 6078SOL    HW119133   4.879   4.933   0.106
 6078SOL    HW219134   4.914   4.992   0.255
 6079SOL     OW19135   4.903   4.145   6.642
 6079SOL    HW119136   4.940   4.076   6.704
 6079SOL    HW219137   4.816   4.114   6.605
 6080SOL     OW19138   0.304   5.498   0.615
 6080SOL    HW119139   0.296   5.597   0.603
 6080SOL    HW219140   0.394   5.475   0.650
 6081SOL     OW19141   7.010   2.403   5.763
 6081SOL    HW119142   0.048   2.344   5.816
 6081SOL    HW219143   6.976   2.352   5.684
 6082SOL     OW19144   3.083   7.023   2.504
 6082SOL    HW119145   3.027   0.082   2.496
 6082SOL    HW219146   3.083   6.973   2.417
 6083SOL     OW19147   5.904   6.117   0.823
 6083SOL    HW119148   5.951   6.152   0.741
 6083SOL    HW219149   5.822   6.066   0.795
 6084SOL     OW19150   0.785   6.676   2.130
 6084SOL    HW119151   0.868   6.682   2.075
 6084SOL    HW219152   0.801   6.719   2.219
 6085SOL     OW19153   6.913   6.290   6.945
 6085SOL    HW119154   6.956   6.212   6.991
 6085SOL    HW219155   6.977   6.328   6.877
 6086SOL     OW19156   2.224   2.205   5.844
 6086SOL    HW119157   2.309   2.157   5.821
 6086SOL    HW219158   2.237   2.303   5.829
 6087SOL     OW19159   3.534   6.049   1.537
 6087SOL    HW119160   3.500   5.959   1.510
 6087SOL    HW219161   3.587   6.088   1.462
 6088SOL     OW19162   5.944   0.044   4.408
 6088SOL    HW119163   5.982   0.110   4.473
 6088SOL    HW219164   5.978   6.976   4.429
 6089SOL     OW19165   5.790   2.676   2.658
 6089SOL    HW119166   5.837   2.590   2.642
 6089SOL    HW219167   5.782   2.727   2.572
 6090SOL     OW19168   2.343   5.199   4.683
 6090SOL    HW119169   2.337   5.154   4.594
 6090SOL    HW219170   2.265   5.260   4.695
 6091SOL     OW19171   2.210   1.535   6.870
 6091SOL    HW119172   2.290   1.529   6.810
 6091SOL    HW219173   2.233   1.589   6.951
 6092SOL     OW19174   4.590   1.012   2.468
 6092SOL    HW119175   4.663   1.081   2.471
 6092SOL    HW219176   4.612   0.943   2.399
 6093SOL     OW19177   2.319   2.480   1.725
 6093SOL    HW119178   2.272   2.392   1.736
 6093SOL    HW219179   2.256   2.555   1.744
 6094SOL     OW19180   1.373   5.769   3.249
 6094SOL    HW119181   1.437   5.805   3.318
 6094SOL    HW219182   1.359   5.839   3.178
 6095SOL     OW19183   4.524   4.962   6.924
 6095SOL    HW119184   4.507   5.004   6.835
 6095SOL    HW219185   4.536   5.033   6.993
 6096SOL     OW19186   6.527   6.947   2.108
 6096SOL    HW119187   6.446   6.950   2.050
 6096SOL    HW219188   6.579   0.008   2.096
 6097SOL     OW19189   2.250   5.682   2.646
 6097SOL    HW119190   2.176   5.654   2.585
 6097SOL    HW219191   2.308   5.749   2.600
 6098SOL     OW19192   0.063   1.709   5.784
 6098SOL    HW119193   0.049   1.799   5.827
 6098SOL    HW219194   0.083   1.722   5.687
 6099SOL     OW19195   5.022   5.977   5.405
 6099SOL    HW119196   4.952   6.048   5.417
 6099SOL    HW219197   5.089   6.008   5.338
 6100SOL     OW19198   5.757   6.288   1.832
 6100SOL    HW119199   5.695   6.220   1.791
 6100SOL    HW219200   5.704   6.368   1.861
 6101SOL     OW19201   6.956   2.966   3.149
 6101SOL    HW119202   6.946   3.059   3.113
 6101SOL    HW219203   0.003   2.917   3.098
 6102SOL     OW19204   4.184   5.891   3.061
 6102SOL    HW119205   4.252   5.853   3.124
 6102SOL    HW219206   4.097   5.903   3.108
 6103SOL     OW19207   6.106   1.223   1.435
 6103SOL    HW119208   6.067   1.263   1.518
 6103SOL    HW219209   6.133   1.296   1.373
 6104SOL     OW19210   5.935   6.845   5.023
 6104SOL    HW119211   5.944   6.895   4.937
 6104SOL    HW219212   5.985   6.893   5.095
 6105SOL     OW19213   2.102   5.575   6.251
 6105SOL    HW119214   2.052   5.642   6.306
 6105SOL    HW219215   2.059   5.485   6.261
 6106SOL     OW19216   1.544   5.108   6.135
 6106SOL    HW119217   1.574   5.077   6.226
 6106SOL    HW219218   1.621   5.106   6.072
 6107SOL     OW19219   4.838   5.620   5.424
 6107SOL    HW119220   4.801   5.563   5.350
 6107SOL    HW219221   4.934   5.597   5.438
 6108SOL     OW19222   2.297   2.865   3.437
 6108SOL    HW119223   2.272   2.935   3.504
 6108SOL    HW219224   2.214   2.822   3.402
 6109SOL     OW19225   5.843   1.355   5.577
 6109SOL    HW119226   5.774   1.423   5.600
 6109SOL    HW219227   5.821   1.313   5.489
 6110SOL     OW19228   2.455   3.274   1.017
 6110SOL    HW119229   2.385   3.291   0.948
 6110SOL    HW219230   2.490   3.181   1.007
 6111SOL     OW19231   1.611   3.141   2.221
 6111SOL    HW119232   1.700   3.176   2.193
 6111SOL    HW219233   1.617   3.106   2.314
 6112SOL     OW19234   3.792   0.573   2.503
 6112SOL    HW119235   3.787   0.597   2.600
 6112SOL    HW219236   3.811   0.655   2.449
 6113SOL     OW19237   2.646   2.396   6.386
 6113SOL    HW119238   2.548   2.383   6.404
 6113SOL    HW219239   2.681   2.468   6.447
 6114SOL     OW19240   4.659   4.197   2.801
 6114SOL    HW119241   4.715   4.131   2.851
 6114SOL    HW219242   4.643   4.165   2.708
 6115SOL     OW19243   6.328   0.621   4.304
 6115SOL    HW119244   6.393   0.654   4.372
 6115SOL    HW219245   6.375   0.561   4.239
 6116SOL     OW19246   3.674   1.292   6.223
 6116SOL    HW119247   3.577   1.269   6.223
 6116SOL    HW219248   3.727   1.211   6.247
 6117SOL     OW19249   2.063   1.793   3.437
 6117SOL    HW119250   2.029   1.878   3.395
 6117SOL    HW219251   2.032   1.715   3.383
 6118SOL     OW19252   5.641   1.560   1.336
 6118SOL    HW119253   5.739   1.577   1.342
 6118SOL    HW219254   5.618   1.529   1.243
 6119SOL     OW19255   0.833   3.722   0.345
 6119SOL    HW119256   0.909   3.766   0.392
 6119SOL    HW219257   0.855   3.711   0.249
 6120SOL     OW19258   2.218   6.626   5.431
 6120SOL    HW119259   2.286   6.555   5.416
 6120SOL    HW219260   2.156   6.598   5.505
 6121SOL     OW19261   1.493   3.195   5.260
 6121SOL    HW119262   1.413   3.254   5.253
 6121SOL    HW219263   1.566   3.242   5.310
 6122SOL     OW19264   4.156   5.583   6.681
 6122SOL    HW119265   4.200   5.634   6.607
 6122SOL    HW219266   4.065   5.620   6.698
 6123SOL     OW19267   5.234   6.698   6.122
 6123SOL    HW119268   5.320   6.678   6.169
 6123SOL    HW219269   5.179   6.759   6.179
 6124SOL     OW19270   1.138   6.998   6.277
 6124SOL    HW119271   1.115   6.902   6.260
 6124SOL    HW219272   1.237   7.009   6.279
 6125SOL     OW19273   2.340   3.924   0.237
 6125SOL    HW119274   2.372   3.996   0.298
 6125SOL    HW219275   2.281   3.964   0.167
 6126SOL     OW19276   0.177   0.748   4.652
 6126SOL    HW119277   0.266   0.791   4.668
 6126SOL    HW219278   0.138   0.717   4.738
 6127SOL     OW19279   3.567   6.927   1.287
 6127SOL    HW119280   3.646   6.965   1.239
 6127SOL    HW219281   3.518   6.865   1.227
 6128SOL     OW19282   5.709   5.818   1.034
 6128SOL    HW119283   5.804   5.847   1.021
 6128SOL    HW219284   5.676   5.854   1.121
 6129SOL     OW19285   0.500   3.089   2.597
 6129SOL    HW119286   0.459   3.168   2.551
 6129SOL    HW219287   0.528   3.021   2.529
 6130SOL     OW19288   4.962   2.656   2.471
 6130SOL    HW119289   4.991   2.566   2.436
 6130SOL    HW219290   5.008   2.728   2.419
 6131SOL     OW19291   0.903   1.553   3.329
 6131SOL    HW119292   0.916   1.492   3.407
 6131SOL    HW219293   0.939   1.644   3.350
 6132SOL     OW19294   3.782   1.824   6.560
 6132SOL    HW119295   3.722   1.900   6.582
 6132SOL    HW219296   3.806   1.827   6.463
 6133SOL     OW19297   2.112   3.544   3.155
 6133SOL    HW119298   2.165   3.463   3.132
 6133SOL    HW219299   2.082   3.590   3.072
 6134SOL     OW19300   4.638   6.216   0.050
 6134SOL    HW119301   4.559   6.267   0.016
 6134SOL    HW219302   4.631   6.206   0.150
 6135SOL     OW19303   0.421   5.755   1.037
 6135SOL    HW119304   0.490   5.814   0.994
 6135SOL    HW219305   0.330   5.790   1.017
 6136SOL     OW19306   1.319   2.362   1.731
 6136SOL    HW119307   1.371   2.448   1.726
 6136SOL    HW219308   1.341   2.305   1.652
 6137SOL     OW19309   6.605   4.199   2.117
 6137SOL    HW119310   6.524   4.145   2.138
 6137SOL    HW219311   6.579   4.293   2.096
 6138SOL     OW19312   3.172   0.008   3.103
 6138SOL    HW119313   3.111   6.976   3.046
 6138SOL    HW219314   3.264   0.007   3.064
 6139SOL     OW19315   1.037   6.999   5.818
 6139SOL    HW119316   1.136   7.001   5.829
 6139SOL    HW219317   1.014   6.990   5.721
 6140SOL     OW19318   0.995   0.502   2.125
 6140SOL    HW119319   0.996   0.403   2.114
 6140SOL    HW219320   1.029   0.546   2.042
 6141SOL     OW19321   0.283   6.977   6.335
 6141SOL    HW119322   0.336   7.001   6.417
 6141SOL    HW219323   0.340   6.988   6.254
 6142SOL     OW19324   0.281   5.627   6.357
 6142SOL    HW119325   0.303   5.713   6.402
 6142SOL    HW219326   0.205   5.641   6.293
 6143SOL     OW19327   6.631   4.182   1.087
 6143SOL    HW119328   6.646   4.218   1.178
 6143SOL    HW219329   6.588   4.092   1.093
 6144SOL     OW19330   5.457   4.855   3.958
 6144SOL    HW119331   5.406   4.832   4.041
 6144SOL    HW219332   5.536   4.911   3.981
 6145SOL     OW19333   5.359   5.148   4.415
 6145SOL    HW119334   5.425   5.118   4.347
 6145SOL    HW219335   5.400   5.142   4.506
 6146SOL     OW19336   3.186   5.489   3.874
 6146SOL    HW119337   3.113   5.442   3.923
 6146SOL    HW219338   3.229   5.556   3.935
 6147SOL     OW19339   2.423   2.515   4.935
 6147SOL    HW119340   2.440   2.420   4.958
 6147SOL    HW219341   2.397   2.522   4.839
 6148SOL     OW19342   4.218   6.350   4.867
 6148SOL    HW119343   4.139   6.290   4.854
 6148SOL    HW219344   4.192   6.444   4.847
 6149SOL     OW19345   2.862   0.166   1.548
 6149SOL    HW119346   2.955   0.180   1.580
 6149SOL    HW219347   2.824   0.253   1.517
 6150SOL     OW19348   5.920   4.343   0.058
 6150SOL    HW119349   5.927   4.378   6.988
 6150SOL    HW219350   5.996   4.378   0.113
 6151SOL     OW19351   6.445   4.833   5.754
 6151SOL    HW119352   6.469   4.913   5.699
 6151SOL    HW219353   6.358   4.795   5.722
 6152SOL     OW19354   0.680   6.442   4.432
 6152SOL    HW119355   0.601   6.397   4.473
 6152SOL    HW219356   0.676   6.540   4.449
 6153SOL     OW19357   5.833   4.726   0.953
 6153SOL    HW119358   5.765   4.726   1.027
 6153SOL    HW219359   5.801   4.783   0.878
 6154SOL     OW19360   5.920   2.744   2.101
 6154SOL    HW119361   6.007   2.793   2.101
 6154SOL    HW219362   5.844   2.810   2.101
 6155SOL     OW19363   3.141   1.308   3.276
 6155SOL    HW119364   3.230   1.291   3.320
 6155SOL    HW219365   3.132   1.405   3.254
 6156SOL     OW19366   4.844   4.583   2.036
 6156SOL    HW119367   4.777   4.606   2.106
 6156SOL    HW219368   4.799   4.534   1.961
 6157SOL     OW19369   0.216   2.191   3.268
 6157SOL    HW119370   0.201   2.257   3.195
 6157SOL    HW219371   0.159   2.215   3.347
 6158SOL     OW19372   3.803   2.187   6.471
 6158SOL    HW119373   3.873   2.116   6.481
 6158SOL    HW219374   3.845   2.277   6.483
 6159SOL     OW19375   3.954   2.029   0.046
 6159SOL    HW119376   3.866   1.982   0.050
 6159SOL    HW219377   3.953   2.095   6.994
 6160SOL     OW19378   5.796   0.344   6.465
 6160SOL    HW119379   5.827   0.260   6.510
 6160SOL    HW219380   5.868   0.413   6.471
 6161SOL     OW19381   5.721   1.513   6.827
 6161SOL    HW119382   5.623   1.527   6.815
 6161SOL    HW219383   5.751   1.560   6.910
 6162SOL     OW19384   6.356   6.837   4.140
 6162SOL    HW119385   6.402   6.783   4.070
 6162SOL    HW219386   6.346   6.783   4.223
 6163SOL     OW19387   5.008   5.644   1.681
 6163SOL    HW119388   4.929   5.689   1.638
 6163SOL    HW219389   5.082   5.710   1.691
 6164SOL     OW19390   3.355   4.091   4.467
 6164SOL    HW119391   3.384   4.172   4.518
 6164SOL    HW219392   3.287   4.040   4.521
 6165SOL     OW19393   4.705   1.281   6.253
 6165SOL    HW119394   4.660   1.271   6.341
 6165SOL    HW219395   4.672   1.210   6.190
 6166SOL     OW19396   5.542   1.794   0.261
 6166SOL    HW119397   5.516   1.717   0.318
 6166SOL    HW219398   5.591   1.862   0.317
 6167SOL     OW19399   1.151   4.840   2.923
 6167SOL    HW119400   1.236   4.862   2.971
 6167SOL    HW219401   1.095   4.779   2.979
 6168SOL     OW19402   0.981   3.498   3.374
 6168SOL    HW119403   0.900   3.442   3.357
 6168SOL    HW219404   0.990   3.566   3.302
 6169SOL     OW19405   1.336   1.906   0.341
 6169SOL    HW119406   1.383   1.936   0.424
 6169SOL    HW219407   1.251   1.860   0.367
 6170SOL     OW19408   2.919   3.932   5.853
 6170SOL    HW119409   2.951   3.960   5.763
 6170SOL    HW219410   2.996   3.897   5.906
 6171SOL     OW19411   1.976   3.731   1.535
 6171SOL    HW119412   2.027   3.675   1.600
 6171SOL    HW219413   2.020   3.820   1.527
 6172SOL     OW19414   1.347   0.984   3.788
 6172SOL    HW119415   1.388   0.911   3.733
 6172SOL    HW219416   1.266   0.948   3.835
 6173SOL     OW19417   6.532   5.204   2.696
 6173SOL    HW119418   6.480   5.124   2.725
 6173SOL    HW219419   6.524   5.277   2.764
 6174SOL     OW19420   6.339   5.284   3.153
 6174SOL    HW119421   6.366   5.189   3.166
 6174SOL    HW219422   6.274   5.290   3.077
 6175SOL     OW19423   5.245   1.055   3.969
 6175SOL    HW119424   5.304   1.126   3.928
 6175SOL    HW219425   5.285   0.965   3.951
 6176SOL     OW19426   6.530   2.984   0.115
 6176SOL    HW119427   6.593   3.047   0.070
 6176SOL    HW219428   6.474   3.034   0.181
 6177SOL     OW19429   5.442   1.862   1.614
 6177SOL    HW119430   5.477   1.916   1.691
 6177SOL    HW219431   5.349   1.832   1.634
 6178SOL     OW19432   4.811   5.054   2.962
 6178SOL    HW119433   4.898   5.005   2.964
 6178SOL    HW219434   4.778   5.060   2.868
 6179SOL     OW19435   6.447   4.462   4.505
 6179SOL    HW119436   6.542   4.493   4.502
 6179SOL    HW219437   6.387   4.542   4.500
 6180SOL     OW19438   3.107   5.873   6.523
 6180SOL    HW119439   3.074   5.785   6.557
 6180SOL    HW219440   3.207   5.876   6.531
 6181SOL     OW19441   3.907   6.828   1.196
 6181SOL    HW119442   3.835   6.770   1.159
 6181SOL    HW219443   3.869   6.918   1.217
 6182SOL     OW19444   5.752   3.261   6.004
 6182SOL    HW119445   5.805   3.302   6.078
 6182SOL    HW219446   5.798   3.278   5.917
 6183SOL     OW19447   2.018   0.296   2.959
 6183SOL    HW119448   2.038   0.261   3.050
 6183SOL    HW219449   1.933   0.254   2.925
 6184SOL     OW19450   1.233   0.084   6.848
 6184SOL    HW119451   1.305   0.140   6.888
 6184SOL    HW219452   1.193   0.132   6.770
 6185SOL     OW19453   0.372   4.629   6.537
 6185SOL    HW119454   0.454   4.632   6.480
 6185SOL    HW219455   0.333   4.537   6.535
 6186SOL     OW19456   6.161   6.508   5.328
 6186SOL    HW119457   6.152   6.545   5.235
 6186SOL    HW219458   6.101   6.429   5.339
 6187SOL     OW19459   4.223   4.828   4.244
 6187SOL    HW119460   4.270   4.824   4.156
 6187SOL    HW219461   4.266   4.763   4.308
 6188SOL     OW19462   2.389   0.270   0.816
 6188SOL    HW119463   2.478   0.229   0.796
 6188SOL    HW219464   2.383   0.360   0.773
 6189SOL     OW19465   4.888   4.131   4.260
 6189SOL    HW119466   4.973   4.079   4.246
 6189SOL    HW219467   4.903   4.226   4.236
 6190SOL     OW19468   6.345   3.804   6.077
 6190SOL    HW119469   6.288   3.722   6.073
 6190SOL    HW219470   6.440   3.780   6.061
 6191SOL     OW19471   4.148   2.910   6.512
 6191SOL    HW119472   4.195   2.822   6.521
 6191SOL    HW219473   4.096   2.928   6.596
 6192SOL     OW19474   2.760   3.227   6.341
 6192SOL    HW119475   2.761   3.204   6.244
 6192SOL    HW219476   2.792   3.320   6.355
 6193SOL     OW19477   5.232   0.765   2.612
 6193SOL    HW119478   5.329   0.742   2.620
 6193SOL    HW219479   5.224   0.862   2.590
 6194SOL     OW19480   1.071   0.380   0.753
 6194SOL    HW119481   1.062   0.474   0.787
 6194SOL    HW219482   1.009   0.366   0.676
 6195SOL     OW19483   3.821   6.241   5.231
 6195SOL    HW119484   3.755   6.168   5.216
 6195SOL    HW219485   3.893   6.209   5.294
 6196SOL     OW19486   5.689   1.948   1.248
 6196SOL    HW119487   5.692   1.851   1.224
 6196SOL    HW219488   5.634   1.997   1.181
 6197SOL     OW19489   4.057   4.858   0.506
 6197SOL    HW119490   3.975   4.860   0.564
 6197SOL    HW219491   4.117   4.784   0.536
 6198SOL     OW19492   3.096   5.706   2.261
 6198SOL    HW119493   3.150   5.652   2.326
 6198SOL    HW219494   3.054   5.783   2.309
 6199SOL     OW19495   1.119   0.630   0.885
 6199SOL    HW119496   1.123   0.727   0.911
 6199SOL    HW219497   1.211   0.591   0.887
 6200SOL     OW19498   2.187   1.239   5.043
 6200SOL    HW119499   2.253   1.190   4.986
 6200SOL    HW219500   2.212   1.230   5.139
 6201SOL     OW19501   1.697   4.124   4.929
 6201SOL    HW119502   1.728   4.219   4.930
 6201SOL    HW219503   1.717   4.083   4.840
 6202SOL     OW19504   3.924   1.465   1.849
 6202SOL    HW119505   4.016   1.460   1.811
 6202SOL    HW219506   3.928   1.483   1.947
 6203SOL     OW19507   5.962   6.502   3.059
 6203SOL    HW119508   5.999   6.420   3.015
 6203SOL    HW219509   5.968   6.579   2.996
 6204SOL     OW19510   1.125   5.136   4.683
 6204SOL    HW119511   1.084   5.109   4.596
 6204SOL    HW219512   1.130   5.057   4.744
 6205SOL     OW19513   6.450   6.345   0.224
 6205SOL    HW119514   6.356   6.376   0.221
 6205SOL    HW219515   6.483   6.345   0.318
 6206SOL     OW19516   0.345   0.487   2.865
 6206SOL    HW119517   0.383   0.443   2.784
 6206SOL    HW219518   0.261   0.534   2.841
 6207SOL     OW19519   1.543   4.943   3.981
 6207SOL    HW119520   1.638   4.963   4.006
 6207SOL    HW219521   1.491   4.920   4.063
 6208SOL     OW19522   6.026   1.422   6.323
 6208SOL    HW119523   6.095   1.459   6.385
 6208SOL    HW219524   6.048   1.451   6.229
 6209SOL     OW19525   4.507   5.710   0.102
 6209SOL    HW119526   4.458   5.778   0.156
 6209SOL    HW219527   4.538   5.751   0.016
 6210SOL     OW19528   5.820   4.235   3.934
 6210SOL    HW119529   5.802   4.146   3.893
 6210SOL    HW219530   5.878   4.289   3.873
 6211SOL     OW19531   2.743   6.141   5.387
 6211SOL    HW119532   2.800   6.082   5.331
 6211SOL    HW219533   2.800   6.188   5.455
 6212SOL     OW19534   2.276   4.953   2.731
 6212SOL    HW119535   2.216   4.905   2.795
 6212SOL    HW219536   2.268   4.914   2.640
 6213SOL     OW19537   5.387   0.385   0.135
 6213SOL    HW119538   5.319   0.366   0.206
 6213SOL    HW219539   5.352   0.455   0.073
 6214SOL     OW19540   4.597   4.893   3.903
 6214SOL    HW119541   4.591   4.930   3.996
 6214SOL    HW219542   4.687   4.914   3.865
 6215SOL     OW19543   4.216   1.825   0.699
 6215SOL    HW119544   4.189   1.921   0.700
 6215SOL    HW219545   4.180   1.781   0.616
 6216SOL     OW19546   5.949   1.985   2.255
 6216SOL    HW119547   6.020   1.918   2.232
 6216SOL    HW219548   5.907   2.018   2.171
 6217SOL     OW19549   0.757   2.748   2.446
 6217SOL    HW119550   0.728   2.836   2.407
 6217SOL    HW219551   0.831   2.765   2.512
 6218SOL     OW19552   3.565   5.028   5.719
 6218SOL    HW119553   3.538   5.033   5.623
 6218SOL    HW219554   3.575   5.121   5.755
 6219SOL     OW19555   1.001   2.156   4.490
 6219SOL    HW119556   0.929   2.105   4.537
 6219SOL    HW219557   1.063   2.195   4.557
 6220SOL     OW19558   1.587   2.518   5.200
 6220SOL    HW119559   1.548   2.444   5.144
 6220SOL    HW219560   1.519   2.549   5.266
 6221SOL     OW19561   6.341   5.740   6.942
 6221SOL    HW119562   6.358   5.680   6.863
 6221SOL    HW219563   6.295   5.823   6.910
 6222SOL     OW19564   0.803   6.052   1.082
 6222SOL    HW119565   0.825   6.146   1.107
 6222SOL    HW219566   0.756   6.007   1.158
 6223SOL     OW19567   0.590   4.708   4.463
 6223SOL    HW119568   0.622   4.688   4.555
 6223SOL    HW219569   0.568   4.623   4.416
 6224SOL     OW19570   2.532   1.820   6.123
 6224SOL    HW119571   2.557   1.913   6.097
 6224SOL    HW219572   2.515   1.816   6.222
 6225SOL     OW19573   3.410   3.798   0.807
 6225SOL    HW119574   3.499   3.837   0.832
 6225SOL    HW219575   3.362   3.863   0.748
 6226SOL     OW19576   6.061   1.672   5.078
 6226SOL    HW119577   5.973   1.718   5.091
 6226SOL    HW219578   6.045   1.578   5.049
 6227SOL     OW19579   4.005   5.420   5.819
 6227SOL    HW119580   4.028   5.322   5.818
 6227SOL    HW219581   3.941   5.440   5.745
 6228SOL     OW19582   1.589   2.583   2.963
 6228SOL    HW119583   1.509   2.591   3.023
 6228SOL    HW219584   1.662   2.641   2.996
 6229SOL     OW19585   0.392   2.226   2.772
 6229SOL    HW119586   0.489   2.248   2.776
 6229SOL    HW219587   0.365   2.210   2.677
 6230SOL     OW19588   1.308   1.455   3.724
 6230SOL    HW119589   1.362   1.525   3.771
 6230SOL    HW219590   1.368   1.401   3.665
 6231SOL     OW19591   6.082   4.926   1.040
 6231SOL    HW119592   6.009   4.983   1.003
 6231SOL    HW219593   6.052   4.886   1.127
 6232SOL     OW19594   6.853   1.395   0.816
 6232SOL    HW119595   6.785   1.467   0.828
 6232SOL    HW219596   6.926   1.427   0.755
 6233SOL     OW19597   6.106   0.837   0.482
 6233SOL    HW119598   6.074   0.744   0.465
 6233SOL    HW219599   6.057   0.901   0.423
 6234SOL     OW19600   6.309   1.564   5.575
 6234SOL    HW119601   6.392   1.597   5.621
 6234SOL    HW219602   6.232   1.569   5.639
 6235SOL     OW19603   1.203   0.537   1.479
 6235SOL    HW119604   1.176   0.466   1.414
 6235SOL    HW219605   1.182   0.507   1.572
 6236SOL     OW19606   0.337   3.537   0.654
 6236SOL    HW119607   0.268   3.596   0.695
 6236SOL    HW219608   0.386   3.488   0.726
 6237SOL     OW19609   3.371   6.276   6.953
 6237SOL    HW119610   3.464   6.313   6.964
 6237SOL    HW219611   3.311   6.345   6.915
 6238SOL     OW19612   4.075   4.849   2.887
 6238SOL    HW119613   4.145   4.790   2.928
 6238SOL    HW219614   4.093   4.944   2.913
 6239SOL     OW19615   3.114   6.273   1.839
 6239SOL    HW119616   3.089   6.177   1.825
 6239SOL    HW219617   3.142   6.314   1.752
 6240SOL     OW19618   2.680   2.991   6.506
 6240SOL    HW119619   2.587   2.955   6.494
 6240SOL    HW219620   2.690   3.076   6.455
 6241SOL     OW19621   3.667   0.018   1.882
 6241SOL    HW119622   3.654   6.944   1.862
 6241SOL    HW219623   3.692   0.066   1.799
 6242SOL     OW19624   5.346   1.461   3.453
 6242SOL    HW119625   5.312   1.543   3.501
 6242SOL    HW219626   5.309   1.460   3.360
 6243SOL     OW19627   6.412   0.024   3.889
 6243SOL    HW119628   6.511   0.037   3.897
 6243SOL    HW219629   6.386   6.962   3.933
 6244SOL     OW19630   0.859   2.489   2.599
 6244SOL    HW119631   0.943   2.440   2.621
 6244SOL    HW219632   0.873   2.587   2.608
 6245SOL     OW19633   1.669   3.951   0.186
 6245SOL    HW119634   1.637   3.873   0.133
 6245SOL    HW219635   1.722   4.012   0.126
 6246SOL     OW19636   1.657   2.589   5.702
 6246SOL    HW119637   1.661   2.631   5.793
 6246SOL    HW219638   1.668   2.659   5.632
 6247SOL     OW19639   1.376   6.242   4.587
 6247SOL    HW119640   1.374   6.339   4.562
 6247SOL    HW219641   1.384   6.186   4.504
 6248SOL     OW19642   3.323   3.797   0.341
 6248SOL    HW119643   3.331   3.742   0.424
 6248SOL    HW219644   3.412   3.839   0.320
 6249SOL     OW19645   0.333   3.866   0.681
 6249SOL    HW119646   0.424   3.888   0.647
 6249SOL    HW219647   0.268   3.934   0.647
 6250SOL     OW19648   6.983   5.855   0.601
 6250SOL    HW119649   0.001   5.887   0.515
 6250SOL    HW219650   6.913   5.919   0.630
 6251SOL     OW19651   3.547   5.553   6.849
 6251SOL    HW119652   3.633   5.555   6.899
 6251SOL    HW219653   3.562   5.513   6.758
 6252SOL     OW19654   1.102   6.671   5.922
 6252SOL    HW119655   1.072   6.711   5.836
 6252SOL    HW219656   1.197   6.643   5.915
 6253SOL     OW19657   2.358   4.326   3.061
 6253SOL    HW119658   2.430   4.396   3.067
 6253SOL    HW219659   2.360   4.284   2.970
 6254SOL     OW19660   4.937   1.404   0.485
 6254SOL    HW119661   5.003   1.330   0.472
 6254SOL    HW219662   4.986   1.491   0.490
 6255SOL     OW19663   2.814   0.403   1.022
 6255SOL    HW119664   2.899   0.351   1.021
 6255SOL    HW219665   2.782   0.416   0.928
 6256SOL     OW19666   3.406   5.199   2.592
 6256SOL    HW119667   3.423   5.241   2.503
 6256SOL    HW219668   3.371   5.106   2.579
 6257SOL     OW19669   4.807   2.229   0.309
 6257SOL    HW119670   4.747   2.150   0.326
 6257SOL    HW219671   4.847   2.259   0.395
 6258SOL     OW19672   3.933   0.010   3.706
 6258SOL    HW119673   3.880   0.071   3.647
 6258SOL    HW219674   4.018   7.007   3.659
 6259SOL     OW19675   2.261   2.524   0.896
 6259SOL    HW119676   2.254   2.425   0.886
 6259SOL    HW219677   2.290   2.565   0.810
 6260SOL     OW19678   3.527   5.810   0.500
 6260SOL    HW119679   3.508   5.723   0.546
 6260SOL    HW219680   3.450   5.872   0.515
 6261SOL     OW19681   3.940   0.264   5.957
 6261SOL    HW119682   4.017   0.225   5.907
 6261SOL    HW219683   3.869   0.195   5.969
 6262SOL     OW19684   1.929   5.671   0.652
 6262SOL    HW119685   1.872   5.743   0.691
 6262SOL    HW219686   2.005   5.650   0.714
 6263SOL     OW19687   6.638   0.329   5.552
 6263SOL    HW119688   6.562   0.306   5.613
 6263SOL    HW219689   6.648   0.428   5.547
 6264SOL     OW19690   1.447   6.487   1.990
 6264SOL    HW119691   1.377   6.555   1.967
 6264SOL    HW219692   1.437   6.459   2.085
 6265SOL     OW19693   3.157   3.910   0.680
 6265SOL    HW119694   3.102   3.831   0.652
 6265SOL    HW219695   3.146   3.983   0.613
 6266SOL     OW19696   4.103   0.099   4.510
 6266SOL    HW119697   4.186   0.149   4.534
 6266SOL    HW219698   4.111   0.062   4.418
 6267SOL     OW19699   2.799   0.870   6.696
 6267SOL    HW119700   2.707   0.878   6.734
 6267SOL    HW219701   2.804   0.790   6.637
 6268SOL     OW19702   3.500   6.968   3.496
 6268SOL    HW119703   3.501   0.044   3.507
 6268SOL    HW219704   3.524   6.924   3.583
 6269SOL     OW19705   6.501   5.961   1.695
 6269SOL    HW119706   6.529   6.005   1.610
 6269SOL    HW219707   6.407   5.988   1.717
 6270SOL     OW19708   1.657   0.426   4.667
 6270SOL    HW119709   1.566   0.468   4.668
 6270SOL    HW219710   1.700   0.438   4.757
 6271SOL     OW19711   6.205   2.160   6.347
 6271SOL    HW119712   6.142   2.094   6.389
 6271SOL    HW219713   6.279   2.110   6.301
 6272SOL     OW19714   0.255   2.083   6.974
 6272SOL    HW119715   0.286   2.151   6.908
 6272SOL    HW219716   0.331   2.022   6.997
 6273SOL     OW19717   1.641   6.118   2.808
 6273SOL    HW119718   1.641   6.210   2.848
 6273SOL    HW219719   1.583   6.117   2.726
 6274SOL     OW19720   2.511   5.871   5.919
 6274SOL    HW119721   2.568   5.862   6.001
 6274SOL    HW219722   2.488   5.967   5.905
 6275SOL     OW19723   2.083   6.298   5.558
 6275SOL    HW119724   2.168   6.307   5.505
 6275SOL    HW219725   2.005   6.318   5.499
 6276SOL     OW19726   2.200   4.588   3.218
 6276SOL    HW119727   2.281   4.542   3.253
 6276SOL    HW219728   2.166   4.652   3.287
 6277SOL     OW19729   5.572   3.422   1.615
 6277SOL    HW119730   5.555   3.331   1.655
 6277SOL    HW219731   5.657   3.460   1.652
 6278SOL     OW19732   5.006   6.709   4.277
 6278SOL    HW119733   4.907   6.709   4.287
 6278SOL    HW219734   5.047   6.651   4.348
 6279SOL     OW19735   3.927   0.056   6.547
 6279SOL    HW119736   3.905   0.011   6.633
 6279SOL    HW219737   4.026   0.059   6.535
 6280SOL     OW19738   0.986   2.059   5.202
 6280SOL    HW119739   1.074   2.040   5.159
 6280SOL    HW219740   0.932   1.974   5.207
 6281SOL     OW19741   1.436   5.069   3.263
 6281SOL    HW119742   1.351   5.119   3.279
 6281SOL    HW219743   1.444   4.995   3.330
 6282SOL     OW19744   1.317   6.715   4.750
 6282SOL    HW119745   1.233   6.761   4.721
 6282SOL    HW219746   1.330   6.632   4.695
 6283SOL     OW19747   0.198   2.757   5.558
 6283SOL    HW119748   0.135   2.817   5.608
 6283SOL    HW219749   0.262   2.812   5.505
 6284SOL     OW19750   1.867   5.811   4.867
 6284SOL    HW119751   1.817   5.801   4.953
 6284SOL    HW219752   1.965   5.803   4.885
 6285SOL     OW19753   0.714   3.368   4.355
 6285SOL    HW119754   0.770   3.406   4.282
 6285SOL    HW219755   0.618   3.383   4.335
 6286SOL     OW19756   6.241   2.011   3.520
 6286SOL    HW119757   6.257   1.912   3.511
 6286SOL    HW219758   6.161   2.027   3.577
 6287SOL     OW19759   3.610   5.289   4.127
 6287SOL    HW119760   3.616   5.196   4.092
 6287SOL    HW219761   3.651   5.352   4.061
 6288SOL     OW19762   5.208   4.843   2.594
 6288SOL    HW119763   5.146   4.782   2.545
 6288SOL    HW219764   5.241   4.914   2.532
 6289SOL     OW19765   1.609   4.710   1.775
 6289SOL    HW119766   1.654   4.759   1.700
 6289SOL    HW219767   1.556   4.774   1.830
 6290SOL     OW19768   6.627   4.256   4.103
 6290SOL    HW119769   6.618   4.238   4.201
 6290SOL    HW219770   6.594   4.178   4.051
 6291SOL     OW19771   3.722   2.883   4.877
 6291SOL    HW119772   3.723   2.792   4.836
 6291SOL    HW219773   3.632   2.900   4.918
 6292SOL     OW19774   1.778   2.371   3.987
 6292SOL    HW119775   1.863   2.332   4.023
 6292SOL    HW219776   1.739   2.308   3.919
 6293SOL     OW19777   3.915   0.585   6.940
 6293SOL    HW119778   3.910   0.516   6.868
 6293SOL    HW219779   3.825   0.596   6.982
 6294SOL     OW19780   3.957   4.910   4.815
 6294SOL    HW119781   4.047   4.897   4.856
 6294SOL    HW219782   3.954   4.866   4.725
 6295SOL     OW19783   5.734   5.002   5.611
 6295SOL    HW119784   5.689   4.942   5.677
 6295SOL    HW219785   5.679   5.084   5.599
 6296SOL     OW19786   0.255   6.687   6.264
 6296SOL    HW119787   0.168   6.642   6.285
 6296SOL    HW219788   0.254   6.780   6.302
 6297SOL     OW19789   4.880   6.381   4.341
 6297SOL    HW119790   4.976   6.370   4.314
 6297SOL    HW219791   4.832   6.294   4.331
 6298SOL     OW19792   1.602   2.645   6.464
 6298SOL    HW119793   1.548   2.696   6.530
 6298SOL    HW219794   1.670   2.705   6.423
 6299SOL     OW19795   5.323   1.501   7.003
 6299SOL    HW119796   5.333   1.414   6.955
 6299SOL    HW219797   5.300   1.484   0.075
 6300SOL     OW19798   5.760   0.425   0.381
 6300SOL    HW119799   5.768   0.459   0.475
 6300SOL    HW219800   5.851   0.422   0.339
 6301SOL     OW19801   3.884   0.828   0.395
 6301SOL    HW119802   3.834   0.750   0.357
 6301SOL    HW219803   3.834   0.864   0.474
 6302SOL     OW19804   1.703   0.094   3.454
 6302SOL    HW119805   1.609   0.124   3.470
 6302SOL    HW219806   1.709   0.044   3.368
 6303SOL     OW19807   1.637   1.537   4.179
 6303SOL    HW119808   1.647   1.634   4.158
 6303SOL    HW219809   1.540   1.515   4.188
 6304SOL     OW19810   2.532   1.591   1.063
 6304SOL    HW119811   2.553   1.685   1.037
 6304SOL    HW219812   2.519   1.536   0.981
 6305SOL     OW19813   5.361   6.935   1.684
 6305SOL    HW119814   5.329   6.964   1.774
 6305SOL    HW219815   5.395   7.014   1.634
 6306SOL     OW19816   0.930   3.698   4.059
 6306SOL    HW119817   0.979   3.771   4.011
 6306SOL    HW219818   0.839   3.688   4.019
 6307SOL     OW19819   3.988   4.501   5.618
 6307SOL    HW119820   3.983   4.482   5.716
 6307SOL    HW219821   3.897   4.492   5.577
 6308SOL     OW19822   2.082   2.413   4.711
 6308SOL    HW119823   2.178   2.429   4.686
 6308SOL    HW219824   2.027   2.409   4.627
 6309SOL     OW19825   5.379   4.379   5.076
 6309SOL    HW119826   5.455   4.435   5.111
 6309SOL    HW219827   5.297   4.398   5.129
 6310SOL     OW19828   2.090   5.950   3.289
 6310SOL    HW119829   2.159   5.975   3.357
 6310SOL    HW219830   2.078   6.025   3.224
 6311SOL     OW19831   4.771   0.685   5.652
 6311SOL    HW119832   4.733   0.606   5.700
 6311SOL    HW219833   4.842   0.727   5.708
 6312SOL     OW19834   5.769   5.257   5.263
 6312SOL    HW119835   5.817   5.335   5.302
 6312SOL    HW219836   5.814   5.172   5.293
 6313SOL     OW19837   1.327   6.500   4.568
 6313SOL    HW119838   1.381   6.558   4.508
 6313SOL    HW219839   1.243   6.472   4.521
 6314SOL     OW19840   3.718   6.370   1.731
 6314SOL    HW119841   3.762   6.445   1.780
 6314SOL    HW219842   3.625   6.357   1.765
 6315SOL     OW19843   2.019   2.630   5.777
 6315SOL    HW119844   2.080   2.665   5.706
 6315SOL    HW219845   1.963   2.556   5.740
 6316SOL     OW19846   4.684   1.474   6.725
 6316SOL    HW119847   4.700   1.388   6.676
 6316SOL    HW219848   4.704   1.462   6.822
 6317SOL     OW19849   4.470   5.719   2.954
 6317SOL    HW119850   4.438   5.714   2.859
 6317SOL    HW219851   4.560   5.762   2.957
 6318SOL     OW19852   3.660   1.610   4.563
 6318SOL    HW119853   3.570   1.609   4.605
 6318SOL    HW219854   3.670   1.694   4.509
 6319SOL     OW19855   0.048   1.750   4.068
 6319SOL    HW119856   6.991   1.747   4.128
 6319SOL    HW219857   0.057   1.842   4.029
 6320SOL     OW19858   6.237   5.846   5.174
 6320SOL    HW119859   6.284   5.841   5.086
 6320SOL    HW219860   6.144   5.809   5.164
 6321SOL     OW19861   3.296   3.562   0.869
 6321SOL    HW119862   3.298   3.528   0.964
 6321SOL    HW219863   3.334   3.655   0.866
 6322SOL     OW19864   1.799   2.260   0.431
 6322SOL    HW119865   1.801   2.173   0.479
 6322SOL    HW219866   1.775   2.245   0.335
 6323SOL     OW19867   3.289   2.362   1.298
 6323SOL    HW119868   3.306   2.277   1.250
 6323SOL    HW219869   3.271   2.435   1.232
 6324SOL     OW19870   5.144   0.257   6.594
 6324SOL    HW119871   5.232   0.303   6.580
 6324SOL    HW219872   5.160   0.159   6.603
 6325SOL     OW19873   2.147   1.896   2.400
 6325SOL    HW119874   2.156   1.927   2.494
 6325SOL    HW219875   2.235   1.905   2.353
 6326SOL     OW19876   4.360   5.185   1.868
 6326SOL    HW119877   4.435   5.128   1.837
 6326SOL    HW219878   4.379   5.218   1.961
 6327SOL     OW19879   0.055   6.972   4.761
 6327SOL    HW119880   0.042   6.902   4.691
 6327SOL    HW219881   0.004   6.947   4.843
 6328SOL     OW19882   2.717   3.779   0.887
 6328SOL    HW119883   2.622   3.760   0.864
 6328SOL    HW219884   2.775   3.706   0.851
 6329SOL     OW19885   2.554   2.137   3.530
 6329SOL    HW119886   2.629   2.200   3.550
 6329SOL    HW219887   2.468   2.174   3.563
 6330SOL     OW19888   4.502   1.362   0.895
 6330SOL    HW119889   4.532   1.325   0.982
 6330SOL    HW219890   4.409   1.400   0.904
 6331SOL     OW19891   6.725   2.073   6.694
 6331SOL    HW119892   6.760   1.980   6.691
 6331SOL    HW219893   6.794   2.136   6.660
 6332SOL     OW19894   5.769   3.546   1.770
 6332SOL    HW119895   5.795   3.641   1.759
 6332SOL    HW219896   5.844   3.487   1.740
 6333SOL     OW19897   4.693   5.676   5.146
 6333SOL    HW119898   4.602   5.677   5.187
 6333SOL    HW219899   4.698   5.748   5.076
 6334SOL     OW19900   3.129   0.189   1.590
 6334SOL    HW119901   3.132   0.269   1.530
 6334SOL    HW219902   3.167   0.110   1.541
 6335SOL     OW19903   4.343   1.025   0.315
 6335SOL    HW119904   4.301   0.935   0.319
 6335SOL    HW219905   4.408   1.029   0.239
 6336SOL     OW19906   0.983   1.630   5.824
 6336SOL    HW119907   1.081   1.648   5.837
 6336SOL    HW219908   0.951   1.567   5.895
 6337SOL     OW19909   4.462   4.048   6.538
 6337SOL    HW119910   4.481   3.999   6.624
 6337SOL    HW219911   4.373   4.020   6.503
 6338SOL     OW19912   3.305   1.532   3.896
 6338SOL    HW119913   3.299   1.453   3.834
 6338SOL    HW219914   3.399   1.542   3.928
 6339SOL     OW19915   1.284   3.470   2.452
 6339SOL    HW119916   1.234   3.553   2.428
 6339SOL    HW219917   1.258   3.440   2.544
 6340SOL     OW19918   1.738   4.883   2.358
 6340SOL    HW119919   1.795   4.852   2.282
 6340SOL    HW219920   1.773   4.970   2.393
 6341SOL     OW19921   0.916   4.440   4.221
 6341SOL    HW119922   0.934   4.358   4.166
 6341SOL    HW219923   0.998   4.464   4.273
 6342SOL     OW19924   2.626   1.689   2.079
 6342SOL    HW119925   2.668   1.726   1.996
 6342SOL    HW219926   2.529   1.672   2.062
 6343SOL     OW19927   4.414   2.004   6.279
 6343SOL    HW119928   4.419   1.952   6.364
 6343SOL    HW219929   4.504   2.043   6.258
 6344SOL     OW19930   5.721   3.040   5.589
 6344SOL    HW119931   5.797   3.062   5.527
 6344SOL    HW219932   5.756   2.984   5.664
 6345SOL     OW19933   5.069   2.425   2.350
 6345SOL    HW119934   5.149   2.415   2.410
 6345SOL    HW219935   5.021   2.338   2.344
 6346SOL     OW19936   6.763   4.798   3.904
 6346SOL    HW119937   6.806   4.882   3.938
 6346SOL    HW219938   6.680   4.822   3.853
 6347SOL     OW19939   2.361   0.112   1.105
 6347SOL    HW119940   2.353   0.014   1.090
 6347SOL    HW219941   2.303   0.160   1.039
 6348SOL     OW19942   1.466   4.057   5.042
 6348SOL    HW119943   1.408   4.055   4.960
 6348SOL    HW219944   1.561   4.070   5.015
 6349SOL     OW19945   3.134   0.304   1.054
 6349SOL    HW119946   3.082   0.222   1.079
 6349SOL    HW219947   3.158   0.355   1.137
 6350SOL     OW19948   2.447   4.793   4.244
 6350SOL    HW119949   2.532   4.740   4.242
 6350SOL    HW219950   2.460   4.878   4.192
 6351SOL     OW19951   6.671   3.695   3.233
 6351SOL    HW119952   6.735   3.645   3.291
 6351SOL    HW219953   6.704   3.788   3.219
 6352SOL     OW19954   3.547   5.258   5.055
 6352SOL    HW119955   3.521   5.167   5.022
 6352SOL    HW219956   3.602   5.250   5.137
 6353SOL     OW19957   0.346   0.519   5.707
 6353SOL    HW119958   0.368   0.432   5.663
 6353SOL    HW219959   0.281   0.504   5.781
 6354SOL     OW19960   1.799   5.618   3.437
 6354SOL    HW119961   1.829   5.689   3.499
 6354SOL    HW219962   1.706   5.590   3.460
 6355SOL     OW19963   0.821   5.350   6.532
 6355SOL    HW119964   0.853   5.262   6.566
 6355SOL    HW219965   0.900   5.408   6.511
 6356SOL     OW19966   3.711   5.118   2.464
 6356SOL    HW119967   3.794   5.090   2.512
 6356SOL    HW219968   3.735   5.172   2.384
 6357SOL     OW19969   4.937   3.448   2.264
 6357SOL    HW119970   4.912   3.358   2.229
 6357SOL    HW219971   4.907   3.457   2.359
 6358SOL     OW19972   0.815   2.090   6.509
 6358SOL    HW119973   0.871   2.020   6.553
 6358SOL    HW219974   0.836   2.092   6.411
 6359SOL     OW19975   6.450   6.528   6.306
 6359SOL    HW119976   6.532   6.470   6.307
 6359SOL    HW219977   6.474   6.620   6.335
 6360SOL     OW19978   1.548   4.232   3.895
 6360SOL    HW119979   1.500   4.316   3.920
 6360SOL    HW219980   1.603   4.201   3.972
 6361SOL     OW19981   6.082   6.737   0.712
 6361SOL    HW119982   6.058   6.643   0.734
 6361SOL    HW219983   6.000   6.786   0.680
 6362SOL     OW19984   0.883   6.208   0.814
 6362SOL    HW119985   0.889   6.210   0.914
 6362SOL    HW219986   0.925   6.124   0.780
 6363SOL     OW19987   2.243   4.543   3.581
 6363SOL    HW119988   2.236   4.447   3.555
 6363SOL    HW219989   2.339   4.571   3.582
 6364SOL     OW19990   3.063   1.228   5.930
 6364SOL    HW119991   3.153   1.273   5.933
 6364SOL    HW219992   3.074   1.135   5.895
 6365SOL     OW19993   5.669   0.406   4.199
 6365SOL    HW119994   5.582   0.454   4.186
 6365SOL    HW219995   5.657   0.337   4.270
 6366SOL     OW19996   0.930   5.859   6.336
 6366SOL    HW119997   0.986   5.880   6.256
 6366SOL    HW219998   0.889   5.943   6.371
 6367SOL     OW19999   4.136   0.224   4.908
 6367SOL    HW120000   4.150   0.125   4.897
 6367SOL    HW220001   4.197   0.273   4.845
 6368SOL     OW20002   3.414   4.889   3.973
 6368SOL    HW120003   3.338   4.883   4.038
 6368SOL    HW220004   3.379   4.877   3.880
 6369SOL     OW20005   1.565   4.878   3.723
 6369SOL    HW120006   1.552   4.902   3.819
 6369SOL    HW220007   1.660   4.851   3.707
 6370SOL     OW20008   0.253   3.146   2.885
 6370SOL    HW120009   0.351   3.162   2.891
 6370SOL    HW220010   0.204   3.232   2.904
 6371SOL     OW20011   5.183   3.769   4.143
 6371SOL    HW120012   5.144   3.677   4.144
 6371SOL    HW220013   5.194   3.800   4.049
 6372SOL     OW20014   2.774   0.516   1.948
 6372SOL    HW120015   2.743   0.435   1.898
 6372SOL    HW220016   2.846   0.562   1.895
 6373SOL     OW20017   5.336   4.315   3.161
 6373SOL    HW120018   5.259   4.375   3.182
 6373SOL    HW220019   5.332   4.234   3.219
 6374SOL     OW20020   3.169   3.973   4.632
 6374SOL    HW120021   3.074   3.989   4.658
 6374SOL    HW220022   3.230   4.013   4.700
 6375SOL     OW20023   6.632   1.681   3.751
 6375SOL    HW120024   6.706   1.748   3.743
 6375SOL    HW220025   6.544   1.728   3.745
 6376SOL     OW20026   5.995   2.683   5.291
 6376SOL    HW120027   5.909   2.732   5.289
 6376SOL    HW220028   6.060   2.725   5.227
 6377SOL     OW20029   6.051   1.852   5.475
 6377SOL    HW120030   6.091   1.762   5.459
 6377SOL    HW220031   5.957   1.854   5.441
 6378SOL     OW20032   4.723   5.593   4.030
 6378SOL    HW120033   4.781   5.533   4.085
 6378SOL    HW220034   4.627   5.577   4.054
 6379SOL     OW20035   2.044   4.133   4.413
 6379SOL    HW120036   2.092   4.062   4.362
 6379SOL    HW220037   2.108   4.179   4.474
 6380SOL     OW20038   0.339   1.755   6.279
 6380SOL    HW120039   0.438   1.748   6.282
 6380SOL    HW220040   0.309   1.836   6.329
 6381SOL     OW20041   3.979   3.109   1.994
 6381SOL    HW120042   3.986   3.032   1.931
 6381SOL    HW220043   4.054   3.173   1.977
 6382SOL     OW20044   1.036   1.948   0.774
 6382SOL    HW120045   1.106   2.015   0.748
 6382SOL    HW220046   1.081   1.869   0.817
 6383SOL     OW20047   1.726   2.105   3.096
 6383SOL    HW120048   1.661   2.125   3.023
 6383SOL    HW220049   1.743   2.007   3.099
 6384SOL     OW20050   5.420   4.044   1.316
 6384SOL    HW120051   5.508   4.072   1.353
 6384SOL    HW220052   5.380   4.119   1.263
 6385SOL     OW20053   6.947   4.790   3.648
 6385SOL    HW120054   0.019   4.819   3.647
 6385SOL    HW220055   6.902   4.826   3.730
 6386SOL     OW20056   2.667   4.113   6.443
 6386SOL    HW120057   2.597   4.042   6.453
 6386SOL    HW220058   2.625   4.196   6.407
 6387SOL     OW20059   0.583   1.930   6.520
 6387SOL    HW120060   0.638   2.000   6.473
 6387SOL    HW220061   0.487   1.955   6.516
 6388SOL     OW20062   4.356   4.969   1.047
 6388SOL    HW120063   4.317   4.948   1.137
 6388SOL    HW220064   4.282   4.995   0.984
 6389SOL     OW20065   1.035   5.970   2.358
 6389SOL    HW120066   1.127   6.004   2.337
 6389SOL    HW220067   1.011   5.897   2.295
 6390SOL     OW20068   0.654   2.177   5.185
 6390SOL    HW120069   0.667   2.161   5.088
 6390SOL    HW220070   0.574   2.125   5.217
 6391SOL     OW20071   2.511   6.673   5.620
 6391SOL    HW120072   2.539   6.747   5.682
 6391SOL    HW220073   2.496   6.710   5.528
 6392SOL     OW20074   2.269   6.891   3.102
 6392SOL    HW120075   2.221   6.810   3.068
 6392SOL    HW220076   2.261   6.895   3.201
 6393SOL     OW20077   6.510   0.012   1.513
 6393SOL    HW120078   6.577   0.029   1.441
 6393SOL    HW220079   6.535   0.063   1.595
 6394SOL     OW20080   2.330   4.432   0.849
 6394SOL    HW120081   2.347   4.402   0.942
 6394SOL    HW220082   2.371   4.522   0.835
 6395SOL     OW20083   6.283   2.681   1.857
 6395SOL    HW120084   6.287   2.732   1.771
 6395SOL    HW220085   6.195   2.636   1.865
 6396SOL     OW20086   5.537   3.314   6.513
 6396SOL    HW120087   5.580   3.225   6.498
 6396SOL    HW220088   5.595   3.386   6.474
 6397SOL     OW20089   5.201   2.599   6.675
 6397SOL    HW120090   5.106   2.628   6.691
 6397SOL    HW220091   5.229   2.535   6.747
 6398SOL     OW20092   3.105   0.937   0.251
 6398SOL    HW120093   3.133   0.955   0.346
 6398SOL    HW220094   3.159   0.861   0.215
 6399SOL     OW20095   1.518   5.689   0.057
 6399SOL    HW120096   1.520   5.788   0.069
 6399SOL    HW220097   1.471   5.667   6.995
 6400SOL     OW20098   2.258   6.466   2.269
 6400SOL    HW120099   2.220   6.548   2.312
 6400SOL    HW220100   2.279   6.486   2.173
 6401SOL     OW20101   0.490   4.699   3.696
 6401SOL    HW120102   0.424   4.745   3.756
 6401SOL    HW220103   0.481   4.735   3.603
 6402SOL     OW20104   4.142   1.752   2.667
 6402SOL    HW120105   4.158   1.772   2.763
 6402SOL    HW220106   4.200   1.675   2.639
 6403SOL     OW20107   6.876   6.278   6.141
 6403SOL    HW120108   6.865   6.326   6.054
 6403SOL    HW220109   6.954   6.217   6.136
 6404SOL     OW20110   3.837   1.363   2.641
 6404SOL    HW120111   3.802   1.271   2.657
 6404SOL    HW220112   3.935   1.358   2.622
 6405SOL     OW20113   2.639   0.242   3.707
 6405SOL    HW120114   2.736   0.257   3.724
 6405SOL    HW220115   2.623   0.235   3.608
 6406SOL     OW20116   1.079   2.357   3.520
 6406SOL    HW120117   1.016   2.352   3.442
 6406SOL    HW220118   1.040   2.309   3.598
 6407SOL     OW20119   2.946   6.494   4.185
 6407SOL    HW120120   2.956   6.592   4.200
 6407SOL    HW220121   2.854   6.476   4.149
 6408SOL     OW20122   5.848   1.949   0.159
 6408SOL    HW120123   5.824   1.953   0.256
 6408SOL    HW220124   5.769   1.978   0.105
 6409SOL     OW20125   0.154   4.302   3.036
 6409SOL    HW120126   0.239   4.328   3.081
 6409SOL    HW220127   0.090   4.265   3.104
 6410SOL     OW20128   1.904   1.660   0.539
 6410SOL    HW120129   1.815   1.617   0.551
 6410SOL    HW220130   1.898   1.733   0.472
 6411SOL     OW20131   0.503   2.830   3.252
 6411SOL    HW120132   0.498   2.788   3.343
 6411SOL    HW220133   0.416   2.876   3.233
 6412SOL     OW20134   0.235   2.066   5.320
 6412SOL    HW120135   0.227   2.060   5.419
 6412SOL    HW220136   0.199   2.154   5.289
 6413SOL     OW20137   4.000   4.758   3.846
 6413SOL    HW120138   4.093   4.723   3.834
 6413SOL    HW220139   3.938   4.682   3.866
 6414SOL     OW20140   5.887   1.038   0.844
 6414SOL    HW120141   5.794   1.049   0.878
 6414SOL    HW220142   5.947   1.010   0.920
 6415SOL     OW20143   1.871   2.688   3.166
 6415SOL    HW120144   1.849   2.783   3.140
 6415SOL    HW220145   1.808   2.658   3.237
 6416SOL     OW20146   0.963   1.261   6.525
 6416SOL    HW120147   0.871   1.291   6.550
 6416SOL    HW220148   0.962   1.230   6.429
 6417SOL     OW20149   6.935   5.077   2.134
 6417SOL    HW120150   6.863   5.067   2.065
 6417SOL    HW220151   6.909   5.148   2.200
 6418SOL     OW20152   5.056   4.732   2.122
 6418SOL    HW120153   4.970   4.701   2.079
 6418SOL    HW220154   5.128   4.665   2.103
 6419SOL     OW20155   2.691   4.783   2.699
 6419SOL    HW120156   2.605   4.733   2.710
 6419SOL    HW220157   2.681   4.852   2.628
 6420SOL     OW20158   3.129   3.897   5.340
 6420SOL    HW120159   3.078   3.904   5.426
 6420SOL    HW220160   3.174   3.808   5.336
 6421SOL     OW20161   5.692   0.903   2.555
 6421SOL    HW120162   5.741   0.958   2.622
 6421SOL    HW220163   5.715   0.933   2.463
 6422SOL     OW20164   0.429   0.479   3.588
 6422SOL    HW120165   0.492   0.411   3.550
 6422SOL    HW220166   0.348   0.432   3.624
 6423SOL     OW20167   5.091   5.195   2.598
 6423SOL    HW120168   5.104   5.201   2.697
 6423SOL    HW220169   5.069   5.101   2.573
 6424SOL     OW20170   6.748   5.918   5.962
 6424SOL    HW120171   6.771   5.926   6.059
 6424SOL    HW220172   6.698   5.833   5.947
 6425SOL     OW20173   6.293   5.594   3.059
 6425SOL    HW120174   6.280   5.618   2.962
 6425SOL    HW220175   6.352   5.514   3.066
 6426SOL     OW20176   0.674   4.624   3.018
 6426SOL    HW120177   0.608   4.639   3.091
 6426SOL    HW220178   0.625   4.608   2.932
 6427SOL     OW20179   2.870   2.828   5.830
 6427SOL    HW120180   2.778   2.862   5.810
 6427SOL    HW220181   2.864   2.740   5.876
 6428SOL     OW20182   6.069   3.032   6.766
 6428SOL    HW120183   6.041   3.099   6.835
 6428SOL    HW220184   6.128   2.964   6.808
 6429SOL     OW20185   1.544   1.734   5.734
 6429SOL    HW120186   1.547   1.685   5.647
 6429SOL    HW220187   1.451   1.731   5.770
 6430SOL     OW20188   5.751   1.066   1.995
 6430SOL    HW120189   5.807   1.148   1.985
 6430SOL    HW220190   5.709   1.044   1.907
 6431SOL     OW20191   5.106   6.359   3.520
 6431SOL    HW120192   5.044   6.308   3.580
 6431SOL    HW220193   5.151   6.432   3.571
 6432SOL     OW20194   3.749   3.764   6.437
 6432SOL    HW120195   3.708   3.835   6.495
 6432SOL    HW220196   3.742   3.792   6.341
 6433SOL     OW20197   3.234   4.379   0.786
 6433SOL    HW120198   3.316   4.354   0.839
 6433SOL    HW220199   3.255   4.456   0.726
 6434SOL     OW20200   1.556   3.777   7.016
 6434SOL    HW120201   1.476   3.718   7.010
 6434SOL    HW220202   1.633   3.734   6.970
 6435SOL     OW20203   4.361   6.530   0.026
 6435SOL    HW120204   4.424   6.502   0.098
 6435SOL    HW220205   4.343   6.452   6.989
 6436SOL     OW20206   2.143   3.560   3.434
 6436SOL    HW120207   2.164   3.574   3.337
 6436SOL    HW220208   2.194   3.626   3.489
 6437SOL     OW20209   2.544   1.383   0.858
 6437SOL    HW120210   2.632   1.376   0.811
 6437SOL    HW220211   2.545   1.323   0.938
 6438SOL     OW20212   0.492   4.044   6.501
 6438SOL    HW120213   0.497   4.121   6.437
 6438SOL    HW220214   0.399   4.008   6.503
 6439SOL     OW20215   5.653   1.209   1.338
 6439SOL    HW120216   5.606   1.181   1.421
 6439SOL    HW220217   5.605   1.286   1.296
 6440SOL     OW20218   2.315   1.914   0.167
 6440SOL    HW120219   2.352   1.905   0.075
 6440SOL    HW220220   2.382   1.959   0.226
 6441SOL     OW20221   1.277   6.144   2.257
 6441SOL    HW120222   1.331   6.063   2.278
 6441SOL    HW220223   1.261   6.149   2.158
 6442SOL     OW20224   2.790   0.914   4.110
 6442SOL    HW120225   2.727   0.986   4.141
 6442SOL    HW220226   2.852   0.890   4.184
 6443SOL     OW20227   4.112   2.587   5.900
 6443SOL    HW120228   4.074   2.552   5.814
 6443SOL    HW220229   4.204   2.623   5.884
 6444SOL     OW20230   6.985   2.586   3.636
 6444SOL    HW120231   0.044   2.529   3.631
 6444SOL    HW220232   6.990   2.643   3.718
 6445SOL     OW20233   5.015   3.245   5.833
 6445SOL    HW120234   5.005   3.282   5.925
 6445SOL    HW220235   4.925   3.224   5.795
 6446SOL     OW20236   1.276   0.709   5.872
 6446SOL    HW120237   1.270   0.729   5.775
 6446SOL    HW220238   1.199   0.753   5.920
 6447SOL     OW20239   0.560   5.117   2.674
 6447SOL    HW120240   0.637   5.176   2.650
 6447SOL    HW220241   0.475   5.169   2.668
 6448SOL     OW20242   4.936   5.636   2.887
 6448SOL    HW120243   4.997   5.663   2.813
 6448SOL    HW220244   4.982   5.568   2.945
 6449SOL     OW20245   3.158   4.896   0.761
 6449SOL    HW120246   3.184   4.965   0.694
 6449SOL    HW220247   3.141   4.939   0.849
 6450SOL     OW20248   0.316   3.602   1.506
 6450SOL    HW120249   0.370   3.675   1.462
 6450SOL    HW220250   0.373   3.520   1.515
 6451SOL     OW20251   2.377   6.913   5.052
 6451SOL    HW120252   2.475   6.926   5.065
 6451SOL    HW220253   2.361   6.866   4.965
 6452SOL     OW20254   3.455   6.890   4.630
 6452SOL    HW120255   3.469   6.805   4.579
 6452SOL    HW220256   3.364   6.926   4.611
 6453SOL     OW20257   1.575   6.723   0.815
 6453SOL    HW120258   1.652   6.670   0.779
 6453SOL    HW220259   1.607   6.781   0.890
 6454SOL     OW20260   2.613   1.741   3.289
 6454SOL    HW120261   2.670   1.777   3.362
 6454SOL    HW220262   2.523   1.715   3.326
 6455SOL     OW20263   0.363   2.163   4.074
 6455SOL    HW120264   0.442   2.218   4.047
 6455SOL    HW220265   0.340   2.182   4.170
 6456SOL     OW20266   1.767   0.691   3.377
 6456SOL    HW120267   1.737   0.712   3.470
 6456SOL    HW220268   1.799   0.596   3.373
 6457SOL     OW20269   4.773   1.788   0.326
 6457SOL    HW120270   4.837   1.854   0.285
 6457SOL    HW220271   4.769   1.803   0.425
 6458SOL     OW20272   0.787   0.076   3.602
 6458SOL    HW120273   0.874   0.046   3.640
 6458SOL    HW220274   0.764   0.022   3.522
 6459SOL     OW20275   5.615   5.313   0.474
 6459SOL    HW120276   5.600   5.296   0.377
 6459SOL    HW220277   5.567   5.244   0.528
 6460SOL     OW20278   4.975   5.545   5.964
 6460SOL    HW120279   4.964   5.640   5.934
 6460SOL    HW220280   4.922   5.485   5.905
 6461SOL     OW20281   2.710   4.473   5.345
 6461SOL    HW120282   2.617   4.509   5.335
 6461SOL    HW220283   2.769   4.513   5.275
 6462SOL     OW20284   2.254   2.756   4.936
 6462SOL    HW120285   2.280   2.850   4.954
 6462SOL    HW220286   2.319   2.694   4.980
 6463SOL     OW20287   6.953   3.936   6.596
 6463SOL    HW120288   6.983   3.900   6.684
 6463SOL    HW220289   6.916   3.862   6.540
 6464SOL     OW20290   1.441   4.965   4.494
 6464SOL    HW120291   1.539   4.946   4.499
 6464SOL    HW220292   1.396   4.933   4.577
 6465SOL     OW20293   6.714   2.524   3.193
 6465SOL    HW120294   6.717   2.533   3.292
 6465SOL    HW220295   6.724   2.614   3.151
 6466SOL     OW20296   1.009   1.606   6.692
 6466SOL    HW120297   1.037   1.568   6.603
 6466SOL    HW220298   1.015   1.535   6.762
 6467SOL     OW20299   3.351   0.581   6.721
 6467SOL    HW120300   3.371   0.679   6.716
 6467SOL    HW220301   3.259   0.564   6.685
 6468SOL     OW20302   4.035   6.867   1.674
 6468SOL    HW120303   3.999   6.950   1.717
 6468SOL    HW220304   4.129   6.883   1.644
 6469SOL     OW20305   4.398   0.569   5.179
 6469SOL    HW120306   4.488   0.576   5.137
 6469SOL    HW220307   4.363   0.661   5.199
 6470SOL     OW20308   6.292   4.751   6.644
 6470SOL    HW120309   6.247   4.817   6.704
 6470SOL    HW220310   6.316   4.795   6.558
 6471SOL     OW20311   6.462   5.949   5.412
 6471SOL    HW120312   6.409   6.017   5.462
 6471SOL    HW220313   6.507   5.993   5.334
 6472SOL     OW20314   0.447   4.691   1.110
 6472SOL    HW120315   0.415   4.611   1.060
 6472SOL    HW220316   0.480   4.760   1.045
 6473SOL     OW20317   2.801   1.732   4.160
 6473SOL    HW120318   2.897   1.730   4.134
 6473SOL    HW220319   2.754   1.806   4.110
 6474SOL     OW20320   1.952   4.078   6.202
 6474SOL    HW120321   1.914   4.126   6.124
 6474SOL    HW220322   1.907   4.109   6.286
 6475SOL     OW20323   6.788   5.122   4.198
 6475SOL    HW120324   6.837   5.203   4.230
 6475SOL    HW220325   6.705   5.150   4.150
 6476SOL     OW20326   4.579   2.962   1.011
 6476SOL    HW120327   4.510   3.021   0.968
 6476SOL    HW220328   4.620   3.011   1.088
 6477SOL     OW20329   6.388   4.650   1.008
 6477SOL    HW120330   6.369   4.560   1.046
 6477SOL    HW220331   6.485   4.656   0.984
 6478SOL     OW20332   3.524   6.507   2.051
 6478SOL    HW120333   3.600   6.452   2.085
 6478SOL    HW220334   3.505   6.581   2.115
 6479SOL     OW20335   3.939   6.334   3.939
 6479SOL    HW120336   3.952   6.414   3.881
 6479SOL    HW220337   4.028   6.294   3.962
 6480SOL     OW20338   3.311   2.254   5.730
 6480SOL    HW120339   3.244   2.308   5.782
 6480SOL    HW220340   3.275   2.234   5.639
 6481SOL     OW20341   3.649   2.046   2.217
 6481SOL    HW120342   3.689   2.061   2.307
 6481SOL    HW220343   3.656   2.130   2.163
 6482SOL     OW20344   0.416   0.220   5.955
 6482SOL    HW120345   0.505   0.266   5.950
 6482SOL    HW220346   0.353   0.263   5.891
 6483SOL     OW20347   1.285   5.936   1.380
 6483SOL    HW120348   1.255   5.841   1.379
 6483SOL    HW220349   1.307   5.965   1.287
 6484SOL     OW20350   3.466   0.290   1.555
 6484SOL    HW120351   3.419   0.366   1.601
 6484SOL    HW220352   3.550   0.269   1.604
 6485SOL     OW20353   1.934   4.267   3.261
 6485SOL    HW120354   1.839   4.242   3.242
 6485SOL    HW220355   1.978   4.298   3.177
 6486SOL     OW20356   2.047   4.589   4.681
 6486SOL    HW120357   2.115   4.542   4.737
 6486SOL    HW220358   2.087   4.674   4.646
 6487SOL     OW20359   0.022   5.975   5.406
 6487SOL    HW120360   6.953   5.939   5.416
 6487SOL    HW220361   0.087   5.915   5.452
 6488SOL     OW20362   3.408   6.064   5.571
 6488SOL    HW120363   3.458   6.097   5.651
 6488SOL    HW220364   3.345   6.135   5.540
 6489SOL     OW20365   2.621   3.037   6.818
 6489SOL    HW120366   2.562   2.962   6.788
 6489SOL    HW220367   2.705   2.999   6.858
 6490SOL     OW20368   4.235   1.863   6.119
 6490SOL    HW120369   4.281   1.835   6.035
 6490SOL    HW220370   4.297   1.919   6.174
 6491SOL     OW20371   4.126   1.077   6.698
 6491SOL    HW120372   4.032   1.093   6.669
 6491SOL    HW220373   4.189   1.107   6.626
 6492SOL     OW20374   5.639   5.830   0.087
 6492SOL    HW120375   5.664   5.746   0.135
 6492SOL    HW220376   5.707   5.851   0.018
 6493SOL     OW20377   0.942   5.648   4.870
 6493SOL    HW120378   0.988   5.683   4.952
 6493SOL    HW220379   1.000   5.578   4.828
 6494SOL     OW20380   0.548   0.876   3.278
 6494SOL    HW120381   0.506   0.957   3.320
 6494SOL    HW220382   0.517   0.794   3.327
 6495SOL     OW20383   5.127   6.068   4.485
 6495SOL    HW120384   5.042   6.118   4.501
 6495SOL    HW220385   5.165   6.038   4.573
 6496SOL     OW20386   7.000   7.008   2.321
 6496SOL    HW120387   7.014   0.050   2.246
 6496SOL    HW220388   0.060   7.004   2.376
 6497SOL     OW20389   2.647   2.972   0.468
 6497SOL    HW120390   2.673   2.985   0.373
 6497SOL    HW220391   2.656   3.059   0.517
 6498SOL     OW20392   2.279   4.080   4.203
 6498SOL    HW120393   2.309   4.175   4.210
 6498SOL    HW220394   2.235   4.066   4.115
 6499SOL     OW20395   5.364   2.217   4.642
 6499SOL    HW120396   5.292   2.265   4.692
 6499SOL    HW220397   5.358   2.238   4.545
 6500SOL     OW20398   0.142   4.495   3.569
 6500SOL    HW120399   0.107   4.576   3.521
 6500SOL    HW220400   0.071   4.424   3.570
 6501SOL     OW20401   6.481   2.804   6.795
 6501SOL    HW120402   6.552   2.868   6.766
 6501SOL    HW220403   6.485   2.721   6.739
 6502SOL     OW20404   6.062   3.678   1.535
 6502SOL    HW120405   6.014   3.763   1.559
 6502SOL    HW220406   6.161   3.693   1.540
 6503SOL     OW20407   4.741   1.162   3.623
 6503SOL    HW120408   4.828   1.128   3.587
 6503SOL    HW220409   4.678   1.180   3.547
 6504SOL     OW20410   5.006   6.286   6.052
 6504SOL    HW120411   4.907   6.297   6.047
 6504SOL    HW220412   5.039   6.320   6.140
 6505SOL     OW20413   5.222   5.296   1.758
 6505SOL    HW120414   5.243   5.288   1.856
 6505SOL    HW220415   5.124   5.280   1.744
 6506SOL     OW20416   6.002   3.432   1.673
 6506SOL    HW120417   6.075   3.407   1.736
 6506SOL    HW220418   6.036   3.499   1.607
 6507SOL     OW20419   2.093   5.099   5.944
 6507SOL    HW120420   2.053   5.032   6.007
 6507SOL    HW220421   2.119   5.052   5.859
 6508SOL     OW20422   2.366   0.418   3.150
 6508SOL    HW120423   2.344   0.331   3.107
 6508SOL    HW220424   2.464   0.436   3.141
 6509SOL     OW20425   3.186   1.738   4.516
 6509SOL    HW120426   3.159   1.834   4.509
 6509SOL    HW220427   3.112   1.679   4.482
 6510SOL     OW20428   6.292   4.149   6.994
 6510SOL    HW120429   6.367   4.134   6.929
 6510SOL    HW220430   6.208   4.169   6.944
 6511SOL     OW20431   4.787   0.840   4.489
 6511SOL    HW120432   4.886   0.848   4.492
 6511SOL    HW220433   4.748   0.868   4.577
 6512SOL     OW20434   4.910   6.841   2.102
 6512SOL    HW120435   4.923   6.891   2.016
 6512SOL    HW220436   4.967   6.882   2.173
 6513SOL     OW20437   3.326   4.968   3.052
 6513SOL    HW120438   3.418   5.008   3.045
 6513SOL    HW220439   3.264   5.018   2.991
 6514SOL     OW20440   5.571   0.991   3.838
 6514SOL    HW120441   5.553   0.968   3.933
 6514SOL    HW220442   5.569   0.907   3.783
 6515SOL     OW20443   0.732   4.960   4.185
 6515SOL    HW120444   0.812   5.012   4.155
 6515SOL    HW220445   0.760   4.869   4.216
 6516SOL     OW20446   0.190   3.329   1.871
 6516SOL    HW120447   0.134   3.289   1.944
 6516SOL    HW220448   0.173   3.280   1.786
 6517SOL     OW20449   6.615   0.809   0.267
 6517SOL    HW120450   6.599   0.710   0.272
 6517SOL    HW220451   6.704   0.830   0.308
 6518SOL     OW20452   6.728   0.494   0.070
 6518SOL    HW120453   6.774   0.412   0.105
 6518SOL    HW220454   6.651   0.516   0.130
 6519SOL     OW20455   2.602   1.917   3.764
 6519SOL    HW120456   2.525   1.856   3.750
 6519SOL    HW220457   2.607   1.984   3.690
 6520SOL     OW20458   5.569   5.495   2.063
 6520SOL    HW120459   5.662   5.459   2.075
 6520SOL    HW220460   5.506   5.442   2.120
 6521SOL     OW20461   1.709   2.366   4.404
 6521SOL    HW120462   1.759   2.451   4.420
 6521SOL    HW220463   1.649   2.378   4.325
 6522SOL     OW20464   3.504   4.488   6.944
 6522SOL    HW120465   3.420   4.455   6.900
 6522SOL    HW220466   3.529   4.577   6.906
 6523SOL     OW20467   3.553   0.452   6.580
 6523SOL    HW120468   3.484   0.448   6.507
 6523SOL    HW220469   3.510   0.483   6.665
 6524SOL     OW20470   2.797   3.554   1.971
 6524SOL    HW120471   2.707   3.597   1.975
 6524SOL    HW220472   2.819   3.529   1.877
 6525SOL     OW20473   1.468   3.787   3.258
 6525SOL    HW120474   1.553   3.820   3.219
 6525SOL    HW220475   1.480   3.771   3.356
 6526SOL     OW20476   2.210   0.341   6.381
 6526SOL    HW120477   2.280   0.407   6.408
 6526SOL    HW220478   2.218   0.321   6.283
 6527SOL     OW20479   1.110   2.318   4.702
 6527SOL    HW120480   1.124   2.362   4.791
 6527SOL    HW220481   1.175   2.356   4.636
 6528SOL     OW20482   0.219   1.282   3.964
 6528SOL    HW120483   0.225   1.322   4.056
 6528SOL    HW220484   0.295   1.218   3.950
 6529SOL     OW20485   0.255   1.553   3.092
 6529SOL    HW120486   0.306   1.591   3.169
 6529SOL    HW220487   0.157   1.555   3.112
 6530SOL     OW20488   6.588   3.791   2.149
 6530SOL    HW120489   6.637   3.766   2.066
 6530SOL    HW220490   6.645   3.773   2.229
 6531SOL     OW20491   5.475   3.508   4.702
 6531SOL    HW120492   5.449   3.431   4.644
 6531SOL    HW220493   5.482   3.477   4.797
 6532SOL     OW20494   6.149   0.077   6.888
 6532SOL    HW120495   6.110   0.115   6.972
 6532SOL    HW220496   6.084   0.012   6.848
 6533SOL     OW20497   4.727   6.014   0.791
 6533SOL    HW120498   4.771   5.986   0.706
 6533SOL    HW220499   4.691   5.934   0.839
 6534SOL     OW20500   3.524   4.294   1.251
 6534SOL    HW120501   3.478   4.228   1.310
 6534SOL    HW220502   3.620   4.268   1.241
 6535SOL     OW20503   6.331   3.076   4.068
 6535SOL    HW120504   6.380   2.999   4.028
 6535SOL    HW220505   6.250   3.043   4.116
 6536SOL     OW20506   0.702   2.276   5.761
 6536SOL    HW120507   0.616   2.225   5.754
 6536SOL    HW220508   0.753   2.245   5.841
 6537SOL     OW20509   5.949   5.479   6.937
 6537SOL    HW120510   5.878   5.470   6.867
 6537SOL    HW220511   5.923   5.427   7.018
 6538SOL     OW20512   3.249   4.456   6.816
 6538SOL    HW120513   3.228   4.365   6.778
 6538SOL    HW220514   3.202   4.526   6.763
 6539SOL     OW20515   3.509   0.528   6.088
 6539SOL    HW120516   3.429   0.573   6.048
 6539SOL    HW220517   3.510   0.431   6.062
 6540SOL     OW20518   5.323   1.380   5.198
 6540SOL    HW120519   5.422   1.389   5.193
 6540SOL    HW220520   5.281   1.471   5.196
 6541SOL     OW20521   3.598   1.560   5.070
 6541SOL    HW120522   3.523   1.577   5.134
 6541SOL    HW220523   3.581   1.611   4.985
 6542SOL     OW20524   7.017   4.254   3.656
 6542SOL    HW120525   6.944   4.295   3.710
 6542SOL    HW220526   6.980   4.222   3.569
 6543SOL     OW20527   6.264   3.751   6.464
 6543SOL    HW120528   6.204   3.738   6.543
 6543SOL    HW220529   6.336   3.681   6.465
 6544SOL     OW20530   0.155   6.229   2.873
 6544SOL    HW120531   0.242   6.229   2.922
 6544SOL    HW220532   0.082   6.264   2.932
 6545SOL     OW20533   5.710   2.240   6.478
 6545SOL    HW120534   5.640   2.246   6.407
 6545SOL    HW220535   5.739   2.333   6.504
 6546SOL     OW20536   3.892   3.894   6.917
 6546SOL    HW120537   3.974   3.919   6.865
 6546SOL    HW220538   3.842   3.977   6.941
 6547SOL     OW20539   4.657   1.514   5.573
 6547SOL    HW120540   4.639   1.415   5.569
 6547SOL    HW220541   4.576   1.563   5.541
 6548SOL     OW20542   1.028   3.243   0.509
 6548SOL    HW120543   0.995   3.164   0.457
 6548SOL    HW220544   0.979   3.247   0.597
 6549SOL     OW20545   4.159   1.660   0.908
 6549SOL    HW120546   4.174   1.730   0.838
 6549SOL    HW220547   4.191   1.572   0.873
 6550SOL     OW20548   0.666   6.714   3.837
 6550SOL    HW120549   0.732   6.640   3.856
 6550SOL    HW220550   0.602   6.722   3.913
 6551SOL     OW20551   1.978   4.519   2.096
 6551SOL    HW120552   2.012   4.529   2.003
 6551SOL    HW220553   2.020   4.438   2.138
 6552SOL     OW20554   2.389   0.230   5.406
 6552SOL    HW120555   2.351   0.146   5.368
 6552SOL    HW220556   2.486   0.238   5.380
 6553SOL     OW20557   0.884   1.473   2.866
 6553SOL    HW120558   0.971   1.432   2.839
 6553SOL    HW220559   0.810   1.432   2.812
 6554SOL     OW20560   6.093   1.025   5.678
 6554SOL    HW120561   6.170   1.010   5.740
 6554SOL    HW220562   6.022   1.077   5.725
 6555SOL     OW20563   0.419   2.405   1.904
 6555SOL    HW120564   0.457   2.399   1.996
 6555SOL    HW220565   0.327   2.364   1.903
 6556SOL     OW20566   4.635   4.633   5.236
 6556SOL    HW120567   4.727   4.598   5.254
 6556SOL    HW220568   4.641   4.731   5.218
 6557SOL     OW20569   3.658   5.513   1.583
 6557SOL    HW120570   3.675   5.504   1.681
 6557SOL    HW220571   3.716   5.586   1.546
 6558SOL     OW20572   6.581   5.101   0.197
 6558SOL    HW120573   6.512   5.033   0.221
 6558SOL    HW220574   6.543   5.193   0.210
 6559SOL     OW20575   6.125   4.194   6.720
 6559SOL    HW120576   6.068   4.135   6.663
 6559SOL    HW220577   6.196   4.237   6.663
 6560SOL     OW20578   4.023   4.075   1.526
 6560SOL    HW120579   4.031   4.173   1.506
 6560SOL    HW220580   3.994   4.027   1.443
 6561SOL     OW20581   3.660   4.065   2.451
 6561SOL    HW120582   3.642   4.113   2.365
 6561SOL    HW220583   3.581   4.074   2.512
 6562SOL     OW20584   5.821   4.720   0.007
 6562SOL    HW120585   5.728   4.690   7.015
 6562SOL    HW220586   5.852   4.687   0.096
 6563SOL     OW20587   0.141   6.134   0.204
 6563SOL    HW120588   0.230   6.166   0.171
 6563SOL    HW220589   0.101   6.202   0.265
 6564SOL     OW20590   6.927   4.156   2.346
 6564SOL    HW120591   6.895   4.062   2.337
 6564SOL    HW220592   6.933   4.181   2.443
 6565SOL     OW20593   6.647   2.367   4.266
 6565SOL    HW120594   6.689   2.326   4.185
 6565SOL    HW220595   6.644   2.301   4.340
 6566SOL     OW20596   2.622   6.124   2.154
 6566SOL    HW120597   2.593   6.181   2.078
 6566SOL    HW220598   2.548   6.062   2.180
 6567SOL     OW20599   4.005   2.702   1.341
 6567SOL    HW120600   3.959   2.761   1.275
 6567SOL    HW220601   3.952   2.619   1.355
 6568SOL     OW20602   4.761   6.680   3.066
 6568SOL    HW120603   4.677   6.732   3.051
 6568SOL    HW220604   4.760   6.598   3.009
 6569SOL     OW20605   2.960   3.990   0.415
 6569SOL    HW120606   3.009   4.061   0.465
 6569SOL    HW220607   2.995   3.986   0.321
 6570SOL     OW20608   4.168   6.463   2.031
 6570SOL    HW120609   4.149   6.547   1.979
 6570SOL    HW220610   4.123   6.469   2.120
 6571SOL     OW20611   2.534   5.604   2.140
 6571SOL    HW120612   2.528   5.558   2.051
 6571SOL    HW220613   2.549   5.702   2.126
 6572SOL     OW20614   6.941   5.748   5.663
 6572SOL    HW120615   6.872   5.681   5.689
 6572SOL    HW220616   6.908   5.803   5.587
 6573SOL     OW20617   2.336   1.718   2.047
 6573SOL    HW120618   2.258   1.751   1.994
 6573SOL    HW220619   2.307   1.699   2.140
 6574SOL     OW20620   2.745   6.251   2.345
 6574SOL    HW120621   2.840   6.271   2.319
 6574SOL    HW220622   2.701   6.197   2.273
 6575SOL     OW20623   0.891   0.856   2.579
 6575SOL    HW120624   0.896   0.951   2.609
 6575SOL    HW220625   0.977   0.810   2.600
 6576SOL     OW20626   1.591   6.296   6.504
 6576SOL    HW120627   1.657   6.371   6.505
 6576SOL    HW220628   1.635   6.214   6.465
 6577SOL     OW20629   1.158   2.544   3.715
 6577SOL    HW120630   1.135   2.463   3.661
 6577SOL    HW220631   1.245   2.581   3.684
 6578SOL     OW20632   0.738   4.251   2.532
 6578SOL    HW120633   0.765   4.193   2.455
 6578SOL    HW220634   0.816   4.264   2.593
 6579SOL     OW20635   0.063   3.527   4.854
 6579SOL    HW120636   0.066   3.481   4.765
 6579SOL    HW220637   6.992   3.530   4.887
 6580SOL     OW20638   6.916   1.708   1.157
 6580SOL    HW120639   6.848   1.670   1.219
 6580SOL    HW220640   6.960   1.634   1.106
 6581SOL     OW20641   3.008   1.340   6.501
 6581SOL    HW120642   2.908   1.343   6.504
 6581SOL    HW220643   3.044   1.336   6.595
 6582SOL     OW20644   1.623   1.298   2.094
 6582SOL    HW120645   1.651   1.384   2.137
 6582SOL    HW220646   1.691   1.272   2.024
 6583SOL     OW20647   4.500   0.224   5.042
 6583SOL    HW120648   4.443   0.151   5.079
 6583SOL    HW220649   4.551   0.190   4.963
 6584SOL     OW20650   5.029   1.852   6.809
 6584SOL    HW120651   4.976   1.852   6.724
 6584SOL    HW220652   5.045   1.758   6.839
 6585SOL     OW20653   6.567   0.459   6.618
 6585SOL    HW120654   6.610   0.524   6.681
 6585SOL    HW220655   6.567   0.368   6.658
 6586SOL     OW20656   6.360   2.018   5.892
 6586SOL    HW120657   6.343   2.034   5.794
 6586SOL    HW220658   6.284   2.056   5.945
 6587SOL     OW20659   2.652   6.266   4.973
 6587SOL    HW120660   2.675   6.292   4.879
 6587SOL    HW220661   2.628   6.169   4.976
 6588SOL     OW20662   1.695   3.842   1.562
 6588SOL    HW120663   1.791   3.817   1.553
 6588SOL    HW220664   1.639   3.779   1.508
 6589SOL     OW20665   4.683   0.602   0.108
 6589SOL    HW120666   4.649   0.602   0.014
 6589SOL    HW220667   4.651   0.520   0.155
 6590SOL     OW20668   1.083   0.966   5.673
 6590SOL    HW120669   1.064   0.982   5.769
 6590SOL    HW220670   1.001   0.930   5.628
 6591SOL     OW20671   4.902   6.199   2.534
 6591SOL    HW120672   4.922   6.282   2.585
 6591SOL    HW220673   4.889   6.221   2.437
 6592SOL     OW20674   5.794   6.713   3.954
 6592SOL    HW120675   5.820   6.627   3.909
 6592SOL    HW220676   5.804   6.789   3.889
 6593SOL     OW20677   2.359   1.591   3.914
 6593SOL    HW120678   2.412   1.627   3.991
 6593SOL    HW220679   2.273   1.641   3.906
 6594SOL     OW20680   3.860   1.376   7.001
 6594SOL    HW120681   3.893   1.378   6.906
 6594SOL    HW220682   3.914   1.310   0.030
 6595SOL     OW20683   0.675   3.136   1.037
 6595SOL    HW120684   0.643   3.046   1.006
 6595SOL    HW220685   0.751   3.124   1.101
 6596SOL     OW20686   2.967   6.878   4.673
 6596SOL    HW120687   2.902   6.883   4.598
 6596SOL    HW220688   2.932   6.929   4.752
 6597SOL     OW20689   1.840   6.186   3.491
 6597SOL    HW120690   1.814   6.090   3.479
 6597SOL    HW220691   1.911   6.192   3.561
 6598SOL     OW20692   0.473   7.005   4.379
 6598SOL    HW120693   0.448   0.004   4.473
 6598SOL    HW220694   0.568   6.973   4.377
 6599SOL     OW20695   3.622   6.012   5.353
 6599SOL    HW120696   3.569   5.971   5.427
 6599SOL    HW220697   3.563   6.070   5.298
 6600SOL     OW20698   4.768   5.223   6.141
 6600SOL    HW120699   4.800   5.215   6.047
 6600SOL    HW220700   4.684   5.169   6.152
 6601SOL     OW20701   0.885   1.437   6.014
 6601SOL    HW120702   0.847   1.510   6.071
 6601SOL    HW220703   0.817   1.364   6.003
 6602SOL     OW20704   0.238   1.492   2.091
 6602SOL    HW120705   0.187   1.501   2.176
 6602SOL    HW220706   0.270   1.397   2.081
 6603SOL     OW20707   0.703   2.617   4.218
 6603SOL    HW120708   0.775   2.661   4.165
 6603SOL    HW220709   0.698   2.659   4.309
 6604SOL     OW20710   2.672   6.867   0.554
 6604SOL    HW120711   2.630   6.909   0.474
 6604SOL    HW220712   2.601   6.828   0.612
 6605SOL     OW20713   5.688   4.600   1.489
 6605SOL    HW120714   5.611   4.636   1.437
 6605SOL    HW220715   5.704   4.505   1.463
 6606SOL     OW20716   5.851   6.900   2.465
 6606SOL    HW120717   5.850   6.995   2.496
 6606SOL    HW220718   5.919   6.890   2.392
 6607SOL     OW20719   1.815   2.161   1.949
 6607SOL    HW120720   1.865   2.239   1.910
 6607SOL    HW220721   1.796   2.179   2.045
 6608SOL     OW20722   4.759   5.656   1.961
 6608SOL    HW120723   4.804   5.618   2.042
 6608SOL    HW220724   4.730   5.582   1.900
 6609SOL     OW20725   4.940   0.794   5.844
 6609SOL    HW120726   4.905   0.878   5.886
 6609SOL    HW220727   4.982   0.736   5.914
 6610SOL     OW20728   2.731   1.384   6.500
 6610SOL    HW120729   2.719   1.357   6.595
 6610SOL    HW220730   2.646   1.425   6.466
 6611SOL     OW20731   6.202   2.912   4.261
 6611SOL    HW120732   6.125   2.962   4.220
 6611SOL    HW220733   6.250   2.972   4.325
 6612SOL     OW20734   6.728   2.230   6.998
 6612SOL    HW120735   6.656   2.291   6.967
 6612SOL    HW220736   6.741   2.156   6.932
 6613SOL     OW20737   6.286   6.155   4.867
 6613SOL    HW120738   6.269   6.247   4.833
 6613SOL    HW220739   6.354   6.110   4.809
 6614SOL     OW20740   5.874   6.153   0.002
 6614SOL    HW120741   5.822   6.163   0.086
 6614SOL    HW220742   5.969   6.180   0.017
 6615SOL     OW20743   0.748   4.665   3.332
 6615SOL    HW120744   0.762   4.623   3.421
 6615SOL    HW220745   0.822   4.639   3.270
 6616SOL     OW20746   4.311   1.268   5.714
 6616SOL    HW120747   4.364   1.219   5.645
 6616SOL    HW220748   4.225   1.300   5.674
 6617SOL     OW20749   3.492   5.259   3.372
 6617SOL    HW120750   3.591   5.254   3.364
 6617SOL    HW220751   3.466   5.241   3.467
 6618SOL     OW20752   1.520   3.673   2.743
 6618SOL    HW120753   1.487   3.660   2.837
 6618SOL    HW220754   1.604   3.727   2.745
 6619SOL     OW20755   6.691   0.087   4.828
 6619SOL    HW120756   6.710   0.165   4.768
 6619SOL    HW220757   6.757   0.087   4.904
 6620SOL     OW20758   2.188   2.684   5.587
 6620SOL    HW120759   2.170   2.650   5.495
 6620SOL    HW220760   2.286   2.676   5.606
 6621SOL     OW20761   1.957   3.357   6.475
 6621SOL    HW120762   2.042   3.331   6.431
 6621SOL    HW220763   1.880   3.337   6.415
 6622SOL     OW20764   5.355   6.087   1.883
 6622SOL    HW120765   5.436   6.065   1.828
 6622SOL    HW220766   5.381   6.098   1.979
 6623SOL     OW20767   2.583   3.635   0.303
 6623SOL    HW120768   2.520   3.639   0.225
 6623SOL    HW220769   2.678   3.637   0.270
 6624SOL     OW20770   1.806   0.402   4.469
 6624SOL    HW120771   1.749   0.431   4.545
 6624SOL    HW220772   1.894   0.368   4.504
 6625SOL     OW20773   5.436   1.727   5.842
 6625SOL    HW120774   5.359   1.672   5.810
 6625SOL    HW220775   5.520   1.674   5.833
 6626SOL     OW20776   4.022   4.775   5.243
 6626SOL    HW120777   4.094   4.813   5.186
 6626SOL    HW220778   4.040   4.678   5.260
 6627SOL     OW20779   2.641   1.013   5.735
 6627SOL    HW120780   2.585   0.972   5.808
 6627SOL    HW220781   2.627   1.112   5.733
 6628SOL     OW20782   4.659   4.613   4.475
 6628SOL    HW120783   4.690   4.558   4.398
 6628SOL    HW220784   4.729   4.613   4.546
 6629SOL     OW20785   3.002   5.660   6.671
 6629SOL    HW120786   3.057   5.650   6.754
 6629SOL    HW220787   2.978   5.569   6.636
 6630SOL     OW20788   3.442   1.461   1.444
 6630SOL    HW120789   3.529   1.425   1.479
 6630SOL    HW220790   3.407   1.530   1.508
 6631SOL     OW20791   3.552   0.527   2.362
 6631SOL    HW120792   3.631   0.523   2.423
 6631SOL    HW220793   3.568   0.470   2.281
 6632SOL     OW20794   0.526   6.438   1.866
 6632SOL    HW120795   0.583   6.450   1.947
 6632SOL    HW220796   0.464   6.361   1.880
 6633SOL     OW20797   0.858   3.922   5.814
 6633SOL    HW120798   0.938   3.885   5.765
 6633SOL    HW220799   0.775   3.876   5.783
 6634SOL     OW20800   6.078   2.885   4.640
 6634SOL    HW120801   6.079   2.788   4.618
 6634SOL    HW220802   6.171   2.918   4.654
 6635SOL     OW20803   3.928   4.913   3.194
 6635SOL    HW120804   4.020   4.875   3.197
 6635SOL    HW220805   3.887   4.907   3.285
 6636SOL     OW20806   3.807   1.442   5.634
 6636SOL    HW120807   3.895   1.406   5.666
 6636SOL    HW220808   3.784   1.525   5.684
 6637SOL     OW20809   1.701   0.301   5.973
 6637SOL    HW120810   1.765   0.375   5.996
 6637SOL    HW220811   1.612   0.340   5.952
 6638SOL     OW20812   3.462   4.204   4.701
 6638SOL    HW120813   3.389   4.180   4.765
 6638SOL    HW220814   3.550   4.174   4.739
 6639SOL     OW20815   5.469   5.412   6.475
 6639SOL    HW120816   5.548   5.382   6.529
 6639SOL    HW220817   5.476   5.510   6.456
 6640SOL     OW20818   0.546   1.545   5.195
 6640SOL    HW120819   0.601   1.554   5.111
 6640SOL    HW220820   0.463   1.494   5.174
 6641SOL     OW20821   2.108   2.588   0.299
 6641SOL    HW120822   2.070   2.538   0.221
 6641SOL    HW220823   2.038   2.651   0.335
 6642SOL     OW20824   2.759   5.741   6.879
 6642SOL    HW120825   2.847   5.746   6.927
 6642SOL    HW220826   2.776   5.720   6.782
 6643SOL     OW20827   6.758   5.186   6.536
 6643SOL    HW120828   6.746   5.093   6.572
 6643SOL    HW220829   6.670   5.234   6.536
 6644SOL     OW20830   3.067   4.992   2.062
 6644SOL    HW120831   2.987   4.933   2.054
 6644SOL    HW220832   3.051   5.078   2.014
 6645SOL     OW20833   6.940   5.323   0.451
 6645SOL    HW120834   6.995   5.240   0.449
 6645SOL    HW220835   6.921   5.354   0.358
 6646SOL     OW20836   3.902   6.843   4.187
 6646SOL    HW120837   3.967   6.908   4.225
 6646SOL    HW220838   3.821   6.839   4.245
 6647SOL     OW20839   4.238   0.525   2.340
 6647SOL    HW120840   4.234   0.516   2.241
 6647SOL    HW220841   4.318   0.476   2.375
 6648SOL     OW20842   3.179   5.835   2.616
 6648SOL    HW120843   3.171   5.751   2.669
 6648SOL    HW220844   3.112   5.834   2.542
 6649SOL     OW20845   5.146   1.186   6.990
 6649SOL    HW120846   5.071   1.190   6.923
 6649SOL    HW220847   5.233   1.207   6.945
 6650SOL     OW20848   3.377   1.402   4.904
 6650SOL    HW120849   3.464   1.355   4.889
 6650SOL    HW220850   3.348   1.446   4.819
 6651SOL     OW20851   1.748   1.797   6.241
 6651SOL    HW120852   1.784   1.864   6.176
 6651SOL    HW220853   1.803   1.798   6.325
 6652SOL     OW20854   6.312   4.986   0.315
 6652SOL    HW120855   6.260   5.062   0.354
 6652SOL    HW220856   6.259   4.901   0.323
 6653SOL     OW20857   3.478   2.818   2.227
 6653SOL    HW120858   3.413   2.797   2.300
 6653SOL    HW220859   3.429   2.823   2.139
 6654SOL     OW20860   1.635   3.141   1.304
 6654SOL    HW120861   1.579   3.210   1.258
 6654SOL    HW220862   1.727   3.178   1.320
 6655SOL     OW20863   2.601   6.932   1.891
 6655SOL    HW120864   2.561   7.003   1.834
 6655SOL    HW220865   2.529   6.876   1.932
 6656SOL     OW20866   6.053   1.681   1.923
 6656SOL    HW120867   6.079   1.768   1.879
 6656SOL    HW220868   5.976   1.641   1.873
 6657SOL     OW20869   5.962   5.971   6.024
 6657SOL    HW120870   5.892   5.903   6.001
 6657SOL    HW220871   5.919   6.053   6.060
 6658SOL     OW20872   6.209   1.744   4.665
 6658SOL    HW120873   6.187   1.813   4.596
 6658SOL    HW220874   6.134   1.677   4.670
 6659SOL     OW20875   1.983   2.286   0.765
 6659SOL    HW120876   2.009   2.299   0.669
 6659SOL    HW220877   2.065   2.279   0.821
 6660SOL     OW20878   0.956   5.852   0.425
 6660SOL    HW120879   1.026   5.843   0.354
 6660SOL    HW220880   0.969   5.780   0.494
 6661SOL     OW20881   0.864   6.011   3.972
 6661SOL    HW120882   0.780   6.039   3.926
 6661SOL    HW220883   0.933   5.987   3.904
 6662SOL     OW20884   1.126   1.197   6.727
 6662SOL    HW120885   1.115   1.103   6.759
 6662SOL    HW220886   1.066   1.213   6.648
 6663SOL     OW20887   0.030   5.003   3.282
 6663SOL    HW120888   0.031   5.054   3.368
 6663SOL    HW220889   6.969   5.024   3.232
 6664SOL     OW20890   1.897   6.939   0.540
 6664SOL    HW120891   1.917   6.841   0.538
 6664SOL    HW220892   1.884   6.968   0.635
 6665SOL     OW20893   1.159   0.234   3.125
 6665SOL    HW120894   1.141   0.316   3.179
 6665SOL    HW220895   1.240   0.249   3.068
 6666SOL     OW20896   5.495   0.338   6.094
 6666SOL    HW120897   5.480   0.379   6.004
 6666SOL    HW220898   5.565   0.267   6.086
 6667SOL     OW20899   0.271   5.012   6.108
 6667SOL    HW120900   0.180   5.039   6.140
 6667SOL    HW220901   0.320   5.094   6.077
 6668SOL     OW20902   6.077   5.947   2.064
 6668SOL    HW120903   6.003   5.995   2.111
 6668SOL    HW220904   6.165   5.976   2.100
 6669SOL     OW20905   2.173   3.063   3.577
 6669SOL    HW120906   2.136   3.032   3.664
 6669SOL    HW220907   2.187   3.162   3.579
 6670SOL     OW20908   3.581   2.004   5.464
 6670SOL    HW120909   3.566   2.088   5.515
 6670SOL    HW220910   3.505   1.989   5.401
 6671SOL     OW20911   5.504   5.300   1.205
 6671SOL    HW120912   5.573   5.326   1.138
 6671SOL    HW220913   5.456   5.382   1.237
 6672SOL     OW20914   0.403   2.249   5.747
 6672SOL    HW120915   0.307   2.249   5.773
 6672SOL    HW220916   0.415   2.305   5.664
 6673SOL     OW20917   5.217   6.298   3.279
 6673SOL    HW120918   5.192   6.296   3.375
 6673SOL    HW220919   5.144   6.342   3.226
 6674SOL     OW20920   0.826   4.674   5.635
 6674SOL    HW120921   0.916   4.669   5.678
 6674SOL    HW220922   0.766   4.607   5.678
 6675SOL     OW20923   4.363   3.975   1.707
 6675SOL    HW120924   4.264   3.984   1.713
 6675SOL    HW220925   4.406   4.057   1.744
 6676SOL     OW20926   0.449   4.262   5.714
 6676SOL    HW120927   0.373   4.280   5.777
 6676SOL    HW220928   0.476   4.348   5.669
 6677SOL     OW20929   0.380   1.796   6.915
 6677SOL    HW120930   0.459   1.856   6.924
 6677SOL    HW220931   0.310   1.840   6.859
 6678SOL     OW20932   2.398   2.489   6.955
 6678SOL    HW120933   2.410   2.396   6.919
 6678SOL    HW220934   2.459   2.503   0.009
 6679SOL     OW20935   2.883   1.928   3.798
 6679SOL    HW120936   2.787   1.900   3.806
 6679SOL    HW220937   2.937   1.881   3.867
 6680SOL     OW20938   5.049   6.589   6.406
 6680SOL    HW120939   5.087   6.515   6.352
 6680SOL    HW220940   5.040   6.671   6.350
 6681SOL     OW20941   4.446   5.447   0.217
 6681SOL    HW120942   4.533   5.407   0.187
 6681SOL    HW220943   4.445   5.544   0.195
 6682SOL     OW20944   1.305   4.606   2.796
 6682SOL    HW120945   1.404   4.616   2.788
 6682SOL    HW220946   1.263   4.696   2.806
 6683SOL     OW20947   5.332   3.105   5.445
 6683SOL    HW120948   5.357   3.008   5.437
 6683SOL    HW220949   5.408   3.155   5.487
 6684SOL     OW20950   3.127   6.654   0.593
 6684SOL    HW120951   3.146   6.641   0.690
 6684SOL    HW220952   3.187   6.725   0.556
 6685SOL     OW20953   5.993   2.655   5.923
 6685SOL    HW120954   6.017   2.600   5.843
 6685SOL    HW220955   5.895   2.647   5.941
 6686SOL     OW20956   5.297   6.066   4.116
 6686SOL    HW120957   5.276   6.163   4.131
 6686SOL    HW220958   5.212   6.014   4.115
 6687SOL     OW20959   6.878   2.409   1.433
 6687SOL    HW120960   6.949   2.398   1.503
 6687SOL    HW220961   6.873   2.505   1.406
 6688SOL     OW20962   6.754   4.777   2.290
 6688SOL    HW120963   6.658   4.793   2.314
 6688SOL    HW220964   6.790   4.703   2.347
 6689SOL     OW20965   3.984   3.434   0.432
 6689SOL    HW120966   4.077   3.403   0.452
 6689SOL    HW220967   3.926   3.420   0.512
 6690SOL     OW20968   2.817   1.358   0.800
 6690SOL    HW120969   2.913   1.346   0.774
 6690SOL    HW220970   2.811   1.405   0.888
 6691SOL     OW20971   2.462   6.264   1.546
 6691SOL    HW120972   2.402   6.252   1.467
 6691SOL    HW220973   2.447   6.354   1.586
 6692SOL     OW20974   3.311   3.985   5.560
 6692SOL    HW120975   3.275   3.972   5.468
 6692SOL    HW220976   3.370   4.066   5.560
 6693SOL     OW20977   4.144   3.301   5.925
 6693SOL    HW120978   4.157   3.238   6.001
 6693SOL    HW220979   4.195   3.385   5.943
 6694SOL     OW20980   5.101   6.213   0.520
 6694SOL    HW120981   5.081   6.169   0.608
 6694SOL    HW220982   5.069   6.308   0.522
 6695SOL     OW20983   2.803   2.232   5.923
 6695SOL    HW120984   2.742   2.253   5.846
 6695SOL    HW220985   2.753   2.244   6.008
 6696SOL     OW20986   1.401   2.870   0.302
 6696SOL    HW120987   1.450   2.787   0.329
 6696SOL    HW220988   1.359   2.911   0.383
 6697SOL     OW20989   5.154   2.578   3.002
 6697SOL    HW120990   5.250   2.603   3.012
 6697SOL    HW220991   5.134   2.557   2.906
 6698SOL     OW20992   2.736   2.546   0.634
 6698SOL    HW120993   2.768   2.457   0.602
 6698SOL    HW220994   2.776   2.618   0.578
 6699SOL     OW20995   2.990   5.139   6.506
 6699SOL    HW120996   2.930   5.077   6.455
 6699SOL    HW220997   3.058   5.179   6.444
 6700SOL     OW20998   6.446   6.104   1.231
 6700SOL    HW120999   6.406   6.013   1.219
 6700SOL    HW221000   6.507   6.103   1.310
 6701SOL     OW21001   5.899   2.935   0.783
 6701SOL    HW121002   5.809   2.976   0.799
 6701SOL    HW221003   5.968   3.007   0.777
 6702SOL     OW21004   2.767   2.413   0.894
 6702SOL    HW121005   2.698   2.366   0.949
 6702SOL    HW221006   2.729   2.434   0.804
 6703SOL     OW21007   6.214   1.299   0.127
 6703SOL    HW121008   6.228   1.270   0.222
 6703SOL    HW221009   6.162   1.385   0.126
 6704SOL     OW21010   4.254   2.300   2.479
 6704SOL    HW121011   4.184   2.271   2.415
 6704SOL    HW221012   4.331   2.340   2.430
 6705SOL     OW21013   7.000   2.855   2.203
 6705SOL    HW121014   0.031   2.835   2.284
 6705SOL    HW221015   6.935   2.781   2.187
 6706SOL     OW21016   1.141   3.923   0.954
 6706SOL    HW121017   1.149   4.022   0.963
 6706SOL    HW221018   1.181   3.894   0.867
 6707SOL     OW21019   0.076   6.095   4.028
 6707SOL    HW121020   0.129   6.046   3.959
 6707SOL    HW221021   0.120   6.084   4.118
 6708SOL     OW21022   1.200   5.361   2.725
 6708SOL    HW121023   1.222   5.280   2.670
 6708SOL    HW221024   1.140   5.422   2.674
 6709SOL     OW21025   3.439   6.061   1.930
 6709SOL    HW121026   3.354   6.024   1.891
 6709SOL    HW221027   3.512   6.054   1.862
 6710SOL     OW21028   2.925   1.569   5.809
 6710SOL    HW121029   2.967   1.615   5.888
 6710SOL    HW221030   2.920   1.633   5.732
 6711SOL     OW21031   5.362   4.993   6.587
 6711SOL    HW121032   5.292   5.057   6.618
 6711SOL    HW221033   5.327   4.899   6.596
 6712SOL     OW21034   4.793   5.668   0.172
 6712SOL    HW121035   4.702   5.631   0.155
 6712SOL    HW221036   4.854   5.596   0.205
 6713SOL     OW21037   2.096   1.931   2.005
 6713SOL    HW121038   2.068   1.847   1.958
 6713SOL    HW221039   2.081   2.010   1.946
 6714SOL     OW21040   5.552   0.393   6.349
 6714SOL    HW121041   5.645   0.371   6.378
 6714SOL    HW221042   5.531   0.348   6.263
 6715SOL     OW21043   0.413   0.660   6.618
 6715SOL    HW121044   0.394   0.564   6.596
 6715SOL    HW221045   0.365   0.719   6.553
 6716SOL     OW21046   0.377   5.875   2.498
 6716SOL    HW121047   0.334   5.951   2.548
 6716SOL    HW221048   0.355   5.884   2.400
 6717SOL     OW21049   4.527   3.115   0.245
 6717SOL    HW121050   4.514   3.184   0.316
 6717SOL    HW221051   4.624   3.090   0.240
 6718SOL     OW21052   4.084   6.268   6.231
 6718SOL    HW121053   4.058   6.242   6.324
 6718SOL    HW221054   4.181   6.293   6.230
 6719SOL     OW21055   0.620   7.009   5.502
 6719SOL    HW121056   0.673   0.050   5.448
 6719SOL    HW221057   0.533   0.027   5.528
 6720SOL     OW21058   1.469   5.916   2.300
 6720SOL    HW121059   1.537   5.860   2.347
 6720SOL    HW221060   1.435   5.866   2.220
 6721SOL     OW21061   6.593   6.864   4.877
 6721SOL    HW121062   6.625   6.957   4.858
 6721SOL    HW221063   6.502   6.852   4.838
 6722SOL     OW21064   5.451   3.547   1.403
 6722SOL    HW121065   5.514   3.502   1.466
 6722SOL    HW221066   5.408   3.479   1.344
 6723SOL     OW21067   2.287   6.497   2.941
 6723SOL    HW121068   2.292   6.559   2.863
 6723SOL    HW221069   2.322   6.407   2.915
 6724SOL     OW21070   1.000   3.269   6.106
 6724SOL    HW121071   0.989   3.273   6.205
 6724SOL    HW221072   0.951   3.189   6.070
 6725SOL     OW21073   0.950   3.995   1.680
 6725SOL    HW121074   0.933   3.929   1.753
 6725SOL    HW221075   0.863   4.032   1.647
 6726SOL     OW21076   0.817   2.372   4.679
 6726SOL    HW121077   0.889   2.398   4.614
 6726SOL    HW221078   0.830   2.422   4.765
 6727SOL     OW21079   6.347   3.689   5.485
 6727SOL    HW121080   6.361   3.755   5.559
 6727SOL    HW221081   6.378   3.730   5.399
 6728SOL     OW21082   5.162   1.441   4.445
 6728SOL    HW121083   5.132   1.417   4.352
 6728SOL    HW221084   5.085   1.479   4.496
 6729SOL     OW21085   6.836   1.075   2.579
 6729SOL    HW121086   6.865   0.984   2.550
 6729SOL    HW221087   6.752   1.067   2.633
 6730SOL     OW21088   1.660   6.883   6.258
 6730SOL    HW121089   1.616   6.873   6.169
 6730SOL    HW221090   1.722   6.806   6.274
 6731SOL     OW21091   1.300   4.560   0.722
 6731SOL    HW121092   1.364   4.585   0.795
 6731SOL    HW221093   1.316   4.618   0.642
 6732SOL     OW21094   4.082   5.698   6.312
 6732SOL    HW121095   4.181   5.689   6.323
 6732SOL    HW221096   4.042   5.607   6.303
 6733SOL     OW21097   3.823   5.088   6.989
 6733SOL    HW121098   3.875   5.136   0.036
 6733SOL    HW221099   3.781   5.154   6.927
 6734SOL     OW21100   0.372   3.059   5.453
 6734SOL    HW121101   0.321   3.131   5.405
 6734SOL    HW221102   0.465   3.055   5.418
 6735SOL     OW21103   0.487   5.325   5.264
 6735SOL    HW121104   0.533   5.330   5.175
 6735SOL    HW221105   0.551   5.353   5.336
 6736SOL     OW21106   1.985   3.611   0.671
 6736SOL    HW121107   2.016   3.537   0.612
 6736SOL    HW221108   1.903   3.582   0.720
 6737SOL     OW21109   1.804   2.675   0.889
 6737SOL    HW121110   1.816   2.772   0.909
 6737SOL    HW221111   1.873   2.645   0.823
 6738SOL     OW21112   2.114   3.305   2.155
 6738SOL    HW121113   2.075   3.341   2.240
 6738SOL    HW221114   2.146   3.381   2.098
 6739SOL     OW21115   3.482   5.330   6.263
 6739SOL    HW121116   3.390   5.316   6.225
 6739SOL    HW221117   3.510   5.425   6.247
 6740SOL     OW21118   1.826   1.631   4.405
 6740SOL    HW121119   1.785   1.570   4.337
 6740SOL    HW221120   1.870   1.708   4.359
 6741SOL     OW21121   4.941   1.502   5.568
 6741SOL    HW121122   4.971   1.456   5.484
 6741SOL    HW221123   4.850   1.542   5.552
 6742SOL     OW21124   0.294   5.603   2.631
 6742SOL    HW121125   0.336   5.694   2.625
 6742SOL    HW221126   0.365   5.533   2.622
 6743SOL     OW21127   4.031   4.057   0.239
 6743SOL    HW121128   4.021   4.084   0.143
 6743SOL    HW221129   3.992   4.128   0.298
 6744SOL     OW21130   4.687   5.750   5.846
 6744SOL    HW121131   4.783   5.756   5.817
 6744SOL    HW221132   4.634   5.822   5.802
 6745SOL     OW21133   1.054   6.440   2.172
 6745SOL    HW121134   1.122   6.512   2.186
 6745SOL    HW221135   1.044   6.387   2.256
 6746SOL     OW21136   1.034   1.048   2.917
 6746SOL    HW121137   1.012   1.048   3.014
 6746SOL    HW221138   1.012   0.958   2.878
 6747SOL     OW21139   5.442   6.932   4.484
 6747SOL    HW121140   5.432   6.925   4.583
 6747SOL    HW221141   5.539   6.943   4.462
 6748SOL     OW21142   1.137   0.724   2.986
 6748SOL    HW121143   1.119   0.716   3.084
 6748SOL    HW221144   1.081   0.657   2.937
 6749SOL     OW21145   2.998   6.428   0.411
 6749SOL    HW121146   2.906   6.417   0.449
 6749SOL    HW221147   3.039   6.512   0.445
 6750SOL     OW21148   4.065   1.001   4.458
 6750SOL    HW121149   4.021   0.920   4.497
 6750SOL    HW221150   4.131   0.973   4.388
 6751SOL     OW21151   3.842   1.718   3.745
 6751SOL    HW121152   3.827   1.619   3.752
 6751SOL    HW221153   3.760   1.761   3.708
 6752SOL     OW21154   6.238   2.970   2.467
 6752SOL    HW121155   6.325   2.989   2.420
 6752SOL    HW221156   6.177   3.049   2.456
 6753SOL     OW21157   4.728   0.983   6.437
 6753SOL    HW121158   4.685   0.910   6.383
 6753SOL    HW221159   4.662   1.055   6.454
 6754SOL     OW21160   6.461   1.574   6.031
 6754SOL    HW121161   6.550   1.533   6.051
 6754SOL    HW221162   6.401   1.564   6.110
 6755SOL     OW21163   4.323   2.116   3.664
 6755SOL    HW121164   4.300   2.141   3.758
 6755SOL    HW221165   4.408   2.162   3.637
 6756SOL     OW21166   4.725   4.327   4.686
 6756SOL    HW121167   4.747   4.232   4.707
 6756SOL    HW221168   4.810   4.381   4.684
 6757SOL     OW21169   4.807   6.592   0.738
 6757SOL    HW121170   4.819   6.530   0.816
 6757SOL    HW221171   4.709   6.602   0.719
 6758SOL     OW21172   5.411   3.938   1.840
 6758SOL    HW121173   5.475   3.993   1.894
 6758SOL    HW221174   5.434   3.841   1.851
 6759SOL     OW21175   0.903   3.448   4.184
 6759SOL    HW121176   0.905   3.547   4.171
 6759SOL    HW221177   0.968   3.405   4.121
 6760SOL     OW21178   6.650   5.467   4.538
 6760SOL    HW121179   6.660   5.450   4.636
 6760SOL    HW221180   6.635   5.380   4.491
 6761SOL     OW21181   5.587   2.347   6.202
 6761SOL    HW121182   5.496   2.339   6.162
 6761SOL    HW221183   5.639   2.264   6.185
 6762SOL     OW21184   0.242   5.509   3.308
 6762SOL    HW121185   0.325   5.484   3.258
 6762SOL    HW221186   0.209   5.597   3.274
 6763SOL     OW21187   6.775   6.103   4.110
 6763SOL    HW121188   6.696   6.113   4.050
 6763SOL    HW221189   6.859   6.103   4.056
 6764SOL     OW21190   2.880   4.697   6.223
 6764SOL    HW121191   2.953   4.636   6.254
 6764SOL    HW221192   2.918   4.786   6.198
 6765SOL     OW21193   5.489   5.396   3.651
 6765SOL    HW121194   5.392   5.397   3.629
 6765SOL    HW221195   5.517   5.302   3.675
 6766SOL     OW21196   3.146   6.729   6.795
 6766SOL    HW121197   3.063   6.713   6.741
 6766SOL    HW221198   3.175   6.824   6.785
 6767SOL     OW21199   0.036   2.587   1.150
 6767SOL    HW121200   0.074   2.499   1.121
 6767SOL    HW221201   0.081   2.616   1.234
 6768SOL     OW21202   1.305   0.460   3.579
 6768SOL    HW121203   1.331   0.516   3.501
 6768SOL    HW221204   1.208   0.435   3.571
 6769SOL     OW21205   3.196   1.373   5.153
 6769SOL    HW121206   3.205   1.456   5.208
 6769SOL    HW221207   3.237   1.387   5.063
 6770SOL     OW21208   6.968   2.107   3.877
 6770SOL    HW121209   6.996   2.192   3.833
 6770SOL    HW221210   0.011   2.081   3.947
 6771SOL     OW21211   3.961   2.148   3.776
 6771SOL    HW121212   4.012   2.063   3.788
 6771SOL    HW221213   3.863   2.129   3.775
 6772SOL     OW21214   5.539   1.722   2.244
 6772SOL    HW121215   5.631   1.716   2.283
 6772SOL    HW221216   5.475   1.668   2.299
 6773SOL     OW21217   6.848   6.524   1.313
 6773SOL    HW121218   6.921   6.551   1.251
 6773SOL    HW221219   6.844   6.588   1.390
 6774SOL     OW21220   1.582   2.337   5.599
 6774SOL    HW121221   1.505   2.302   5.652
 6774SOL    HW221222   1.608   2.427   5.634
 6775SOL     OW21223   1.018   1.873   3.628
 6775SOL    HW121224   1.069   1.939   3.683
 6775SOL    HW221225   0.933   1.849   3.675
 6776SOL     OW21226   3.686   3.691   2.157
 6776SOL    HW121227   3.663   3.720   2.064
 6776SOL    HW221228   3.731   3.602   2.154
 6777SOL     OW21229   4.401   5.253   1.088
 6777SOL    HW121230   4.420   5.268   1.185
 6777SOL    HW221231   4.432   5.162   1.062
 6778SOL     OW21232   5.800   3.312   2.498
 6778SOL    HW121233   5.812   3.215   2.518
 6778SOL    HW221234   5.762   3.358   2.578
 6779SOL     OW21235   5.580   4.197   5.900
 6779SOL    HW121236   5.512   4.155   5.840
 6779SOL    HW221237   5.557   4.178   5.995
 6780SOL     OW21238   2.200   3.316   3.058
 6780SOL    HW121239   2.180   3.279   3.149
 6780SOL    HW221240   2.258   3.252   3.008
 6781SOL     OW21241   6.791   1.163   3.661
 6781SOL    HW121242   6.815   1.258   3.679
 6781SOL    HW221243   6.778   1.114   3.748
 6782SOL     OW21244   0.983   1.394   3.542
 6782SOL    HW121245   0.991   1.475   3.601
 6782SOL    HW221246   0.964   1.314   3.598
 6783SOL     OW21247   1.209   3.710   4.981
 6783SOL    HW121248   1.152   3.788   5.008
 6783SOL    HW221249   1.284   3.742   4.923
 6784SOL     OW21250   2.401   3.536   1.613
 6784SOL    HW121251   2.431   3.631   1.611
 6784SOL    HW221252   2.395   3.504   1.707
 6785SOL     OW21253   5.793   4.991   5.334
 6785SOL    HW121254   5.851   4.914   5.306
 6785SOL    HW221255   5.783   4.990   5.434
 6786SOL     OW21256   6.473   2.502   0.548
 6786SOL    HW121257   6.489   2.585   0.601
 6786SOL    HW221258   6.375   2.482   0.547
 6787SOL     OW21259   3.840   2.320   1.134
 6787SOL    HW121260   3.773   2.337   1.062
 6787SOL    HW221261   3.830   2.226   1.168
 6788SOL     OW21262   0.470   3.706   2.579
 6788SOL    HW121263   0.475   3.689   2.677
 6788SOL    HW221264   0.467   3.618   2.530
 6789SOL     OW21265   6.590   4.597   4.183
 6789SOL    HW121266   6.654   4.529   4.148
 6789SOL    HW221267   6.595   4.599   4.283
 6790SOL     OW21268   0.403   4.947   5.721
 6790SOL    HW121269   0.419   4.865   5.666
 6790SOL    HW221270   0.439   4.933   5.813
 6791SOL     OW21271   4.664   1.802   3.277
 6791SOL    HW121272   4.663   1.757   3.188
 6791SOL    HW221273   4.639   1.736   3.349
 6792SOL     OW21274   4.184   6.620   5.439
 6792SOL    HW121275   4.282   6.637   5.425
 6792SOL    HW221276   4.136   6.623   5.351
 6793SOL     OW21277   2.944   2.221   6.805
 6793SOL    HW121278   2.937   2.212   6.905
 6793SOL    HW221279   2.871   2.167   6.762
 6794SOL     OW21280   4.800   1.108   5.648
 6794SOL    HW121281   4.821   1.196   5.691
 6794SOL    HW221282   4.789   1.038   5.719
 6795SOL     OW21283   1.401   1.082   1.358
 6795SOL    HW121284   1.498   1.099   1.375
 6795SOL    HW221285   1.369   1.010   1.420
 6796SOL     OW21286   5.931   1.373   1.690
 6796SOL    HW121287   5.906   1.298   1.751
 6796SOL    HW221288   5.850   1.403   1.639
 6797SOL     OW21289   6.518   2.798   1.579
 6797SOL    HW121290   6.545   2.763   1.669
 6797SOL    HW221291   6.562   2.887   1.564
 6798SOL     OW21292   5.320   0.113   1.887
 6798SOL    HW121293   5.321   0.154   1.978
 6798SOL    HW221294   5.257   0.165   1.828
 6799SOL     OW21295   5.509   0.493   3.047
 6799SOL    HW121296   5.609   0.499   3.041
 6799SOL    HW221297   5.468   0.568   2.995
 6800SOL     OW21298   1.452   1.432   0.937
 6800SOL    HW121299   1.489   1.414   1.028
 6800SOL    HW221300   1.491   1.367   0.872
 6801SOL     OW21301   1.490   6.322   4.799
 6801SOL    HW121302   1.472   6.419   4.779
 6801SOL    HW221303   1.457   6.266   4.724
 6802SOL     OW21304   3.551   6.028   0.799
 6802SOL    HW121305   3.584   5.965   0.869
 6802SOL    HW221306   3.455   6.008   0.778
 6803SOL     OW21307   4.684   4.746   6.594
 6803SOL    HW121308   4.740   4.669   6.564
 6803SOL    HW221309   4.733   4.832   6.578
 6804SOL     OW21310   2.767   5.101   2.847
 6804SOL    HW121311   2.842   5.129   2.907
 6804SOL    HW221312   2.804   5.075   2.758
 6805SOL     OW21313   0.479   4.499   5.573
 6805SOL    HW121314   0.427   4.561   5.631
 6805SOL    HW221315   0.472   4.528   5.478
 6806SOL     OW21316   6.993   1.180   4.042
 6806SOL    HW121317   0.063   1.206   4.019
 6806SOL    HW221318   6.978   1.191   4.140
 6807SOL     OW21319   3.710   2.905   3.823
 6807SOL    HW121320   3.715   2.925   3.921
 6807SOL    HW221321   3.787   2.950   3.777
 6808SOL     OW21322   5.108   1.233   5.041
 6808SOL    HW121323   5.147   1.309   5.094
 6808SOL    HW221324   5.153   1.229   4.951
 6809SOL     OW21325   6.044   4.374   1.715
 6809SOL    HW121326   6.069   4.374   1.619
 6809SOL    HW221327   6.036   4.468   1.747
 6810SOL     OW21328   3.512   0.909   3.191
 6810SOL    HW121329   3.445   0.953   3.132
 6810SOL    HW221330   3.519   0.960   3.277
 6811SOL     OW21331   6.536   2.191   2.492
 6811SOL    HW121332   6.469   2.129   2.449
 6811SOL    HW221333   6.548   2.166   2.588
 6812SOL     OW21334   3.413   3.590   4.664
 6812SOL    HW121335   3.387   3.499   4.696
 6812SOL    HW221336   3.335   3.635   4.620
 6813SOL     OW21337   5.021   3.500   1.997
 6813SOL    HW121338   4.985   3.421   1.947
 6813SOL    HW221339   4.996   3.493   2.094
 6814SOL     OW21340   4.414   1.407   6.176
 6814SOL    HW121341   4.492   1.469   6.182
 6814SOL    HW221342   4.438   1.330   6.117
 6815SOL     OW21343   1.704   5.277   6.631
 6815SOL    HW121344   1.648   5.204   6.670
 6815SOL    HW221345   1.776   5.302   6.695
 6816SOL     OW21346   6.412   1.548   4.493
 6816SOL    HW121347   6.328   1.529   4.441
 6816SOL    HW221348   6.419   1.484   4.569
 6817SOL     OW21349   3.183   2.158   3.257
 6817SOL    HW121350   3.113   2.227   3.238
 6817SOL    HW221351   3.215   2.170   3.351
 6818SOL     OW21352   2.281   6.706   6.143
 6818SOL    HW121353   2.289   6.649   6.225
 6818SOL    HW221354   2.184   6.720   6.121
 6819SOL     OW21355   4.908   6.007   2.893
 6819SOL    HW121356   4.943   5.976   2.805
 6819SOL    HW221357   4.866   5.930   2.941
 6820SOL     OW21358   1.353   6.236   1.317
 6820SOL    HW121359   1.401   6.250   1.404
 6820SOL    HW221360   1.388   6.301   1.249
 6821SOL     OW21361   4.427   2.273   5.567
 6821SOL    HW121362   4.399   2.344   5.501
 6821SOL    HW221363   4.474   2.200   5.519
 6822SOL     OW21364   6.780   2.462   6.700
 6822SOL    HW121365   6.714   2.410   6.754
 6822SOL    HW221366   6.828   2.527   6.759
 6823SOL     OW21367   5.242   3.425   6.757
 6823SOL    HW121368   5.255   3.395   6.852
 6823SOL    HW221369   5.236   3.345   6.697
 6824SOL     OW21370   1.362   1.771   6.770
 6824SOL    HW121371   1.329   1.677   6.768
 6824SOL    HW221372   1.354   1.811   6.679
 6825SOL     OW21373   6.676   6.194   0.920
 6825SOL    HW121374   6.653   6.199   1.018
 6825SOL    HW221375   6.593   6.177   0.868
 6826SOL     OW21376   0.525   3.185   2.871
 6826SOL    HW121377   0.525   3.135   2.785
 6826SOL    HW221378   0.566   3.128   2.943
 6827SOL     OW21379   5.165   5.245   5.640
 6827SOL    HW121380   5.138   5.267   5.547
 6827SOL    HW221381   5.173   5.329   5.694
 6828SOL     OW21382   3.251   1.642   2.830
 6828SOL    HW121383   3.276   1.546   2.838
 6828SOL    HW221384   3.299   1.684   2.753
 6829SOL     OW21385   5.266   0.028   5.111
 6829SOL    HW121386   5.239   6.955   5.117
 6829SOL    HW221387   5.285   0.051   5.015
 6830SOL     OW21388   5.946   1.302   3.041
 6830SOL    HW121389   5.902   1.215   3.062
 6830SOL    HW221390   6.043   1.287   3.021
 6831SOL     OW21391   1.268   1.331   5.365
 6831SOL    HW121392   1.240   1.254   5.422
 6831SOL    HW221393   1.197   1.401   5.365
 6832SOL     OW21394   2.716   2.440   0.170
 6832SOL    HW121395   2.630   2.443   0.221
 6832SOL    HW221396   2.781   2.504   0.211
 6833SOL     OW21397   3.571   5.834   6.046
 6833SOL    HW121398   3.474   5.825   6.022
 6833SOL    HW221399   3.582   5.912   6.108
 6834SOL     OW21400   4.940   0.138   0.589
 6834SOL    HW121401   4.937   0.235   0.566
 6834SOL    HW221402   4.990   0.126   0.675
 6835SOL     OW21403   3.745   1.374   4.053
 6835SOL    HW121404   3.798   1.365   4.137
 6835SOL    HW221405   3.695   1.289   4.037
 6836SOL     OW21406   1.991   4.374   6.923
 6836SOL    HW121407   2.067   4.316   6.894
 6836SOL    HW221408   2.026   4.452   6.974
 6837SOL     OW21409   1.265   1.313   2.647
 6837SOL    HW121410   1.187   1.306   2.585
 6837SOL    HW221411   1.236   1.354   2.733
 6838SOL     OW21412   2.842   4.217   5.298
 6838SOL    HW121413   2.864   4.222   5.395
 6838SOL    HW221414   2.881   4.296   5.251
 6839SOL     OW21415   5.041   2.241   3.488
 6839SOL    HW121416   5.020   2.156   3.536
 6839SOL    HW221417   4.964   2.304   3.497
 6840SOL     OW21418   2.706   6.724   4.529
 6840SOL    HW121419   2.716   6.624   4.529
 6840SOL    HW221420   2.724   6.759   4.437
 6841SOL     OW21421   3.895   4.888   1.986
 6841SOL    HW121422   3.848   4.820   2.043
 6841SOL    HW221423   3.843   4.902   1.902
 6842SOL     OW21424   0.797   3.128   6.924
 6842SOL    HW121425   0.798   3.047   6.982
 6842SOL    HW221426   0.745   3.200   6.969
 6843SOL     OW21427   4.910   1.541   2.025
 6843SOL    HW121428   4.931   1.595   1.944
 6843SOL    HW221429   4.909   1.600   2.105
 6844SOL     OW21430   4.891   5.668   4.476
 6844SOL    HW121431   4.863   5.577   4.445
 6844SOL    HW221432   4.883   5.674   4.575
 6845SOL     OW21433   4.820   4.242   2.480
 6845SOL    HW121434   4.812   4.244   2.380
 6845SOL    HW221435   4.781   4.325   2.518
 6846SOL     OW21436   3.732   3.351   1.219
 6846SOL    HW121437   3.812   3.315   1.170
 6846SOL    HW221438   3.653   3.350   1.158
 6847SOL     OW21439   5.005   3.909   1.933
 6847SOL    HW121440   5.072   3.938   1.864
 6847SOL    HW221441   4.920   3.884   1.887
 6848SOL     OW21442   1.031   4.827   4.360
 6848SOL    HW121443   1.080   4.834   4.273
 6848SOL    HW221444   0.938   4.797   4.343
 6849SOL     OW21445   3.762   5.819   4.318
 6849SOL    HW121446   3.784   5.775   4.231
 6849SOL    HW221447   3.790   5.759   4.394
 6850SOL     OW21448   5.697   2.630   3.127
 6850SOL    HW121449   5.795   2.608   3.125
 6850SOL    HW221450   5.685   2.729   3.124
 6851SOL     OW21451   1.003   4.991   5.244
 6851SOL    HW121452   1.032   5.086   5.241
 6851SOL    HW221453   1.020   4.954   5.336
 6852SOL     OW21454   0.982   4.008   1.252
 6852SOL    HW121455   0.968   4.094   1.302
 6852SOL    HW221456   1.046   4.023   1.177
 6853SOL     OW21457   0.054   4.883   6.436
 6853SOL    HW121458   6.999   4.892   6.496
 6853SOL    HW221459   0.050   4.796   6.387
 6854SOL     OW21460   6.284   1.058   5.929
 6854SOL    HW121461   6.303   0.981   5.989
 6854SOL    HW221462   6.309   1.143   5.975
 6855SOL     OW21463   3.582   6.808   2.662
 6855SOL    HW121464   3.503   6.843   2.612
 6855SOL    HW221465   3.571   6.827   2.759
 6856SOL     OW21466   5.438   4.348   5.439
 6856SOL    HW121467   5.393   4.260   5.458
 6856SOL    HW221468   5.377   4.423   5.464
 6857SOL     OW21469   3.450   1.144   6.587
 6857SOL    HW121470   3.369   1.170   6.535
 6857SOL    HW221471   3.468   1.213   6.658
 6858SOL     OW21472   3.669   2.941   4.530
 6858SOL    HW121473   3.647   2.896   4.444
 6858SOL    HW221474   3.764   2.922   4.554
 6859SOL     OW21475   1.598   6.941   1.022
 6859SOL    HW121476   1.514   6.960   0.970
 6859SOL    HW221477   1.580   6.869   1.088
 6860SOL     OW21478   6.039   4.983   1.563
 6860SOL    HW121479   5.988   5.035   1.632
 6860SOL    HW221480   6.076   5.046   1.494
 6861SOL     OW21481   5.420   4.460   1.032
 6861SOL    HW121482   5.473   4.506   0.961
 6861SOL    HW221483   5.475   4.387   1.072
 6862SOL     OW21484   2.813   4.906   4.832
 6862SOL    HW121485   2.880   4.889   4.905
 6862SOL    HW221486   2.775   4.998   4.843
 6863SOL     OW21487   5.869   1.333   5.263
 6863SOL    HW121488   5.892   1.332   5.166
 6863SOL    HW221489   5.933   1.393   5.312
 6864SOL     OW21490   3.544   6.029   4.122
 6864SOL    HW121491   3.559   6.111   4.177
 6864SOL    HW221492   3.553   6.052   4.025
 6865SOL     OW21493   6.594   4.894   3.684
 6865SOL    HW121494   6.508   4.867   3.727
 6865SOL    HW221495   6.626   4.821   3.624
 6866SOL     OW21496   6.782   4.451   2.026
 6866SOL    HW121497   6.805   4.378   1.962
 6866SOL    HW221498   6.842   4.445   2.106
 6867SOL     OW21499   1.036   4.233   0.988
 6867SOL    HW121500   1.028   4.323   1.032
 6867SOL    HW221501   1.108   4.236   0.919
 6868SOL     OW21502   1.822   5.973   5.349
 6868SOL    HW121503   1.863   5.892   5.393
 6868SOL    HW221504   1.743   6.003   5.403
 6869SOL     OW21505   5.470   3.012   5.101
 6869SOL    HW121506   5.475   2.964   5.188
 6869SOL    HW221507   5.527   2.965   5.034
 6870SOL     OW21508   6.274   3.741   2.865
 6870SOL    HW121509   6.254   3.645   2.843
 6870SOL    HW221510   6.246   3.799   2.789
 6871SOL     OW21511   6.186   5.072   2.107
 6871SOL    HW121512   6.276   5.030   2.119
 6871SOL    HW221513   6.123   5.006   2.067
 6872SOL     OW21514   1.821   3.718   0.992
 6872SOL    HW121515   1.895   3.750   0.933
 6872SOL    HW221516   1.844   3.736   1.087
 6873SOL     OW21517   6.196   3.269   5.739
 6873SOL    HW121518   6.209   3.193   5.676
 6873SOL    HW221519   6.174   3.233   5.830
 6874SOL     OW21520   0.548   3.674   3.219
 6874SOL    HW121521   0.552   3.628   3.307
 6874SOL    HW221522   0.520   3.608   3.149
 6875SOL     OW21523   1.671   2.212   3.768
 6875SOL    HW121524   1.599   2.252   3.712
 6875SOL    HW221525   1.638   2.128   3.810
 6876SOL     OW21526   3.320   5.592   6.605
 6876SOL    HW121527   3.339   5.687   6.581
 6876SOL    HW221528   3.376   5.565   6.683
 6877SOL     OW21529   2.925   4.344   0.122
 6877SOL    HW121530   2.942   4.246   0.128
 6877SOL    HW221531   2.839   4.360   0.074
 6878SOL     OW21532   1.930   1.563   5.706
 6878SOL    HW121533   1.928   1.662   5.689
 6878SOL    HW221534   1.918   1.515   5.619
 6879SOL     OW21535   0.462   2.158   0.535
 6879SOL    HW121536   0.434   2.193   0.446
 6879SOL    HW221537   0.530   2.219   0.575
 6880SOL     OW21538   2.029   3.381   5.199
 6880SOL    HW121539   2.056   3.305   5.140
 6880SOL    HW221540   1.990   3.454   5.143
 6881SOL     OW21541   6.791   4.799   2.023
 6881SOL    HW121542   6.889   4.818   2.028
 6881SOL    HW221543   6.754   4.783   2.114
 6882SOL     OW21544   1.965   0.435   6.020
 6882SOL    HW121545   2.061   0.408   6.024
 6882SOL    HW221546   1.949   0.490   5.939
 6883SOL     OW21547   3.630   0.586   0.743
 6883SOL    HW121548   3.591   0.496   0.766
 6883SOL    HW221549   3.565   0.636   0.685
 6884SOL     OW21550   2.188   4.002   3.842
 6884SOL    HW121551   2.259   4.067   3.869
 6884SOL    HW221552   2.200   3.976   3.747
 6885SOL     OW21553   2.658   5.299   4.136
 6885SOL    HW121554   2.732   5.279   4.201
 6885SOL    HW221555   2.690   5.284   4.043
 6886SOL     OW21556   6.622   1.046   2.049
 6886SOL    HW121557   6.717   1.077   2.042
 6886SOL    HW221558   6.560   1.120   2.023
 6887SOL     OW21559   5.138   0.212   5.286
 6887SOL    HW121560   5.192   0.136   5.249
 6887SOL    HW221561   5.186   0.252   5.364
 6888SOL     OW21562   6.008   6.774   6.183
 6888SOL    HW121563   6.092   6.725   6.159
 6888SOL    HW221564   5.957   6.721   6.252
 6889SOL     OW21565   1.319   2.487   5.295
 6889SOL    HW121566   1.326   2.424   5.373
 6889SOL    HW221567   1.314   2.435   5.210
 6890SOL     OW21568   2.072   6.690   0.558
 6890SOL    HW121569   2.099   6.671   0.652
 6890SOL    HW221570   2.146   6.738   0.511
 6891SOL     OW21571   2.127   3.624   4.778
 6891SOL    HW121572   2.123   3.673   4.865
 6891SOL    HW221573   2.142   3.527   4.795
 6892SOL     OW21574   4.307   0.295   4.695
 6892SOL    HW121575   4.387   0.254   4.651
 6892SOL    HW221576   4.334   0.381   4.739
 6893SOL     OW21577   5.376   6.449   2.079
 6893SOL    HW121578   5.352   6.517   2.148
 6893SOL    HW221579   5.385   6.359   2.123
 6894SOL     OW21580   6.129   5.656   1.072
 6894SOL    HW121581   6.083   5.571   1.049
 6894SOL    HW221582   6.206   5.637   1.133
 6895SOL     OW21583   3.117   5.207   0.153
 6895SOL    HW121584   3.043   5.177   0.093
 6895SOL    HW221585   3.198   5.151   0.136
 6896SOL     OW21586   3.801   6.774   3.705
 6896SOL    HW121587   3.744   6.732   3.776
 6896SOL    HW221588   3.837   6.861   3.739
 6897SOL     OW21589   2.866   3.400   0.221
 6897SOL    HW121590   2.812   3.428   0.141
 6897SOL    HW221591   2.937   3.468   0.238
 6898SOL     OW21592   3.961   1.600   2.386
 6898SOL    HW121593   4.053   1.561   2.390
 6898SOL    HW221594   3.894   1.529   2.407
 6899SOL     OW21595   4.865   7.008   6.839
 6899SOL    HW121596   4.918   0.070   6.836
 6899SOL    HW221597   4.928   6.932   6.855
 6900SOL     OW21598   6.256   0.531   6.163
 6900SOL    HW121599   6.324   0.551   6.233
 6900SOL    HW221600   6.236   0.433   6.162
 6901SOL     OW21601   0.237   0.258   6.791
 6901SOL    HW121602   0.174   0.297   6.858
 6901SOL    HW221603   0.248   0.321   6.714
 6902SOL     OW21604   0.046   6.480   0.741
 6902SOL    HW121605   0.080   6.386   0.733
 6902SOL    HW221606   0.112   6.536   0.792
 6903SOL     OW21607   3.300   3.475   6.732
 6903SOL    HW121608   3.382   3.452   6.783
 6903SOL    HW221609   3.276   3.399   6.671
 6904SOL     OW21610   0.150   1.171   3.492
 6904SOL    HW121611   0.160   1.234   3.415
 6904SOL    HW221612   0.074   1.201   3.550
 6905SOL     OW21613   6.346   6.105   0.083
 6905SOL    HW121614   6.277   6.167   0.045
 6905SOL    HW221615   6.399   6.153   0.153
 6906SOL     OW21616   4.010   1.128   4.154
 6906SOL    HW121617   4.006   1.096   4.249
 6906SOL    HW221618   4.046   1.221   4.152
 6907SOL     OW21619   4.018   2.213   0.491
 6907SOL    HW121620   4.088   2.176   0.553
 6907SOL    HW221621   4.021   2.313   0.493
 6908SOL     OW21622   1.258   6.932   5.138
 6908SOL    HW121623   1.216   6.966   5.222
 6908SOL    HW221624   1.312   6.851   5.158
 6909SOL     OW21625   4.550   4.732   1.096
 6909SOL    HW121626   4.618   4.723   1.023
 6909SOL    HW221627   4.505   4.821   1.089
 6910SOL     OW21628   6.398   1.994   3.109
 6910SOL    HW121629   6.493   2.015   3.087
 6910SOL    HW221630   6.386   1.895   3.114
 6911SOL     OW21631   3.911   0.661   3.012
 6911SOL    HW121632   3.987   0.665   3.077
 6911SOL    HW221633   3.826   0.687   3.058
 6912SOL     OW21634   5.036   4.607   1.811
 6912SOL    HW121635   5.084   4.530   1.768
 6912SOL    HW221636   4.998   4.579   1.899
 6913SOL     OW21637   4.895   4.287   5.415
 6913SOL    HW121638   4.959   4.243   5.478
 6913SOL    HW221639   4.826   4.221   5.386
 6914SOL     OW21640   5.918   5.764   0.242
 6914SOL    HW121641   5.879   5.840   0.295
 6914SOL    HW221642   6.017   5.775   0.235
 6915SOL     OW21643   0.250   5.031   1.711
 6915SOL    HW121644   0.314   5.079   1.651
 6915SOL    HW221645   0.217   5.093   1.782
 6916SOL     OW21646   6.309   3.926   6.742
 6916SOL    HW121647   6.397   3.968   6.766
 6916SOL    HW221648   6.272   3.972   6.661
 6917SOL     OW21649   4.060   5.101   6.782
 6917SOL    HW121650   3.973   5.143   6.807
 6917SOL    HW221651   4.047   5.003   6.767
 6918SOL     OW21652   0.395   3.894   4.509
 6918SOL    HW121653   0.482   3.855   4.477
 6918SOL    HW221654   0.385   3.878   4.607
 6919SOL     OW21655   1.825   5.471   2.517
 6919SOL    HW121656   1.778   5.473   2.429
 6919SOL    HW221657   1.759   5.456   2.590
 6920SOL     OW21658   5.058   5.001   5.777
 6920SOL    HW121659   5.101   5.076   5.727
 6920SOL    HW221660   5.095   4.998   5.869
 6921SOL     OW21661   5.172   5.842   3.165
 6921SOL    HW121662   5.225   5.903   3.106
 6921SOL    HW221663   5.089   5.890   3.195
 6922SOL     OW21664   1.868   5.935   0.297
 6922SOL    HW121665   1.803   5.992   0.246
 6922SOL    HW221666   1.870   5.844   0.256
 6923SOL     OW21667   5.463   6.771   3.758
 6923SOL    HW121668   5.552   6.754   3.716
 6923SOL    HW221669   5.421   6.851   3.717
 6924SOL     OW21670   0.923   3.906   6.284
 6924SOL    HW121671   0.852   3.925   6.351
 6924SOL    HW221672   0.968   3.820   6.307
 6925SOL     OW21673   4.245   6.009   4.149
 6925SOL    HW121674   4.324   6.046   4.101
 6925SOL    HW221675   4.168   6.073   4.143
 6926SOL     OW21676   3.373   3.057   2.679
 6926SOL    HW121677   3.400   3.009   2.596
 6926SOL    HW221678   3.436   3.133   2.695
 6927SOL     OW21679   5.646   2.754   6.435
 6927SOL    HW121680   5.548   2.757   6.456
 6927SOL    HW221681   5.659   2.759   6.336
 6928SOL     OW21682   5.894   0.012   0.174
 6928SOL    HW121683   5.816   6.994   0.126
 6928SOL    HW221684   5.909   0.105   0.138
 6929SOL     OW21685   4.714   5.892   0.275
 6929SOL    HW121686   4.622   5.859   0.256
 6929SOL    HW221687   4.780   5.819   0.258
 6930SOL     OW21688   0.153   6.908   1.475
 6930SOL    HW121689   0.085   6.900   1.548
 6930SOL    HW221690   0.112   6.881   1.388
 6931SOL     OW21691   0.979   0.833   1.728
 6931SOL    HW121692   1.003   0.835   1.631
 6931SOL    HW221693   0.945   0.923   1.756
 6932SOL     OW21694   3.819   1.011   0.196
 6932SOL    HW121695   3.854   0.951   0.268
 6932SOL    HW221696   3.770   1.088   0.239
 6933SOL     OW21697   3.337   6.123   4.698
 6933SOL    HW121698   3.433   6.147   4.682
 6933SOL    HW221699   3.286   6.132   4.613
 6934SOL     OW21700   5.399   3.790   6.089
 6934SOL    HW121701   5.491   3.792   6.051
 6934SOL    HW221702   5.335   3.827   6.021
 6935SOL     OW21703   4.003   6.734   2.838
 6935SOL    HW121704   4.070   6.661   2.850
 6935SOL    HW221705   3.912   6.699   2.863
 6936SOL     OW21706   6.416   2.308   2.737
 6936SOL    HW121707   6.492   2.356   2.781
 6936SOL    HW221708   6.375   2.367   2.668
 6937SOL     OW21709   5.802   6.542   0.262
 6937SOL    HW121710   5.858   6.617   0.228
 6937SOL    HW221711   5.717   6.538   0.210
 6938SOL     OW21712   5.079   4.007   5.369
 6938SOL    HW121713   4.998   4.043   5.324
 6938SOL    HW221714   5.060   3.915   5.405
 6939SOL     OW21715   0.341   4.818   3.023
 6939SOL    HW121716   0.334   4.881   3.101
 6939SOL    HW221717   0.380   4.731   3.053
 6940SOL     OW21718   4.653   1.639   0.590
 6940SOL    HW121719   4.617   1.718   0.639
 6940SOL    HW221720   4.606   1.556   0.620
 6941SOL     OW21721   4.014   3.215   3.058
 6941SOL    HW121722   4.057   3.181   3.141
 6941SOL    HW221723   3.984   3.137   3.002
 6942SOL     OW21724   6.866   2.885   1.386
 6942SOL    HW121725   6.868   2.797   1.339
 6942SOL    HW221726   6.912   2.954   1.331
 6943SOL     OW21727   5.243   6.417   6.702
 6943SOL    HW121728   5.313   6.362   6.747
 6943SOL    HW221729   5.164   6.426   6.762
 6944SOL     OW21730   1.277   4.276   5.118
 6944SOL    HW121731   1.349   4.208   5.112
 6944SOL    HW221732   1.283   4.323   5.206
 6945SOL     OW21733   5.775   3.027   7.023
 6945SOL    HW121734   5.834   3.094   6.979
 6945SOL    HW221735   5.797   2.935   6.989
 6946SOL     OW21736   6.216   5.480   2.374
 6946SOL    HW121737   6.262   5.426   2.303
 6946SOL    HW221738   6.280   5.500   2.448
 6947SOL     OW21739   4.009   6.873   5.077
 6947SOL    HW121740   3.949   6.891   4.999
 6947SOL    HW221741   4.072   6.949   5.088
 6948SOL     OW21742   5.542   0.671   0.467
 6948SOL    HW121743   5.627   0.638   0.508
 6948SOL    HW221744   5.564   0.740   0.398
 6949SOL     OW21745   5.489   6.542   3.909
 6949SOL    HW121746   5.480   6.456   3.858
 6949SOL    HW221747   5.505   6.617   3.844
 6950SOL     OW21748   2.269   7.018   3.359
 6950SOL    HW121749   2.368   7.018   3.370
 6950SOL    HW221750   2.227   0.049   3.432
 6951SOL     OW21751   6.138   6.261   6.109
 6951SOL    HW121752   6.211   6.202   6.076
 6951SOL    HW221753   6.107   6.321   6.036
 6952SOL     OW21754   0.189   5.069   3.523
 6952SOL    HW121755   0.185   4.995   3.590
 6952SOL    HW221756   0.180   5.157   3.570
 6953SOL     OW21757   4.950   0.460   6.142
 6953SOL    HW121758   4.953   0.395   6.219
 6953SOL    HW221759   4.921   0.549   6.175
 6954SOL     OW21760   1.004   4.212   4.073
 6954SOL    HW121761   1.037   4.238   3.982
 6954SOL    HW221762   1.069   4.149   4.116
 6955SOL     OW21763   6.984   0.520   1.822
 6955SOL    HW121764   6.996   0.598   1.884
 6955SOL    HW221765   6.955   0.440   1.874
 6956SOL     OW21766   4.102   6.190   2.797
 6956SOL    HW121767   4.129   6.134   2.719
 6956SOL    HW221768   4.183   6.233   2.838
 6957SOL     OW21769   6.909   4.758   1.438
 6957SOL    HW121770   6.842   4.828   1.413
 6957SOL    HW221771   6.960   4.788   1.518
 6958SOL     OW21772   2.793   3.537   5.698
 6958SOL    HW121773   2.792   3.454   5.753
 6958SOL    HW221774   2.887   3.571   5.690
 6959SOL     OW21775   2.041   1.456   5.001
 6959SOL    HW121776   2.052   1.488   4.907
 6959SOL    HW221777   2.109   1.385   5.020
 6960SOL     OW21778   0.625   5.485   0.304
 6960SOL    HW121779   0.592   5.564   0.355
 6960SOL    HW221780   0.633   5.406   0.365
 6961SOL     OW21781   0.221   2.604   4.283
 6961SOL    HW121782   0.144   2.625   4.223
 6961SOL    HW221783   0.304   2.593   4.229
 6962SOL     OW21784   5.381   5.225   2.849
 6962SOL    HW121785   5.398   5.140   2.800
 6962SOL    HW221786   5.394   5.303   2.787
 6963SOL     OW21787   0.666   5.892   0.411
 6963SOL    HW121788   0.765   5.888   0.422
 6963SOL    HW221789   0.624   5.920   0.498
 6964SOL     OW21790   5.137   4.673   4.851
 6964SOL    HW121791   5.077   4.673   4.930
 6964SOL    HW221792   5.170   4.580   4.834
 6965SOL     OW21793   0.540   3.762   6.210
 6965SOL    HW121794   0.590   3.679   6.186
 6965SOL    HW221795   0.573   3.796   6.298
 6966SOL     OW21796   5.716   2.903   2.814
 6966SOL    HW121797   5.756   2.822   2.770
 6966SOL    HW221798   5.616   2.894   2.814
 6967SOL     OW21799   1.473   1.627   5.162
 6967SOL    HW121800   1.544   1.684   5.121
 6967SOL    HW221801   1.394   1.684   5.186
 6968SOL     OW21802   3.195   6.425   2.602
 6968SOL    HW121803   3.207   6.403   2.505
 6968SOL    HW221804   3.206   6.342   2.656
 6969SOL     OW21805   3.982   1.790   2.044
 6969SOL    HW121806   4.065   1.838   2.017
 6969SOL    HW221807   3.902   1.840   2.011
 6970SOL     OW21808   4.401   4.107   0.517
 6970SOL    HW121809   4.459   4.188   0.528
 6970SOL    HW221810   4.380   4.070   0.608
 6971SOL     OW21811   6.430   4.020   2.211
 6971SOL    HW121812   6.359   4.004   2.280
 6971SOL    HW221813   6.489   3.940   2.203
 6972SOL     OW21814   5.979   5.021   4.284
 6972SOL    HW121815   6.044   4.946   4.273
 6972SOL    HW221816   5.902   4.990   4.341
 6973SOL     OW21817   1.203   3.905   4.725
 6973SOL    HW121818   1.164   3.815   4.745
 6973SOL    HW221819   1.128   3.970   4.710
 6974SOL     OW21820   3.534   2.974   3.573
 6974SOL    HW121821   3.514   2.917   3.653
 6974SOL    HW221822   3.489   3.063   3.583
 6975SOL     OW21823   3.165   6.442   5.737
 6975SOL    HW121824   3.100   6.371   5.765
 6975SOL    HW221825   3.119   6.531   5.740
 6976SOL     OW21826   3.970   4.197   5.697
 6976SOL    HW121827   3.965   4.268   5.767
 6976SOL    HW221828   3.892   4.205   5.635
 6977SOL     OW21829   5.454   2.290   1.437
 6977SOL    HW121830   5.454   2.191   1.419
 6977SOL    HW221831   5.366   2.316   1.477
 6978SOL     OW21832   6.086   1.846   1.180
 6978SOL    HW121833   6.092   1.800   1.269
 6978SOL    HW221834   6.089   1.945   1.193
 6979SOL     OW21835   1.206   4.699   1.455
 6979SOL    HW121836   1.244   4.779   1.503
 6979SOL    HW221837   1.173   4.633   1.523
 6980SOL     OW21838   1.626   0.294   3.977
 6980SOL    HW121839   1.653   0.390   3.971
 6980SOL    HW221840   1.640   0.261   4.070
 6981SOL     OW21841   2.442   3.144   0.020
 6981SOL    HW121842   2.503   3.143   6.964
 6981SOL    HW221843   2.354   3.105   7.018
 6982SOL     OW21844   1.394   1.643   3.896
 6982SOL    HW121845   1.395   1.716   3.965
 6982SOL    HW221846   1.448   1.671   3.817
 6983SOL     OW21847   5.782   2.325   3.510
 6983SOL    HW121848   5.853   2.315   3.580
 6983SOL    HW221849   5.820   2.296   3.422
 6984SOL     OW21850   2.506   1.922   4.849
 6984SOL    HW121851   2.440   1.941   4.922
 6984SOL    HW221852   2.599   1.930   4.886
 6985SOL     OW21853   3.679   5.327   2.702
 6985SOL    HW121854   3.636   5.416   2.716
 6985SOL    HW221855   3.621   5.271   2.642
 6986SOL     OW21856   1.626   6.275   6.070
 6986SOL    HW121857   1.570   6.340   6.121
 6986SOL    HW221858   1.701   6.324   6.024
 6987SOL     OW21859   0.981   1.876   6.610
 6987SOL    HW121860   1.006   1.787   6.649
 6987SOL    HW221861   1.055   1.908   6.551
 6988SOL     OW21862   6.146   0.569   4.616
 6988SOL    HW121863   6.129   0.637   4.687
 6988SOL    HW221864   6.244   0.562   4.598
 6989SOL     OW21865   0.771   3.090   4.015
 6989SOL    HW121866   0.784   3.186   4.040
 6989SOL    HW221867   0.830   3.068   3.937
 6990SOL     OW21868   5.245   1.780   0.100
 6990SOL    HW121869   5.170   1.726   0.137
 6990SOL    HW221870   5.271   1.746   0.010
 6991SOL     OW21871   2.342   4.743   4.491
 6991SOL    HW121872   2.372   4.760   4.397
 6991SOL    HW221873   2.354   4.826   4.545
 6992SOL     OW21874   6.218   6.141   5.139
 6992SOL    HW121875   6.247   6.134   5.043
 6992SOL    HW221876   6.220   6.050   5.180
 6993SOL     OW21877   6.376   6.793   2.699
 6993SOL    HW121878   6.372   6.888   2.668
 6993SOL    HW221879   6.332   6.734   2.630
 6994SOL     OW21880   0.761   2.884   4.992
 6994SOL    HW121881   0.799   2.941   4.920
 6994SOL    HW221882   0.700   2.938   5.049
 6995SOL     OW21883   6.437   5.528   4.879
 6995SOL    HW121884   6.374   5.592   4.835
 6995SOL    HW221885   6.435   5.441   4.830
 6996SOL     OW21886   1.970   1.161   4.867
 6996SOL    HW121887   1.988   1.068   4.900
 6996SOL    HW221888   2.003   1.227   4.935
 6997SOL     OW21889   5.285   6.024   5.282
 6997SOL    HW121890   5.298   6.116   5.245
 6997SOL    HW221891   5.346   6.010   5.359
 6998SOL     OW21892   1.967   2.467   1.630
 6998SOL    HW121893   2.054   2.461   1.582
 6998SOL    HW221894   1.892   2.447   1.566
 6999SOL     OW21895   2.181   2.020   6.749
 6999SOL    HW121896   2.179   2.028   6.649
 6999SOL    HW221897   2.127   1.941   6.777
 7000SOL     OW21898   6.713   6.002   2.548
 7000SOL    HW121899   6.801   5.954   2.547
 7000SOL    HW221900   6.649   5.954   2.609
 7001SOL     OW21901   2.282   3.123   5.825
 7001SOL    HW121902   2.340   3.077   5.892
 7001SOL    HW221903   2.245   3.055   5.761
 7002SOL     OW21904   2.724   4.835   2.966
 7002SOL    HW121905   2.741   4.852   2.869
 7002SOL    HW221906   2.625   4.828   2.982
 7003SOL     OW21907   4.012   6.226   6.813
 7003SOL    HW121908   3.945   6.155   6.836
 7003SOL    HW221909   4.103   6.196   6.843
 7004SOL     OW21910   1.957   5.020   1.774
 7004SOL    HW121911   2.030   5.087   1.762
 7004SOL    HW221912   1.995   4.936   1.813
 7005SOL     OW21913   0.683   6.426   5.764
 7005SOL    HW121914   0.672   6.342   5.710
 7005SOL    HW221915   0.601   6.483   5.754
 7006SOL     OW21916   5.769   4.962   4.465
 7006SOL    HW121917   5.763   5.057   4.434
 7006SOL    HW221918   5.766   4.960   4.564
 7007SOL     OW21919   5.021   6.656   2.956
 7007SOL    HW121920   5.012   6.678   2.858
 7007SOL    HW221921   4.947   6.699   3.007
 7008SOL     OW21922   2.169   5.849   4.425
 7008SOL    HW121923   2.237   5.916   4.454
 7008SOL    HW221924   2.142   5.868   4.330
 7009SOL     OW21925   5.763   5.194   2.604
 7009SOL    HW121926   5.803   5.134   2.534
 7009SOL    HW221927   5.664   5.202   2.588
 7010SOL     OW21928   4.391   3.676   6.234
 7010SOL    HW121929   4.385   3.578   6.256
 7010SOL    HW221930   4.301   3.718   6.241
 7011SOL     OW21931   1.792   0.858   6.199
 7011SOL    HW121932   1.886   0.884   6.175
 7011SOL    HW221933   1.745   0.935   6.241
 7012SOL     OW21934   2.444   1.074   1.892
 7012SOL    HW121935   2.489   1.016   1.824
 7012SOL    HW221936   2.502   1.154   1.911
 7013SOL     OW21937   6.915   6.398   0.985
 7013SOL    HW121938   6.820   6.367   0.984
 7013SOL    HW221939   6.947   6.412   0.891
 7014SOL     OW21940   4.532   3.330   0.991
 7014SOL    HW121941   4.435   3.309   0.981
 7014SOL    HW221942   4.550   3.359   1.085
 7015SOL     OW21943   5.632   4.583   2.058
 7015SOL    HW121944   5.570   4.639   2.113
 7015SOL    HW221945   5.587   4.554   1.974
 7016SOL     OW21946   3.699   4.936   2.230
 7016SOL    HW121947   3.664   4.869   2.164
 7016SOL    HW221948   3.626   5.000   2.254
 7017SOL     OW21949   2.303   0.493   2.191
 7017SOL    HW121950   2.227   0.444   2.149
 7017SOL    HW221951   2.274   0.531   2.279
 7018SOL     OW21952   6.408   4.233   4.642
 7018SOL    HW121953   6.410   4.321   4.595
 7018SOL    HW221954   6.348   4.239   4.722
 7019SOL     OW21955   3.118   4.642   6.624
 7019SOL    HW121956   3.037   4.699   6.640
 7019SOL    HW221957   3.125   4.621   6.526
 7020SOL     OW21958   6.452   6.525   6.619
 7020SOL    HW121959   6.500   6.576   6.547
 7020SOL    HW221960   6.459   6.575   6.705
 7021SOL     OW21961   2.006   1.164   5.414
 7021SOL    HW121962   2.091   1.211   5.387
 7021SOL    HW221963   1.957   1.134   5.332
 7022SOL     OW21964   4.663   4.363   0.787
 7022SOL    HW121965   4.570   4.387   0.815
 7022SOL    HW221966   4.717   4.339   0.868
 7023SOL     OW21967   0.746   2.110   3.504
 7023SOL    HW121968   0.663   2.134   3.454
 7023SOL    HW221969   0.735   2.134   3.601
 7024SOL     OW21970   1.231   5.366   5.882
 7024SOL    HW121971   1.214   5.446   5.825
 7024SOL    HW221972   1.194   5.284   5.837
 7025SOL     OW21973   3.006   1.503   0.138
 7025SOL    HW121974   2.954   1.527   0.220
 7025SOL    HW221975   3.084   1.446   0.163
 7026SOL     OW21976   2.941   1.613   1.980
 7026SOL    HW121977   2.842   1.606   1.966
 7026SOL    HW221978   2.963   1.595   2.076
 7027SOL     OW21979   3.268   5.488   2.701
 7027SOL    HW121980   3.286   5.392   2.722
 7027SOL    HW221981   3.171   5.507   2.709
 7028SOL     OW21982   6.330   6.727   4.382
 7028SOL    HW121983   6.324   6.654   4.450
 7028SOL    HW221984   6.328   6.816   4.428
 7029SOL     OW21985   3.992   6.587   0.009
 7029SOL    HW121986   4.073   6.642   0.027
 7029SOL    HW221987   3.971   6.590   6.934
 7030SOL     OW21988   6.473   2.492   5.952
 7030SOL    HW121989   6.552   2.436   5.976
 7030SOL    HW221990   6.500   2.563   5.886
 7031SOL     OW21991   2.146   5.692   3.658
 7031SOL    HW121992   2.208   5.720   3.585
 7031SOL    HW221993   2.189   5.708   3.747
 7032SOL     OW21994   3.397   6.850   3.811
 7032SOL    HW121995   3.305   6.888   3.803
 7032SOL    HW221996   3.447   6.899   3.883
 7033SOL     OW21997   6.622   1.683   3.248
 7033SOL    HW121998   6.617   1.593   3.290
 7033SOL    HW221999   6.594   1.753   3.314
 7034SOL     OW22000   6.317   0.413   2.604
 7034SOL    HW122001   6.409   0.452   2.602
 7034SOL    HW222002   6.278   0.415   2.512
 7035SOL     OW22003   1.581   6.718   1.942
 7035SOL    HW122004   1.543   6.627   1.962
 7035SOL    HW222005   1.549   6.783   2.010
 7036SOL     OW22006   0.021   0.523   1.422
 7036SOL    HW122007   6.983   0.449   1.393
 7036SOL    HW222008   7.001   0.576   1.494
 7037SOL     OW22009   0.848   0.095   5.960
 7037SOL    HW122010   0.918   0.052   5.903
 7037SOL    HW222011   0.853   0.057   6.052
 7038SOL     OW22012   1.620   3.913   4.114
 7038SOL    HW122013   1.686   3.873   4.178
 7038SOL    HW222014   1.657   3.998   4.078
 7039SOL     OW22015   2.963   6.118   0.659
 7039SOL    HW122016   3.043   6.062   0.636
 7039SOL    HW222017   2.902   6.124   0.580
 7040SOL     OW22018   4.949   2.489   5.120
 7040SOL    HW122019   4.885   2.513   5.193
 7040SOL    HW222020   4.898   2.447   5.044
 7041SOL     OW22021   0.884   1.719   2.988
 7041SOL    HW122022   0.794   1.754   3.015
 7041SOL    HW222023   0.872   1.635   2.936
 7042SOL     OW22024   5.698   5.504   6.790
 7042SOL    HW122025   5.609   5.545   6.813
 7042SOL    HW222026   5.688   5.443   6.712
 7043SOL     OW22027   2.296   2.883   3.110
 7043SOL    HW122028   2.228   2.828   3.158
 7043SOL    HW222029   2.337   2.949   3.173
 7044SOL     OW22030   5.099   4.697   3.387
 7044SOL    HW122031   5.197   4.714   3.375
 7044SOL    HW222032   5.072   4.620   3.331
 7045SOL     OW22033   4.612   5.986   2.321
 7045SOL    HW122034   4.632   5.912   2.385
 7045SOL    HW222035   4.681   5.986   2.248
 7046SOL     OW22036   3.660   2.083   3.784
 7046SOL    HW122037   3.623   2.093   3.691
 7046SOL    HW222038   3.610   2.012   3.833
 7047SOL     OW22039   1.286   2.344   3.136
 7047SOL    HW122040   1.362   2.402   3.165
 7047SOL    HW222041   1.268   2.275   3.207
 7048SOL     OW22042   0.045   5.666   1.484
 7048SOL    HW122043   0.010   5.573   1.486
 7048SOL    HW222044   0.143   5.666   1.504
 7049SOL     OW22045   2.345   1.229   0.739
 7049SOL    HW122046   2.361   1.209   0.643
 7049SOL    HW222047   2.424   1.280   0.776
 7050SOL     OW22048   3.657   4.024   3.460
 7050SOL    HW122049   3.570   4.064   3.487
 7050SOL    HW222050   3.726   4.043   3.530
 7051SOL     OW22051   0.264   0.998   0.804
 7051SOL    HW122052   0.176   1.013   0.850
 7051SOL    HW222053   0.337   1.036   0.861
 7052SOL     OW22054   5.990   2.470   4.178
 7052SOL    HW122055   6.077   2.518   4.174
 7052SOL    HW222056   5.951   2.463   4.086
 7053SOL     OW22057   1.090   3.173   5.252
 7053SOL    HW122058   1.033   3.229   5.311
 7053SOL    HW222059   1.157   3.124   5.307
 7054SOL     OW22060   0.958   6.144   1.379
 7054SOL    HW122061   1.037   6.143   1.441
 7054SOL    HW222062   0.912   6.233   1.386
 7055SOL     OW22063   3.817   6.496   5.352
 7055SOL    HW122064   3.900   6.537   5.312
 7055SOL    HW222065   3.802   6.406   5.311
 7056SOL     OW22066   5.404   5.707   3.132
 7056SOL    HW122067   5.463   5.787   3.117
 7056SOL    HW222068   5.309   5.738   3.142
 7057SOL     OW22069   1.376   5.164   3.880
 7057SOL    HW122070   1.470   5.132   3.890
 7057SOL    HW222071   1.329   5.109   3.811
 7058SOL     OW22072   6.139   5.438   6.599
 7058SOL    HW122073   6.066   5.475   6.656
 7058SOL    HW222074   6.129   5.472   6.506
 7059SOL     OW22075   0.754   0.634   3.232
 7059SOL    HW122076   0.794   0.559   3.179
 7059SOL    HW222077   0.691   0.686   3.175
 7060SOL     OW22078   2.970   6.772   1.742
 7060SOL    HW122079   2.887   6.727   1.709
 7060SOL    HW222080   2.946   6.855   1.793
 7061SOL     OW22081   0.480   2.634   3.838
 7061SOL    HW122082   0.500   2.731   3.822
 7061SOL    HW222083   0.536   2.578   3.777
 7062SOL     OW22084   5.291   1.496   6.075
 7062SOL    HW122085   5.363   1.563   6.093
 7062SOL    HW222086   5.302   1.459   5.982
 7063SOL     OW22087   0.311   0.429   1.097
 7063SOL    HW122088   0.364   0.347   1.075
 7063SOL    HW222089   0.291   0.430   1.195
 7064SOL     OW22090   4.188   2.305   1.902
 7064SOL    HW122091   4.206   2.359   1.820
 7064SOL    HW222092   4.104   2.252   1.890
 7065SOL     OW22093   4.269   3.643   0.295
 7065SOL    HW122094   4.292   3.724   0.242
 7065SOL    HW222095   4.248   3.670   0.389
 7066SOL     OW22096   4.467   0.900   0.766
 7066SOL    HW122097   4.432   0.831   0.703
 7066SOL    HW222098   4.454   0.869   0.860
 7067SOL     OW22099   1.531   1.661   5.473
 7067SOL    HW122100   1.595   1.720   5.424
 7067SOL    HW222101   1.527   1.571   5.428
 7068SOL     OW22102   0.953   3.870   3.630
 7068SOL    HW122103   0.868   3.922   3.631
 7068SOL    HW222104   1.007   3.895   3.549
 7069SOL     OW22105   5.819   2.689   4.212
 7069SOL    HW122106   5.905   2.646   4.238
 7069SOL    HW222107   5.828   2.728   4.120
 7070SOL     OW22108   6.956   6.163   5.260
 7070SOL    HW122109   7.010   6.165   5.175
 7070SOL    HW222110   6.991   6.092   5.320
 7071SOL     OW22111   1.087   6.375   6.238
 7071SOL    HW122112   1.132   6.287   6.253
 7071SOL    HW222113   1.056   6.382   6.144
 7072SOL     OW22114   0.357   6.166   6.073
 7072SOL    HW122115   0.356   6.233   6.147
 7072SOL    HW222116   0.269   6.165   6.027
 7073SOL     OW22117   5.761   0.071   4.642
 7073SOL    HW122118   5.781   0.128   4.562
 7073SOL    HW222119   5.691   0.115   4.698
 7074SOL     OW22120   4.430   2.710   1.569
 7074SOL    HW122121   4.370   2.723   1.490
 7074SOL    HW222122   4.480   2.624   1.559
 7075SOL     OW22123   1.084   5.670   5.930
 7075SOL    HW122124   1.014   5.606   5.961
 7075SOL    HW222125   1.124   5.637   5.845
 7076SOL     OW22126   3.865   2.475   6.821
 7076SOL    HW122127   3.926   2.554   6.817
 7076SOL    HW222128   3.789   2.489   6.757
 7077SOL     OW22129   2.303   4.721   5.649
 7077SOL    HW122130   2.329   4.724   5.745
 7077SOL    HW222131   2.302   4.626   5.617
 7078SOL     OW22132   6.497   0.689   1.704
 7078SOL    HW122133   6.565   0.636   1.756
 7078SOL    HW222134   6.479   0.775   1.751
 7079SOL     OW22135   6.716   6.277   5.098
 7079SOL    HW122136   6.791   6.267   5.163
 7079SOL    HW222137   6.744   6.242   5.009
 7080SOL     OW22138   3.336   2.136   4.372
 7080SOL    HW122139   3.288   2.149   4.458
 7080SOL    HW222140   3.435   2.143   4.387
 7081SOL     OW22141   3.002   0.641   6.331
 7081SOL    HW122142   3.065   0.590   6.273
 7081SOL    HW222143   2.968   0.721   6.282
 7082SOL     OW22144   5.912   5.197   6.753
 7082SOL    HW122145   5.933   5.135   6.677
 7082SOL    HW222146   5.997   5.233   6.792
 7083SOL     OW22147   3.399   0.847   6.699
 7083SOL    HW122148   3.460   0.868   6.623
 7083SOL    HW222149   3.331   0.921   6.708
 7084SOL     OW22150   0.347   6.777   5.847
 7084SOL    HW122151   0.253   6.812   5.845
 7084SOL    HW222152   0.360   6.723   5.930
 7085SOL     OW22153   1.903   1.436   2.633
 7085SOL    HW122154   1.821   1.408   2.683
 7085SOL    HW222155   1.879   1.461   2.539
 7086SOL     OW22156   5.125   0.926   5.548
 7086SOL    HW122157   5.057   0.910   5.476
 7086SOL    HW222158   5.143   0.840   5.597
 7087SOL     OW22159   6.181   4.251   3.914
 7087SOL    HW122160   6.272   4.291   3.919
 7087SOL    HW222161   6.154   4.240   3.819
 7088SOL     OW22162   5.417   2.802   3.272
 7088SOL    HW122163   5.471   2.826   3.192
 7088SOL    HW222164   5.339   2.864   3.280
 7089SOL     OW22165   3.586   2.218   5.642
 7089SOL    HW122166   3.487   2.234   5.642
 7089SOL    HW222167   3.609   2.156   5.718
 7090SOL     OW22168   2.546   1.246   6.234
 7090SOL    HW122169   2.595   1.285   6.157
 7090SOL    HW222170   2.552   1.146   6.232
 7091SOL     OW22171   6.997   2.087   6.993
 7091SOL    HW122172   0.073   2.084   7.002
 7091SOL    HW222173   6.956   2.075   0.060
 7092SOL     OW22174   4.568   2.680   6.312
 7092SOL    HW122175   4.637   2.707   6.245
 7092SOL    HW222176   4.492   2.634   6.265
 7093SOL     OW22177   3.304   3.704   3.341
 7093SOL    HW122178   3.265   3.794   3.323
 7093SOL    HW222179   3.402   3.713   3.359
 7094SOL     OW22180   0.544   5.605   6.062
 7094SOL    HW122181   0.457   5.628   6.019
 7094SOL    HW222182   0.527   5.559   6.149
 7095SOL     OW22183   3.417   2.742   6.742
 7095SOL    HW122184   3.514   2.748   6.719
 7095SOL    HW222185   3.388   2.826   6.788
 7096SOL     OW22186   6.486   0.565   4.077
 7096SOL    HW122187   6.518   0.657   4.056
 7096SOL    HW222188   6.431   0.530   4.002
 7097SOL     OW22189   6.249   0.978   1.508
 7097SOL    HW122190   6.203   1.066   1.499
 7097SOL    HW222191   6.347   0.991   1.500
 7098SOL     OW22192   0.760   0.171   4.114
 7098SOL    HW122193   0.698   0.230   4.165
 7098SOL    HW222194   0.724   0.077   4.114
 7099SOL     OW22195   2.788   0.393   5.049
 7099SOL    HW122196   2.864   0.439   5.094
 7099SOL    HW222197   2.738   0.338   5.115
 7100SOL     OW22198   5.627   3.330   1.148
 7100SOL    HW122199   5.599   3.234   1.138
 7100SOL    HW222200   5.677   3.340   1.234
 7101SOL     OW22201   1.916   0.680   4.899
 7101SOL    HW122202   1.950   0.686   4.805
 7101SOL    HW222203   1.875   0.591   4.914
 7102SOL     OW22204   4.718   0.958   1.181
 7102SOL    HW122205   4.684   0.866   1.199
 7102SOL    HW222206   4.816   0.961   1.198
 7103SOL     OW22207   4.106   5.166   1.017
 7103SOL    HW122208   4.086   5.167   1.115
 7103SOL    HW222209   4.199   5.197   1.001
 7104SOL     OW22210   1.283   3.421   4.912
 7104SOL    HW122211   1.309   3.371   4.995
 7104SOL    HW222212   1.226   3.499   4.938
 7105SOL     OW22213   2.670   2.766   5.529
 7105SOL    HW122214   2.698   2.670   5.530
 7105SOL    HW222215   2.751   2.824   5.541
 7106SOL     OW22216   3.218   2.942   3.082
 7106SOL    HW122217   3.272   2.985   3.154
 7106SOL    HW222218   3.121   2.960   3.098
 7107SOL     OW22219   3.427   0.680   0.585
 7107SOL    HW122220   3.454   0.771   0.553
 7107SOL    HW222221   3.345   0.651   0.536
 7108SOL     OW22222   4.170   6.208   2.317
 7108SOL    HW122223   4.126   6.118   2.319
 7108SOL    HW222224   4.265   6.197   2.287
 7109SOL     OW22225   4.021   6.580   6.078
 7109SOL    HW122226   4.110   6.607   6.042
 7109SOL    HW222227   4.020   6.590   6.178
 7110SOL     OW22228   4.365   5.993   3.585
 7110SOL    HW122229   4.459   5.960   3.597
 7110SOL    HW222230   4.321   6.000   3.674
 7111SOL     OW22231   2.310   2.041   4.678
 7111SOL    HW122232   2.378   1.995   4.735
 7111SOL    HW222233   2.249   2.094   4.736
 7112SOL     OW22234   2.561   6.142   3.957
 7112SOL    HW122235   2.485   6.129   3.894
 7112SOL    HW222236   2.594   6.052   3.987
 7113SOL     OW22237   3.023   3.947   4.924
 7113SOL    HW122238   2.998   3.967   5.019
 7113SOL    HW222239   2.998   3.853   4.901
 7114SOL     OW22240   3.888   6.638   1.488
 7114SOL    HW122241   3.901   6.609   1.393
 7114SOL    HW222242   3.893   6.737   1.493
 7115SOL     OW22243   5.421   3.006   2.408
 7115SOL    HW122244   5.333   3.030   2.366
 7115SOL    HW222245   5.474   3.089   2.423
 7116SOL     OW22246   5.186   3.490   3.431
 7116SOL    HW122247   5.183   3.420   3.503
 7116SOL    HW222248   5.241   3.458   3.355
 7117SOL     OW22249   0.353   6.739   4.366
 7117SOL    HW122250   0.411   6.820   4.369
 7117SOL    HW222251   0.257   6.766   4.368
 7118SOL     OW22252   3.127   4.180   0.588
 7118SOL    HW122253   3.122   4.245   0.664
 7118SOL    HW222254   3.195   4.212   0.522
 7119SOL     OW22255   5.396   1.738   3.493
 7119SOL    HW122256   5.466   1.754   3.423
 7119SOL    HW222257   5.318   1.799   3.475
 7120SOL     OW22258   4.431   1.853   2.354
 7120SOL    HW122259   4.504   1.796   2.391
 7120SOL    HW222260   4.385   1.901   2.429
 7121SOL     OW22261   2.885   0.115   2.232
 7121SOL    HW122262   2.827   0.176   2.285
 7121SOL    HW222263   2.889   0.026   2.276
 7122SOL     OW22264   6.772   0.690   5.780
 7122SOL    HW122265   6.746   0.780   5.816
 7122SOL    HW222266   6.755   0.620   5.849
 7123SOL     OW22267   2.522   4.874   1.868
 7123SOL    HW122268   2.598   4.861   1.804
 7123SOL    HW222269   2.519   4.797   1.932
 7124SOL     OW22270   0.332   2.899   0.697
 7124SOL    HW122271   0.342   2.999   0.695
 7124SOL    HW222272   0.296   2.871   0.786
 7125SOL     OW22273   6.239   6.598   0.984
 7125SOL    HW122274   6.302   6.523   1.007
 7125SOL    HW222275   6.193   6.578   0.898
 7126SOL     OW22276   3.449   4.926   6.688
 7126SOL    HW122277   3.424   4.829   6.684
 7126SOL    HW222278   3.401   4.976   6.615
 7127SOL     OW22279   2.491   6.204   4.533
 7127SOL    HW122280   2.561   6.136   4.510
 7127SOL    HW222281   2.423   6.162   4.593
 7128SOL     OW22282   2.309   5.774   0.376
 7128SOL    HW122283   2.223   5.725   0.390
 7128SOL    HW222284   2.307   5.819   0.287
 7129SOL     OW22285   2.907   0.353   0.634
 7129SOL    HW122286   2.886   0.275   0.692
 7129SOL    HW222287   2.852   0.348   0.551
 7130SOL     OW22288   3.386   4.517   5.330
 7130SOL    HW122289   3.391   4.435   5.273
 7130SOL    HW222290   3.298   4.563   5.315
 7131SOL     OW22291   2.589   1.392   0.234
 7131SOL    HW122292   2.630   1.482   0.217
 7131SOL    HW222293   2.490   1.402   0.240
 7132SOL     OW22294   3.341   4.054   0.374
 7132SOL    HW122295   3.319   3.957   0.363
 7132SOL    HW222296   3.326   4.102   0.288
 7133SOL     OW22297   4.772   5.787   3.847
 7133SOL    HW122298   4.758   5.707   3.789
 7133SOL    HW222299   4.770   5.759   3.943
 7134SOL     OW22300   5.907   6.129   2.188
 7134SOL    HW122301   5.893   6.224   2.160
 7134SOL    HW222302   5.895   6.122   2.288
 7135SOL     OW22303   2.158   2.286   3.483
 7135SOL    HW122304   2.125   2.380   3.483
 7135SOL    HW222305   2.194   2.263   3.393
 7136SOL     OW22306   1.557   2.476   0.928
 7136SOL    HW122307   1.627   2.546   0.915
 7136SOL    HW222308   1.581   2.395   0.874
 7137SOL     OW22309   4.753   0.692   6.552
 7137SOL    HW122310   4.699   0.762   6.504
 7137SOL    HW222311   4.785   0.729   6.639
 7138SOL     OW22312   1.672   2.836   0.182
 7138SOL    HW122313   1.591   2.882   0.217
 7138SOL    HW222314   1.722   2.899   0.121
 7139SOL     OW22315   5.039   4.104   2.836
 7139SOL    HW122316   5.008   4.040   2.766
 7139SOL    HW222317   5.138   4.117   2.828
 7140SOL     OW22318   5.612   3.143   4.626
 7140SOL    HW122319   5.552   3.222   4.610
 7140SOL    HW222320   5.562   3.073   4.676
 7141SOL     OW22321   2.991   5.961   1.204
 7141SOL    HW122322   3.017   5.909   1.123
 7141SOL    HW222323   3.073   6.000   1.246
 7142SOL     OW22324   4.429   0.235   3.192
 7142SOL    HW122325   4.430   0.335   3.201
 7142SOL    HW222326   4.432   0.210   3.095
 7143SOL     OW22327   1.827   2.787   6.350
 7143SOL    HW122328   1.865   2.880   6.343
 7143SOL    HW222329   1.840   2.739   6.263
 7144SOL     OW22330   1.772   1.538   3.522
 7144SOL    HW122331   1.763   1.457   3.579
 7144SOL    HW222332   1.845   1.524   3.455
 7145SOL     OW22333   4.729   6.579   6.172
 7145SOL    HW122334   4.636   6.541   6.180
 7145SOL    HW222335   4.774   6.575   6.261
 7146SOL     OW22336   2.168   0.475   6.701
 7146SOL    HW122337   2.132   0.399   6.755
 7146SOL    HW222338   2.102   0.499   6.629
 7147SOL     OW22339   6.452   6.243   3.194
 7147SOL    HW122340   6.495   6.309   3.255
 7147SOL    HW222341   6.512   6.164   3.181
 7148SOL     OW22342   6.980   6.654   1.095
 7148SOL    HW122343   7.001   6.564   1.058
 7148SOL    HW222344   6.897   6.689   1.052
 7149SOL     OW22345   6.287   6.748   3.128
 7149SOL    HW122346   6.266   6.682   3.200
 7149SOL    HW222347   6.313   6.698   3.045
 7150SOL     OW22348   4.500   1.929   1.953
 7150SOL    HW122349   4.419   1.922   2.012
 7150SOL    HW222350   4.505   2.020   1.913
 7151SOL     OW22351   1.732   6.590   0.600
 7151SOL    HW122352   1.673   6.579   0.520
 7151SOL    HW222353   1.819   6.541   0.585
 7152SOL     OW22354   0.411   1.622   4.894
 7152SOL    HW122355   0.369   1.564   4.963
 7152SOL    HW222356   0.441   1.707   4.937
 7153SOL     OW22357   2.989   6.173   3.250
 7153SOL    HW122358   2.905   6.166   3.196
 7153SOL    HW222359   3.035   6.084   3.251
 7154SOL     OW22360   4.234   6.802   4.580
 7154SOL    HW122361   4.157   6.751   4.541
 7154SOL    HW222362   4.286   6.845   4.506
 7155SOL     OW22363   2.782   4.944   1.765
 7155SOL    HW122364   2.819   5.014   1.705
 7155SOL    HW222365   2.790   4.854   1.721
 7156SOL     OW22366   0.478   3.854   4.795
 7156SOL    HW122367   0.470   3.796   4.876
 7156SOL    HW222368   0.472   3.950   4.822
 7157SOL     OW22369   6.378   4.365   1.126
 7157SOL    HW122370   6.300   4.303   1.120
 7157SOL    HW222371   6.453   4.329   1.070
 7158SOL     OW22372   1.089   6.834   2.776
 7158SOL    HW122373   1.130   6.869   2.860
 7158SOL    HW222374   1.139   6.753   2.746
 7159SOL     OW22375   0.388   4.168   2.688
 7159SOL    HW122376   0.447   4.213   2.755
 7159SOL    HW222377   0.442   4.103   2.635
 7160SOL     OW22378   5.957   0.419   3.361
 7160SOL    HW122379   6.024   0.422   3.436
 7160SOL    HW222380   5.951   0.509   3.318
 7161SOL     OW22381   3.264   4.101   4.844
 7161SOL    HW122382   3.280   4.186   4.894
 7161SOL    HW222383   3.188   4.051   4.886
 7162SOL     OW22384   2.182   5.522   5.810
 7162SOL    HW122385   2.178   5.607   5.863
 7162SOL    HW222386   2.104   5.464   5.834
 7163SOL     OW22387   2.835   6.478   3.032
 7163SOL    HW122388   2.849   6.577   3.031
 7163SOL    HW222389   2.921   6.432   3.009
 7164SOL     OW22390   1.863   1.079   3.680
 7164SOL    HW122391   1.958   1.098   3.657
 7164SOL    HW222392   1.820   1.161   3.718
 7165SOL     OW22393   0.122   1.764   1.367
 7165SOL    HW122394   0.200   1.712   1.335
 7165SOL    HW222395   0.088   1.823   1.294
 7166SOL     OW22396   5.970   3.074   0.348
 7166SOL    HW122397   5.978   2.976   0.366
 7166SOL    HW222398   6.029   3.125   0.410
 7167SOL     OW22399   5.067   3.524   4.644
 7167SOL    HW122400   5.000   3.513   4.570
 7167SOL    HW222401   5.032   3.483   4.728
 7168SOL     OW22402   1.595   2.475   4.198
 7168SOL    HW122403   1.637   2.559   4.233
 7168SOL    HW222404   1.644   2.444   4.117
 7169SOL     OW22405   0.262   3.497   5.044
 7169SOL    HW122406   0.191   3.501   4.973
 7169SOL    HW222407   0.240   3.425   5.109
 7170SOL     OW22408   4.611   6.217   3.592
 7170SOL    HW122409   4.666   6.171   3.522
 7170SOL    HW222410   4.637   6.313   3.597
 7171SOL     OW22411   5.525   4.426   6.249
 7171SOL    HW122412   5.516   4.326   6.259
 7171SOL    HW222413   5.605   4.457   6.299
 7172SOL     OW22414   1.276   0.640   5.594
 7172SOL    HW122415   1.337   0.593   5.531
 7172SOL    HW222416   1.181   0.624   5.566
 7173SOL     OW22417   0.467   4.579   5.265
 7173SOL    HW122418   0.446   4.623   5.177
 7173SOL    HW222419   0.562   4.598   5.289
 7174SOL     OW22420   0.778   4.895   6.853
 7174SOL    HW122421   0.775   4.860   6.947
 7174SOL    HW222422   0.872   4.887   6.818
 7175SOL     OW22423   5.531   3.845   0.064
 7175SOL    HW122424   5.536   3.891   0.153
 7175SOL    HW222425   5.439   3.809   0.050
 7176SOL     OW22426   1.182   5.837   3.428
 7176SOL    HW122427   1.250   5.809   3.360
 7176SOL    HW222428   1.215   5.917   3.477
 7177SOL     OW22429   2.424   6.529   4.076
 7177SOL    HW122430   2.447   6.590   4.151
 7177SOL    HW222431   2.447   6.435   4.100
 7178SOL     OW22432   2.124   3.564   5.931
 7178SOL    HW122433   2.133   3.659   5.900
 7178SOL    HW222434   2.153   3.503   5.857
 7179SOL     OW22435   1.921   3.464   4.972
 7179SOL    HW122436   1.948   3.421   4.886
 7179SOL    HW222437   1.825   3.492   4.967
 7180SOL     OW22438   1.611   5.001   6.376
 7180SOL    HW122439   1.710   4.999   6.361
 7180SOL    HW222440   1.575   4.908   6.380
 7181SOL     OW22441   2.133   5.556   0.813
 7181SOL    HW122442   2.176   5.514   0.893
 7181SOL    HW222443   2.170   5.514   0.729
 7182SOL     OW22444   1.857   3.261   5.602
 7182SOL    HW122445   1.881   3.219   5.689
 7182SOL    HW222446   1.858   3.192   5.530
 7183SOL     OW22447   1.597   5.660   0.762
 7183SOL    HW122448   1.645   5.728   0.707
 7183SOL    HW222449   1.511   5.698   0.795
 7184SOL     OW22450   0.919   0.444   3.115
 7184SOL    HW122451   0.910   0.350   3.149
 7184SOL    HW222452   0.997   0.449   3.053
 7185SOL     OW22453   5.574   1.195   5.601
 7185SOL    HW122454   5.491   1.169   5.553
 7185SOL    HW222455   5.643   1.123   5.590
 7186SOL     OW22456   6.931   0.001   6.807
 7186SOL    HW122457   6.902   0.065   6.736
 7186SOL    HW222458   7.007   6.969   6.773
 7187SOL     OW22459   3.282   4.439   0.402
 7187SOL    HW122460   3.191   4.446   0.362
 7187SOL    HW222461   3.340   4.512   0.366
 7188SOL     OW22462   5.971   6.914   0.455
 7188SOL    HW122463   6.040   6.986   0.464
 7188SOL    HW222464   5.931   6.917   0.364
 7189SOL     OW22465   6.313   0.933   6.351
 7189SOL    HW122466   6.289   1.028   6.329
 7189SOL    HW222467   6.411   0.920   6.339
 7190SOL     OW22468   6.308   4.035   2.710
 7190SOL    HW122469   6.242   4.066   2.778
 7190SOL    HW222470   6.368   4.111   2.684
 7191SOL     OW22471   0.737   4.015   2.769
 7191SOL    HW122472   0.704   3.935   2.819
 7191SOL    HW222473   0.696   4.016   2.678
 7192SOL     OW22474   3.492   5.069   5.444
 7192SOL    HW122475   3.493   4.972   5.418
 7192SOL    HW222476   3.403   5.109   5.420
 7193SOL     OW22477   2.466   1.850   3.043
 7193SOL    HW122478   2.427   1.932   3.085
 7193SOL    HW222479   2.522   1.802   3.110
 7194SOL     OW22480   2.842   2.122   0.755
 7194SOL    HW122481   2.860   2.196   0.820
 7194SOL    HW222482   2.923   2.064   0.749
 7195SOL     OW22483   0.434   5.216   5.998
 7195SOL    HW122484   0.518   5.204   6.050
 7195SOL    HW222485   0.451   5.277   5.921
 7196SOL     OW22486   3.499   4.226   1.773
 7196SOL    HW122487   3.474   4.238   1.869
 7196SOL    HW222488   3.597   4.205   1.766
 7197SOL     OW22489   6.836   2.138   6.132
 7197SOL    HW122490   6.835   2.040   6.116
 7197SOL    HW222491   6.790   2.185   6.057
 7198SOL     OW22492   0.539   0.988   5.988
 7198SOL    HW122493   0.594   0.905   6.001
 7198SOL    HW222494   0.468   0.993   6.059
 7199SOL     OW22495   2.274   0.813   2.001
 7199SOL    HW122496   2.316   0.873   2.069
 7199SOL    HW222497   2.329   0.729   1.993
 7200SOL     OW22498   2.050   1.888   0.266
 7200SOL    HW122499   1.972   1.882   0.204
 7200SOL    HW222500   2.135   1.890   0.213
 7201SOL     OW22501   1.303   5.454   3.881
 7201SOL    HW122502   1.328   5.474   3.976
 7201SOL    HW222503   1.311   5.356   3.864
 7202SOL     OW22504   4.374   0.101   6.148
 7202SOL    HW122505   4.446   0.043   6.111
 7202SOL    HW222506   4.414   0.173   6.205
 7203SOL     OW22507   0.159   1.939   0.781
 7203SOL    HW122508   0.089   1.878   0.816
 7203SOL    HW222509   0.164   1.930   0.681
 7204SOL     OW22510   6.402   6.792   5.134
 7204SOL    HW122511   6.457   6.875   5.123
 7204SOL    HW222512   6.429   6.724   5.066
 7205SOL     OW22513   1.954   5.756   3.168
 7205SOL    HW122514   2.018   5.829   3.192
 7205SOL    HW222515   1.872   5.765   3.224
 7206SOL     OW22516   2.355   0.335   1.306
 7206SOL    HW122517   2.356   0.286   1.219
 7206SOL    HW222518   2.261   0.354   1.333
 7207SOL     OW22519   3.598   6.605   1.439
 7207SOL    HW122520   3.560   6.577   1.527
 7207SOL    HW222521   3.695   6.627   1.450
 7208SOL     OW22522   4.515   6.142   4.045
 7208SOL    HW122523   4.613   6.156   4.035
 7208SOL    HW222524   4.467   6.184   3.968
 7209SOL     OW22525   3.462   3.212   2.020
 7209SOL    HW122526   3.463   3.124   1.971
 7209SOL    HW222527   3.472   3.286   1.954
 7210SOL     OW22528   4.482   0.141   4.041
 7210SOL    HW122529   4.530   0.199   3.975
 7210SOL    HW222530   4.520   0.048   4.037
 7211SOL     OW22531   2.362   5.514   3.977
 7211SOL    HW122532   2.369   5.458   4.060
 7211SOL    HW222533   2.423   5.476   3.907
 7212SOL     OW22534   0.836   6.147   3.537
 7212SOL    HW122535   0.768   6.211   3.572
 7212SOL    HW222536   0.925   6.167   3.578
 7213SOL     OW22537   6.257   0.092   6.571
 7213SOL    HW122538   6.308   0.006   6.582
 7213SOL    HW222539   6.284   0.156   6.642
 7214SOL     OW22540   1.446   5.887   4.786
 7214SOL    HW122541   1.489   5.933   4.864
 7214SOL    HW222542   1.352   5.919   4.777
 7215SOL     OW22543   0.539   2.979   4.117
 7215SOL    HW122544   0.542   3.000   4.215
 7215SOL    HW222545   0.631   2.984   4.079
 7216SOL     OW22546   2.006   6.065   6.948
 7216SOL    HW122547   1.916   6.065   6.991
 7216SOL    HW222548   1.999   6.100   6.854
 7217SOL     OW22549   2.154   4.596   2.341
 7217SOL    HW122550   2.240   4.548   2.360
 7217SOL    HW222551   2.113   4.560   2.258
 7218SOL     OW22552   4.453   2.776   5.229
 7218SOL    HW122553   4.384   2.847   5.221
 7218SOL    HW222554   4.532   2.799   5.173
 7219SOL     OW22555   5.525   6.460   4.155
 7219SOL    HW122556   5.531   6.488   4.059
 7219SOL    HW222557   5.525   6.542   4.213
 7220SOL     OW22558   0.406   5.653   4.038
 7220SOL    HW122559   0.489   5.630   4.088
 7220SOL    HW222560   0.429   5.675   3.943
 7221SOL     OW22561   5.518   5.019   4.982
 7221SOL    HW122562   5.452   5.081   4.938
 7221SOL    HW222563   5.555   4.957   4.913
 7222SOL     OW22564   6.153   0.364   2.070
 7222SOL    HW122565   6.064   0.326   2.049
 7222SOL    HW222566   6.217   0.344   1.996
 7223SOL     OW22567   3.046   2.155   1.522
 7223SOL    HW122568   3.086   2.230   1.575
 7223SOL    HW222569   3.110   2.078   1.519
 7224SOL     OW22570   5.387   2.059   4.354
 7224SOL    HW122571   5.402   2.043   4.256
 7224SOL    HW222572   5.475   2.055   4.402
 7225SOL     OW22573   1.194   6.089   6.254
 7225SOL    HW122574   1.141   6.034   6.189
 7225SOL    HW222575   1.272   6.035   6.288
 7226SOL     OW22576   1.150   0.861   0.652
 7226SOL    HW122577   1.053   0.840   0.648
 7226SOL    HW222578   1.163   0.960   0.646
 7227SOL     OW22579   0.285   2.496   0.877
 7227SOL    HW122580   0.331   2.533   0.796
 7227SOL    HW222581   0.251   2.404   0.856
 7228SOL     OW22582   0.270   1.037   2.253
 7228SOL    HW122583   0.186   1.032   2.199
 7228SOL    HW222584   0.298   0.944   2.279
 7229SOL     OW22585   1.132   0.558   4.450
 7229SOL    HW122586   1.102   0.647   4.485
 7229SOL    HW222587   1.106   0.487   4.516
 7230SOL     OW22588   5.116   5.671   4.773
 7230SOL    HW122589   5.035   5.730   4.768
 7230SOL    HW222590   5.123   5.633   4.865
 7231SOL     OW22591   4.540   6.698   6.892
 7231SOL    HW122592   4.469   6.649   6.944
 7231SOL    HW222593   4.574   6.639   6.819
 7232SOL     OW22594   4.509   5.104   3.622
 7232SOL    HW122595   4.534   5.170   3.693
 7232SOL    HW222596   4.432   5.048   3.654
 7233SOL     OW22597   0.358   2.392   4.504
 7233SOL    HW122598   0.302   2.466   4.466
 7233SOL    HW222599   0.445   2.428   4.536
 7234SOL     OW22600   5.650   2.895   3.095
 7234SOL    HW122601   5.689   2.887   3.003
 7234SOL    HW222602   5.618   2.988   3.110
 7235SOL     OW22603   6.327   4.403   2.980
 7235SOL    HW122604   6.283   4.438   2.897
 7235SOL    HW222605   6.267   4.421   3.058
 7236SOL     OW22606   3.069   1.278   2.795
 7236SOL    HW122607   2.987   1.332   2.775
 7236SOL    HW222608   3.081   1.209   2.723
 7237SOL     OW22609   6.337   6.627   5.523
 7237SOL    HW122610   6.243   6.633   5.490
 7237SOL    HW222611   6.386   6.557   5.471
 7238SOL     OW22612   2.277   2.163   1.120
 7238SOL    HW122613   2.373   2.151   1.148
 7238SOL    HW222614   2.217   2.141   1.197
 7239SOL     OW22615   2.658   1.260   3.882
 7239SOL    HW122616   2.667   1.290   3.977
 7239SOL    HW222617   2.748   1.262   3.838
 7240SOL     OW22618   2.260   3.927   6.652
 7240SOL    HW122619   2.258   4.026   6.638
 7240SOL    HW222620   2.352   3.893   6.631
 7241SOL     OW22621   3.443   0.419   6.929
 7241SOL    HW122622   3.373   0.356   6.962
 7241SOL    HW222623   3.403   0.481   6.862
 7242SOL     OW22624   6.748   5.196   0.009
 7242SOL    HW122625   6.724   5.154   6.945
 7242SOL    HW222626   6.683   5.167   0.079
 7243SOL     OW22627   0.534   4.354   5.973
 7243SOL    HW122628   0.558   4.284   5.905
 7243SOL    HW222629   0.613   4.413   5.989
 7244SOL     OW22630   5.008   1.055   1.205
 7244SOL    HW122631   5.051   1.065   1.294
 7244SOL    HW222632   4.997   1.145   1.163
 7245SOL     OW22633   0.749   1.884   4.946
 7245SOL    HW122634   0.649   1.880   4.949
 7245SOL    HW222635   0.778   1.977   4.925
 7246SOL     OW22636   5.985   6.941   4.768
 7246SOL    HW122637   6.070   6.993   4.770
 7246SOL    HW222638   5.915   6.992   4.718
 7247SOL     OW22639   3.022   6.686   3.375
 7247SOL    HW122640   3.023   6.659   3.278
 7247SOL    HW222641   3.074   6.771   3.386
 7248SOL     OW22642   4.007   1.004   2.813
 7248SOL    HW122643   3.954   0.996   2.898
 7248SOL    HW222644   3.949   0.980   2.735
 7249SOL     OW22645   5.683   4.874   1.921
 7249SOL    HW122646   5.593   4.874   1.963
 7249SOL    HW222647   5.710   4.780   1.900
 7250SOL     OW22648   3.484   5.429   5.869
 7250SOL    HW122649   3.547   5.358   5.898
 7250SOL    HW222650   3.412   5.439   5.937
 7251SOL     OW22651   0.179   6.473   5.235
 7251SOL    HW122652   0.093   6.484   5.284
 7251SOL    HW222653   0.212   6.563   5.205
 7252SOL     OW22654   3.556   3.192   3.951
 7252SOL    HW122655   3.579   3.199   3.854
 7252SOL    HW222656   3.619   3.128   3.996
 7253SOL     OW22657   1.647   0.244   0.305
 7253SOL    HW122658   1.612   0.158   0.343
 7253SOL    HW222659   1.595   0.321   0.342
 7254SOL     OW22660   4.660   4.916   5.182
 7254SOL    HW122661   4.667   4.955   5.090
 7254SOL    HW222662   4.607   4.977   5.241
 7255SOL     OW22663   3.398   3.728   1.913
 7255SOL    HW122664   3.323   3.778   1.956
 7255SOL    HW222665   3.387   3.729   1.814
 7256SOL     OW22666   5.081   5.132   4.380
 7256SOL    HW122667   5.049   5.073   4.454
 7256SOL    HW222668   5.180   5.146   4.389
 7257SOL     OW22669   5.807   3.231   3.306
 7257SOL    HW122670   5.807   3.149   3.363
 7257SOL    HW222671   5.880   3.224   3.238
 7258SOL     OW22672   4.078   0.589   3.767
 7258SOL    HW122673   4.159   0.649   3.770
 7258SOL    HW222674   4.008   0.624   3.829
 7259SOL     OW22675   3.349   4.067   1.331
 7259SOL    HW122676   3.326   4.115   1.416
 7259SOL    HW222677   3.335   3.969   1.344
 7260SOL     OW22678   3.378   1.996   3.154
 7260SOL    HW122679   3.303   2.050   3.193
 7260SOL    HW222680   3.465   2.029   3.192
 7261SOL     OW22681   3.163   2.738   1.371
 7261SOL    HW122682   3.091   2.807   1.367
 7261SOL    HW222683   3.139   2.668   1.437
 7262SOL     OW22684   5.916   2.815   3.965
 7262SOL    HW122685   5.845   2.807   3.894
 7262SOL    HW222686   6.002   2.777   3.931
 7263SOL     OW22687   0.416   5.743   2.030
 7263SOL    HW122688   0.373   5.672   2.086
 7263SOL    HW222689   0.379   5.738   1.937
 7264SOL     OW22690   6.590   1.606   6.678
 7264SOL    HW122691   6.639   1.597   6.765
 7264SOL    HW222692   6.492   1.617   6.696
 7265SOL     OW22693   5.448   5.033   6.065
 7265SOL    HW122694   5.480   5.054   5.972
 7265SOL    HW222695   5.467   4.937   6.085
 7266SOL     OW22696   4.125   0.679   0.503
 7266SOL    HW122697   4.086   0.616   0.570
 7266SOL    HW222698   4.054   0.739   0.468
 7267SOL     OW22699   6.837   4.824   5.131
 7267SOL    HW122700   6.750   4.867   5.106
 7267SOL    HW222701   6.819   4.739   5.181
 7268SOL     OW22702   4.371   4.926   3.238
 7268SOL    HW122703   4.320   5.011   3.244
 7268SOL    HW222704   4.456   4.941   3.188
 7269SOL     OW22705   7.011   6.084   1.564
 7269SOL    HW122706   6.945   6.160   1.565
 7269SOL    HW222707   0.025   6.072   1.656
 7270SOL     OW22708   1.262   2.545   3.370
 7270SOL    HW122709   1.346   2.493   3.354
 7270SOL    HW222710   1.191   2.484   3.406
 7271SOL     OW22711   0.733   4.939   3.362
 7271SOL    HW122712   0.813   4.969   3.310
 7271SOL    HW222713   0.722   4.840   3.353
 7272SOL     OW22714   6.138   3.332   2.094
 7272SOL    HW122715   6.053   3.281   2.104
 7272SOL    HW222716   6.154   3.386   2.177
 7273SOL     OW22717   6.024   4.467   2.175
 7273SOL    HW122718   6.039   4.416   2.090
 7273SOL    HW222719   5.940   4.522   2.166
 7274SOL     OW22720   0.052   6.456   6.324
 7274SOL    HW122721   0.004   6.386   6.271
 7274SOL    HW222722   7.010   6.524   6.356
 7275SOL     OW22723   6.648   0.543   0.750
 7275SOL    HW122724   6.712   0.604   0.796
 7275SOL    HW222725   6.555   0.561   0.783
 7276SOL     OW22726   3.243   1.373   3.688
 7276SOL    HW122727   3.259   1.338   3.596
 7276SOL    HW222728   3.164   1.434   3.687
 7277SOL     OW22729   5.404   1.005   4.819
 7277SOL    HW122730   5.495   1.023   4.857
 7277SOL    HW222731   5.363   1.092   4.791
 7278SOL     OW22732   3.640   2.066   3.190
 7278SOL    HW122733   3.721   2.085   3.244
 7278SOL    HW222734   3.655   2.093   3.095
 7279SOL     OW22735   4.444   4.031   6.975
 7279SOL    HW122736   4.537   4.065   6.959
 7279SOL    HW222737   4.381   4.076   6.912
 7280SOL     OW22738   5.894   2.475   5.407
 7280SOL    HW122739   5.808   2.454   5.360
 7280SOL    HW222740   5.943   2.546   5.356
 7281SOL     OW22741   3.568   0.306   0.782
 7281SOL    HW122742   3.473   0.283   0.805
 7281SOL    HW222743   3.630   0.258   0.845
 7282SOL     OW22744   6.440   5.486   1.682
 7282SOL    HW122745   6.462   5.583   1.672
 7282SOL    HW222746   6.516   5.439   1.727
 7283SOL     OW22747   2.963   6.677   2.135
 7283SOL    HW122748   2.890   6.736   2.100
 7283SOL    HW222749   2.970   6.595   2.079
 7284SOL     OW22750   6.739   2.794   3.735
 7284SOL    HW122751   6.760   2.777   3.831
 7284SOL    HW222752   6.762   2.888   3.712
 7285SOL     OW22753   4.800   3.392   1.460
 7285SOL    HW122754   4.883   3.336   1.459
 7285SOL    HW222755   4.745   3.370   1.540
 7286SOL     OW22756   0.571   1.562   0.871
 7286SOL    HW122757   0.606   1.644   0.826
 7286SOL    HW222758   0.621   1.482   0.838
 7287SOL     OW22759   6.805   2.783   3.981
 7287SOL    HW122760   6.883   2.845   3.970
 7287SOL    HW222761   6.784   2.773   4.078
 7288SOL     OW22762   1.856   2.907   2.195
 7288SOL    HW122763   1.859   2.844   2.273
 7288SOL    HW222764   1.815   2.862   2.116
 7289SOL     OW22765   5.568   3.154   2.157
 7289SOL    HW122766   5.512   3.172   2.238
 7289SOL    HW222767   5.510   3.127   2.081
 7290SOL     OW22768   3.458   0.771   5.259
 7290SOL    HW122769   3.419   0.761   5.351
 7290SOL    HW222770   3.542   0.716   5.253
 7291SOL     OW22771   3.980   0.170   0.577
 7291SOL    HW122772   3.930   0.085   0.595
 7291SOL    HW222773   3.995   0.219   0.662
 7292SOL     OW22774   1.818   6.458   3.472
 7292SOL    HW122775   1.790   6.365   3.496
 7292SOL    HW222776   1.910   6.475   3.508
 7293SOL     OW22777   1.402   1.235   5.940
 7293SOL    HW122778   1.448   1.180   5.870
 7293SOL    HW222779   1.365   1.318   5.898
 7294SOL     OW22780   3.323   4.673   1.499
 7294SOL    HW122781   3.389   4.608   1.462
 7294SOL    HW222782   3.230   4.639   1.483
 7295SOL     OW22783   6.386   4.465   1.786
 7295SOL    HW122784   6.304   4.506   1.746
 7295SOL    HW222785   6.396   4.371   1.751
 7296SOL     OW22786   3.594   5.081   3.099
 7296SOL    HW122787   3.628   5.108   3.189
 7296SOL    HW222788   3.636   4.994   3.072
 7297SOL     OW22789   3.003   6.304   2.251
 7297SOL    HW122790   3.070   6.263   2.313
 7297SOL    HW222791   3.050   6.358   2.182
 7298SOL     OW22792   4.897   6.313   0.036
 7298SOL    HW122793   4.864   6.396   7.015
 7298SOL    HW222794   4.821   6.249   0.049
 7299SOL     OW22795   1.257   2.104   0.146
 7299SOL    HW122796   1.295   2.073   0.059
 7299SOL    HW222797   1.263   2.030   0.213
 7300SOL     OW22798   0.589   4.931   1.573
 7300SOL    HW122799   0.660   4.866   1.547
 7300SOL    HW222800   0.512   4.883   1.613
 7301SOL     OW22801   0.162   0.288   5.840
 7301SOL    HW122802   0.129   0.224   5.910
 7301SOL    HW222803   0.096   0.293   5.765
 7302SOL     OW22804   6.587   1.816   5.541
 7302SOL    HW122805   6.612   1.762   5.620
 7302SOL    HW222806   6.487   1.814   5.529
 7303SOL     OW22807   3.331   1.220   6.909
 7303SOL    HW122808   3.426   1.201   6.934
 7303SOL    HW222809   3.289   1.278   6.979
 7304SOL     OW22810   2.351   4.987   1.634
 7304SOL    HW122811   2.403   4.973   1.719
 7304SOL    HW222812   2.257   5.011   1.657
 7305SOL     OW22813   5.286   2.449   0.992
 7305SOL    HW122814   5.208   2.485   0.942
 7305SOL    HW222815   5.342   2.525   1.027
 7306SOL     OW22816   3.689   1.355   1.821
 7306SOL    HW122817   3.619   1.369   1.892
 7306SOL    HW222818   3.775   1.395   1.852
 7307SOL     OW22819   3.758   6.378   2.165
 7307SOL    HW122820   3.774   6.288   2.125
 7307SOL    HW222821   3.826   6.395   2.236
 7308SOL     OW22822   6.580   1.150   2.908
 7308SOL    HW122823   6.556   1.167   3.003
 7308SOL    HW222824   6.567   1.234   2.855
 7309SOL     OW22825   2.392   6.228   2.967
 7309SOL    HW122826   2.307   6.180   2.943
 7309SOL    HW222827   2.447   6.241   2.885
 7310SOL     OW22828   1.125   3.353   6.822
 7310SOL    HW122829   1.211   3.377   6.778
 7310SOL    HW222830   1.080   3.436   6.855
 7311SOL     OW22831   0.774   0.543   0.416
 7311SOL    HW122832   0.831   0.593   0.351
 7311SOL    HW222833   0.818   0.543   0.506
 7312SOL     OW22834   0.333   1.402   5.057
 7312SOL    HW122835   0.240   1.417   5.090
 7312SOL    HW222836   0.340   1.310   5.017
 7313SOL     OW22837   2.593   1.197   0.599
 7313SOL    HW122838   2.583   1.126   0.668
 7313SOL    HW222839   2.655   1.165   0.527
 7314SOL     OW22840   0.401   4.135   6.892
 7314SOL    HW122841   0.415   4.037   6.907
 7314SOL    HW222842   0.476   4.172   6.838
 7315SOL     OW22843   6.536   5.222   2.364
 7315SOL    HW122844   6.589   5.270   2.434
 7315SOL    HW222845   6.502   5.287   2.296
 7316SOL     OW22846   3.393   1.954   6.105
 7316SOL    HW122847   3.456   2.023   6.071
 7316SOL    HW222848   3.441   1.892   6.167
 7317SOL     OW22849   3.708   1.869   2.016
 7317SOL    HW122850   3.647   1.789   2.013
 7317SOL    HW222851   3.692   1.919   2.101
 7318SOL     OW22852   3.921   6.814   1.941
 7318SOL    HW122853   3.984   6.817   2.018
 7318SOL    HW222854   3.886   6.906   1.924
 7319SOL     OW22855   7.023   3.048   6.359
 7319SOL    HW122856   0.098   3.035   6.346
 7319SOL    HW222857   6.976   2.960   6.345
 7320SOL     OW22858   6.666   4.301   1.358
 7320SOL    HW122859   6.678   4.366   1.283
 7320SOL    HW222860   6.721   4.330   1.437
 7321SOL     OW22861   1.464   6.707   6.112
 7321SOL    HW122862   1.525   6.665   6.180
 7321SOL    HW222863   1.376   6.728   6.155
 7322SOL     OW22864   0.760   2.816   3.303
 7322SOL    HW122865   0.663   2.831   3.285
 7322SOL    HW222866   0.812   2.830   3.218
 7323SOL     OW22867   2.628   1.673   1.339
 7323SOL    HW122868   2.586   1.632   1.258
 7323SOL    HW222869   2.727   1.680   1.326
 7324SOL     OW22870   6.293   4.556   2.179
 7324SOL    HW122871   6.238   4.498   2.239
 7324SOL    HW222872   6.371   4.503   2.144
 7325SOL     OW22873   3.149   0.548   5.616
 7325SOL    HW122874   3.093   0.550   5.698
 7325SOL    HW222875   3.241   0.581   5.637
 7326SOL     OW22876   4.124   0.436   6.715
 7326SOL    HW122877   4.064   0.397   6.645
 7326SOL    HW222878   4.216   0.445   6.678
 7327SOL     OW22879   6.163   4.276   3.623
 7327SOL    HW122880   6.127   4.184   3.607
 7327SOL    HW222881   6.220   4.303   3.546
 7328SOL     OW22882   4.317   5.453   5.837
 7328SOL    HW122883   4.252   5.472   5.764
 7328SOL    HW222884   4.273   5.398   5.908
 7329SOL     OW22885   0.556   2.663   0.413
 7329SOL    HW122886   0.484   2.651   0.345
 7329SOL    HW222887   0.591   2.756   0.408
 7330SOL     OW22888   3.121   2.863   1.056
 7330SOL    HW122889   3.185   2.863   1.133
 7330SOL    HW222890   3.072   2.950   1.053
 7331SOL     OW22891   4.728   0.181   1.955
 7331SOL    HW122892   4.659   0.114   1.928
 7331SOL    HW222893   4.733   0.185   2.055
 7332SOL     OW22894   4.039   4.183   6.998
 7332SOL    HW122895   4.031   4.247   0.051
 7332SOL    HW222896   4.114   4.212   6.939
 7333SOL     OW22897   5.942   3.412   3.108
 7333SOL    HW122898   5.901   3.410   3.017
 7333SOL    HW222899   6.012   3.340   3.115
 7334SOL     OW22900   2.861   5.932   6.029
 7334SOL    HW122901   2.935   5.990   6.064
 7334SOL    HW222902   2.788   5.927   6.096
 7335SOL     OW22903   0.144   3.391   2.939
 7335SOL    HW122904   0.090   3.388   2.855
 7335SOL    HW222905   0.168   3.486   2.960
 7336SOL     OW22906   2.000   6.254   1.052
 7336SOL    HW122907   1.905   6.261   1.081
 7336SOL    HW222908   2.014   6.167   1.004
 7337SOL     OW22909   3.449   2.760   1.409
 7337SOL    HW122910   3.353   2.747   1.386
 7337SOL    HW222911   3.503   2.685   1.371
 7338SOL     OW22912   5.792   2.654   1.400
 7338SOL    HW122913   5.874   2.627   1.451
 7338SOL    HW222914   5.712   2.611   1.440
 7339SOL     OW22915   0.179   6.607   5.665
 7339SOL    HW122916   0.227   6.551   5.733
 7339SOL    HW222917   0.106   6.658   5.709
 7340SOL     OW22918   3.769   0.852   6.577
 7340SOL    HW122919   3.806   0.940   6.606
 7340SOL    HW222920   3.690   0.868   6.517
 7341SOL     OW22921   1.311   5.196   4.407
 7341SOL    HW122922   1.371   5.124   4.443
 7341SOL    HW222923   1.217   5.180   4.436
 7342SOL     OW22924   6.686   0.199   0.574
 7342SOL    HW122925   6.667   0.283   0.624
 7342SOL    HW222926   6.702   0.220   0.477
 7343SOL     OW22927   5.816   4.103   1.905
 7343SOL    HW122928   5.831   4.019   1.957
 7343SOL    HW222929   5.758   4.084   1.826
 7344SOL     OW22930   1.847   0.005   6.652
 7344SOL    HW122931   1.822   6.932   6.642
 7344SOL    HW222932   1.850   0.048   6.561
 7345SOL     OW22933   4.311   4.806   5.897
 7345SOL    HW122934   4.313   4.813   5.997
 7345SOL    HW222935   4.341   4.892   5.857
 7346SOL     OW22936   4.180   4.003   0.992
 7346SOL    HW122937   4.204   3.997   1.089
 7346SOL    HW222938   4.110   3.934   0.972
 7347SOL     OW22939   6.903   2.347   2.265
 7347SOL    HW122940   6.896   2.447   2.262
 7347SOL    HW222941   6.825   2.306   2.219
 7348SOL     OW22942   1.678   3.955   3.290
 7348SOL    HW122943   1.733   3.882   3.249
 7348SOL    HW222944   1.695   3.958   3.388
 7349SOL     OW22945   3.718   1.610   0.905
 7349SOL    HW122946   3.649   1.659   0.851
 7349SOL    HW222947   3.678   1.578   0.990
 7350SOL     OW22948   0.530   2.905   3.828
 7350SOL    HW122949   0.452   2.928   3.771
 7350SOL    HW222950   0.552   2.982   3.888
 7351SOL     OW22951   3.907   4.472   6.738
 7351SOL    HW122952   3.996   4.435   6.710
 7351SOL    HW222953   3.891   4.558   6.690
 7352SOL     OW22954   1.551   1.675   3.683
 7352SOL    HW122955   1.536   1.724   3.597
 7352SOL    HW222956   1.617   1.601   3.669
 7353SOL     OW22957   0.505   1.720   5.394
 7353SOL    HW122958   0.464   1.675   5.474
 7353SOL    HW222959   0.513   1.654   5.319
 7354SOL     OW22960   0.237   0.730   6.318
 7354SOL    HW122961   0.262   0.810   6.373
 7354SOL    HW222962   0.319   0.675   6.300
 7355SOL     OW22963   1.682   5.773   1.252
 7355SOL    HW122964   1.602   5.829   1.230
 7355SOL    HW222965   1.685   5.693   1.193
 7356SOL     OW22966   4.868   2.506   6.533
 7356SOL    HW122967   4.813   2.589   6.545
 7356SOL    HW222968   4.909   2.480   6.620
 7357SOL     OW22969   4.696   0.851   1.509
 7357SOL    HW122970   4.785   0.896   1.504
 7357SOL    HW222971   4.666   0.827   1.416
 7358SOL     OW22972   2.614   2.017   2.343
 7358SOL    HW122973   2.676   2.087   2.306
 7358SOL    HW222974   2.577   2.048   2.430
 7359SOL     OW22975   3.649   2.783   1.127
 7359SOL    HW122976   3.606   2.718   1.190
 7359SOL    HW222977   3.657   2.742   1.037
 7360SOL     OW22978   2.074   2.357   5.494
 7360SOL    HW122979   1.995   2.379   5.551
 7360SOL    HW222980   2.104   2.439   5.446
 7361SOL     OW22981   4.739   6.266   1.812
 7361SOL    HW122982   4.699   6.354   1.785
 7361SOL    HW222983   4.738   6.204   1.733
 7362SOL     OW22984   0.660   6.778   4.745
 7362SOL    HW122985   0.562   6.787   4.762
 7362SOL    HW222986   0.707   6.858   4.783
 7363SOL     OW22987   4.694   1.676   0.066
 7363SOL    HW122988   4.726   1.713   0.153
 7363SOL    HW222989   4.699   1.748   7.019
 7364SOL     OW22990   4.135   6.474   1.440
 7364SOL    HW122991   4.142   6.487   1.539
 7364SOL    HW222992   4.074   6.397   1.420
 7365SOL     OW22993   2.689   6.490   2.445
 7365SOL    HW122994   2.717   6.395   2.428
 7365SOL    HW222995   2.756   6.533   2.506
 7366SOL     OW22996   1.558   5.285   0.395
 7366SOL    HW122997   1.655   5.302   0.412
 7366SOL    HW222998   1.530   5.336   0.314
 7367SOL     OW22999   4.583   3.692   0.948
 7367SOL    HW123000   4.543   3.674   1.038
 7367SOL    HW223001   4.510   3.696   0.880
 7368SOL     OW23002   3.338   3.092   4.071
 7368SOL    HW123003   3.272   3.166   4.062
 7368SOL    HW223004   3.428   3.123   4.041
 7369SOL     OW23005   5.235   3.681   0.525
 7369SOL    HW123006   5.190   3.662   0.438
 7369SOL    HW223007   5.334   3.688   0.510
 7370SOL     OW23008   2.161   0.738   6.293
 7370SOL    HW123009   2.110   0.791   6.225
 7370SOL    HW223010   2.203   0.659   6.249
 7371SOL     OW23011   2.945   5.450   4.041
 7371SOL    HW123012   2.908   5.436   4.133
 7371SOL    HW223013   2.924   5.543   4.011
 7372SOL     OW23014   3.172   0.175   5.526
 7372SOL    HW123015   3.254   0.228   5.502
 7372SOL    HW223016   3.096   0.237   5.543
 7373SOL     OW23017   4.487   1.402   3.578
 7373SOL    HW123018   4.486   1.391   3.678
 7373SOL    HW223019   4.437   1.486   3.554
 7374SOL     OW23020   2.332   2.941   5.502
 7374SOL    HW123021   2.419   2.892   5.492
 7374SOL    HW223022   2.349   3.040   5.495
 7375SOL     OW23023   1.579   2.046   4.130
 7375SOL    HW123024   1.587   2.146   4.131
 7375SOL    HW223025   1.550   2.016   4.039
 7376SOL     OW23026   3.155   2.522   0.125
 7376SOL    HW123027   3.215   2.578   0.183
 7376SOL    HW223028   3.211   2.457   0.073
 7377SOL     OW23029   4.401   5.250   2.131
 7377SOL    HW123030   4.322   5.245   2.192
 7377SOL    HW223031   4.483   5.223   2.181
 7378SOL     OW23032   0.002   1.917   4.505
 7378SOL    HW123033   6.984   1.857   4.436
 7378SOL    HW223034   0.082   1.871   4.545
 7379SOL     OW23035   4.107   1.510   2.900
 7379SOL    HW123036   4.182   1.444   2.904
 7379SOL    HW223037   4.143   1.602   2.915
 7380SOL     OW23038   0.556   3.272   5.645
 7380SOL    HW123039   0.476   3.310   5.691
 7380SOL    HW223040   0.586   3.335   5.573
 7381SOL     OW23041   4.849   3.023   2.412
 7381SOL    HW123042   4.914   2.969   2.358
 7381SOL    HW223043   4.803   2.963   2.478
 7382SOL     OW23044   6.811   5.219   4.653
 7382SOL    HW123045   6.858   5.134   4.676
 7382SOL    HW223046   6.787   5.268   4.737
 7383SOL     OW23047   6.813   6.660   2.673
 7383SOL    HW123048   6.911   6.647   2.656
 7383SOL    HW223049   6.761   6.604   2.608
 7384SOL     OW23050   5.283   1.223   1.775
 7384SOL    HW123051   5.221   1.202   1.699
 7384SOL    HW223052   5.257   1.311   1.816
 7385SOL     OW23053   3.857   5.859   2.214
 7385SOL    HW123054   3.780   5.923   2.207
 7385SOL    HW223055   3.843   5.797   2.291
 7386SOL     OW23056   0.696   2.588   5.417
 7386SOL    HW123057   0.662   2.514   5.360
 7386SOL    HW223058   0.694   2.560   5.513
 7387SOL     OW23059   4.833   6.344   4.912
 7387SOL    HW123060   4.904   6.292   4.959
 7387SOL    HW223061   4.874   6.425   4.869
 7388SOL     OW23062   0.050   5.850   3.598
 7388SOL    HW123063   6.975   5.845   3.612
 7388SOL    HW223064   0.096   5.778   3.651
 7389SOL     OW23065   1.655   4.727   6.667
 7389SOL    HW123066   1.613   4.700   6.753
 7389SOL    HW223067   1.619   4.671   6.592
 7390SOL     OW23068   1.299   1.878   6.515
 7390SOL    HW123069   1.357   1.827   6.452
 7390SOL    HW223070   1.315   1.976   6.504
 7391SOL     OW23071   4.950   3.740   5.227
 7391SOL    HW123072   4.905   3.697   5.149
 7391SOL    HW223073   4.976   3.670   5.293
 7392SOL     OW23074   2.471   6.176   6.296
 7392SOL    HW123075   2.496   6.236   6.220
 7392SOL    HW223076   2.515   6.209   6.380
 7393SOL     OW23077   5.921   5.425   1.734
 7393SOL    HW123078   5.948   5.502   1.792
 7393SOL    HW223079   5.997   5.402   1.672
 7394SOL     OW23080   3.296   2.784   6.312
 7394SOL    HW123081   3.333   2.867   6.355
 7394SOL    HW223082   3.353   2.758   6.234
 7395SOL     OW23083   1.106   0.918   6.819
 7395SOL    HW123084   1.199   0.897   6.790
 7395SOL    HW223085   1.099   0.911   6.918
 7396SOL     OW23086   1.507   1.051   6.907
 7396SOL    HW123087   1.496   0.969   6.963
 7396SOL    HW223088   1.440   1.120   6.934
 7397SOL     OW23089   6.235   5.162   4.489
 7397SOL    HW123090   6.311   5.104   4.519
 7397SOL    HW223091   6.180   5.112   4.422
 7398SOL     OW23092   3.565   5.040   4.306
 7398SOL    HW123093   3.576   5.038   4.207
 7398SOL    HW223094   3.495   5.107   4.331
 7399SOL     OW23095   0.606   3.723   5.339
 7399SOL    HW123096   0.624   3.629   5.369
 7399SOL    HW223097   0.541   3.766   5.401
 7400SOL     OW23098   3.258   4.164   0.108
 7400SOL    HW123099   3.308   4.185   0.024
 7400SOL    HW223100   3.161   4.156   0.088
 7401SOL     OW23101   0.626   1.073   3.642
 7401SOL    HW123102   0.720   1.063   3.608
 7401SOL    HW223103   0.564   1.089   3.565
 7402SOL     OW23104   2.135   6.914   4.294
 7402SOL    HW123105   2.072   6.966   4.351
 7402SOL    HW223106   2.099   6.821   4.281
 7403SOL     OW23107   2.101   3.111   3.282
 7403SOL    HW123108   2.098   3.045   3.357
 7403SOL    HW223109   2.016   3.164   3.281
 7404SOL     OW23110   2.087   6.444   1.386
 7404SOL    HW123111   2.129   6.461   1.298
 7404SOL    HW223112   2.100   6.348   1.412
 7405SOL     OW23113   1.055   5.110   4.419
 7405SOL    HW123114   1.056   5.013   4.396
 7405SOL    HW223115   0.991   5.158   4.359
 7406SOL     OW23116   1.683   3.790   2.517
 7406SOL    HW123117   1.709   3.774   2.421
 7406SOL    HW223118   1.623   3.716   2.548
 7407SOL     OW23119   0.403   6.794   4.814
 7407SOL    HW123120   0.332   6.731   4.783
 7407SOL    HW223121   0.361   6.881   4.840
 7408SOL     OW23122   1.036   4.196   5.054
 7408SOL    HW123123   1.124   4.238   5.077
 7408SOL    HW223124   1.004   4.231   4.966
 7409SOL     OW23125   0.413   0.935   4.488
 7409SOL    HW123126   0.458   0.889   4.411
 7409SOL    HW223127   0.449   0.898   4.574
 7410SOL     OW23128   6.632   4.936   0.865
 7410SOL    HW123129   6.687   4.994   0.805
 7410SOL    HW223130   6.535   4.955   0.851
 7411SOL     OW23131   2.870   0.042   4.209
 7411SOL    HW123132   2.807   6.989   4.221
 7411SOL    HW223133   2.964   0.010   4.220
 7412SOL     OW23134   3.804   1.269   1.076
 7412SOL    HW123135   3.893   1.312   1.093
 7412SOL    HW223136   3.817   1.170   1.067
 7413SOL     OW23137   0.361   4.741   3.962
 7413SOL    HW123138   0.442   4.800   3.954
 7413SOL    HW223139   0.374   4.678   4.038
 7414SOL     OW23140   7.021   0.101   2.612
 7414SOL    HW123141   0.033   0.013   2.580
 7414SOL    HW223142   6.985   0.091   2.705
 7415SOL     OW23143   0.646   3.800   2.953
 7415SOL    HW123144   0.713   3.844   3.014
 7415SOL    HW223145   0.640   3.703   2.975
 7416SOL     OW23146   3.570   0.466   3.688
 7416SOL    HW123147   3.492   0.504   3.738
 7416SOL    HW223148   3.622   0.406   3.749
 7417SOL     OW23149   1.525   0.005   6.662
 7417SOL    HW123150   1.579   0.045   6.588
 7417SOL    HW223151   1.436   0.052   6.668
 7418SOL     OW23152   3.608   4.940   1.154
 7418SOL    HW123153   3.544   4.902   1.087
 7418SOL    HW223154   3.700   4.937   1.116
 7419SOL     OW23155   6.569   1.827   4.845
 7419SOL    HW123156   6.532   1.840   4.753
 7419SOL    HW223157   6.667   1.809   4.840
 7420SOL     OW23158   6.381   6.333   2.948
 7420SOL    HW123159   6.373   6.433   2.954
 7420SOL    HW223160   6.397   6.295   3.039
 7421SOL     OW23161   3.101   2.928   1.978
 7421SOL    HW123162   3.062   2.863   2.043
 7421SOL    HW223163   3.120   3.014   2.024
 7422SOL     OW23164   0.195   3.534   2.499
 7422SOL    HW123165   0.251   3.577   2.571
 7422SOL    HW223166   0.159   3.604   2.438
 7423SOL     OW23167   0.070   3.687   6.241
 7423SOL    HW123168   7.013   3.729   6.198
 7423SOL    HW223169   0.142   3.755   6.249
 7424SOL     OW23170   6.042   1.571   4.131
 7424SOL    HW123171   6.055   1.670   4.129
 7424SOL    HW223172   6.043   1.535   4.037
 7425SOL     OW23173   4.222   4.762   6.583
 7425SOL    HW123174   4.251   4.741   6.677
 7425SOL    HW223175   4.303   4.779   6.527
 7426SOL     OW23176   0.887   1.976   6.861
 7426SOL    HW123177   0.928   2.066   6.876
 7426SOL    HW223178   0.924   1.937   6.776
 7427SOL     OW23179   2.868   6.087   5.034
 7427SOL    HW123180   2.808   6.162   5.062
 7427SOL    HW223181   2.884   6.092   4.935
 7428SOL     OW23182   3.174   1.233   5.369
 7428SOL    HW123183   3.170   1.304   5.299
 7428SOL    HW223184   3.095   1.241   5.430
 7429SOL     OW23185   6.120   0.138   3.248
 7429SOL    HW123186   6.054   0.201   3.207
 7429SOL    HW223187   6.095   0.044   3.225
 7430SOL     OW23188   0.277   4.591   5.764
 7430SOL    HW123189   0.324   4.664   5.814
 7430SOL    HW223190   0.261   4.513   5.825
 7431SOL     OW23191   0.273   3.961   2.061
 7431SOL    HW123192   0.214   4.010   2.126
 7431SOL    HW223193   0.306   3.877   2.104
 7432SOL     OW23194   0.371   6.867   3.652
 7432SOL    HW123195   0.395   6.801   3.581
 7432SOL    HW223196   0.454   6.913   3.684
 7433SOL     OW23197   6.556   5.529   0.497
 7433SOL    HW123198   6.655   5.530   0.484
 7433SOL    HW223199   6.535   5.563   0.589
 7434SOL     OW23200   4.027   0.832   6.348
 7434SOL    HW123201   3.962   0.902   6.319
 7434SOL    HW223202   3.986   0.778   6.422
 7435SOL     OW23203   3.215   6.463   6.834
 7435SOL    HW123204   3.193   6.558   6.857
 7435SOL    HW223205   3.219   6.453   6.734
 7436SOL     OW23206   6.858   2.854   6.260
 7436SOL    HW123207   6.889   2.773   6.308
 7436SOL    HW223208   6.878   2.844   6.162
 7437SOL     OW23209   0.095   5.370   6.886
 7437SOL    HW123210   0.097   5.296   6.819
 7437SOL    HW223211   0.000   5.398   6.902
 7438SOL     OW23212   0.708   4.516   0.712
 7438SOL    HW123213   0.731   4.534   0.616
 7438SOL    HW223214   0.765   4.573   0.771
 7439SOL     OW23215   2.386   6.936   4.127
 7439SOL    HW123216   2.442   7.009   4.167
 7439SOL    HW223217   2.294   6.940   4.166
 7440SOL     OW23218   0.805   3.079   4.396
 7440SOL    HW123219   0.896   3.054   4.363
 7440SOL    HW223220   0.786   3.174   4.374
 7441SOL     OW23221   5.973   6.797   4.478
 7441SOL    HW123222   5.991   6.742   4.396
 7441SOL    HW223223   6.035   6.769   4.551
 7442SOL     OW23224   0.627   0.740   6.042
 7442SOL    HW123225   0.662   0.721   6.134
 7442SOL    HW223226   0.536   0.699   6.032
 7443SOL     OW23227   0.405   1.444   1.043
 7443SOL    HW123228   0.460   1.465   0.962
 7443SOL    HW223229   0.334   1.513   1.054
 7444SOL     OW23230   0.202   3.281   5.284
 7444SOL    HW123231   0.176   3.222   5.208
 7444SOL    HW223232   0.126   3.288   5.349
 7445SOL     OW23233   3.938   1.050   1.109
 7445SOL    HW123234   3.925   0.956   1.078
 7445SOL    HW223235   3.938   1.053   1.209
 7446SOL     OW23236   5.500   4.699   0.070
 7446SOL    HW123237   5.543   4.786   0.093
 7446SOL    HW223238   5.561   4.624   0.097
 7447SOL     OW23239   2.648   3.626   6.619
 7447SOL    HW123240   2.631   3.588   6.529
 7447SOL    HW223241   2.648   3.552   6.687
 7448SOL     OW23242   5.454   5.988   5.854
 7448SOL    HW123243   5.407   5.911   5.811
 7448SOL    HW223244   5.417   6.001   5.947
 7449SOL     OW23245   4.992   2.704   2.069
 7449SOL    HW123246   4.955   2.764   1.998
 7449SOL    HW223247   4.930   2.627   2.083
 7450SOL     OW23248   5.359   2.584   4.714
 7450SOL    HW123249   5.349   2.634   4.800
 7450SOL    HW223250   5.299   2.504   4.714
 7451SOL     OW23251   1.437   0.289   3.435
 7451SOL    HW123252   1.395   0.327   3.517
 7451SOL    HW223253   1.506   0.352   3.401
 7452SOL     OW23254   0.774   7.000   4.877
 7452SOL    HW123255   0.869   7.015   4.905
 7452SOL    HW223256   0.721   6.971   4.957
 7453SOL     OW23257   5.505   5.778   5.574
 7453SOL    HW123258   5.566   5.718   5.522
 7453SOL    HW223259   5.518   5.872   5.545
 7454SOL     OW23260   1.100   3.222   2.013
 7454SOL    HW123261   1.174   3.287   1.996
 7454SOL    HW223262   1.117   3.173   2.098
 7455SOL     OW23263   7.006   1.657   1.629
 7455SOL    HW123264   6.933   1.698   1.684
 7455SOL    HW223265   7.012   1.704   1.541
 7456SOL     OW23266   1.015   2.070   4.792
 7456SOL    HW123267   0.921   2.086   4.822
 7456SOL    HW223268   1.060   2.158   4.775
 7457SOL     OW23269   4.008   0.710   5.968
 7457SOL    HW123270   4.091   0.749   6.006
 7457SOL    HW223271   3.972   0.640   6.030
 7458SOL     OW23272   1.329   0.484   6.745
 7458SOL    HW123273   1.331   0.437   6.833
 7458SOL    HW223274   1.344   0.582   6.758
 7459SOL     OW23275   4.687   0.112   0.413
 7459SOL    HW123276   4.670   0.180   0.485
 7459SOL    HW223277   4.783   0.087   0.413
 7460SOL     OW23278   1.753   4.544   0.883
 7460SOL    HW123279   1.796   4.487   0.953
 7460SOL    HW223280   1.819   4.612   0.850
 7461SOL     OW23281   5.071   1.771   5.883
 7461SOL    HW123282   4.972   1.769   5.877
 7461SOL    HW223283   5.110   1.696   5.829
 7462SOL     OW23284   1.721   2.757   1.998
 7462SOL    HW123285   1.694   2.666   2.030
 7462SOL    HW223286   1.763   2.749   1.908
 7463SOL     OW23287   3.754   4.212   1.492
 7463SOL    HW123288   3.703   4.126   1.489
 7463SOL    HW223289   3.761   4.243   1.587
 7464SOL     OW23290   3.514   6.626   6.499
 7464SOL    HW123291   3.481   6.646   6.407
 7464SOL    HW223292   3.614   6.617   6.497
 7465SOL     OW23293   1.654   0.801   0.792
 7465SOL    HW123294   1.735   0.745   0.809
 7465SOL    HW223295   1.613   0.828   0.879
 7466SOL     OW23296   0.320   0.870   6.925
 7466SOL    HW123297   0.393   0.883   6.857
 7466SOL    HW223298   0.339   0.789   6.980
 7467SOL     OW23299   6.589   2.012   0.934
 7467SOL    HW123300   6.600   1.976   0.842
 7467SOL    HW223301   6.569   1.937   0.997
 7468SOL     OW23302   5.323   2.379   2.465
 7468SOL    HW123303   5.290   2.442   2.535
 7468SOL    HW223304   5.408   2.413   2.426
 7469SOL     OW23305   0.555   0.394   0.336
 7469SOL    HW123306   0.647   0.400   0.376
 7469SOL    HW223307   0.493   0.349   0.400
 7470SOL     OW23308   0.292   3.290   3.727
 7470SOL    HW123309   0.293   3.293   3.627
 7470SOL    HW223310   0.197   3.296   3.759
 7471SOL     OW23311   6.326   0.063   4.251
 7471SOL    HW123312   6.370   7.009   4.205
 7471SOL    HW223313   6.230   0.067   4.224
 7472SOL     OW23314   5.823   6.781   4.213
 7472SOL    HW123315   5.813   6.785   4.113
 7472SOL    HW223316   5.880   6.702   4.237
 7473SOL     OW23317   0.481   4.645   3.197
 7473SOL    HW123318   0.526   4.683   3.278
 7473SOL    HW223319   0.425   4.566   3.224
 7474SOL     OW23320   2.422   0.965   4.989
 7474SOL    HW123321   2.512   0.975   5.032
 7474SOL    HW223322   2.354   0.943   5.059
 7475SOL     OW23323   3.525   1.535   2.340
 7475SOL    HW123324   3.541   1.633   2.329
 7475SOL    HW223325   3.611   1.490   2.363
 7476SOL     OW23326   4.103   6.430   4.239
 7476SOL    HW123327   4.146   6.520   4.230
 7476SOL    HW223328   4.047   6.412   4.158
 7477SOL     OW23329   5.245   1.710   3.812
 7477SOL    HW123330   5.343   1.708   3.795
 7477SOL    HW223331   5.224   1.669   3.900
 7478SOL     OW23332   3.979   4.199   6.189
 7478SOL    HW123333   3.957   4.113   6.144
 7478SOL    HW223334   3.942   4.199   6.282
 7479SOL     OW23335   4.234   2.855   0.878
 7479SOL    HW123336   4.143   2.816   0.867
 7479SOL    HW223337   4.298   2.809   0.815
 7480SOL     OW23338   6.188   4.768   1.619
 7480SOL    HW123339   6.143   4.857   1.609
 7480SOL    HW223340   6.280   4.782   1.655
 7481SOL     OW23341   5.493   5.074   1.801
 7481SOL    HW123342   5.461   5.091   1.708
 7481SOL    HW223343   5.553   4.993   1.801
 7482SOL     OW23344   4.675   1.762   2.439
 7482SOL    HW123345   4.646   1.668   2.418
 7482SOL    HW223346   4.701   1.808   2.354
 7483SOL     OW23347   4.480   2.066   4.983
 7483SOL    HW123348   4.521   2.150   5.019
 7483SOL    HW223349   4.382   2.080   4.968
 7484SOL     OW23350   6.459   6.893   2.374
 7484SOL    HW123351   6.475   6.920   2.279
 7484SOL    HW223352   6.514   6.950   2.434
 7485SOL     OW23353   2.867   5.786   5.482
 7485SOL    HW123354   2.964   5.804   5.495
 7485SOL    HW223355   2.838   5.824   5.394
 7486SOL     OW23356   2.458   0.060   5.637
 7486SOL    HW123357   2.391   7.012   5.615
 7486SOL    HW223358   2.440   0.141   5.582
 7487SOL     OW23359   2.368   6.474   2.550
 7487SOL    HW123360   2.271   6.453   2.562
 7487SOL    HW223361   2.386   6.489   2.453
 7488SOL     OW23362   1.828   6.694   4.937
 7488SOL    HW123363   1.914   6.655   4.906
 7488SOL    HW223364   1.756   6.625   4.928
 7489SOL     OW23365   5.025   2.808   5.385
 7489SOL    HW123366   5.046   2.877   5.316
 7489SOL    HW223367   4.961   2.845   5.452
 7490SOL     OW23368   1.012   1.771   1.272
 7490SOL    HW123369   1.072   1.740   1.345
 7490SOL    HW223370   1.066   1.815   1.200
 7491SOL     OW23371   0.462   4.620   6.804
 7491SOL    HW123372   0.438   4.599   6.710
 7491SOL    HW223373   0.432   4.713   6.826
 7492SOL     OW23374   2.725   1.227   4.832
 7492SOL    HW123375   2.666   1.255   4.756
 7492SOL    HW223376   2.739   1.128   4.829
 7493SOL     OW23377   6.123   4.567   6.349
 7493SOL    HW123378   6.055   4.606   6.411
 7493SOL    HW223379   6.207   4.623   6.353
 7494SOL     OW23380   6.224   1.302   2.597
 7494SOL    HW123381   6.240   1.325   2.501
 7494SOL    HW223382   6.301   1.332   2.653
 7495SOL     OW23383   2.308   1.621   0.703
 7495SOL    HW123384   2.261   1.564   0.770
 7495SOL    HW223385   2.333   1.708   0.745
 7496SOL     OW23386   0.764   3.605   6.218
 7496SOL    HW123387   0.724   3.565   6.301
 7496SOL    HW223388   0.855   3.641   6.239
 7497SOL     OW23389   2.630   4.911   1.171
 7497SOL    HW123390   2.562   4.842   1.147
 7497SOL    HW223391   2.658   4.961   1.089
 7498SOL     OW23392   1.863   0.912   4.574
 7498SOL    HW123393   1.878   1.007   4.598
 7498SOL    HW223394   1.765   0.891   4.581
 7499SOL     OW23395   6.044   1.107   3.315
 7499SOL    HW123396   6.016   1.066   3.228
 7499SOL    HW223397   6.077   1.035   3.376
 7500SOL     OW23398   4.160   6.401   3.314
 7500SOL    HW123399   4.229   6.355   3.369
 7500SOL    HW223400   4.191   6.493   3.291
 7501SOL     OW23401   6.959   4.396   4.430
 7501SOL    HW123402   6.954   4.457   4.351
 7501SOL    HW223403   7.003   4.444   4.507
 7502SOL     OW23404   1.246   0.730   5.178
 7502SOL    HW123405   1.164   0.677   5.199
 7502SOL    HW223406   1.239   0.821   5.218
 7503SOL     OW23407   2.265   1.667   0.076
 7503SOL    HW123408   2.268   1.761   0.110
 7503SOL    HW223409   2.311   1.606   0.141
 7504SOL     OW23410   3.180   0.234   3.447
 7504SOL    HW123411   3.273   0.242   3.410
 7504SOL    HW223412   3.114   0.250   3.374
 7505SOL     OW23413   2.313   0.609   5.247
 7505SOL    HW123414   2.385   0.576   5.187
 7505SOL    HW223415   2.231   0.553   5.234
 7506SOL     OW23416   3.850   0.172   2.410
 7506SOL    HW123417   3.828   0.147   2.504
 7506SOL    HW223418   3.893   0.262   2.408
 7507SOL     OW23419   0.103   0.774   0.996
 7507SOL    HW123420   0.052   0.860   0.993
 7507SOL    HW223421   0.201   0.793   0.994
 7508SOL     OW23422   5.426   0.218   2.204
 7508SOL    HW123423   5.459   0.131   2.241
 7508SOL    HW223424   5.432   0.289   2.274
 7509SOL     OW23425   5.571   4.063   0.941
 7509SOL    HW123426   5.536   4.102   0.856
 7509SOL    HW223427   5.520   3.979   0.962
 7510SOL     OW23428   2.935   4.227   5.566
 7510SOL    HW123429   2.949   4.183   5.655
 7510SOL    HW223430   2.943   4.326   5.576
 7511SOL     OW23431   1.337   0.657   3.405
 7511SOL    HW123432   1.370   0.651   3.311
 7511SOL    HW223433   1.264   0.725   3.411
 7512SOL     OW23434   3.070   4.602   1.436
 7512SOL    HW123435   3.075   4.563   1.344
 7512SOL    HW223436   2.983   4.650   1.447
 7513SOL     OW23437   1.715   2.032   1.361
 7513SOL    HW123438   1.663   2.019   1.445
 7513SOL    HW223439   1.810   2.007   1.375
 7514SOL     OW23440   2.902   5.714   2.588
 7514SOL    HW123441   2.826   5.707   2.522
 7514SOL    HW223442   2.930   5.622   2.615
 7515SOL     OW23443   1.814   6.452   2.197
 7515SOL    HW123444   1.815   6.354   2.219
 7515SOL    HW223445   1.742   6.470   2.130
 7516SOL     OW23446   0.188   5.895   4.417
 7516SOL    HW123447   0.140   5.983   4.427
 7516SOL    HW223448   0.232   5.892   4.328
 7517SOL     OW23449   6.600   3.357   1.590
 7517SOL    HW123450   6.659   3.418   1.538
 7517SOL    HW223451   6.635   3.263   1.584
 7518SOL     OW23452   3.915   5.844   3.821
 7518SOL    HW123453   3.863   5.926   3.845
 7518SOL    HW223454   3.861   5.787   3.759
 7519SOL     OW23455   0.292   6.935   3.328
 7519SOL    HW123456   0.316   6.846   3.367
 7519SOL    HW223457   0.193   6.947   3.330
 7520SOL     OW23458   2.880   6.980   1.899
 7520SOL    HW123459   2.905   7.023   1.985
 7520SOL    HW223460   2.783   6.997   1.881
 7521SOL     OW23461   4.481   4.458   5.741
 7521SOL    HW123462   4.505   4.405   5.823
 7521SOL    HW223463   4.391   4.430   5.709
 7522SOL     OW23464   3.080   0.943   6.379
 7522SOL    HW123465   3.003   0.976   6.325
 7522SOL    HW223466   3.049   0.917   6.471
 7523SOL     OW23467   5.156   0.697   5.704
 7523SOL    HW123468   5.153   0.599   5.722
 7523SOL    HW223469   5.078   0.742   5.746
 7524SOL     OW23470   0.738   2.519   6.466
 7524SOL    HW123471   0.770   2.458   6.539
 7524SOL    HW223472   0.773   2.487   6.378
 7525SOL     OW23473   2.685   6.848   6.892
 7525SOL    HW123474   2.610   6.793   6.929
 7525SOL    HW223475   2.700   6.927   6.951
 7526SOL     OW23476   3.674   2.897   2.410
 7526SOL    HW123477   3.764   2.918   2.371
 7526SOL    HW223478   3.612   2.868   2.337
 7527SOL     OW23479   4.110   5.991   3.420
 7527SOL    HW123480   4.062   5.904   3.427
 7527SOL    HW223481   4.178   5.998   3.494
 7528SOL     OW23482   3.950   2.091   6.793
 7528SOL    HW123483   4.036   2.137   6.814
 7528SOL    HW223484   3.968   2.012   6.734
 7529SOL     OW23485   6.130   1.032   4.609
 7529SOL    HW123486   6.159   1.008   4.701
 7529SOL    HW223487   6.092   0.951   4.564
 7530SOL     OW23488   6.165   3.755   2.308
 7530SOL    HW123489   6.093   3.745   2.376
 7530SOL    HW223490   6.172   3.670   2.254
 7531SOL     OW23491   4.226   2.175   4.139
 7531SOL    HW123492   4.154   2.212   4.197
 7531SOL    HW223493   4.265   2.094   4.182
 7532SOL     OW23494   5.342   5.532   1.652
 7532SOL    HW123495   5.280   5.460   1.684
 7532SOL    HW223496   5.435   5.511   1.681
 7533SOL     OW23497   2.121   0.888   3.003
 7533SOL    HW123498   2.168   0.801   2.989
 7533SOL    HW223499   2.155   0.955   2.937
 7534SOL     OW23500   3.504   6.829   5.434
 7534SOL    HW123501   3.466   6.742   5.465
 7534SOL    HW223502   3.475   6.847   5.339
 7535SOL     OW23503   2.802   0.792   5.683
 7535SOL    HW123504   2.874   0.816   5.617
 7535SOL    HW223505   2.758   0.876   5.714
 7536SOL     OW23506   5.480   4.773   4.602
 7536SOL    HW123507   5.504   4.749   4.696
 7536SOL    HW223508   5.525   4.860   4.578
 7537SOL     OW23509   2.291   5.463   4.894
 7537SOL    HW123510   2.317   5.444   4.988
 7537SOL    HW223511   2.211   5.522   4.892
 7538SOL     OW23512   3.353   2.831   1.991
 7538SOL    HW123513   3.256   2.856   1.982
 7538SOL    HW223514   3.393   2.821   1.900
 7539SOL     OW23515   2.430   2.623   4.430
 7539SOL    HW123516   2.514   2.583   4.394
 7539SOL    HW223517   2.391   2.686   4.363
 7540SOL     OW23518   2.594   0.632   5.576
 7540SOL    HW123519   2.636   0.699   5.637
 7540SOL    HW223520   2.494   0.637   5.584
 7541SOL     OW23521   6.755   3.232   4.538
 7541SOL    HW123522   6.851   3.243   4.566
 7541SOL    HW223523   6.695   3.259   4.614
 7542SOL     OW23524   0.766   6.078   6.833
 7542SOL    HW123525   0.684   6.097   6.888
 7542SOL    HW223526   0.747   6.004   6.770
 7543SOL     OW23527   4.197   2.143   0.757
 7543SOL    HW123528   4.104   2.114   0.778
 7543SOL    HW223529   4.256   2.129   0.836
 7544SOL     OW23530   0.661   2.442   3.698
 7544SOL    HW123531   0.700   2.492   3.620
 7544SOL    HW223532   0.667   2.344   3.681
 7545SOL     OW23533   5.659   6.424   2.992
 7545SOL    HW123534   5.652   6.493   2.920
 7545SOL    HW223535   5.689   6.467   3.077
 7546SOL     OW23536   4.302   1.170   1.444
 7546SOL    HW123537   4.335   1.250   1.394
 7546SOL    HW223538   4.380   1.113   1.471
 7547SOL     OW23539   4.247   6.692   0.909
 7547SOL    HW123540   4.330   6.736   0.877
 7547SOL    HW223541   4.230   6.610   0.856
 7548SOL     OW23542   3.058   1.994   0.629
 7548SOL    HW123543   3.024   1.901   0.639
 7548SOL    HW223544   3.062   2.018   0.532
 7549SOL     OW23545   5.842   1.761   1.070
 7549SOL    HW123546   5.919   1.822   1.087
 7549SOL    HW223547   5.875   1.667   1.059
 7550SOL     OW23548   2.295   4.711   2.011
 7550SOL    HW123549   2.342   4.761   2.084
 7550SOL    HW223550   2.360   4.648   1.968
 7551SOL     OW23551   4.880   4.385   6.980
 7551SOL    HW123552   4.818   4.459   7.006
 7551SOL    HW223553   4.965   4.394   0.009
 7552SOL     OW23554   2.055   5.469   3.888
 7552SOL    HW123555   1.972   5.472   3.831
 7552SOL    HW223556   2.122   5.534   3.853
 7553SOL     OW23557   4.333   4.929   5.258
 7553SOL    HW123558   4.292   5.019   5.247
 7553SOL    HW223559   4.305   4.890   5.346
 7554SOL     OW23560   5.053   0.494   0.902
 7554SOL    HW123561   5.151   0.502   0.920
 7554SOL    HW223562   5.027   0.397   0.900
 7555SOL     OW23563   1.918   5.005   4.600
 7555SOL    HW123564   1.913   5.101   4.624
 7555SOL    HW223565   1.978   4.957   4.664
 7556SOL     OW23566   0.696   2.537   5.683
 7556SOL    HW123567   0.638   2.587   5.747
 7556SOL    HW223568   0.681   2.438   5.695
 7557SOL     OW23569   5.473   3.029   6.694
 7557SOL    HW123570   5.518   3.089   6.760
 7557SOL    HW223571   5.521   3.035   6.606
 7558SOL     OW23572   2.646   2.269   3.259
 7558SOL    HW123573   2.696   2.194   3.215
 7558SOL    HW223574   2.628   2.246   3.354
 7559SOL     OW23575   6.485   5.943   0.932
 7559SOL    HW123576   6.432   5.962   1.015
 7559SOL    HW223577   6.424   5.914   0.859
 7560SOL     OW23578   5.583   6.328   0.221
 7560SOL    HW123579   5.581   6.428   0.209
 7560SOL    HW223580   5.678   6.299   0.235
 7561SOL     OW23581   0.850   3.268   0.735
 7561SOL    HW123582   0.823   3.361   0.713
 7561SOL    HW223583   0.847   3.255   0.835
 7562SOL     OW23584   5.414   6.322   4.624
 7562SOL    HW123585   5.475   6.386   4.576
 7562SOL    HW223586   5.450   6.229   4.615
 7563SOL     OW23587   2.535   6.665   1.031
 7563SOL    HW123588   2.609   6.636   0.970
 7563SOL    HW223589   2.487   6.584   1.065
 7564SOL     OW23590   4.937   1.367   2.747
 7564SOL    HW123591   4.889   1.301   2.804
 7564SOL    HW223592   5.020   1.325   2.710
 7565SOL     OW23593   4.987   4.911   6.969
 7565SOL    HW123594   4.941   4.976   6.908
 7565SOL    HW223595   5.084   4.935   6.976
 7566SOL     OW23596   0.831   5.137   3.088
 7566SOL    HW123597   0.901   5.078   3.129
 7566SOL    HW223598   0.773   5.082   3.028
 7567SOL     OW23599   2.025   2.579   4.910
 7567SOL    HW123600   2.042   2.532   4.824
 7567SOL    HW223601   2.091   2.654   4.920
 7568SOL     OW23602   5.626   6.093   3.480
 7568SOL    HW123603   5.710   6.096   3.534
 7568SOL    HW223604   5.628   6.015   3.418
 7569SOL     OW23605   4.076   4.558   6.437
 7569SOL    HW123606   4.091   4.559   6.338
 7569SOL    HW223607   4.141   4.620   6.481
 7570SOL     OW23608   5.468   4.798   5.622
 7570SOL    HW123609   5.475   4.781   5.523
 7570SOL    HW223610   5.471   4.897   5.639
 7571SOL     OW23611   5.417   4.986   2.710
 7571SOL    HW123612   5.473   4.908   2.737
 7571SOL    HW223613   5.338   4.954   2.658
 7572SOL     OW23614   4.927   0.508   3.542
 7572SOL    HW123615   4.872   0.537   3.620
 7572SOL    HW223616   4.868   0.465   3.473
 7573SOL     OW23617   6.051   6.163   4.469
 7573SOL    HW123618   6.023   6.212   4.551
 7573SOL    HW223619   5.996   6.080   4.459
 7574SOL     OW23620   6.689   0.932   4.674
 7574SOL    HW123621   6.735   0.903   4.591
 7574SOL    HW223622   6.751   0.922   4.752
 7575SOL     OW23623   4.576   0.176   5.952
 7575SOL    HW123624   4.563   0.274   5.965
 7575SOL    HW223625   4.673   0.156   5.942
 7576SOL     OW23626   6.182   5.833   0.516
 7576SOL    HW123627   6.174   5.734   0.515
 7576SOL    HW223628   6.155   5.870   0.426
 7577SOL     OW23629   6.802   6.872   5.381
 7577SOL    HW123630   6.830   6.923   5.300
 7577SOL    HW223631   6.707   6.841   5.370
 7578SOL     OW23632   2.312   6.077   3.445
 7578SOL    HW123633   2.377   6.113   3.511
 7578SOL    HW223634   2.274   6.153   3.391
 7579SOL     OW23635   4.720   1.901   2.195
 7579SOL    HW123636   4.690   1.818   2.148
 7579SOL    HW223637   4.676   1.980   2.153
 7580SOL     OW23638   1.415   4.458   3.984
 7580SOL    HW123639   1.371   4.537   3.942
 7580SOL    HW223640   1.485   4.490   4.049
 7581SOL     OW23641   5.191   0.661   1.310
 7581SOL    HW123642   5.215   0.758   1.311
 7581SOL    HW223643   5.263   0.608   1.352
 7582SOL     OW23644   2.900   0.848   0.083
 7582SOL    HW123645   2.833   0.913   0.047
 7582SOL    HW223646   2.959   0.894   0.149
 7583SOL     OW23647   6.258   3.288   1.216
 7583SOL    HW123648   6.283   3.251   1.127
 7583SOL    HW223649   6.175   3.244   1.248
 7584SOL     OW23650   2.949   6.865   0.902
 7584SOL    HW123651   2.895   6.868   0.987
 7584SOL    HW223652   2.911   6.796   0.841
 7585SOL     OW23653   1.602   3.276   6.080
 7585SOL    HW123654   1.539   3.343   6.042
 7585SOL    HW223655   1.600   3.192   6.025
 7586SOL     OW23656   3.451   0.867   3.531
 7586SOL    HW123657   3.491   0.806   3.600
 7586SOL    HW223658   3.451   0.821   3.443
 7587SOL     OW23659   3.571   1.465   6.479
 7587SOL    HW123660   3.512   1.494   6.404
 7587SOL    HW223661   3.518   1.410   6.544
 7588SOL     OW23662   0.826   3.412   2.191
 7588SOL    HW123663   0.825   3.507   2.223
 7588SOL    HW223664   0.798   3.409   2.095
 7589SOL     OW23665   6.131   6.866   1.121
 7589SOL    HW123666   6.185   6.785   1.099
 7589SOL    HW223667   6.192   6.940   1.148
 7590SOL     OW23668   2.779   1.998   6.612
 7590SOL    HW123669   2.693   1.949   6.611
 7590SOL    HW223670   2.791   2.048   6.526
 7591SOL     OW23671   6.528   4.937   0.518
 7591SOL    HW123672   6.454   4.907   0.458
 7591SOL    HW223673   6.574   5.015   0.477
 7592SOL     OW23674   6.834   4.238   6.828
 7592SOL    HW123675   6.890   4.169   6.874
 7592SOL    HW223676   6.847   4.327   6.872
 7593SOL     OW23677   4.810   2.369   0.681
 7593SOL    HW123678   4.887   2.342   0.624
 7593SOL    HW223679   4.778   2.460   0.653
 7594SOL     OW23680   0.199   4.557   2.211
 7594SOL    HW123681   0.256   4.476   2.194
 7594SOL    HW223682   0.225   4.598   2.299
 7595SOL     OW23683   6.742   2.372   6.009
 7595SOL    HW123684   6.721   2.343   5.915
 7595SOL    HW223685   6.782   2.463   6.008
 7596SOL     OW23686   4.026   5.492   3.119
 7596SOL    HW123687   4.048   5.453   3.029
 7596SOL    HW223688   4.106   5.540   3.154
 7597SOL     OW23689   2.682   5.659   1.670
 7597SOL    HW123690   2.622   5.598   1.722
 7597SOL    HW223691   2.776   5.625   1.675
 7598SOL     OW23692   6.857   1.229   2.936
 7598SOL    HW123693   6.905   1.142   2.952
 7598SOL    HW223694   6.765   1.209   2.901
 7599SOL     OW23695   5.734   1.761   3.499
 7599SOL    HW123696   5.671   1.835   3.477
 7599SOL    HW223697   5.686   1.673   3.491
 7600SOL     OW23698   1.917   0.688   2.598
 7600SOL    HW123699   1.913   0.694   2.698
 7600SOL    HW223700   1.825   0.668   2.563
 7601SOL     OW23701   2.207   5.816   2.882
 7601SOL    HW123702   2.243   5.779   2.796
 7601SOL    HW223703   2.111   5.790   2.892
 7602SOL     OW23704   1.751   4.309   6.217
 7602SOL    HW123705   1.848   4.333   6.213
 7602SOL    HW223706   1.733   4.260   6.302
 7603SOL     OW23707   0.902   5.542   6.163
 7603SOL    HW123708   0.809   5.510   6.148
 7603SOL    HW223709   0.967   5.469   6.140
 7604SOL     OW23710   2.314   4.349   4.225
 7604SOL    HW123711   2.369   4.353   4.308
 7604SOL    HW223712   2.369   4.382   4.148
 7605SOL     OW23713   1.105   6.269   0.353
 7605SOL    HW123714   1.168   6.288   0.428
 7605SOL    HW223715   1.044   6.347   0.340
 7606SOL     OW23716   0.075   2.762   3.471
 7606SOL    HW123717   0.043   2.694   3.537
 7606SOL    HW223718   0.145   2.820   3.514
 7607SOL     OW23719   4.689   6.356   0.442
 7607SOL    HW123720   4.731   6.291   0.378
 7607SOL    HW223721   4.670   6.310   0.528
 7608SOL     OW23722   3.259   4.102   2.812
 7608SOL    HW123723   3.192   4.176   2.803
 7608SOL    HW223724   3.221   4.018   2.772
 7609SOL     OW23725   0.348   4.277   3.484
 7609SOL    HW123726   0.438   4.319   3.496
 7609SOL    HW223727   0.289   4.305   3.560
 7610SOL     OW23728   6.318   6.847   6.649
 7610SOL    HW123729   6.360   6.781   6.710
 7610SOL    HW223730   6.238   6.806   6.606
 7611SOL     OW23731   0.780   2.238   0.241
 7611SOL    HW123732   0.703   2.179   0.217
 7611SOL    HW223733   0.792   2.238   0.340
 7612SOL     OW23734   5.033   2.734   4.903
 7612SOL    HW123735   4.963   2.665   4.886
 7612SOL    HW223736   4.996   2.805   4.963
 7613SOL     OW23737   5.751   2.588   1.714
 7613SOL    HW123738   5.694   2.563   1.636
 7613SOL    HW223739   5.752   2.514   1.780
 7614SOL     OW23740   5.196   2.859   1.767
 7614SOL    HW123741   5.101   2.832   1.754
 7614SOL    HW223742   5.220   2.852   1.864
 7615SOL     OW23743   4.538   3.921   6.192
 7615SOL    HW123744   4.552   3.965   6.281
 7615SOL    HW223745   4.494   3.832   6.206
 7616SOL     OW23746   6.992   4.702   4.495
 7616SOL    HW123747   6.975   4.794   4.531
 7616SOL    HW223748   0.059   4.698   4.451
 7617SOL     OW23749   3.120   5.466   3.094
 7617SOL    HW123750   3.159   5.558   3.088
 7617SOL    HW223751   3.036   5.463   3.041
 7618SOL     OW23752   0.595   2.296   6.771
 7618SOL    HW123753   0.592   2.196   6.778
 7618SOL    HW223754   0.671   2.323   6.712
 7619SOL     OW23755   5.565   3.437   5.377
 7619SOL    HW123756   5.470   3.423   5.348
 7619SOL    HW223757   5.621   3.359   5.345
 7620SOL     OW23758   3.526   5.227   6.941
 7620SOL    HW123759   3.441   5.270   6.912
 7620SOL    HW223760   3.601   5.257   6.882
 7621SOL     OW23761   0.169   1.609   0.454
 7621SOL    HW123762   0.242   1.625   0.520
 7621SOL    HW223763   0.190   1.528   0.400
 7622SOL     OW23764   4.870   5.070   1.963
 7622SOL    HW123765   4.918   5.053   1.877
 7622SOL    HW223766   4.934   5.103   2.032
 7623SOL     OW23767   4.610   4.710   6.849
 7623SOL    HW123768   4.631   4.728   6.753
 7623SOL    HW223769   4.586   4.795   6.895
 7624SOL     OW23770   0.011   2.369   4.573
 7624SOL    HW123771   6.974   2.440   4.535
 7624SOL    HW223772   6.991   2.280   4.562
 7625SOL     OW23773   4.468   0.673   1.579
 7625SOL    HW123774   4.407   0.749   1.603
 7625SOL    HW223775   4.563   0.702   1.590
 7626SOL     OW23776   6.722   6.298   4.287
 7626SOL    HW123777   6.793   6.261   4.347
 7626SOL    HW223778   6.729   6.257   4.196
 7627SOL     OW23779   5.106   3.066   6.909
 7627SOL    HW123780   5.125   3.144   6.849
 7627SOL    HW223781   5.138   2.982   6.865
 7628SOL     OW23782   3.705   0.711   1.984
 7628SOL    HW123783   3.738   0.619   2.004
 7628SOL    HW223784   3.633   0.706   1.915
 7629SOL     OW23785   6.900   0.065   2.908
 7629SOL    HW123786   6.989   0.031   2.938
 7629SOL    HW223787   6.834   7.013   2.908
 7630SOL     OW23788   5.606   6.706   1.798
 7630SOL    HW123789   5.584   6.789   1.849
 7630SOL    HW223790   5.653   6.730   1.713
 7631SOL     OW23791   0.525   0.883   4.992
 7631SOL    HW123792   0.550   0.975   5.022
 7631SOL    HW223793   0.538   0.819   5.067
 7632SOL     OW23794   3.488   2.465   1.697
 7632SOL    HW123795   3.442   2.398   1.640
 7632SOL    HW223796   3.562   2.421   1.748
 7633SOL     OW23797   4.100   2.488   0.464
 7633SOL    HW123798   4.105   2.566   0.527
 7633SOL    HW223799   4.100   2.522   0.369
 7634SOL     OW23800   0.840   1.662   2.645
 7634SOL    HW123801   0.858   1.685   2.741
 7634SOL    HW223802   0.786   1.578   2.641
 7635SOL     OW23803   2.555   6.490   5.112
 7635SOL    HW123804   2.593   6.574   5.074
 7635SOL    HW223805   2.587   6.411   5.060
 7636SOL     OW23806   1.807   2.346   3.570
 7636SOL    HW123807   1.748   2.301   3.637
 7636SOL    HW223808   1.783   2.315   3.478
 7637SOL     OW23809   2.776   6.375   2.745
 7637SOL    HW123810   2.823   6.442   2.688
 7637SOL    HW223811   2.787   6.399   2.841
 7638SOL     OW23812   3.788   5.681   1.795
 7638SOL    HW123813   3.766   5.755   1.733
 7638SOL    HW223814   3.738   5.693   1.881
 7639SOL     OW23815   1.464   2.235   0.654
 7639SOL    HW123816   1.454   2.286   0.568
 7639SOL    HW223817   1.550   2.260   0.698
 7640SOL     OW23818   3.205   1.870   0.300
 7640SOL    HW123819   3.270   1.882   0.225
 7640SOL    HW223820   3.159   1.956   0.319
 7641SOL     OW23821   0.824   4.600   1.696
 7641SOL    HW123822   0.858   4.626   1.786
 7641SOL    HW223823   0.770   4.516   1.704
 7642SOL     OW23824   2.628   1.765   2.381
 7642SOL    HW123825   2.646   1.864   2.378
 7642SOL    HW223826   2.631   1.728   2.288
 7643SOL     OW23827   4.922   2.624   4.091
 7643SOL    HW123828   5.000   2.580   4.137
 7643SOL    HW223829   4.957   2.685   4.019
 7644SOL     OW23830   5.759   2.346   2.283
 7644SOL    HW123831   5.813   2.296   2.351
 7644SOL    HW223832   5.720   2.280   2.218
 7645SOL     OW23833   4.440   4.047   5.486
 7645SOL    HW123834   4.381   4.103   5.428
 7645SOL    HW223835   4.424   3.950   5.468
 7646SOL     OW23836   2.297   2.437   2.149
 7646SOL    HW123837   2.252   2.360   2.104
 7646SOL    HW223838   2.333   2.407   2.237
 7647SOL     OW23839   6.966   3.467   2.272
 7647SOL    HW123840   7.002   3.382   2.235
 7647SOL    HW223841   0.001   3.543   2.244
 7648SOL     OW23842   3.318   1.230   3.457
 7648SOL    HW123843   3.261   1.150   3.439
 7648SOL    HW223844   3.389   1.236   3.387
 7649SOL     OW23845   1.156   1.395   2.861
 7649SOL    HW123846   1.173   1.304   2.899
 7649SOL    HW223847   1.195   1.464   2.921
 7650SOL     OW23848   5.020   2.764   1.287
 7650SOL    HW123849   5.019   2.671   1.324
 7650SOL    HW223850   5.112   2.785   1.252
 7651SOL     OW23851   2.468   6.787   5.348
 7651SOL    HW123852   2.438   6.882   5.334
 7651SOL    HW223853   2.409   6.725   5.297
 7652SOL     OW23854   6.767   3.963   3.862
 7652SOL    HW123855   6.860   3.944   3.895
 7652SOL    HW223856   6.735   4.049   3.903
 7653SOL     OW23857   2.729   1.534   0.600
 7653SOL    HW123858   2.780   1.455   0.634
 7653SOL    HW223859   2.632   1.523   0.621
 7654SOL     OW23860   5.098   3.501   4.266
 7654SOL    HW123861   5.026   3.537   4.326
 7654SOL    HW223862   5.056   3.465   4.183
 7655SOL     OW23863   3.431   0.229   3.300
 7655SOL    HW123864   3.514   0.235   3.357
 7655SOL    HW223865   3.433   0.143   3.248
 7656SOL     OW23866   1.888   4.967   6.343
 7656SOL    HW123867   1.875   4.899   6.415
 7656SOL    HW223868   1.972   5.018   6.361
 7657SOL     OW23869   2.959   2.302   3.186
 7657SOL    HW123870   2.911   2.215   3.200
 7657SOL    HW223871   2.894   2.377   3.190
 7658SOL     OW23872   3.851   6.484   5.824
 7658SOL    HW123873   3.805   6.507   5.910
 7658SOL    HW223874   3.785   6.491   5.748
 7659SOL     OW23875   5.589   5.699   6.512
 7659SOL    HW123876   5.539   5.757   6.447
 7659SOL    HW223877   5.646   5.634   6.461
 7660SOL     OW23878   0.465   6.844   3.958
 7660SOL    HW123879   0.400   6.841   3.882
 7660SOL    HW223880   0.492   6.938   3.975
 7661SOL     OW23881   5.556   2.754   4.597
 7661SOL    HW123882   5.471   2.708   4.625
 7661SOL    HW223883   5.569   2.743   4.499
 7662SOL     OW23884   0.719   2.184   2.367
 7662SOL    HW123885   0.712   2.125   2.286
 7662SOL    HW223886   0.637   2.239   2.375
 7663SOL     OW23887   6.996   6.729   6.380
 7663SOL    HW123888   6.948   6.792   6.318
 7663SOL    HW223889   7.009   6.773   6.469
 7664SOL     OW23890   3.885   0.523   2.143
 7664SOL    HW123891   3.897   0.471   2.227
 7664SOL    HW223892   3.919   0.469   2.065
 7665SOL     OW23893   4.884   6.934   4.935
 7665SOL    HW123894   4.811   6.885   4.983
 7665SOL    HW223895   4.880   6.911   4.837
 7666SOL     OW23896   1.377   6.833   1.469
 7666SOL    HW123897   1.330   6.771   1.406
 7666SOL    HW223898   1.451   6.880   1.421
 7667SOL     OW23899   4.395   6.029   1.870
 7667SOL    HW123900   4.434   6.077   1.949
 7667SOL    HW223901   4.297   6.046   1.867
 7668SOL     OW23902   3.137   4.199   1.213
 7668SOL    HW123903   3.212   4.144   1.251
 7668SOL    HW223904   3.119   4.170   1.119
 7669SOL     OW23905   5.847   1.743   6.105
 7669SOL    HW123906   5.883   1.768   6.015
 7669SOL    HW223907   5.802   1.654   6.099
 7670SOL     OW23908   1.200   4.714   6.390
 7670SOL    HW123909   1.150   4.675   6.312
 7670SOL    HW223910   1.153   4.795   6.423
 7671SOL     OW23911   4.502   0.639   4.642
 7671SOL    HW123912   4.544   0.555   4.608
 7671SOL    HW223913   4.559   0.677   4.716
 7672SOL     OW23914   6.007   6.636   3.538
 7672SOL    HW123915   5.946   6.629   3.459
 7672SOL    HW223916   6.016   6.547   3.582
 7673SOL     OW23917   1.999   5.041   6.954
 7673SOL    HW123918   1.965   5.091   0.010
 7673SOL    HW223919   2.049   4.960   6.984
 7674SOL     OW23920   6.084   2.132   3.944
 7674SOL    HW123921   6.037   2.067   3.885
 7674SOL    HW223922   6.103   2.216   3.893
 7675SOL     OW23923   4.888   0.052   2.591
 7675SOL    HW123924   4.902   0.150   2.608
 7675SOL    HW223925   4.828   0.040   2.513
 7676SOL     OW23926   1.792   2.027   0.572
 7676SOL    HW123927   1.880   2.019   0.619
 7676SOL    HW223928   1.728   1.960   0.609
 7677SOL     OW23929   0.143   4.089   2.258
 7677SOL    HW123930   0.179   4.180   2.276
 7677SOL    HW223931   0.044   4.089   2.272
 7678SOL     OW23932   2.265   1.700   5.386
 7678SOL    HW123933   2.355   1.723   5.348
 7678SOL    HW223934   2.270   1.705   5.486
 7679SOL     OW23935   2.274   6.070   5.953
 7679SOL    HW123936   2.325   6.154   5.968
 7679SOL    HW223937   2.208   6.083   5.879
 7680SOL     OW23938   1.657   1.911   0.294
 7680SOL    HW123939   1.566   1.877   0.268
 7680SOL    HW223940   1.651   1.955   0.383
 7681SOL     OW23941   2.952   6.863   0.420
 7681SOL    HW123942   2.932   6.818   0.333
 7681SOL    HW223943   2.935   6.961   0.412
 7682SOL     OW23944   3.603   0.558   1.781
 7682SOL    HW123945   3.510   0.530   1.801
 7682SOL    HW223946   3.602   0.633   1.714
 7683SOL     OW23947   6.786   1.916   3.740
 7683SOL    HW123948   6.824   1.876   3.657
 7683SOL    HW223949   6.855   1.974   3.784
 7684SOL     OW23950   4.075   1.939   1.270
 7684SOL    HW123951   4.034   1.857   1.312
 7684SOL    HW223952   4.137   1.912   1.197
 7685SOL     OW23953   3.136   3.525   0.006
 7685SOL    HW123954   3.089   3.459   6.970
 7685SOL    HW223955   3.221   3.485   0.040
 7686SOL     OW23956   5.285   7.021   3.006
 7686SOL    HW123957   5.197   0.013   3.052
 7686SOL    HW223958   5.334   0.084   2.998
 7687SOL     OW23959   6.137   5.032   5.396
 7687SOL    HW123960   6.102   5.040   5.489
 7687SOL    HW223961   6.174   5.120   5.366
 7688SOL     OW23962   0.336   6.814   5.473
 7688SOL    HW123963   0.289   6.745   5.527
 7688SOL    HW223964   0.269   6.874   5.430
 7689SOL     OW23965   5.204   6.156   2.788
 7689SOL    HW123966   5.180   6.245   2.826
 7689SOL    HW223967   5.208   6.088   2.862
 7690SOL     OW23968   6.380   5.160   0.703
 7690SOL    HW123969   6.363   5.062   0.691
 7690SOL    HW223970   6.424   5.197   0.621
 7691SOL     OW23971   5.344   2.949   4.035
 7691SOL    HW123972   5.376   2.973   4.127
 7691SOL    HW223973   5.252   2.910   4.041
 7692SOL     OW23974   1.188   6.421   1.481
 7692SOL    HW123975   1.201   6.517   1.457
 7692SOL    HW223976   1.265   6.367   1.448
 7693SOL     OW23977   3.367   0.076   1.413
 7693SOL    HW123978   3.400   0.155   1.465
 7693SOL    HW223979   3.445   0.022   1.381
 7694SOL     OW23980   0.215   4.245   3.807
 7694SOL    HW123981   0.186   4.276   3.897
 7694SOL    HW223982   0.140   4.255   3.742
 7695SOL     OW23983   3.807   6.243   0.244
 7695SOL    HW123984   3.889   6.279   0.199
 7695SOL    HW223985   3.791   6.292   0.330
 7696SOL     OW23986   6.558   1.542   4.233
 7696SOL    HW123987   6.548   1.516   4.329
 7696SOL    HW223988   6.649   1.513   4.201
 7697SOL     OW23989   2.654   0.325   1.777
 7697SOL    HW123990   2.575   0.264   1.778
 7697SOL    HW223991   2.680   0.345   1.683
 7698SOL     OW23992   7.021   2.015   4.117
 7698SOL    HW123993   6.957   1.952   4.161
 7698SOL    HW223994   0.090   1.999   4.152
 7699SOL     OW23995   3.748   5.607   0.046
 7699SOL    HW123996   3.838   5.639   0.018
 7699SOL    HW223997   3.749   5.587   0.145
 7700SOL     OW23998   4.940   6.147   4.681
 7700SOL    HW123999   4.891   6.190   4.757
 7700SOL    HW224000   5.039   6.161   4.693
 7701SOL     OW24001   6.760   1.511   6.499
 7701SOL    HW124002   6.703   1.552   6.571
 7701SOL    HW224003   6.846   1.480   6.539
 7702SOL     OW24004   2.868   6.681   6.238
 7702SOL    HW124005   2.772   6.657   6.227
 7702SOL    HW224006   2.911   6.689   6.148
 7703SOL     OW24007   6.394   0.499   5.133
 7703SOL    HW124008   6.335   0.428   5.093
 7703SOL    HW224009   6.337   0.570   5.174
 7704SOL     OW24010   5.512   4.784   5.353
 7704SOL    HW124011   5.501   4.874   5.312
 7704SOL    HW224012   5.523   4.715   5.282
 7705SOL     OW24013   3.858   4.861   6.182
 7705SOL    HW124014   3.801   4.851   6.264
 7705SOL    HW224015   3.800   4.865   6.102
 7706SOL     OW24016   4.666   1.899   5.063
 7706SOL    HW124017   4.675   1.901   5.162
 7706SOL    HW224018   4.591   1.959   5.035
 7707SOL     OW24019   1.294   5.967   6.604
 7707SOL    HW124020   1.210   5.917   6.584
 7707SOL    HW224021   1.333   5.933   6.690
 7708SOL     OW24022   5.877   6.748   5.308
 7708SOL    HW124023   5.831   6.836   5.303
 7708SOL    HW224024   5.932   6.735   5.226
 7709SOL     OW24025   5.733   4.344   1.443
 7709SOL    HW124026   5.745   4.275   1.513
 7709SOL    HW224027   5.802   4.333   1.371
 7710SOL     OW24028   4.166   0.779   0.823
 7710SOL    HW124029   4.255   0.781   0.867
 7710SOL    HW224030   4.168   0.837   0.741
 7711SOL     OW24031   6.179   5.745   5.447
 7711SOL    HW124032   6.085   5.760   5.476
 7711SOL    HW224033   6.205   5.816   5.381
 7712SOL     OW24034   5.472   4.835   2.073
 7712SOL    HW124035   5.392   4.864   2.020
 7712SOL    HW224036   5.442   4.795   2.160
 7713SOL     OW24037   1.523   4.977   0.434
 7713SOL    HW124038   1.497   5.051   0.495
 7713SOL    HW224039   1.505   5.004   0.339
 7714SOL     OW24040   6.538   4.931   5.379
 7714SOL    HW124041   6.622   4.879   5.394
 7714SOL    HW224042   6.518   4.986   5.460
 7715SOL     OW24043   5.011   1.983   0.255
 7715SOL    HW124044   5.021   2.081   0.266
 7715SOL    HW224045   5.085   1.936   0.303
 7716SOL     OW24046   6.428   4.383   3.941
 7716SOL    HW124047   6.478   4.407   3.858
 7716SOL    HW224048   6.490   4.335   4.004
 7717SOL     OW24049   1.693   1.134   4.836
 7717SOL    HW124050   1.785   1.166   4.859
 7717SOL    HW224051   1.682   1.039   4.865
 7718SOL     OW24052   1.958   1.971   3.259
 7718SOL    HW124053   1.914   2.045   3.208
 7718SOL    HW224054   2.008   1.912   3.196
 7719SOL     OW24055   0.002   3.507   4.380
 7719SOL    HW124056   0.009   3.470   4.288
 7719SOL    HW224057   6.939   3.557   4.390
 7720SOL     OW24058   0.258   6.851   0.682
 7720SOL    HW124059   0.256   6.907   0.599
 7720SOL    HW224060   0.338   6.791   0.680
 7721SOL     OW24061   1.072   4.976   2.317
 7721SOL    HW124062   1.139   4.988   2.244
 7721SOL    HW224063   1.115   4.926   2.393
 7722SOL     OW24064   0.436   5.752   3.419
 7722SOL    HW124065   0.482   5.815   3.356
 7722SOL    HW224066   0.387   5.683   3.367
 7723SOL     OW24067   6.516   3.659   0.053
 7723SOL    HW124068   6.613   3.657   0.075
 7723SOL    HW224069   6.504   3.660   6.977
 7724SOL     OW24070   2.507   4.358   1.785
 7724SOL    HW124071   2.434   4.362   1.718
 7724SOL    HW224072   2.589   4.317   1.743
 7725SOL     OW24073   4.986   3.095   3.791
 7725SOL    HW124074   4.919   3.101   3.865
 7725SOL    HW224075   5.062   3.158   3.810
 7726SOL     OW24076   1.175   6.383   4.937
 7726SOL    HW124077   1.144   6.331   4.858
 7726SOL    HW224078   1.123   6.355   5.018
 7727SOL     OW24079   6.847   0.816   2.803
 7727SOL    HW124080   6.936   0.828   2.757
 7727SOL    HW224081   6.840   0.723   2.838
 7728SOL     OW24082   1.184   5.214   3.279
 7728SOL    HW124083   1.221   5.295   3.233
 7728SOL    HW224084   1.122   5.242   3.352
 7729SOL     OW24085   6.137   3.257   0.521
 7729SOL    HW124086   6.146   3.312   0.438
 7729SOL    HW224087   6.097   3.313   0.593
 7730SOL     OW24088   5.842   5.697   1.967
 7730SOL    HW124089   5.795   5.784   1.977
 7730SOL    HW224090   5.940   5.710   1.983
 7731SOL     OW24091   6.932   1.151   0.667
 7731SOL    HW124092   0.005   1.156   0.642
 7731SOL    HW224093   6.892   1.243   0.663
 7732SOL     OW24094   4.585   6.209   0.653
 7732SOL    HW124095   4.518   6.266   0.699
 7732SOL    HW224096   4.615   6.136   0.714
 7733SOL     OW24097   3.855   6.962   2.293
 7733SOL    HW124098   3.843   6.919   2.383
 7733SOL    HW224099   3.870   0.036   2.305
 7734SOL     OW24100   2.604   4.876   3.635
 7734SOL    HW124101   2.619   4.951   3.699
 7734SOL    HW224102   2.658   4.891   3.552
 7735SOL     OW24103   4.732   6.264   6.272
 7735SOL    HW124104   4.824   6.271   6.310
 7735SOL    HW224105   4.669   6.236   6.344
 7736SOL     OW24106   4.154   3.933   6.812
 7736SOL    HW124107   4.155   3.907   6.909
 7736SOL    HW224108   4.208   4.015   6.798
 7737SOL     OW24109   4.204   1.006   2.110
 7737SOL    HW124110   4.128   0.942   2.096
 7737SOL    HW224111   4.283   0.957   2.145
 7738SOL     OW24112   1.957   5.490   6.523
 7738SOL    HW124113   1.901   5.447   6.452
 7738SOL    HW224114   1.951   5.589   6.514
 7739SOL     OW24115   0.572   1.568   2.049
 7739SOL    HW124116   0.659   1.598   2.087
 7739SOL    HW224117   0.545   1.629   1.975
 7740SOL     OW24118   1.799   0.755   3.087
 7740SOL    HW124119   1.776   0.719   3.178
 7740SOL    HW224120   1.844   0.844   3.098
 7741SOL     OW24121   1.191   5.987   4.790
 7741SOL    HW124122   1.126   5.950   4.724
 7741SOL    HW224123   1.163   6.079   4.817
 7742SOL     OW24124   5.856   2.266   3.257
 7742SOL    HW124125   5.882   2.322   3.179
 7742SOL    HW224126   5.919   2.189   3.265
 7743SOL     OW24127   4.916   1.825   6.571
 7743SOL    HW124128   4.850   1.899   6.554
 7743SOL    HW224129   4.874   1.738   6.546
 7744SOL     OW24130   1.070   6.163   3.660
 7744SOL    HW124131   1.106   6.075   3.689
 7744SOL    HW224132   1.041   6.215   3.740
 7745SOL     OW24133   3.009   0.878   5.494
 7745SOL    HW124134   3.039   0.863   5.400
 7745SOL    HW224135   3.040   0.967   5.526
 7746SOL     OW24136   1.875   6.430   0.197
 7746SOL    HW124137   1.956   6.488   0.194
 7746SOL    HW224138   1.849   6.404   0.104
 7747SOL     OW24139   4.348   5.590   1.520
 7747SOL    HW124140   4.429   5.643   1.546
 7747SOL    HW224141   4.304   5.554   1.602
 7748SOL     OW24142   3.510   3.467   5.521
 7748SOL    HW124143   3.558   3.388   5.485
 7748SOL    HW224144   3.417   3.440   5.546
 7749SOL     OW24145   2.926   2.869   5.548
 7749SOL    HW124146   2.961   2.954   5.507
 7749SOL    HW224147   2.932   2.876   5.648
 7750SOL     OW24148   6.639   6.505   1.613
 7750SOL    HW124149   6.547   6.504   1.574
 7750SOL    HW224150   6.633   6.510   1.713
 7751SOL     OW24151   1.690   1.524   2.238
 7751SOL    HW124152   1.769   1.514   2.298
 7751SOL    HW224153   1.631   1.597   2.272
 7752SOL     OW24154   5.219   0.043   5.642
 7752SOL    HW124155   5.235   7.013   5.558
 7752SOL    HW224156   5.245   0.138   5.626
 7753SOL     OW24157   2.481   1.396   4.747
 7753SOL    HW124158   2.529   1.451   4.678
 7753SOL    HW224159   2.417   1.335   4.700
 7754SOL     OW24160   3.642   6.128   1.290
 7754SOL    HW124161   3.738   6.152   1.304
 7754SOL    HW224162   3.588   6.212   1.277
 7755SOL     OW24163   1.245   2.311   5.797
 7755SOL    HW124164   1.316   2.273   5.856
 7755SOL    HW224165   1.216   2.400   5.832
 7756SOL     OW24166   2.926   6.436   1.572
 7756SOL    HW124167   2.855   6.492   1.530
 7756SOL    HW224168   2.889   6.344   1.590
 7757SOL     OW24169   6.566   5.067   1.514
 7757SOL    HW124170   6.515   4.982   1.502
 7757SOL    HW224171   6.502   5.143   1.520
 7758SOL     OW24172   1.352   6.667   5.864
 7758SOL    HW124173   1.346   6.760   5.828
 7758SOL    HW224174   1.393   6.669   5.956
 7759SOL     OW24175   2.657   1.364   5.594
 7759SOL    HW124176   2.726   1.328   5.658
 7759SOL    HW224177   2.578   1.395   5.646
 7760SOL     OW24178   5.296   2.132   2.392
 7760SOL    HW124179   5.319   2.222   2.428
 7760SOL    HW224180   5.197   2.125   2.381
 7761SOL     OW24181   6.800   5.838   4.916
 7761SOL    HW124182   6.727   5.886   4.866
 7761SOL    HW224183   6.865   5.800   4.851
 7762SOL     OW24184   1.938   0.089   3.623
 7762SOL    HW124185   1.924   0.159   3.693
 7762SOL    HW224186   1.860   0.088   3.560
 7763SOL     OW24187   2.562   6.968   6.480
 7763SOL    HW124188   2.522   6.989   6.391
 7763SOL    HW224189   2.656   6.936   6.467
 7764SOL     OW24190   3.168   3.895   6.005
 7764SOL    HW124191   3.198   3.920   6.096
 7764SOL    HW224192   3.223   3.817   5.972
 7765SOL     OW24193   6.414   3.152   5.311
 7765SOL    HW124194   6.415   3.241   5.266
 7765SOL    HW224195   6.379   3.162   5.404
 7766SOL     OW24196   6.697   4.270   0.581
 7766SOL    HW124197   6.652   4.355   0.608
 7766SOL    HW224198   6.684   4.202   0.653
 7767SOL     OW24199   4.543   6.600   2.329
 7767SOL    HW124200   4.609   6.674   2.321
 7767SOL    HW224201   4.540   6.548   2.243
 7768SOL     OW24202   4.827   4.484   3.809
 7768SOL    HW124203   4.752   4.425   3.781
 7768SOL    HW224204   4.877   4.514   3.727
 7769SOL     OW24205   4.006   1.427   4.770
 7769SOL    HW124206   3.941   1.471   4.832
 7769SOL    HW224207   4.095   1.471   4.780
 7770SOL     OW24208   6.995   3.362   4.653
 7770SOL    HW124209   0.055   3.314   4.681
 7770SOL    HW224210   7.000   3.383   4.555
 7771SOL     OW24211   2.690   1.460   6.100
 7771SOL    HW124212   2.782   1.421   6.094
 7771SOL    HW224213   2.679   1.504   6.189
 7772SOL     OW24214   5.441   0.060   1.210
 7772SOL    HW124215   5.364   7.021   1.202
 7772SOL    HW224216   5.490   0.065   1.123
 7773SOL     OW24217   2.381   5.595   5.586
 7773SOL    HW124218   2.381   5.693   5.606
 7773SOL    HW224219   2.316   5.549   5.646
 7774SOL     OW24220   4.788   2.520   4.501
 7774SOL    HW124221   4.725   2.473   4.440
 7774SOL    HW224222   4.742   2.600   4.540
 7775SOL     OW24223   3.889   6.830   0.114
 7775SOL    HW124224   3.980   6.870   0.128
 7775SOL    HW224225   3.898   6.747   0.058
 7776SOL     OW24226   1.045   6.489   6.512
 7776SOL    HW124227   1.049   6.431   6.430
 7776SOL    HW224228   1.031   6.432   6.592
 7777SOL     OW24229   6.893   5.482   5.098
 7777SOL    HW124230   6.943   5.452   5.179
 7777SOL    HW224231   6.879   5.581   5.102
 7778SOL     OW24232   5.810   4.275   2.345
 7778SOL    HW124233   5.884   4.209   2.350
 7778SOL    HW224234   5.756   4.260   2.262
 7779SOL     OW24235   2.727   0.697   2.557
 7779SOL    HW124236   2.713   0.600   2.540
 7779SOL    HW224237   2.649   0.734   2.607
 7780SOL     OW24238   0.810   5.850   5.794
 7780SOL    HW124239   0.802   5.809   5.885
 7780SOL    HW224240   0.860   5.936   5.801
 7781SOL     OW24241   1.050   3.828   0.461
 7781SOL    HW124242   1.103   3.890   0.403
 7781SOL    HW224243   1.113   3.771   0.514
 7782SOL     OW24244   5.465   5.208   3.990
 7782SOL    HW124245   5.377   5.231   3.950
 7782SOL    HW224246   5.533   5.275   3.961
 7783SOL     OW24247   0.432   0.022   6.127
 7783SOL    HW124248   0.524   7.013   6.150
 7783SOL    HW224249   0.439   0.087   6.051
 7784SOL     OW24250   2.927   2.670   1.741
 7784SOL    HW124251   2.963   2.579   1.763
 7784SOL    HW224252   3.002   2.736   1.742
 7785SOL     OW24253   1.320   6.431   4.243
 7785SOL    HW124254   1.227   6.396   4.248
 7785SOL    HW224255   1.382   6.360   4.210
 7786SOL     OW24256   4.243   0.792   6.622
 7786SOL    HW124257   4.243   0.753   6.714
 7786SOL    HW224258   4.161   0.761   6.573
 7787SOL     OW24259   1.457   3.043   0.086
 7787SOL    HW124260   1.438   3.003   0.176
 7787SOL    HW224261   1.515   3.124   0.098
 7788SOL     OW24262   1.250   6.108   1.986
 7788SOL    HW124263   1.206   6.026   1.951
 7788SOL    HW224264   1.285   6.162   1.909
 7789SOL     OW24265   3.232   7.019   6.815
 7789SOL    HW124266   3.248   0.079   6.761
 7789SOL    HW224267   3.154   0.010   6.876
 7790SOL     OW24268   6.385   4.982   2.807
 7790SOL    HW124269   6.420   4.902   2.856
 7790SOL    HW224270   6.344   4.953   2.720
 7791SOL     OW24271   2.724   5.799   2.356
 7791SOL    HW124272   2.742   5.755   2.268
 7791SOL    HW224273   2.804   5.853   2.383
 7792SOL     OW24274   0.992   0.076   2.983
 7792SOL    HW124275   1.006   7.000   2.983
 7792SOL    HW224276   1.054   0.118   3.048
 7793SOL     OW24277   4.850   0.761   0.301
 7793SOL    HW124278   4.811   0.849   0.276
 7793SOL    HW224279   4.860   0.704   0.220
 7794SOL     OW24280   0.524   5.311   1.832
 7794SOL    HW124281   0.526   5.294   1.931
 7794SOL    HW224282   0.464   5.388   1.812
 7795SOL     OW24283   3.320   5.705   5.674
 7795SOL    HW124284   3.300   5.798   5.642
 7795SOL    HW224285   3.381   5.660   5.609
 7796SOL     OW24286   3.102   2.681   5.548
 7796SOL    HW124287   3.096   2.609   5.479
 7796SOL    HW224288   3.048   2.760   5.518
 7797SOL     OW24289   0.763   5.775   1.523
 7797SOL    HW124290   0.686   5.762   1.585
 7797SOL    HW224291   0.730   5.778   1.429
 7798SOL     OW24292   1.706   1.205   2.683
 7798SOL    HW124293   1.761   1.121   2.694
 7798SOL    HW224294   1.634   1.207   2.752
 7799SOL     OW24295   2.353   5.264   3.123
 7799SOL    HW124296   2.450   5.241   3.110
 7799SOL    HW224297   2.316   5.209   3.197
 7800SOL     OW24298   0.196   5.791   3.216
 7800SOL    HW124299   0.176   5.879   3.260
 7800SOL    HW224300   0.209   5.805   3.118
 7801SOL     OW24301   1.705   1.204   3.288
 7801SOL    HW124302   1.707   1.288   3.235
 7801SOL    HW224303   1.784   1.148   3.263
 7802SOL     OW24304   6.808   3.837   6.935
 7802SOL    HW124305   6.793   3.747   6.896
 7802SOL    HW224306   6.897   3.873   6.904
 7803SOL     OW24307   4.725   1.845   6.890
 7803SOL    HW124308   4.680   1.929   6.860
 7803SOL    HW224309   4.821   1.848   6.865
 7804SOL     OW24310   3.835   2.113   4.655
 7804SOL    HW124311   3.850   2.016   4.673
 7804SOL    HW224312   3.923   2.159   4.648
 7805SOL     OW24313   4.921   3.711   2.661
 7805SOL    HW124314   4.970   3.798   2.655
 7805SOL    HW224315   4.833   3.718   2.613
 7806SOL     OW24316   6.479   1.840   6.401
 7806SOL    HW124317   6.470   1.916   6.337
 7806SOL    HW224318   6.576   1.829   6.426
 7807SOL     OW24319   1.040   3.906   5.071
 7807SOL    HW124320   0.967   3.865   5.126
 7807SOL    HW224321   1.016   4.001   5.049
 7808SOL     OW24322   5.106   3.917   3.071
 7808SOL    HW124323   5.111   4.004   3.022
 7808SOL    HW224324   5.121   3.842   3.006
 7809SOL     OW24325   5.242   4.920   4.738
 7809SOL    HW124326   5.335   4.909   4.705
 7809SOL    HW224327   5.209   4.833   4.775
 7810SOL     OW24328   3.565   6.629   4.947
 7810SOL    HW124329   3.594   6.722   4.926
 7810SOL    HW224330   3.606   6.600   5.032
 7811SOL     OW24331   1.921   5.822   2.908
 7811SOL    HW124332   1.939   5.779   2.996
 7811SOL    HW224333   1.826   5.803   2.881
 7812SOL     OW24334   2.269   3.169   5.293
 7812SOL    HW124335   2.203   3.164   5.218
 7812SOL    HW224336   2.353   3.122   5.267
 7813SOL     OW24337   4.449   2.860   1.267
 7813SOL    HW124338   4.511   2.847   1.189
 7813SOL    HW224339   4.396   2.777   1.280
 7814SOL     OW24340   6.991   3.726   2.866
 7814SOL    HW124341   0.006   3.756   2.779
 7814SOL    HW224342   0.041   3.715   2.933
 7815SOL     OW24343   5.413   2.386   5.288
 7815SOL    HW124344   5.432   2.359   5.383
 7815SOL    HW224345   5.325   2.347   5.260
 7816SOL     OW24346   0.468   2.370   6.016
 7816SOL    HW124347   0.481   2.465   5.986
 7816SOL    HW224348   0.465   2.310   5.937
 7817SOL     OW24349   4.532   3.800   5.674
 7817SOL    HW124350   4.456   3.806   5.609
 7817SOL    HW224351   4.602   3.868   5.650
 7818SOL     OW24352   4.946   0.903   2.701
 7818SOL    HW124353   4.929   0.807   2.679
 7818SOL    HW224354   4.864   0.943   2.743
 7819SOL     OW24355   0.085   3.374   3.461
 7819SOL    HW124356   0.133   3.309   3.402
 7819SOL    HW224357   0.127   3.464   3.452
 7820SOL     OW24358   1.964   1.217   5.661
 7820SOL    HW124359   1.975   1.186   5.567
 7820SOL    HW224360   2.034   1.285   5.682
 7821SOL     OW24361   5.218   5.893   0.442
 7821SOL    HW124362   5.188   5.900   0.538
 7821SOL    HW224363   5.223   5.797   0.416
 7822SOL     OW24364   1.209   1.461   5.958
 7822SOL    HW124365   1.250   1.424   6.041
 7822SOL    HW224366   1.117   1.424   5.946
 7823SOL     OW24367   1.513   4.058   6.224
 7823SOL    HW124368   1.599   4.015   6.253
 7823SOL    HW224369   1.532   4.128   6.156
 7824SOL     OW24370   6.392   0.372   4.744
 7824SOL    HW124371   6.422   0.467   4.736
 7824SOL    HW224372   6.387   0.330   4.653
 7825SOL     OW24373   2.319   2.741   1.512
 7825SOL    HW124374   2.387   2.811   1.491
 7825SOL    HW224375   2.246   2.781   1.566
 7826SOL     OW24376   5.116   2.113   6.715
 7826SOL    HW124377   5.081   2.042   6.776
 7826SOL    HW224378   5.210   2.092   6.688
 7827SOL     OW24379   3.213   4.984   1.321
 7827SOL    HW124380   3.133   4.962   1.377
 7827SOL    HW224381   3.282   5.030   1.376
 7828SOL     OW24382   0.441   5.183   0.584
 7828SOL    HW124383   0.369   5.211   0.521
 7828SOL    HW224384   0.528   5.222   0.555
 7829SOL     OW24385   1.883   3.231   1.379
 7829SOL    HW124386   1.981   3.247   1.366
 7829SOL    HW224387   1.851   3.279   1.460
 7830SOL     OW24388   5.538   3.737   5.816
 7830SOL    HW124389   5.623   3.762   5.863
 7830SOL    HW224390   5.516   3.642   5.836
 7831SOL     OW24391   1.449   5.025   0.164
 7831SOL    HW124392   1.496   5.108   0.133
 7831SOL    HW224393   1.351   5.036   0.148
 7832SOL     OW24394   3.395   0.727   4.474
 7832SOL    HW124395   3.427   0.667   4.400
 7832SOL    HW224396   3.474   0.766   4.522
 7833SOL     OW24397   0.869   1.137   0.687
 7833SOL    HW124398   0.962   1.102   0.690
 7833SOL    HW224399   0.804   1.061   0.691
 7834SOL     OW24400   0.190   1.525   2.573
 7834SOL    HW124401   0.163   1.450   2.633
 7834SOL    HW224402   0.290   1.538   2.578
 7835SOL     OW24403   2.373   2.575   5.199
 7835SOL    HW124404   2.423   2.643   5.252
 7835SOL    HW224405   2.408   2.573   5.105
 7836SOL     OW24406   3.388   0.955   6.152
 7836SOL    HW124407   3.391   0.906   6.239
 7836SOL    HW224408   3.301   0.935   6.106
 7837SOL     OW24409   6.549   6.129   1.495
 7837SOL    HW124410   6.468   6.188   1.486
 7837SOL    HW224411   6.616   6.173   1.555
 7838SOL     OW24412   4.568   6.257   6.536
 7838SOL    HW124413   4.493   6.322   6.549
 7838SOL    HW224414   4.530   6.164   6.532
 7839SOL     OW24415   6.691   4.274   4.754
 7839SOL    HW124416   6.760   4.236   4.692
 7839SOL    HW224417   6.601   4.268   4.711
 7840SOL     OW24418   4.879   3.784   3.818
 7840SOL    HW124419   4.885   3.861   3.881
 7840SOL    HW224420   4.811   3.803   3.747
 7841SOL     OW24421   5.733   1.512   6.470
 7841SOL    HW124422   5.745   1.488   6.374
 7841SOL    HW224423   5.821   1.509   6.516
 7842SOL     OW24424   1.374   1.167   3.422
 7842SOL    HW124425   1.442   1.096   3.435
 7842SOL    HW224426   1.420   1.253   3.398
 7843SOL     OW24427   5.760   4.655   1.750
 7843SOL    HW124428   5.860   4.655   1.752
 7843SOL    HW224429   5.729   4.631   1.658
 7844SOL     OW24430   4.462   0.561   3.760
 7844SOL    HW124431   4.412   0.607   3.834
 7844SOL    HW224432   4.508   0.480   3.797
 7845SOL     OW24433   0.602   0.800   4.329
 7845SOL    HW124434   0.679   0.751   4.370
 7845SOL    HW224435   0.629   0.834   4.239
 7846SOL     OW24436   2.079   0.333   1.679
 7846SOL    HW124437   2.122   0.259   1.627
 7846SOL    HW224438   2.138   0.413   1.679
 7847SOL     OW24439   0.366   2.156   1.222
 7847SOL    HW124440   0.378   2.101   1.305
 7847SOL    HW224441   0.359   2.095   1.143
 7848SOL     OW24442   3.152   4.473   1.201
 7848SOL    HW124443   3.141   4.374   1.197
 7848SOL    HW224444   3.249   4.496   1.199
 7849SOL     OW24445   5.566   3.818   4.461
 7849SOL    HW124446   5.486   3.771   4.425
 7849SOL    HW224447   5.557   3.917   4.447
 7850SOL     OW24448   0.572   0.537   3.830
 7850SOL    HW124449   0.642   0.474   3.796
 7850SOL    HW224450   0.501   0.548   3.760
 7851SOL     OW24451   6.883   6.819   0.810
 7851SOL    HW124452   6.894   6.911   0.772
 7851SOL    HW224453   6.892   6.752   0.737
 7852SOL     OW24454   3.101   6.534   6.477
 7852SOL    HW124455   3.128   6.628   6.454
 7852SOL    HW224456   3.172   6.491   6.532
 7853SOL     OW24457   3.937   1.705   1.333
 7853SOL    HW124458   3.923   1.681   1.237
 7853SOL    HW224459   3.945   1.621   1.388
 7854SOL     OW24460   3.593   4.601   0.951
 7854SOL    HW124461   3.573   4.633   0.858
 7854SOL    HW224462   3.689   4.616   0.972
 7855SOL     OW24463   4.403   5.821   6.039
 7855SOL    HW124464   4.389   5.761   6.117
 7855SOL    HW224465   4.395   5.769   5.954
 7856SOL     OW24466   6.123   4.818   4.100
 7856SOL    HW124467   6.183   4.889   4.138
 7856SOL    HW224468   6.177   4.735   4.082
 7857SOL     OW24469   6.871   2.632   5.671
 7857SOL    HW124470   6.913   2.564   5.730
 7857SOL    HW224471   6.915   2.721   5.686
 7858SOL     OW24472   4.977   5.162   3.438
 7858SOL    HW124473   4.877   5.162   3.431
 7858SOL    HW224474   5.004   5.173   3.533
 7859SOL     OW24475   6.691   4.252   6.074
 7859SOL    HW124476   6.728   4.190   6.005
 7859SOL    HW224477   6.593   4.237   6.082
 7860SOL     OW24478   3.890   5.972   2.515
 7860SOL    HW124479   3.836   6.047   2.476
 7860SOL    HW224480   3.855   5.885   2.481
 7861SOL     OW24481   4.424   5.538   2.118
 7861SOL    HW124482   4.488   5.462   2.108
 7861SOL    HW224483   4.332   5.501   2.135
 7862SOL     OW24484   3.100   4.407   1.659
 7862SOL    HW124485   3.044   4.460   1.723
 7862SOL    HW224486   3.118   4.461   1.577
 7863SOL     OW24487   0.205   5.998   3.822
 7863SOL    HW124488   0.279   6.038   3.768
 7863SOL    HW224489   0.139   5.955   3.760
 7864SOL     OW24490   6.908   6.144   5.830
 7864SOL    HW124491   6.876   6.238   5.841
 7864SOL    HW224492   6.832   6.081   5.844
 7865SOL     OW24493   4.803   6.490   4.094
 7865SOL    HW124494   4.829   6.463   4.187
 7865SOL    HW224495   4.704   6.481   4.082
 7866SOL     OW24496   2.524   2.182   1.242
 7866SOL    HW124497   2.557   2.087   1.240
 7866SOL    HW224498   2.533   2.218   1.335
 7867SOL     OW24499   5.755   5.002   2.845
 7867SOL    HW124500   5.787   4.942   2.773
 7867SOL    HW224501   5.766   5.097   2.817
 7868SOL     OW24502   5.290   6.896   2.753
 7868SOL    HW124503   5.390   6.894   2.752
 7868SOL    HW224504   5.259   6.928   2.842
 7869SOL     OW24505   6.375   3.880   0.878
 7869SOL    HW124506   6.361   3.795   0.930
 7869SOL    HW224507   6.434   3.861   0.800
 7870SOL     OW24508   5.494   6.316   3.751
 7870SOL    HW124509   5.471   6.236   3.805
 7870SOL    HW224510   5.585   6.305   3.710
 7871SOL     OW24511   5.881   4.269   3.045
 7871SOL    HW124512   5.898   4.170   3.044
 7871SOL    HW224513   5.783   4.285   3.059
 7872SOL     OW24514   1.098   4.217   1.798
 7872SOL    HW124515   1.071   4.130   1.756
 7872SOL    HW224516   1.190   4.208   1.836
 7873SOL     OW24517   5.657   0.103   5.484
 7873SOL    HW124518   5.645   0.028   5.549
 7873SOL    HW224519   5.728   0.079   5.418
 7874SOL     OW24520   5.865   1.350   0.110
 7874SOL    HW124521   5.773   1.356   0.147
 7874SOL    HW224522   5.925   1.414   0.160
 7875SOL     OW24523   3.905   3.558   6.554
 7875SOL    HW124524   3.986   3.535   6.501
 7875SOL    HW224525   3.859   3.636   6.512
 7876SOL     OW24526   6.912   6.459   4.656
 7876SOL    HW124527   6.888   6.543   4.607
 7876SOL    HW224528   7.011   6.456   4.671
 7877SOL     OW24529   0.656   2.999   2.388
 7877SOL    HW124530   0.724   3.054   2.340
 7877SOL    HW224531   0.603   2.947   2.322
 7878SOL     OW24532   4.679   4.873   3.613
 7878SOL    HW124533   4.629   4.798   3.657
 7878SOL    HW224534   4.620   4.954   3.609
 7879SOL     OW24535   4.614   6.258   3.214
 7879SOL    HW124536   4.578   6.351   3.204
 7879SOL    HW224537   4.543   6.200   3.255
 7880SOL     OW24538   0.305   5.878   1.475
 7880SOL    HW124539   0.366   5.939   1.425
 7880SOL    HW224540   0.233   5.845   1.414
 7881SOL     OW24541   6.838   3.215   4.861
 7881SOL    HW124542   6.744   3.247   4.856
 7881SOL    HW224543   6.895   3.272   4.801
 7882SOL     OW24544   1.777   2.635   3.656
 7882SOL    HW124545   1.826   2.647   3.742
 7882SOL    HW224546   1.792   2.543   3.622
 7883SOL     OW24547   1.845   0.251   1.352
 7883SOL    HW124548   1.807   0.166   1.314
 7883SOL    HW224549   1.787   0.328   1.326
 7884SOL     OW24550   1.208   4.077   3.697
 7884SOL    HW124551   1.187   4.013   3.623
 7884SOL    HW224552   1.293   4.048   3.742
 7885SOL     OW24553   5.576   5.976   2.870
 7885SOL    HW124554   5.639   5.928   2.809
 7885SOL    HW224555   5.616   6.063   2.898
 7886SOL     OW24556   4.803   3.563   1.089
 7886SOL    HW124557   4.739   3.614   1.031
 7886SOL    HW224558   4.886   3.618   1.103
 7887SOL     OW24559   3.436   2.787   5.239
 7887SOL    HW124560   3.414   2.691   5.258
 7887SOL    HW224561   3.522   2.811   5.283
 7888SOL     OW24562   0.378   0.504   4.960
 7888SOL    HW124563   0.464   0.456   4.978
 7888SOL    HW224564   0.359   0.503   4.862
 7889SOL     OW24565   0.583   5.178   6.353
 7889SOL    HW124566   0.536   5.090   6.356
 7889SOL    HW224567   0.616   5.202   6.444
 7890SOL     OW24568   1.070   3.272   4.040
 7890SOL    HW124569   1.080   3.326   3.957
 7890SOL    HW224570   1.155   3.275   4.093
 7891SOL     OW24571   1.034   3.444   4.445
 7891SOL    HW124572   0.948   3.435   4.495
 7891SOL    HW224573   1.019   3.425   4.348
 7892SOL     OW24574   1.207   2.013   4.314
 7892SOL    HW124575   1.142   2.082   4.346
 7892SOL    HW224576   1.299   2.036   4.347
 7893SOL     OW24577   5.751   6.035   2.447
 7893SOL    HW124578   5.669   5.984   2.472
 7893SOL    HW224579   5.783   6.088   2.526
 7894SOL     OW24580   3.201   0.960   0.538
 7894SOL    HW124581   3.157   1.048   0.522
 7894SOL    HW224582   3.293   0.961   0.500
 7895SOL     OW24583   3.829   6.357   4.663
 7895SOL    HW124584   3.861   6.401   4.747
 7895SOL    HW224585   3.900   6.363   4.593
 7896SOL     OW24586   5.421   2.961   1.642
 7896SOL    HW124587   5.332   2.926   1.673
 7896SOL    HW224588   5.410   3.004   1.552
 7897SOL     OW24589   3.226   3.253   6.947
 7897SOL    HW124590   3.151   3.283   6.887
 7897SOL    HW224591   3.200   3.166   6.991
 7898SOL     OW24592   4.441   0.179   3.474
 7898SOL    HW124593   4.523   0.233   3.494
 7898SOL    HW224594   4.461   0.115   3.400
 7899SOL     OW24595   5.551   6.849   2.175
 7899SOL    HW124596   5.455   6.822   2.180
 7899SOL    HW224597   5.579   6.853   2.079
 7900SOL     OW24598   0.631   3.831   0.498
 7900SOL    HW124599   0.694   3.772   0.448
 7900SOL    HW224600   0.578   3.886   0.433
 7901SOL     OW24601   5.138   1.148   5.721
 7901SOL    HW124602   5.057   1.190   5.762
 7901SOL    HW224603   5.110   1.075   5.658
 7902SOL     OW24604   6.682   6.204   3.538
 7902SOL    HW124605   6.779   6.197   3.563
 7902SOL    HW224606   6.639   6.279   3.589
 7903SOL     OW24607   4.394   1.832   3.135
 7903SOL    HW124608   4.403   1.740   3.173
 7903SOL    HW224609   4.356   1.893   3.205
 7904SOL     OW24610   5.981   0.462   3.716
 7904SOL    HW124611   6.051   0.443   3.647
 7904SOL    HW224612   5.896   0.490   3.670
 7905SOL     OW24613   5.909   1.687   0.415
 7905SOL    HW124614   5.969   1.763   0.390
 7905SOL    HW224615   5.837   1.721   0.476
 7906SOL     OW24616   1.260   5.636   0.620
 7906SOL    HW124617   1.253   5.699   0.697
 7906SOL    HW224618   1.335   5.572   0.635
 7907SOL     OW24619   5.902   1.005   3.078
 7907SOL    HW124620   5.806   0.977   3.087
 7907SOL    HW224621   5.951   0.937   3.025
 7908SOL     OW24622   1.046   1.516   6.421
 7908SOL    HW124623   1.047   1.426   6.379
 7908SOL    HW224624   1.087   1.583   6.359
 7909SOL     OW24625   4.800   4.209   3.515
 7909SOL    HW124626   4.892   4.194   3.548
 7909SOL    HW224627   4.788   4.164   3.426
 7910SOL     OW24628   1.541   3.384   1.216
 7910SOL    HW124629   1.606   3.401   1.143
 7910SOL    HW224630   1.575   3.423   1.302
 7911SOL     OW24631   0.707   4.021   1.225
 7911SOL    HW124632   0.705   3.997   1.128
 7911SOL    HW224633   0.801   4.014   1.259
 7912SOL     OW24634   5.109   4.124   0.778
 7912SOL    HW124635   5.106   4.039   0.726
 7912SOL    HW224636   5.026   4.177   0.760
 7913SOL     OW24637   1.473   4.652   0.945
 7913SOL    HW124638   1.559   4.692   0.913
 7913SOL    HW224639   1.493   4.569   0.998
 7914SOL     OW24640   0.001   4.350   0.577
 7914SOL    HW124641   6.935   4.351   0.533
 7914SOL    HW224642   0.009   4.428   0.640
 7915SOL     OW24643   4.657   1.883   2.705
 7915SOL    HW124644   4.557   1.882   2.696
 7915SOL    HW224645   4.698   1.844   2.624
 7916SOL     OW24646   0.646   6.944   5.104
 7916SOL    HW124647   0.704   6.955   5.184
 7916SOL    HW224648   0.581   6.869   5.121
 7917SOL     OW24649   4.212   2.882   5.425
 7917SOL    HW124650   4.149   2.951   5.390
 7917SOL    HW224651   4.263   2.919   5.502
 7918SOL     OW24652   0.219   0.981   5.212
 7918SOL    HW124653   0.125   0.950   5.225
 7918SOL    HW224654   0.276   0.945   5.285
 7919SOL     OW24655   1.023   5.018   1.975
 7919SOL    HW124656   1.058   4.936   2.020
 7919SOL    HW224657   0.923   5.014   1.971
 7920SOL     OW24658   5.133   0.975   1.877
 7920SOL    HW124659   5.134   1.075   1.868
 7920SOL    HW224660   5.144   0.950   1.973
 7921SOL     OW24661   5.652   0.629   1.647
 7921SOL    HW124662   5.714   0.697   1.609
 7921SOL    HW224663   5.603   0.584   1.573
 7922SOL     OW24664   0.366   6.265   0.091
 7922SOL    HW124665   0.300   6.332   0.056
 7922SOL    HW224666   0.430   6.310   0.153
 7923SOL     OW24667   3.528   1.706   6.168
 7923SOL    HW124668   3.443   1.663   6.197
 7923SOL    HW224669   3.606   1.656   6.206
 7924SOL     OW24670   4.703   0.368   1.752
 7924SOL    HW124671   4.713   0.335   1.846
 7924SOL    HW224672   4.757   0.451   1.740
 7925SOL     OW24673   1.385   7.017   0.877
 7925SOL    HW124674   1.336   0.080   0.890
 7925SOL    HW224675   1.320   6.941   0.881
 7926SOL     OW24676   5.007   1.275   6.679
 7926SOL    HW124677   5.023   1.303   6.584
 7926SOL    HW224678   5.051   1.341   6.741
 7927SOL     OW24679   4.691   6.895   1.797
 7927SOL    HW124680   4.607   6.948   1.802
 7927SOL    HW224681   4.769   6.955   1.815
 7928SOL     OW24682   0.343   1.685   3.746
 7928SOL    HW124683   0.339   1.759   3.814
 7928SOL    HW224684   0.378   1.722   3.659
 7929SOL     OW24685   3.927   3.949   6.078
 7929SOL    HW124686   3.974   3.864   6.103
 7929SOL    HW224687   3.830   3.930   6.064
 7930SOL     OW24688   3.825   5.453   6.610
 7930SOL    HW124689   3.835   5.544   6.649
 7930SOL    HW224690   3.862   5.452   6.517
 7931SOL     OW24691   4.102   2.717   0.632
 7931SOL    HW124692   4.019   2.771   0.619
 7931SOL    HW224693   4.164   2.732   0.554
 7932SOL     OW24694   1.000   4.909   0.702
 7932SOL    HW124695   1.097   4.899   0.724
 7932SOL    HW224696   0.945   4.887   0.783
 7933SOL     OW24697   6.780   0.187   5.947
 7933SOL    HW124698   6.721   0.126   6.001
 7933SOL    HW224699   6.843   0.235   6.007
 7934SOL     OW24700   1.552   4.797   0.089
 7934SOL    HW124701   1.644   4.817   0.123
 7934SOL    HW224702   1.489   4.870   0.116
 7935SOL     OW24703   5.363   5.708   2.106
 7935SOL    HW124704   5.428   5.632   2.103
 7935SOL    HW224705   5.280   5.683   2.058
 7936SOL     OW24706   2.934   5.529   3.330
 7936SOL    HW124707   2.990   5.531   3.247
 7936SOL    HW224708   2.992   5.544   3.410
 7937SOL     OW24709   1.952   5.641   4.118
 7937SOL    HW124710   1.865   5.686   4.099
 7937SOL    HW224711   1.967   5.568   4.050
 7938SOL     OW24712   5.620   5.652   5.068
 7938SOL    HW124713   5.640   5.743   5.032
 7938SOL    HW224714   5.532   5.621   5.032
 7939SOL     OW24715   1.262   1.587   5.722
 7939SOL    HW124716   1.265   1.585   5.822
 7939SOL    HW224717   1.211   1.508   5.688
 7940SOL     OW24718   3.356   1.819   2.608
 7940SOL    HW124719   3.336   1.916   2.619
 7940SOL    HW224720   3.446   1.809   2.565
 7941SOL     OW24721   5.195   6.656   2.686
 7941SOL    HW124722   5.230   6.653   2.592
 7941SOL    HW224723   5.224   6.741   2.729
 7942SOL     OW24724   1.171   3.209   3.220
 7942SOL    HW124725   1.238   3.214   3.146
 7942SOL    HW224726   1.211   3.245   3.304
 7943SOL     OW24727   0.722   4.177   5.809
 7943SOL    HW124728   0.769   4.090   5.820
 7943SOL    HW224729   0.647   4.165   5.743
 7944SOL     OW24730   0.499   2.812   1.792
 7944SOL    HW124731   0.521   2.718   1.816
 7944SOL    HW224732   0.581   2.859   1.761
 7945SOL     OW24733   6.417   5.567   2.567
 7945SOL    HW124734   6.497   5.592   2.513
 7945SOL    HW224735   6.437   5.580   2.664
 7946SOL     OW24736   3.495   6.559   6.026
 7946SOL    HW124737   3.589   6.593   6.021
 7946SOL    HW224738   3.474   6.534   6.120
 7947SOL     OW24739   2.244   2.178   5.365
 7947SOL    HW124740   2.190   2.233   5.428
 7947SOL    HW224741   2.184   2.139   5.295
 7948SOL     OW24742   0.950   5.392   0.722
 7948SOL    HW124743   1.043   5.356   0.714
 7948SOL    HW224744   0.885   5.323   0.691
 7949SOL     OW24745   4.599   4.192   6.328
 7949SOL    HW124746   4.580   4.150   6.417
 7949SOL    HW224747   4.580   4.290   6.332
 7950SOL     OW24748   4.738   5.963   4.639
 7950SOL    HW124749   4.679   5.992   4.715
 7950SOL    HW224750   4.817   6.023   4.634
 7951SOL     OW24751   1.958   5.052   2.383
 7951SOL    HW124752   1.982   5.020   2.292
 7951SOL    HW224753   2.042   5.076   2.433
 7952SOL     OW24754   6.952   3.437   0.017
 7952SOL    HW124755   6.881   3.417   6.973
 7952SOL    HW224756   6.912   3.490   0.092
 7953SOL     OW24757   4.458   2.175   1.824
 7953SOL    HW124758   4.380   2.232   1.848
 7953SOL    HW224759   4.527   2.230   1.776
 7954SOL     OW24760   3.815   4.226   6.417
 7954SOL    HW124761   3.820   4.321   6.447
 7954SOL    HW224762   3.719   4.196   6.418
 7955SOL     OW24763   2.123   1.268   6.814
 7955SOL    HW124764   2.149   1.361   6.840
 7955SOL    HW224765   2.038   1.271   6.762
 7956SOL     OW24766   5.518   1.454   1.802
 7956SOL    HW124767   5.565   1.429   1.717
 7956SOL    HW224768   5.580   1.441   1.879
 7957SOL     OW24769   2.029   1.109   0.011
 7957SOL    HW124770   2.068   1.162   6.959
 7957SOL    HW224771   2.099   1.090   0.080
 7958SOL     OW24772   5.396   4.143   5.698
 7958SOL    HW124773   5.369   4.050   5.676
 7958SOL    HW224774   5.314   4.199   5.710
 7959SOL     OW24775   5.284   6.937   6.980
 7959SOL    HW124776   5.203   6.996   6.986
 7959SOL    HW224777   5.323   6.924   0.048
 7960SOL     OW24778   1.240   1.130   5.568
 7960SOL    HW124779   1.332   1.098   5.546
 7960SOL    HW224780   1.187   1.054   5.607
 7961SOL     OW24781   6.119   0.069   0.634
 7961SOL    HW124782   6.062   0.108   0.706
 7961SOL    HW224783   6.216   0.086   0.656
 7962SOL     OW24784   0.389   1.932   5.834
 7962SOL    HW124785   0.478   1.978   5.830
 7962SOL    HW224786   0.328   1.983   5.896
 7963SOL     OW24787   6.381   5.646   4.166
 7963SOL    HW124788   6.340   5.599   4.244
 7963SOL    HW224789   6.445   5.585   4.120
 7964SOL     OW24790   5.958   3.018   2.214
 7964SOL    HW124791   6.036   2.966   2.178
 7964SOL    HW224792   5.898   2.957   2.266
 7965SOL     OW24793   4.033   2.052   6.237
 7965SOL    HW124794   4.054   1.968   6.186
 7965SOL    HW224795   4.107   2.118   6.223
 7966SOL     OW24796   3.835   2.701   5.981
 7966SOL    HW124797   3.930   2.681   5.959
 7966SOL    HW224798   3.788   2.736   5.900
 7967SOL     OW24799   1.956   5.762   1.892
 7967SOL    HW124800   1.871   5.770   1.944
 7967SOL    HW224801   2.032   5.794   1.948
 7968SOL     OW24802   6.397   2.052   4.927
 7968SOL    HW124803   6.457   1.972   4.938
 7968SOL    HW224804   6.395   2.103   5.013
 7969SOL     OW24805   5.432   6.056   0.914
 7969SOL    HW124806   5.477   6.141   0.886
 7969SOL    HW224807   5.488   6.009   0.983
 7970SOL     OW24808   6.071   3.564   2.544
 7970SOL    HW124809   6.033   3.511   2.620
 7970SOL    HW224810   6.112   3.502   2.477
 7971SOL     OW24811   3.151   1.259   1.537
 7971SOL    HW124812   3.177   1.216   1.451
 7971SOL    HW224813   3.183   1.202   1.613
 7972SOL     OW24814   3.404   3.359   1.623
 7972SOL    HW124815   3.485   3.354   1.565
 7972SOL    HW224816   3.432   3.377   1.718
 7973SOL     OW24817   5.343   4.018   4.578
 7973SOL    HW124818   5.370   3.930   4.618
 7973SOL    HW224819   5.425   4.067   4.549
 7974SOL     OW24820   6.332   0.808   6.050
 7974SOL    HW124821   6.376   0.807   6.140
 7974SOL    HW224822   6.244   0.760   6.056
 7975SOL     OW24823   5.192   0.257   1.085
 7975SOL    HW124824   5.128   0.203   1.031
 7975SOL    HW224825   5.230   0.201   1.158
 7976SOL     OW24826   1.142   0.230   6.143
 7976SOL    HW124827   1.197   0.286   6.205
 7976SOL    HW224828   1.132   0.138   6.182
 7977SOL     OW24829   4.280   5.847   2.398
 7977SOL    HW124830   4.374   5.819   2.381
 7977SOL    HW224831   4.242   5.887   2.314
 7978SOL     OW24832   0.178   2.567   6.366
 7978SOL    HW124833   0.206   2.483   6.413
 7978SOL    HW224834   0.205   2.646   6.421
 7979SOL     OW24835   1.831   4.519   5.634
 7979SOL    HW124836   1.917   4.516   5.583
 7979SOL    HW224837   1.756   4.490   5.575
 7980SOL     OW24838   2.781   5.195   6.686
 7980SOL    HW124839   2.804   5.244   6.770
 7980SOL    HW224840   2.852   5.211   6.618
 7981SOL     OW24841   0.635   5.208   1.612
 7981SOL    HW124842   0.608   5.112   1.600
 7981SOL    HW224843   0.587   5.246   1.691
 7982SOL     OW24844   1.337   1.810   6.139
 7982SOL    HW124845   1.392   1.753   6.200
 7982SOL    HW224846   1.370   1.905   6.142
 7983SOL     OW24847   6.309   2.284   1.156
 7983SOL    HW124848   6.322   2.384   1.154
 7983SOL    HW224849   6.236   2.259   1.094
 7984SOL     OW24850   0.445   1.321   0.548
 7984SOL    HW124851   0.505   1.245   0.521
 7984SOL    HW224852   0.487   1.407   0.519
 7985SOL     OW24853   2.381   1.708   4.705
 7985SOL    HW124854   2.473   1.680   4.681
 7985SOL    HW224855   2.385   1.793   4.758
 7986SOL     OW24856   3.129   0.906   6.063
 7986SOL    HW124857   3.071   0.927   6.141
 7986SOL    HW224858   3.088   0.942   5.979
 7987SOL     OW24859   1.942   2.986   0.491
 7987SOL    HW124860   2.002   2.962   0.568
 7987SOL    HW224861   1.982   3.061   0.439
 7988SOL     OW24862   1.437   0.758   2.612
 7988SOL    HW124863   1.415   0.771   2.709
 7988SOL    HW224864   1.412   0.839   2.561
 7989SOL     OW24865   2.720   3.529   7.019
 7989SOL    HW124866   2.720   3.451   6.956
 7989SOL    HW224867   2.626   3.554   0.018
 7990SOL     OW24868   2.686   5.297   4.604
 7990SOL    HW124869   2.635   5.233   4.547
 7990SOL    HW224870   2.622   5.355   4.654
 7991SOL     OW24871   6.138   1.822   3.843
 7991SOL    HW124872   6.075   1.782   3.777
 7991SOL    HW224873   6.100   1.813   3.935
 7992SOL     OW24874   1.537   0.474   0.414
 7992SOL    HW124875   1.488   0.460   0.500
 7992SOL    HW224876   1.518   0.566   0.379
 7993SOL     OW24877   0.161   0.162   1.459
 7993SOL    HW124878   0.179   0.064   1.466
 7993SOL    HW224879   0.127   0.196   1.546
 7994SOL     OW24880   4.580   0.571   3.090
 7994SOL    HW124881   4.620   0.655   3.053
 7994SOL    HW224882   4.505   0.595   3.152
 7995SOL     OW24883   5.928   5.371   3.328
 7995SOL    HW124884   5.867   5.348   3.404
 7995SOL    HW224885   6.019   5.334   3.346
 7996SOL     OW24886   3.615   6.181   4.665
 7996SOL    HW124887   3.683   6.254   4.673
 7996SOL    HW224888   3.607   6.153   4.569
 7997SOL     OW24889   6.733   1.768   0.230
 7997SOL    HW124890   6.730   1.868   0.228
 7997SOL    HW224891   6.828   1.738   0.237
 7998SOL     OW24892   3.599   6.819   6.791
 7998SOL    HW124893   3.545   6.874   6.727
 7998SOL    HW224894   3.608   6.726   6.755
 7999SOL     OW24895   0.840   0.908   5.996
 7999SOL    HW124896   0.781   0.828   6.003
 7999SOL    HW224897   0.808   0.979   6.059
 8000SOL     OW24898   5.642   6.506   6.046
 8000SOL    HW124899   5.677   6.600   6.039
 8000SOL    HW224900   5.592   6.483   5.962
 8001SOL     OW24901   4.103   5.818   1.544
 8001SOL    HW124902   4.172   5.880   1.507
 8001SOL    HW224903   4.130   5.789   1.636
 8002SOL     OW24904   0.780   0.535   5.702
 8002SOL    HW124905   0.846   0.543   5.777
 8002SOL    HW224906   0.699   0.589   5.723
 8003SOL     OW24907   2.196   5.474   1.620
 8003SOL    HW124908   2.136   5.507   1.693
 8003SOL    HW224909   2.149   5.482   1.532
 8004SOL     OW24910   1.999   3.800   3.280
 8004SOL    HW124911   1.977   3.754   3.366
 8004SOL    HW224912   1.945   3.760   3.206
 8005SOL     OW24913   2.212   0.418   3.610
 8005SOL    HW124914   2.212   0.469   3.696
 8005SOL    HW224915   2.231   0.322   3.628
 8006SOL     OW24916   2.342   6.097   5.200
 8006SOL    HW124917   2.411   6.168   5.210
 8006SOL    HW224918   2.332   6.049   5.287
 8007SOL     OW24919   6.145   1.849   6.162
 8007SOL    HW124920   6.045   1.847   6.160
 8007SOL    HW224921   6.179   1.763   6.201
 8008SOL     OW24922   3.359   5.872   6.613
 8008SOL    HW124923   3.450   5.831   6.604
 8008SOL    HW224924   3.350   5.912   6.705
 8009SOL     OW24925   4.564   0.794   0.389
 8009SOL    HW124926   4.577   0.779   0.291
 8009SOL    HW224927   4.606   0.881   0.415
 8010SOL     OW24928   2.406   2.069   5.069
 8010SOL    HW124929   2.337   2.124   5.115
 8010SOL    HW224930   2.483   2.053   5.131
 8011SOL     OW24931   3.567   1.945   1.388
 8011SOL    HW124932   3.584   2.035   1.428
 8011SOL    HW224933   3.475   1.942   1.349
 8012SOL     OW24934   1.457   2.714   6.880
 8012SOL    HW124935   1.486   2.809   6.871
 8012SOL    HW224936   1.536   2.654   6.875
 8013SOL     OW24937   1.694   4.207   3.176
 8013SOL    HW124938   1.621   4.270   3.201
 8013SOL    HW224939   1.673   4.115   3.210
 8014SOL     OW24940   2.095   0.338   4.613
 8014SOL    HW124941   2.105   0.244   4.644
 8014SOL    HW224942   2.152   0.398   4.669
 8015SOL     OW24943   1.864   0.589   6.255
 8015SOL    HW124944   1.870   0.688   6.239
 8015SOL    HW224945   1.904   0.540   6.178
 8016SOL     OW24946   4.158   1.092   4.925
 8016SOL    HW124947   4.119   1.149   4.997
 8016SOL    HW224948   4.112   1.113   4.838
 8017SOL     OW24949   6.590   6.823   0.011
 8017SOL    HW124950   6.641   6.814   0.096
 8017SOL    HW224951   6.513   6.885   0.024
 8018SOL     OW24952   3.108   2.741   0.499
 8018SOL    HW124953   3.149   2.810   0.439
 8018SOL    HW224954   3.011   2.761   0.512
 8019SOL     OW24955   1.919   4.404   1.437
 8019SOL    HW124956   1.834   4.379   1.389
 8019SOL    HW224957   1.974   4.463   1.378
 8020SOL     OW24958   6.541   0.063   6.365
 8020SOL    HW124959   6.499   0.153   6.351
 8020SOL    HW224960   6.560   0.049   6.462
 8021SOL     OW24961   1.653   3.069   1.757
 8021SOL    HW124962   1.618   3.159   1.733
 8021SOL    HW224963   1.629   3.047   1.851
 8022SOL     OW24964   6.163   0.556   1.858
 8022SOL    HW124965   6.184   0.553   1.955
 8022SOL    HW224966   6.241   0.522   1.806
 8023SOL     OW24967   5.760   4.521   2.488
 8023SOL    HW124968   5.743   4.434   2.442
 8023SOL    HW224969   5.846   4.516   2.539
 8024SOL     OW24970   1.100   5.035   6.170
 8024SOL    HW124971   1.184   5.004   6.126
 8024SOL    HW224972   1.123   5.085   6.254
 8025SOL     OW24973   1.708   5.531   1.109
 8025SOL    HW124974   1.751   5.473   1.178
 8025SOL    HW224975   1.714   5.488   1.019
 8026SOL     OW24976   6.689   4.468   1.118
 8026SOL    HW124977   6.723   4.390   1.066
 8026SOL    HW224978   6.678   4.546   1.056
 8027SOL     OW24979   3.248   6.689   5.948
 8027SOL    HW124980   3.323   6.631   5.981
 8027SOL    HW224981   3.277   6.736   5.865
 8028SOL     OW24982   3.480   4.982   4.926
 8028SOL    HW124983   3.416   4.973   4.849
 8028SOL    HW224984   3.429   4.992   5.011
 8029SOL     OW24985   5.164   2.401   2.074
 8029SOL    HW124986   5.093   2.354   2.021
 8029SOL    HW224987   5.125   2.436   2.159
 8030SOL     OW24988   5.975   5.230   1.267
 8030SOL    HW124989   5.913   5.162   1.228
 8030SOL    HW224990   5.926   5.316   1.280
 8031SOL     OW24991   6.836   6.370   2.770
 8031SOL    HW124992   6.911   6.436   2.780
 8031SOL    HW224993   6.847   6.320   2.684
 8032SOL     OW24994   5.214   3.684   1.590
 8032SOL    HW124995   5.234   3.763   1.533
 8032SOL    HW224996   5.156   3.620   1.540
 8033SOL     OW24997   4.605   2.902   0.046
 8033SOL    HW124998   4.530   2.968   0.059
 8033SOL    HW224999   4.684   2.950   0.006
 8034SOL     OW25000   5.094   6.999   5.871
 8034SOL    HW125001   5.076   6.904   5.894
 8034SOL    HW225002   5.143   7.004   5.784
 8035SOL     OW25003   5.104   1.946   2.121
 8035SOL    HW125004   5.099   1.902   2.211
 8035SOL    HW225005   5.186   1.915   2.073
 8036SOL     OW25006   6.565   3.498   3.663
 8036SOL    HW125007   6.646   3.540   3.704
 8036SOL    HW225008   6.484   3.548   3.692
 8037SOL     OW25009   1.359   3.617   6.922
 8037SOL    HW125010   1.408   3.530   6.929
 8037SOL    HW225011   1.327   3.630   6.828
 8038SOL     OW25012   4.264   6.757   3.017
 8038SOL    HW125013   4.284   6.792   2.925
 8038SOL    HW225014   4.200   6.681   3.011
 8039SOL     OW25015   6.889   1.749   4.278
 8039SOL    HW125016   6.875   1.690   4.358
 8039SOL    HW225017   6.806   1.801   4.260
 8040SOL     OW25018   1.575   6.296   6.778
 8040SOL    HW125019   1.597   6.271   6.683
 8040SOL    HW225020   1.481   6.269   6.798
 8041SOL     OW25021   3.265   0.942   2.650
 8041SOL    HW125022   3.283   0.851   2.685
 8041SOL    HW225023   3.340   1.003   2.676
 8042SOL     OW25024   4.697   4.080   5.588
 8042SOL    HW125025   4.614   4.083   5.532
 8042SOL    HW225026   4.708   4.166   5.637
 8043SOL     OW25027   3.775   4.869   0.324
 8043SOL    HW125028   3.869   4.868   0.289
 8043SOL    HW225029   3.713   4.833   0.254
 8044SOL     OW25030   3.677   3.542   0.490
 8044SOL    HW125031   3.751   3.583   0.542
 8044SOL    HW225032   3.591   3.587   0.513
 8045SOL     OW25033   5.906   2.190   2.445
 8045SOL    HW125034   5.941   2.117   2.386
 8045SOL    HW225035   5.958   2.192   2.530
 8046SOL     OW25036   0.562   4.441   2.098
 8046SOL    HW125037   0.656   4.427   2.067
 8046SOL    HW225038   0.535   4.535   2.078
 8047SOL     OW25039   3.327   6.402   6.586
 8047SOL    HW125040   3.358   6.308   6.590
 8047SOL    HW225041   3.402   6.461   6.556
 8048SOL     OW25042   3.071   2.343   0.371
 8048SOL    HW125043   3.079   2.432   0.326
 8048SOL    HW225044   3.030   2.354   0.461
 8049SOL     OW25045   0.691   6.911   0.525
 8049SOL    HW125046   0.725   6.841   0.587
 8049SOL    HW225047   0.613   6.876   0.473
 8050SOL     OW25048   2.082   3.552   3.979
 8050SOL    HW125049   2.126   3.618   4.040
 8050SOL    HW225050   1.985   3.545   4.002
 8051SOL     OW25051   5.047   6.199   5.021
 8051SOL    HW125052   5.124   6.158   4.971
 8051SOL    HW225053   5.081   6.275   5.076
 8052SOL     OW25054   2.859   2.189   1.298
 8052SOL    HW125055   2.940   2.169   1.354
 8052SOL    HW225056   2.813   2.270   1.334
 8053SOL     OW25057   3.018   3.086   5.417
 8053SOL    HW125058   2.998   3.179   5.449
 8053SOL    HW225059   3.112   3.082   5.382
 8054SOL     OW25060   6.871   4.116   4.533
 8054SOL    HW125061   6.916   4.205   4.536
 8054SOL    HW225062   6.921   4.052   4.592
 8055SOL     OW25063   6.676   0.618   5.518
 8055SOL    HW125064   6.631   0.665   5.442
 8055SOL    HW225065   6.730   0.683   5.571
 8056SOL     OW25066   3.174   0.579   4.893
 8056SOL    HW125067   3.259   0.631   4.883
 8056SOL    HW225068   3.180   0.494   4.842
 8057SOL     OW25069   2.463   2.358   2.877
 8057SOL    HW125070   2.498   2.375   2.785
 8057SOL    HW225071   2.416   2.270   2.879
 8058SOL     OW25072   2.860   6.605   2.629
 8058SOL    HW125073   2.836   6.702   2.639
 8058SOL    HW225074   2.939   6.596   2.569
 8059SOL     OW25075   2.725   1.185   5.388
 8059SOL    HW125076   2.665   1.222   5.460
 8059SOL    HW225077   2.762   1.261   5.334
 8060SOL     OW25078   0.528   2.213   6.234
 8060SOL    HW125079   0.445   2.235   6.285
 8060SOL    HW225080   0.524   2.255   6.143
 8061SOL     OW25081   0.809   0.278   2.335
 8061SOL    HW125082   0.775   0.294   2.242
 8061SOL    HW225083   0.804   0.363   2.388
 8062SOL     OW25084   4.142   5.274   4.301
 8062SOL    HW125085   4.147   5.348   4.235
 8062SOL    HW225086   4.206   5.292   4.376
 8063SOL     OW25087   2.736   0.869   3.419
 8063SOL    HW125088   2.662   0.807   3.442
 8063SOL    HW225089   2.715   0.917   3.334
 8064SOL     OW25090   6.000   2.315   0.245
 8064SOL    HW125091   6.006   2.266   0.331
 8064SOL    HW225092   5.904   2.332   0.223
 8065SOL     OW25093   2.600   6.461   4.456
 8065SOL    HW125094   2.550   6.378   4.482
 8065SOL    HW225095   2.540   6.520   4.401
 8066SOL     OW25096   6.471   6.841   5.422
 8066SOL    HW125097   6.418   6.765   5.459
 8066SOL    HW225098   6.481   6.829   5.323
 8067SOL     OW25099   5.068   2.242   3.029
 8067SOL    HW125100   5.033   2.316   3.087
 8067SOL    HW225101   5.024   2.246   2.939
 8068SOL     OW25102   0.359   4.913   1.260
 8068SOL    HW125103   0.444   4.902   1.311
 8068SOL    HW225104   0.339   4.829   1.211
 8069SOL     OW25105   2.126   4.679   1.579
 8069SOL    HW125106   2.093   4.771   1.560
 8069SOL    HW225107   2.085   4.646   1.665
 8070SOL     OW25108   3.692   2.935   0.322
 8070SOL    HW125109   3.652   2.887   0.244
 8070SOL    HW225110   3.716   3.028   0.294
 8071SOL     OW25111   2.868   6.630   5.465
 8071SOL    HW125112   2.829   6.576   5.539
 8071SOL    HW225113   2.895   6.570   5.390
 8072SOL     OW25114   3.393   1.620   1.233
 8072SOL    HW125115   3.449   1.699   1.210
 8072SOL    HW225116   3.430   1.574   1.314
 8073SOL     OW25117   3.437   5.631   5.423
 8073SOL    HW125118   3.351   5.667   5.387
 8073SOL    HW225119   3.513   5.672   5.372
 8074SOL     OW25120   2.885   1.770   0.600
 8074SOL    HW125121   2.955   1.706   0.569
 8074SOL    HW225122   2.802   1.719   0.623
 8075SOL     OW25123   6.523   0.043   0.466
 8075SOL    HW125124   6.536   6.975   0.504
 8075SOL    HW225125   6.591   0.105   0.504
 8076SOL     OW25126   6.131   6.574   5.070
 8076SOL    HW125127   6.058   6.628   5.029
 8076SOL    HW225128   6.203   6.560   5.002
 8077SOL     OW25129   3.079   6.158   2.726
 8077SOL    HW125130   3.097   6.128   2.820
 8077SOL    HW225131   2.983   6.141   2.704
 8078SOL     OW25132   0.980   1.977   1.459
 8078SOL    HW125133   0.905   1.956   1.522
 8078SOL    HW225134   0.986   1.905   1.390
 8079SOL     OW25135   6.568   1.412   3.342
 8079SOL    HW125136   6.528   1.421   3.433
 8079SOL    HW225137   6.610   1.322   3.332
 8080SOL     OW25138   1.327   1.891   2.588
 8080SOL    HW125139   1.364   1.936   2.507
 8080SOL    HW225140   1.393   1.896   2.663
 8081SOL     OW25141   6.175   5.525   6.351
 8081SOL    HW125142   6.151   5.522   6.254
 8081SOL    HW225143   6.178   5.620   6.382
 8082SOL     OW25144   3.150   0.700   2.437
 8082SOL    HW125145   3.114   0.738   2.352
 8082SOL    HW225146   3.222   0.634   2.416
 8083SOL     OW25147   5.157   2.425   3.881
 8083SOL    HW125148   5.212   2.342   3.874
 8083SOL    HW225149   5.113   2.443   3.793
 8084SOL     OW25150   2.754   0.401   0.143
 8084SOL    HW125151   2.787   0.492   0.170
 8084SOL    HW225152   2.664   0.409   0.101
 8085SOL     OW25153   5.600   5.625   2.480
 8085SOL    HW125154   5.652   5.561   2.537
 8085SOL    HW225155   5.648   5.639   2.394
 8086SOL     OW25156   6.884   0.655   1.587
 8086SOL    HW125157   6.904   0.608   1.673
 8086SOL    HW225158   6.881   0.754   1.604
 8087SOL     OW25159   1.365   0.387   0.226
 8087SOL    HW125160   1.440   0.412   0.287
 8087SOL    HW225161   1.345   0.290   0.236
 8088SOL     OW25162   5.724   0.786   0.850
 8088SOL    HW125163   5.632   0.808   0.885
 8088SOL    HW225164   5.755   0.860   0.790
 8089SOL     OW25165   5.026   2.643   7.003
 8089SOL    HW125166   5.112   2.666   0.025
 8089SOL    HW225167   4.949   2.667   0.039
 8090SOL     OW25168   3.918   0.860   5.763
 8090SOL    HW125169   3.852   0.914   5.815
 8090SOL    HW225170   3.969   0.801   5.825
 8091SOL     OW25171   1.690   3.603   4.906
 8091SOL    HW125172   1.741   3.689   4.903
 8091SOL    HW225173   1.602   3.618   4.950
 8092SOL     OW25174   5.107   1.848   5.021
 8092SOL    HW125175   5.114   1.752   5.047
 8092SOL    HW225176   5.074   1.855   4.927
 8093SOL     OW25177   2.939   5.298   3.631
 8093SOL    HW125178   2.994   5.364   3.580
 8093SOL    HW225179   2.929   5.214   3.577
 8094SOL     OW25180   0.100   2.792   4.753
 8094SOL    HW125181   0.024   2.850   4.782
 8094SOL    HW225182   0.097   2.781   4.653
 8095SOL     OW25183   0.640   4.251   4.989
 8095SOL    HW125184   0.681   4.340   5.012
 8095SOL    HW225185   0.583   4.221   5.064
 8096SOL     OW25186   2.456   0.608   1.996
 8096SOL    HW125187   2.406   0.553   2.062
 8096SOL    HW225188   2.539   0.644   2.039
 8097SOL     OW25189   4.681   6.749   4.954
 8097SOL    HW125190   4.587   6.782   4.950
 8097SOL    HW225191   4.695   6.698   5.039
 8098SOL     OW25192   2.041   6.520   3.693
 8098SOL    HW125193   2.038   6.587   3.619
 8098SOL    HW225194   2.130   6.525   3.739
 8099SOL     OW25195   4.763   6.145   4.286
 8099SOL    HW125196   4.790   6.098   4.201
 8099SOL    HW225197   4.665   6.133   4.301
 8100SOL     OW25198   6.447   0.971   6.829
 8100SOL    HW125199   6.373   0.941   6.769
 8100SOL    HW225200   6.419   1.055   6.876
 8101SOL     OW25201   2.055   6.079   1.312
 8101SOL    HW125202   2.041   5.985   1.343
 8101SOL    HW225203   2.040   6.084   1.213
 8102SOL     OW25204   0.592   3.496   2.981
 8102SOL    HW125205   0.681   3.458   2.953
 8102SOL    HW225206   0.523   3.474   2.912
 8103SOL     OW25207   3.129   6.992   1.307
 8103SOL    HW125208   3.142   6.903   1.350
 8103SOL    HW225209   3.198   0.033   1.341
 8104SOL     OW25210   1.620   0.814   6.461
 8104SOL    HW125211   1.625   0.914   6.466
 8104SOL    HW225212   1.699   0.774   6.507
 8105SOL     OW25213   6.878   3.222   2.745
 8105SOL    HW125214   6.892   3.315   2.780
 8105SOL    HW225215   6.819   3.171   2.808
 8106SOL     OW25216   3.375   5.507   3.524
 8106SOL    HW125217   3.423   5.555   3.597
 8106SOL    HW225218   3.423   5.422   3.503
 8107SOL     OW25219   1.334   5.479   3.571
 8107SOL    HW125220   1.302   5.536   3.495
 8107SOL    HW225221   1.266   5.480   3.644
 8108SOL     OW25222   6.751   2.674   6.961
 8108SOL    HW125223   6.691   2.611   7.009
 8108SOL    HW225224   6.842   2.673   7.004
 8109SOL     OW25225   6.856   3.247   6.617
 8109SOL    HW125226   6.759   3.228   6.602
 8109SOL    HW225227   6.912   3.191   6.555
 8110SOL     OW25228   4.137   5.602   2.491
 8110SOL    HW125229   4.210   5.666   2.466
 8110SOL    HW225230   4.066   5.650   2.543
 8111SOL     OW25231   4.965   1.154   4.611
 8111SOL    HW125232   4.981   1.071   4.557
 8111SOL    HW225233   4.873   1.152   4.649
 8112SOL     OW25234   2.156   3.143   4.340
 8112SOL    HW125235   2.104   3.198   4.274
 8112SOL    HW225236   2.180   3.199   4.419
 8113SOL     OW25237   0.376   3.875   0.976
 8113SOL    HW125238   0.418   3.801   1.030
 8113SOL    HW225239   0.387   3.856   0.879
 8114SOL     OW25240   2.099   3.628   2.586
 8114SOL    HW125241   2.117   3.559   2.656
 8114SOL    HW225242   2.141   3.715   2.613
 8115SOL     OW25243   3.938   6.687   6.761
 8115SOL    HW125244   3.872   6.628   6.714
 8115SOL    HW225245   3.914   6.782   6.745
 8116SOL     OW25246   4.040   5.136   0.155
 8116SOL    HW125247   4.119   5.087   0.119
 8116SOL    HW225248   4.072   5.215   0.207
 8117SOL     OW25249   1.372   0.542   3.155
 8117SOL    HW125250   1.278   0.521   3.184
 8117SOL    HW225251   1.378   0.536   3.056
 8118SOL     OW25252   5.132   4.263   5.736
 8118SOL    HW125253   5.084   4.177   5.719
 8118SOL    HW225254   5.067   4.329   5.775
 8119SOL     OW25255   5.645   6.273   6.183
 8119SOL    HW125256   5.595   6.280   6.269
 8119SOL    HW225257   5.646   6.362   6.137
 8120SOL     OW25258   3.421   4.342   0.993
 8120SOL    HW125259   3.454   4.301   1.078
 8120SOL    HW225260   3.478   4.420   0.969
 8121SOL     OW25261   0.678   5.003   1.309
 8121SOL    HW125262   0.670   5.103   1.310
 8121SOL    HW225263   0.654   4.967   1.400
 8122SOL     OW25264   0.306   4.463   2.662
 8122SOL    HW125265   0.277   4.533   2.598
 8122SOL    HW225266   0.230   4.400   2.680
 8123SOL     OW25267   6.779   1.802   6.612
 8123SOL    HW125268   6.700   1.740   6.608
 8123SOL    HW225269   6.830   1.784   6.696
 8124SOL     OW25270   4.838   5.872   1.802
 8124SOL    HW125271   4.798   5.803   1.862
 8124SOL    HW225272   4.924   5.905   1.841
 8125SOL     OW25273   1.674   2.240   3.341
 8125SOL    HW125274   1.620   2.167   3.384
 8125SOL    HW225275   1.709   2.208   3.253
 8126SOL     OW25276   5.466   4.570   3.203
 8126SOL    HW125277   5.554   4.603   3.240
 8126SOL    HW225278   5.449   4.613   3.115
 8127SOL     OW25279   2.450   3.341   6.245
 8127SOL    HW125280   2.519   3.373   6.181
 8127SOL    HW225281   2.482   3.354   6.339
 8128SOL     OW25282   2.756   2.255   2.285
 8128SOL    HW125283   2.793   2.265   2.192
 8128SOL    HW225284   2.784   2.332   2.341
 8129SOL     OW25285   4.027   1.276   5.971
 8129SOL    HW125286   3.962   1.317   6.034
 8129SOL    HW225287   4.112   1.254   6.019
 8130SOL     OW25288   0.563   4.395   6.584
 8130SOL    HW125289   0.467   4.367   6.576
 8130SOL    HW225290   0.612   4.329   6.641
 8131SOL     OW25291   2.444   1.957   1.407
 8131SOL    HW125292   2.387   1.931   1.329
 8131SOL    HW225293   2.513   1.886   1.423
 8132SOL     OW25294   5.520   6.862   5.196
 8132SOL    HW125295   5.492   6.779   5.244
 8132SOL    HW225296   5.466   6.940   5.230
 8133SOL     OW25297   2.885   5.234   2.131
 8133SOL    HW125298   2.821   5.296   2.175
 8133SOL    HW225299   2.979   5.263   2.149
 8134SOL     OW25300   0.187   1.877   6.745
 8134SOL    HW125301   0.123   1.826   6.689
 8134SOL    HW225302   0.158   1.973   6.749
 8135SOL     OW25303   2.764   0.403   1.483
 8135SOL    HW125304   2.773   0.486   1.537
 8135SOL    HW225305   2.735   0.427   1.390
 8136SOL     OW25306   4.449   5.406   2.871
 8136SOL    HW125307   4.441   5.452   2.783
 8136SOL    HW225308   4.385   5.448   2.936
 8137SOL     OW25309   2.898   1.694   5.287
 8137SOL    HW125310   2.920   1.790   5.268
 8137SOL    HW225311   2.877   1.647   5.201
 8138SOL     OW25312   5.009   1.337   0.985
 8138SOL    HW125313   4.945   1.334   0.908
 8138SOL    HW225314   4.969   1.391   1.059
 8139SOL     OW25315   0.242   0.484   1.867
 8139SOL    HW125316   0.251   0.559   1.802
 8139SOL    HW225317   0.146   0.460   1.878
 8140SOL     OW25318   5.770   0.532   6.167
 8140SOL    HW125319   5.701   0.533   6.238
 8140SOL    HW225320   5.843   0.597   6.190
 8141SOL     OW25321   4.508   5.247   4.904
 8141SOL    HW125322   4.440   5.246   4.831
 8141SOL    HW225323   4.547   5.156   4.915
 8142SOL     OW25324   0.262   5.186   0.012
 8142SOL    HW125325   0.202   5.265   0.002
 8142SOL    HW225326   0.320   5.176   6.954
 8143SOL     OW25327   5.752   4.314   0.616
 8143SOL    HW125328   5.806   4.264   0.548
 8143SOL    HW225329   5.765   4.273   0.706
 8144SOL     OW25330   6.199   6.310   6.663
 8144SOL    HW125331   6.232   6.323   6.569
 8144SOL    HW225332   6.204   6.213   6.686
 8145SOL     OW25333   5.219   6.214   1.291
 8145SOL    HW125334   5.237   6.267   1.374
 8145SOL    HW225335   5.273   6.251   1.216
 8146SOL     OW25336   3.949   0.794   4.589
 8146SOL    HW125337   4.017   0.721   4.598
 8146SOL    HW225338   3.864   0.758   4.552
 8147SOL     OW25339   6.017   2.097   1.992
 8147SOL    HW125340   6.041   2.190   2.017
 8147SOL    HW225341   6.097   2.051   1.954
 8148SOL     OW25342   5.214   4.437   1.525
 8148SOL    HW125343   5.289   4.405   1.466
 8148SOL    HW225344   5.212   4.537   1.524
 8149SOL     OW25345   2.302   5.592   2.315
 8149SOL    HW125346   2.333   5.655   2.386
 8149SOL    HW225347   2.373   5.581   2.246
 8150SOL     OW25348   0.243   4.538   6.995
 8150SOL    HW125349   0.336   4.570   6.975
 8150SOL    HW225350   0.197   4.605   0.030
 8151SOL     OW25351   6.262   2.148   1.629
 8151SOL    HW125352   6.273   2.099   1.715
 8151SOL    HW225353   6.351   2.176   1.594
 8152SOL     OW25354   0.571   1.868   2.736
 8152SOL    HW125355   0.652   1.895   2.684
 8152SOL    HW225356   0.587   1.882   2.833
 8153SOL     OW25357   3.310   0.486   2.439
 8153SOL    HW125358   3.402   0.521   2.421
 8153SOL    HW225359   3.314   0.386   2.446
 8154SOL     OW25360   2.948   5.805   3.988
 8154SOL    HW125361   2.903   5.782   4.075
 8154SOL    HW225362   3.045   5.780   3.994
 8155SOL     OW25363   2.381   3.835   1.686
 8155SOL    HW125364   2.319   3.809   1.761
 8155SOL    HW225365   2.332   3.895   1.622
 8156SOL     OW25366   5.066   6.851   6.296
 8156SOL    HW125367   5.141   6.891   6.349
 8156SOL    HW225368   4.982   6.902   6.312
 8157SOL     OW25369   5.747   5.349   6.575
 8157SOL    HW125370   5.786   5.355   6.483
 8157SOL    HW225371   5.804   5.290   6.632
 8158SOL     OW25372   0.180   5.141   1.281
 8158SOL    HW125373   0.236   5.067   1.316
 8158SOL    HW225374   0.126   5.109   1.203
 8159SOL     OW25375   2.513   6.293   2.710
 8159SOL    HW125376   2.608   6.323   2.721
 8159SOL    HW225377   2.468   6.351   2.641
 8160SOL     OW25378   4.730   1.268   2.086
 8160SOL    HW125379   4.761   1.359   2.058
 8160SOL    HW225380   4.699   1.271   2.181
 8161SOL     OW25381   5.168   1.335   0.191
 8161SOL    HW125382   5.227   1.295   0.261
 8161SOL    HW225383   5.165   1.275   0.111
 8162SOL     OW25384   6.795   6.571   6.240
 8162SOL    HW125385   6.819   6.656   6.192
 8162SOL    HW225386   6.812   6.493   6.180
 8163SOL     OW25387   2.634   3.747   5.687
 8163SOL    HW125388   2.683   3.660   5.681
 8163SOL    HW225389   2.677   3.814   5.626
 8164SOL     OW25390   6.018   3.435   0.694
 8164SOL    HW125391   5.922   3.411   0.680
 8164SOL    HW225392   6.033   3.530   0.668
 8165SOL     OW25393   1.072   4.897   6.581
 8165SOL    HW125394   1.074   4.837   6.661
 8165SOL    HW225395   1.105   4.988   6.606
 8166SOL     OW25396   2.451   1.176   2.195
 8166SOL    HW125397   2.388   1.099   2.207
 8166SOL    HW225398   2.496   1.169   2.106
 8167SOL     OW25399   6.043   1.301   4.200
 8167SOL    HW125400   6.056   1.399   4.185
 8167SOL    HW225401   5.953   1.273   4.166
 8168SOL     OW25402   3.372   1.471   3.122
 8168SOL    HW125403   3.387   1.430   3.032
 8168SOL    HW225404   3.291   1.530   3.118
 8169SOL     OW25405   5.067   3.250   1.480
 8169SOL    HW125406   5.085   3.228   1.576
 8169SOL    HW225407   5.035   3.168   1.433
 8170SOL     OW25408   1.560   5.692   2.614
 8170SOL    HW125409   1.560   5.592   2.606
 8170SOL    HW225410   1.609   5.718   2.698
 8171SOL     OW25411   1.151   1.546   0.107
 8171SOL    HW125412   1.149   1.553   0.008
 8171SOL    HW225413   1.064   1.577   0.145
 8172SOL     OW25414   0.574   0.810   1.828
 8172SOL    HW125415   0.625   0.724   1.839
 8172SOL    HW225416   0.586   0.866   1.911
 8173SOL     OW25417   3.689   1.987   0.346
 8173SOL    HW125418   3.708   1.897   0.386
 8173SOL    HW225419   3.715   2.058   0.411
 8174SOL     OW25420   4.818   1.936   0.581
 8174SOL    HW125421   4.890   2.005   0.589
 8174SOL    HW225422   4.731   1.975   0.611
 8175SOL     OW25423   0.235   2.586   5.767
 8175SOL    HW125424   0.224   2.663   5.704
 8175SOL    HW225425   0.152   2.530   5.765
 8176SOL     OW25426   2.691   5.376   2.303
 8176SOL    HW125427   2.694   5.474   2.283
 8176SOL    HW225428   2.598   5.343   2.288
 8177SOL     OW25429   1.813   6.313   4.279
 8177SOL    HW125430   1.809   6.270   4.189
 8177SOL    HW225431   1.908   6.333   4.303
 8178SOL     OW25432   1.937   6.633   6.632
 8178SOL    HW125433   2.032   6.665   6.642
 8178SOL    HW225434   1.913   6.575   6.709
 8179SOL     OW25435   3.618   2.819   0.065
 8179SOL    HW125436   3.585   2.727   0.045
 8179SOL    HW225437   3.542   2.883   0.061
 8180SOL     OW25438   6.594   0.370   4.445
 8180SOL    HW125439   6.511   0.314   4.445
 8180SOL    HW225440   6.617   0.395   4.350
 8181SOL     OW25441   2.093   1.114   2.503
 8181SOL    HW125442   2.037   1.126   2.421
 8181SOL    HW225443   2.150   1.195   2.518
 8182SOL     OW25444   3.962   1.697   6.727
 8182SOL    HW125445   3.909   1.751   6.662
 8182SOL    HW225446   4.039   1.752   6.760
 8183SOL     OW25447   0.550   2.430   5.246
 8183SOL    HW125448   0.606   2.349   5.228
 8183SOL    HW225449   0.509   2.463   5.161
 8184SOL     OW25450   5.722   1.631   5.820
 8184SOL    HW125451   5.816   1.664   5.826
 8184SOL    HW225452   5.691   1.638   5.725
 8185SOL     OW25453   3.259   0.566   0.393
 8185SOL    HW125454   3.236   0.583   0.297
 8185SOL    HW225455   3.216   0.480   0.422
 8186SOL     OW25456   2.823   5.998   6.691
 8186SOL    HW125457   2.872   5.997   6.778
 8186SOL    HW225458   2.888   6.014   6.616
 8187SOL     OW25459   1.730   2.097   4.820
 8187SOL    HW125460   1.745   2.033   4.896
 8187SOL    HW225461   1.777   2.184   4.841
 8188SOL     OW25462   5.491   1.806   2.689
 8188SOL    HW125463   5.425   1.816   2.763
 8188SOL    HW225464   5.460   1.858   2.609
 8189SOL     OW25465   5.497   4.086   2.059
 8189SOL    HW125466   5.524   4.009   2.116
 8189SOL    HW225467   5.500   4.170   2.114
 8190SOL     OW25468   5.396   5.699   4.255
 8190SOL    HW125469   5.366   5.645   4.334
 8190SOL    HW225470   5.317   5.720   4.198
 8191SOL     OW25471   2.523   5.373   3.787
 8191SOL    HW125472   2.619   5.365   3.813
 8191SOL    HW225473   2.514   5.440   3.713
 8192SOL     OW25474   2.958   5.746   0.135
 8192SOL    HW125475   3.015   5.799   0.198
 8192SOL    HW225476   2.899   5.684   0.187
 8193SOL     OW25477   6.603   0.251   4.161
 8193SOL    HW125478   6.562   0.331   4.117
 8193SOL    HW225479   6.531   0.193   4.199
 8194SOL     OW25480   6.102   2.816   0.111
 8194SOL    HW125481   6.087   2.731   0.161
 8194SOL    HW225482   6.191   2.855   0.137
 8195SOL     OW25483   0.665   0.945   0.703
 8195SOL    HW125484   0.609   0.999   0.765
 8195SOL    HW225485   0.607   0.883   0.650
 8196SOL     OW25486   3.816   0.007   5.719
 8196SOL    HW125487   3.808   0.094   5.669
 8196SOL    HW225488   3.796   6.955   5.658
 8197SOL     OW25489   5.222   1.560   5.741
 8197SOL    HW125490   5.154   1.562   5.667
 8197SOL    HW225491   5.271   1.473   5.739
 8198SOL     OW25492   3.289   6.966   2.069
 8198SOL    HW125493   3.254   6.885   2.021
 8198SOL    HW225494   3.385   6.951   2.095
 8199SOL     OW25495   6.873   4.089   0.486
 8199SOL    HW125496   6.795   4.138   0.524
 8199SOL    HW225497   6.876   4.103   0.387
 8200SOL     OW25498   4.240   3.929   1.248
 8200SOL    HW125499   4.254   3.987   1.329
 8200SOL    HW225500   4.323   3.878   1.229
 8201SOL     OW25501   5.339   0.845   4.624
 8201SOL    HW125502   5.433   0.815   4.612
 8201SOL    HW225503   5.336   0.926   4.681
 8202SOL     OW25504   1.230   5.882   4.274
 8202SOL    HW125505   1.158   5.820   4.245
 8202SOL    HW225506   1.286   5.907   4.195
 8203SOL     OW25507   4.772   3.403   0.241
 8203SOL    HW125508   4.686   3.426   0.286
 8203SOL    HW225509   4.784   3.461   0.161
 8204SOL     OW25510   3.470   5.556   0.931
 8204SOL    HW125511   3.509   5.522   1.016
 8204SOL    HW225512   3.540   5.608   0.881
 8205SOL     OW25513   6.157   4.740   2.035
 8205SOL    HW125514   6.228   4.800   1.997
 8205SOL    HW225515   6.200   4.660   2.076
 8206SOL     OW25516   3.195   2.215   5.468
 8206SOL    HW125517   3.131   2.206   5.392
 8206SOL    HW225518   3.282   2.251   5.434
 8207SOL     OW25519   3.500   4.799   5.364
 8207SOL    HW125520   3.454   4.715   5.335
 8207SOL    HW225521   3.576   4.819   5.303
 8208SOL     OW25522   2.154   6.711   1.471
 8208SOL    HW125523   2.241   6.742   1.434
 8208SOL    HW225524   2.141   6.614   1.448
 8209SOL     OW25525   0.732   1.289   5.242
 8209SOL    HW125526   0.728   1.258   5.337
 8209SOL    HW225527   0.664   1.360   5.226
 8210SOL     OW25528   3.532   1.011   6.928
 8210SOL    HW125529   3.630   0.992   6.935
 8210SOL    HW225530   3.494   0.960   6.851
 8211SOL     OW25531   3.565   4.140   4.276
 8211SOL    HW125532   3.651   4.148   4.326
 8211SOL    HW225533   3.496   4.097   4.334
 8212SOL     OW25534   3.164   0.799   0.793
 8212SOL    HW125535   3.145   0.859   0.715
 8212SOL    HW225536   3.231   0.730   0.767
 8213SOL     OW25537   4.691   5.158   3.434
 8213SOL    HW125538   4.612   5.141   3.493
 8213SOL    HW225539   4.664   5.145   3.339
 8214SOL     OW25540   2.022   6.075   3.968
 8214SOL    HW125541   2.036   6.040   3.875
 8214SOL    HW225542   2.083   6.153   3.982
 8215SOL     OW25543   4.168   5.300   0.337
 8215SOL    HW125544   4.268   5.305   0.338
 8215SOL    HW225545   4.136   5.246   0.414
 8216SOL     OW25546   5.461   0.003   3.217
 8216SOL    HW125547   5.500   0.086   3.177
 8216SOL    HW225548   5.380   6.999   3.165
 8217SOL     OW25549   2.275   4.055   2.353
 8217SOL    HW125550   2.362   4.017   2.323
 8217SOL    HW225551   2.199   4.000   2.319
 8218SOL     OW25552   1.777   0.152   4.626
 8218SOL    HW125553   1.703   0.209   4.591
 8218SOL    HW225554   1.758   0.126   4.721
 8219SOL     OW25555   3.001   4.645   1.027
 8219SOL    HW125556   2.959   4.733   1.049
 8219SOL    HW225557   3.061   4.617   1.101
 8220SOL     OW25558   3.463   4.230   5.233
 8220SOL    HW125559   3.551   4.203   5.194
 8220SOL    HW225560   3.394   4.162   5.208
 8221SOL     OW25561   6.100   4.034   3.252
 8221SOL    HW125562   6.187   3.989   3.274
 8221SOL    HW225563   6.024   3.978   3.287
 8222SOL     OW25564   5.701   2.245   0.418
 8222SOL    HW125565   5.653   2.297   0.488
 8222SOL    HW225566   5.719   2.304   0.339
 8223SOL     OW25567   0.029   4.856   5.710
 8223SOL    HW125568   7.005   4.934   5.749
 8223SOL    HW225569   0.059   4.878   5.617
 8224SOL     OW25570   4.262   1.813   1.098
 8224SOL    HW125571   4.281   1.772   1.187
 8224SOL    HW225572   4.227   1.743   1.036
 8225SOL     OW25573   4.406   0.044   0.830
 8225SOL    HW125574   4.332   0.050   0.897
 8225SOL    HW225575   4.411   0.130   0.779
 8226SOL     OW25576   3.492   0.418   0.316
 8226SOL    HW125577   3.428   0.474   0.369
 8226SOL    HW225578   3.480   0.322   0.341
 8227SOL     OW25579   5.885   1.174   2.457
 8227SOL    HW125580   5.959   1.133   2.403
 8227SOL    HW225581   5.875   1.124   2.543
 8228SOL     OW25582   0.485   1.198   5.522
 8228SOL    HW125583   0.477   1.177   5.620
 8228SOL    HW225584   0.582   1.201   5.497
 8229SOL     OW25585   4.332   4.558   1.075
 8229SOL    HW125586   4.396   4.634   1.088
 8229SOL    HW225587   4.342   4.521   0.983
 8230SOL     OW25588   4.170   0.072   5.507
 8230SOL    HW125589   4.118   0.031   5.581
 8230SOL    HW225590   4.265   0.041   5.511
 8231SOL     OW25591   3.255   1.555   2.409
 8231SOL    HW125592   3.244   1.589   2.503
 8231SOL    HW225593   3.350   1.528   2.394
 8232SOL     OW25594   5.461   1.315   2.175
 8232SOL    HW125595   5.379   1.348   2.221
 8232SOL    HW225596   5.527   1.282   2.242
 8233SOL     OW25597   1.051   0.272   5.665
 8233SOL    HW125598   1.111   0.270   5.745
 8233SOL    HW225599   0.956   0.258   5.693
 8234SOL     OW25600   3.366   3.142   0.274
 8234SOL    HW125601   3.461   3.174   0.267
 8234SOL    HW225602   3.306   3.220   0.293
 8235SOL     OW25603   6.797   4.867   0.089
 8235SOL    HW125604   6.869   4.925   0.048
 8235SOL    HW225605   6.767   4.799   0.023
 8236SOL     OW25606   0.144   6.110   5.771
 8236SOL    HW125607   0.046   6.109   5.790
 8236SOL    HW225608   0.164   6.180   5.702
 8237SOL     OW25609   4.408   5.605   6.228
 8237SOL    HW125610   4.478   5.582   6.161
 8237SOL    HW225611   4.448   5.605   6.320
 8238SOL     OW25612   1.153   5.486   6.715
 8238SOL    HW125613   1.093   5.416   6.753
 8238SOL    HW225614   1.105   5.535   6.642
 8239SOL     OW25615   0.282   1.123   4.968
 8239SOL    HW125616   0.218   1.072   4.910
 8239SOL    HW225617   0.265   1.101   5.064
 8240SOL     OW25618   2.920   3.346   3.070
 8240SOL    HW125619   2.911   3.425   3.009
 8240SOL    HW225620   2.957   3.268   3.019
 8241SOL     OW25621   1.012   3.275   0.057
 8241SOL    HW125622   0.944   3.214   0.017
 8241SOL    HW225623   1.063   3.321   7.007
 8242SOL     OW25624   0.806   3.566   4.864
 8242SOL    HW125625   0.813   3.492   4.798
 8242SOL    HW225626   0.860   3.545   4.945
 8243SOL     OW25627   0.725   4.432   5.710
 8243SOL    HW125628   0.742   4.338   5.741
 8243SOL    HW225629   0.655   4.431   5.639
 8244SOL     OW25630   1.137   0.828   3.480
 8244SOL    HW125631   1.165   0.914   3.523
 8244SOL    HW225632   1.060   0.789   3.531
 8245SOL     OW25633   4.557   2.043   3.297
 8245SOL    HW125634   4.468   2.035   3.251
 8245SOL    HW225635   4.606   1.957   3.288
 8246SOL     OW25636   1.139   4.231   6.143
 8246SOL    HW125637   1.140   4.203   6.239
 8246SOL    HW225638   1.087   4.164   6.090
 8247SOL     OW25639   3.231   5.213   3.746
 8247SOL    HW125640   3.258   5.223   3.842
 8247SOL    HW225641   3.177   5.292   3.718
 8248SOL     OW25642   1.390   6.140   4.333
 8248SOL    HW125643   1.335   6.059   4.314
 8248SOL    HW225644   1.482   6.113   4.360
 8249SOL     OW25645   2.248   1.775   5.671
 8249SOL    HW125646   2.293   1.725   5.745
 8249SOL    HW225647   2.150   1.778   5.688
 8250SOL     OW25648   3.154   1.605   0.818
 8250SOL    HW125649   3.088   1.658   0.872
 8250SOL    HW225650   3.203   1.667   0.756
 8251SOL     OW25651   6.466   2.090   4.320
 8251SOL    HW125652   6.432   2.042   4.400
 8251SOL    HW225653   6.415   2.175   4.307
 8252SOL     OW25654   2.411   2.272   6.504
 8252SOL    HW125655   2.354   2.351   6.523
 8252SOL    HW225656   2.472   2.255   6.581
 8253SOL     OW25657   3.843   5.846   6.439
 8253SOL    HW125658   3.886   5.787   6.371
 8253SOL    HW225659   3.744   5.844   6.425
 8254SOL     OW25660   6.177   4.874   6.171
 8254SOL    HW125661   6.191   4.830   6.082
 8254SOL    HW225662   6.083   4.907   6.178
 8255SOL     OW25663   0.906   6.743   6.101
 8255SOL    HW125664   0.996   6.727   6.059
 8255SOL    HW225665   0.835   6.702   6.043
 8256SOL     OW25666   0.031   6.736   3.177
 8256SOL    HW125667   0.060   6.676   3.251
 8256SOL    HW225668   0.014   6.681   3.095
 8257SOL     OW25669   5.824   4.083   4.171
 8257SOL    HW125670   5.818   4.117   4.077
 8257SOL    HW225671   5.847   4.158   4.232
 8258SOL     OW25672   5.673   2.494   0.976
 8258SOL    HW125673   5.741   2.558   0.941
 8258SOL    HW225674   5.704   2.457   1.064
 8259SOL     OW25675   3.894   1.828   4.579
 8259SOL    HW125676   3.882   1.830   4.480
 8259SOL    HW225677   3.890   1.733   4.611
 8260SOL     OW25678   1.549   6.587   0.391
 8260SOL    HW125679   1.565   6.568   0.294
 8260SOL    HW225680   1.456   6.621   0.403
 8261SOL     OW25681   5.579   6.539   3.283
 8261SOL    HW125682   5.540   6.630   3.289
 8261SOL    HW225683   5.526   6.476   3.341
 8262SOL     OW25684   0.295   5.187   0.331
 8262SOL    HW125685   0.359   5.110   0.327
 8262SOL    HW225686   0.271   5.215   0.238
 8263SOL     OW25687   6.965   2.757   6.597
 8263SOL    HW125688   0.038   2.763   6.574
 8263SOL    HW225689   6.937   2.838   6.648
 8264SOL     OW25690   1.627   6.986   1.527
 8264SOL    HW125691   1.699   6.945   1.582
 8264SOL    HW225692   1.552   7.015   1.587
 8265SOL     OW25693   4.172   0.198   1.597
 8265SOL    HW125694   4.271   0.204   1.615
 8265SOL    HW225695   4.135   0.291   1.590
 8266SOL     OW25696   2.974   0.195   4.658
 8266SOL    HW125697   3.009   0.156   4.744
 8266SOL    HW225698   2.955   0.121   4.593
 8267SOL     OW25699   1.337   4.929   2.201
 8267SOL    HW125700   1.408   4.995   2.175
 8267SOL    HW225701   1.375   4.861   2.263
 8268SOL     OW25702   2.517   3.872   6.593
 8268SOL    HW125703   2.588   3.937   6.619
 8268SOL    HW225704   2.559   3.784   6.568
 8269SOL     OW25705   4.729   2.790   2.905
 8269SOL    HW125706   4.755   2.775   3.001
 8269SOL    HW225707   4.667   2.717   2.876
 8270SOL     OW25708   2.534   6.424   5.727
 8270SOL    HW125709   2.534   6.513   5.683
 8270SOL    HW225710   2.515   6.353   5.659
 8271SOL     OW25711   5.909   6.293   4.653
 8271SOL    HW125712   5.843   6.339   4.594
 8271SOL    HW225713   5.940   6.356   4.724
 8272SOL     OW25714   0.449   0.262   2.041
 8272SOL    HW125715   0.459   0.289   1.945
 8272SOL    HW225716   0.374   0.196   2.050
 8273SOL     OW25717   3.123   6.930   0.109
 8273SOL    HW125718   3.054   6.871   0.150
 8273SOL    HW225719   3.213   6.905   0.143
 8274SOL     OW25720   4.161   4.407   6.651
 8274SOL    HW125721   4.147   4.403   6.552
 8274SOL    HW225722   4.253   4.440   6.671
 8275SOL     OW25723   6.400   0.123   4.881
 8275SOL    HW125724   6.480   0.083   4.927
 8275SOL    HW225725   6.425   0.209   4.838
 8276SOL     OW25726   6.600   2.697   5.806
 8276SOL    HW125727   6.603   2.783   5.856
 8276SOL    HW225728   6.693   2.668   5.784
 8277SOL     OW25729   2.134   5.362   5.529
 8277SOL    HW125730   2.137   5.461   5.515
 8277SOL    HW225731   2.074   5.341   5.606
 8278SOL     OW25732   3.419   1.214   6.215
 8278SOL    HW125733   3.410   1.116   6.196
 8278SOL    HW225734   3.372   1.236   6.300
 8279SOL     OW25735   5.292   5.844   6.993
 8279SOL    HW125736   5.355   5.895   6.934
 8279SOL    HW225737   5.317   5.858   0.065
 8280SOL     OW25738   4.308   2.624   6.879
 8280SOL    HW125739   4.302   2.561   6.957
 8280SOL    HW225740   4.358   2.580   6.805
 8281SOL     OW25741   1.939   4.459   0.500
 8281SOL    HW125742   1.888   4.374   0.489
 8281SOL    HW225743   1.963   4.472   0.596
 8282SOL     OW25744   2.976   2.227   1.012
 8282SOL    HW125745   3.010   2.321   1.014
 8282SOL    HW225746   2.919   2.211   1.092
 8283SOL     OW25747   0.484   5.133   3.702
 8283SOL    HW125748   0.501   5.222   3.659
 8283SOL    HW225749   0.396   5.098   3.672
 8284SOL     OW25750   2.010   2.742   2.521
 8284SOL    HW125751   2.104   2.756   2.491
 8284SOL    HW225752   1.997   2.647   2.548
 8285SOL     OW25753   3.296   3.695   5.889
 8285SOL    HW125754   3.294   3.596   5.902
 8285SOL    HW225755   3.305   3.715   5.791
 8286SOL     OW25756   5.539   1.171   4.475
 8286SOL    HW125757   5.570   1.266   4.484
 8286SOL    HW225758   5.616   1.110   4.491
 8287SOL     OW25759   1.323   6.775   4.440
 8287SOL    HW125760   1.242   6.744   4.390
 8287SOL    HW225761   1.347   6.867   4.411
 8288SOL     OW25762   1.732   2.284   2.268
 8288SOL    HW125763   1.816   2.308   2.316
 8288SOL    HW225764   1.660   2.264   2.334
 8289SOL     OW25765   6.032   0.748   5.887
 8289SOL    HW125766   5.997   0.670   5.939
 8289SOL    HW225767   6.039   0.828   5.946
 8290SOL     OW25768   4.054   3.344   1.630
 8290SOL    HW125769   4.027   3.327   1.535
 8290SOL    HW225770   4.047   3.259   1.683
 8291SOL     OW25771   5.853   6.734   6.444
 8291SOL    HW125772   5.791   6.671   6.490
 8291SOL    HW225773   5.823   6.828   6.461
 8292SOL     OW25774   1.843   4.978   5.669
 8292SOL    HW125775   1.942   4.970   5.665
 8292SOL    HW225776   1.814   4.991   5.764
 8293SOL     OW25777   2.062   4.801   1.907
 8293SOL    HW125778   2.152   4.759   1.918
 8293SOL    HW225779   2.001   4.738   1.860
 8294SOL     OW25780   6.620   3.757   5.393
 8294SOL    HW125781   6.706   3.807   5.390
 8294SOL    HW225782   6.602   3.726   5.487
 8295SOL     OW25783   4.788   3.959   3.180
 8295SOL    HW125784   4.872   3.981   3.229
 8295SOL    HW225785   4.754   3.870   3.211
 8296SOL     OW25786   3.492   6.052   6.820
 8296SOL    HW125787   3.470   5.963   6.862
 8296SOL    HW225788   3.490   6.123   6.890
 8297SOL     OW25789   6.131   3.974   1.883
 8297SOL    HW125790   6.224   3.938   1.892
 8297SOL    HW225791   6.101   4.013   1.970
 8298SOL     OW25792   0.912   0.875   6.374
 8298SOL    HW125793   0.926   0.932   6.456
 8298SOL    HW225794   0.999   0.862   6.327
 8299SOL     OW25795   0.258   3.866   1.599
 8299SOL    HW125796   0.255   3.787   1.538
 8299SOL    HW225797   0.210   3.845   1.684
 8300SOL     OW25798   5.975   5.658   4.279
 8300SOL    HW125799   5.893   5.604   4.299
 8300SOL    HW225800   5.966   5.749   4.320
 8301SOL     OW25801   4.387   0.213   6.926
 8301SOL    HW125802   4.403   0.119   6.954
 8301SOL    HW225803   4.293   0.223   6.892
 8302SOL     OW25804   3.081   6.812   5.199
 8302SOL    HW125805   3.088   6.769   5.109
 8302SOL    HW225806   3.109   6.747   5.269
 8303SOL     OW25807   6.881   0.326   2.493
 8303SOL    HW125808   6.922   0.235   2.489
 8303SOL    HW225809   6.803   0.324   2.556
 8304SOL     OW25810   5.599   4.056   3.158
 8304SOL    HW125811   5.602   4.048   3.258
 8304SOL    HW225812   5.564   4.146   3.133
 8305SOL     OW25813   4.642   5.256   4.247
 8305SOL    HW125814   4.653   5.234   4.344
 8305SOL    HW225815   4.569   5.324   4.237
 8306SOL     OW25816   6.440   0.777   2.601
 8306SOL    HW125817   6.507   0.835   2.646
 8306SOL    HW225818   6.377   0.740   2.669
 8307SOL     OW25819   1.382   5.152   0.874
 8307SOL    HW125820   1.356   5.171   0.969
 8307SOL    HW225821   1.336   5.216   0.814
 8308SOL     OW25822   1.632   4.468   0.390
 8308SOL    HW125823   1.682   4.541   0.437
 8308SOL    HW225824   1.577   4.507   0.316
 8309SOL     OW25825   6.637   5.132   4.958
 8309SOL    HW125826   6.613   5.037   4.977
 8309SOL    HW225827   6.560   5.179   4.917
 8310SOL     OW25828   0.840   6.341   1.101
 8310SOL    HW125829   0.872   6.375   1.189
 8310SOL    HW225830   0.779   6.408   1.059
 8311SOL     OW25831   5.548   6.714   4.276
 8311SOL    HW125832   5.510   6.789   4.222
 8311SOL    HW225833   5.646   6.729   4.289
 8312SOL     OW25834   5.517   0.390   0.541
 8312SOL    HW125835   5.445   0.418   0.603
 8312SOL    HW225836   5.555   0.470   0.494
 8313SOL     OW25837   3.800   6.829   5.543
 8313SOL    HW125838   3.871   6.814   5.475
 8313SOL    HW225839   3.710   6.820   5.500
 8314SOL     OW25840   5.516   6.340   6.411
 8314SOL    HW125841   5.422   6.306   6.408
 8314SOL    HW225842   5.519   6.422   6.467
 8315SOL     OW25843   3.722   3.911   3.867
 8315SOL    HW125844   3.655   3.847   3.903
 8315SOL    HW225845   3.728   3.991   3.926
 8316SOL     OW25846   0.958   3.145   6.725
 8316SOL    HW125847   1.018   3.210   6.772
 8316SOL    HW225848   0.886   3.116   6.788
 8317SOL     OW25849   2.165   2.181   4.844
 8317SOL    HW125850   2.159   2.148   4.938
 8317SOL    HW225851   2.119   2.270   4.837
 8318SOL     OW25852   4.415   1.144   5.970
 8318SOL    HW125853   4.324   1.104   5.978
 8318SOL    HW225854   4.426   1.184   5.879
 8319SOL     OW25855   1.183   0.376   5.902
 8319SOL    HW125856   1.280   0.392   5.917
 8319SOL    HW225857   1.140   0.349   5.989
 8320SOL     OW25858   3.411   4.139   3.563
 8320SOL    HW125859   3.397   4.123   3.661
 8320SOL    HW225860   3.323   4.146   3.517
 8321SOL     OW25861   0.081   0.618   6.514
 8321SOL    HW125862   0.155   0.649   6.455
 8321SOL    HW225863   0.086   0.518   6.523
 8322SOL     OW25864   0.208   1.320   0.414
 8322SOL    HW125865   0.296   1.346   0.454
 8322SOL    HW225866   0.180   1.230   0.448
 8323SOL     OW25867   4.841   4.845   1.231
 8323SOL    HW125868   4.869   4.785   1.156
 8323SOL    HW225869   4.875   4.808   1.318
 8324SOL     OW25870   6.049   0.559   7.001
 8324SOL    HW125871   6.057   0.604   6.912
 8324SOL    HW225872   6.138   0.518   0.002
 8325SOL     OW25873   1.299   5.208   4.864
 8325SOL    HW125874   1.277   5.145   4.938
 8325SOL    HW225875   1.235   5.196   4.789
 8326SOL     OW25876   3.137   3.824   0.127
 8326SOL    HW125877   3.188   3.794   0.207
 8326SOL    HW225878   3.117   3.746   0.068
 8327SOL     OW25879   0.516   0.681   5.173
 8327SOL    HW125880   0.519   0.589   5.133
 8327SOL    HW225881   0.482   0.676   5.267
 8328SOL     OW25882   0.954   6.094   5.849
 8328SOL    HW125883   0.979   6.176   5.798
 8328SOL    HW225884   0.871   6.111   5.901
 8329SOL     OW25885   1.040   2.615   5.291
 8329SOL    HW125886   1.109   2.543   5.301
 8329SOL    HW225887   0.952   2.575   5.267
 8330SOL     OW25888   3.770   1.044   6.292
 8330SOL    HW125889   3.788   1.026   6.195
 8330SOL    HW225890   3.688   0.995   6.320
 8331SOL     OW25891   2.080   2.071   0.450
 8331SOL    HW125892   2.069   2.004   0.377
 8331SOL    HW225893   2.103   2.160   0.411
 8332SOL     OW25894   5.437   5.305   2.248
 8332SOL    HW125895   5.424   5.253   2.163
 8332SOL    HW225896   5.352   5.307   2.300
 8333SOL     OW25897   1.848   5.217   0.857
 8333SOL    HW125898   1.792   5.300   0.850
 8333SOL    HW225899   1.790   5.140   0.883
 8334SOL     OW25900   3.340   1.535   6.272
 8334SOL    HW125901   3.254   1.535   6.323
 8334SOL    HW225902   3.322   1.510   6.177
 8335SOL     OW25903   4.348   2.718   6.514
 8335SOL    HW125904   4.400   2.719   6.429
 8335SOL    HW225905   4.391   2.655   6.579
 8336SOL     OW25906   1.530   3.642   2.261
 8336SOL    HW125907   1.431   3.641   2.246
 8336SOL    HW225908   1.552   3.592   2.345
 8337SOL     OW25909   1.256   0.771   4.808
 8337SOL    HW125910   1.207   0.853   4.776
 8337SOL    HW225911   1.321   0.797   4.879
 8338SOL     OW25912   3.893   4.841   2.400
 8338SOL    HW125913   3.824   4.872   2.334
 8338SOL    HW225914   3.969   4.799   2.351
 8339SOL     OW25915   6.903   0.854   0.321
 8339SOL    HW125916   6.999   0.831   0.306
 8339SOL    HW225917   6.888   0.875   0.418
 8340SOL     OW25918   5.066   2.855   0.607
 8340SOL    HW125919   5.142   2.833   0.547
 8340SOL    HW225920   5.101   2.899   0.690
 8341SOL     OW25921   3.353   0.459   6.356
 8341SOL    HW125922   3.376   0.470   6.260
 8341SOL    HW225923   3.279   0.393   6.366
 8342SOL     OW25924   3.373   6.210   0.215
 8342SOL    HW125925   3.425   6.125   0.224
 8342SOL    HW225926   3.368   6.236   0.118
 8343SOL     OW25927   6.533   5.228   4.070
 8343SOL    HW125928   6.522   5.174   3.986
 8343SOL    HW225929   6.445   5.236   4.116
 8344SOL     OW25930   0.641   4.470   4.090
 8344SOL    HW125931   0.650   4.385   4.142
 8344SOL    HW225932   0.606   4.450   3.999
 8345SOL     OW25933   5.195   1.268   3.679
 8345SOL    HW125934   5.275   1.209   3.695
 8345SOL    HW225935   5.222   1.347   3.624
 8346SOL     OW25936   4.179   3.158   6.148
 8346SOL    HW125937   4.251   3.094   6.177
 8346SOL    HW225938   4.143   3.206   6.228
 8347SOL     OW25939   2.064   6.613   6.335
 8347SOL    HW125940   2.149   6.580   6.375
 8347SOL    HW225941   2.010   6.535   6.303
 8348SOL     OW25942   2.624   0.101   1.415
 8348SOL    HW125943   2.640   0.003   1.404
 8348SOL    HW225944   2.700   0.142   1.465
 8349SOL     OW25945   1.073   6.551   1.710
 8349SOL    HW125946   1.011   6.587   1.640
 8349SOL    HW225947   1.148   6.502   1.665
 8350SOL     OW25948   2.943   0.075   6.475
 8350SOL    HW125949   2.909   0.028   6.556
 8350SOL    HW225950   2.912   0.026   6.393
 8351SOL     OW25951   6.042   5.641   4.007
 8351SOL    HW125952   6.013   5.621   4.100
 8351SOL    HW225953   6.131   5.687   4.008
 8352SOL     OW25954   2.800   6.127   2.621
 8352SOL    HW125955   2.761   6.141   2.530
 8352SOL    HW225956   2.791   6.210   2.675
 8353SOL     OW25957   1.278   4.080   1.574
 8353SOL    HW125958   1.354   4.115   1.629
 8353SOL    HW225959   1.204   4.148   1.572
 8354SOL     OW25960   3.575   6.882   4.190
 8354SOL    HW125961   3.597   6.791   4.157
 8354SOL    HW225962   3.534   6.936   4.116
 8355SOL     OW25963   1.326   0.340   6.312
 8355SOL    HW125964   1.406   0.301   6.267
 8355SOL    HW225965   1.340   0.438   6.327
 8356SOL     OW25966   1.355   5.422   1.810
 8356SOL    HW125967   1.300   5.365   1.871
 8356SOL    HW225968   1.441   5.445   1.854
 8357SOL     OW25969   3.516   5.597   6.189
 8357SOL    HW125970   3.538   5.681   6.138
 8357SOL    HW225971   3.419   5.597   6.212
 8358SOL     OW25972   1.162   2.812   5.992
 8358SOL    HW125973   1.260   2.808   6.010
 8358SOL    HW225974   1.136   2.906   5.970
 8359SOL     OW25975   2.125   1.404   4.364
 8359SOL    HW125976   2.114   1.496   4.402
 8359SOL    HW225977   2.079   1.338   4.423
 8360SOL     OW25978   5.010   0.151   0.913
 8360SOL    HW125979   4.938   0.214   0.943
 8360SOL    HW225980   4.997   0.062   0.957
 8361SOL     OW25981   2.417   6.760   6.570
 8361SOL    HW125982   2.339   6.796   6.621
 8361SOL    HW225983   2.469   6.835   6.531
 8362SOL     OW25984   6.052   1.921   0.421
 8362SOL    HW125985   6.133   1.908   0.364
 8362SOL    HW225986   6.025   2.018   0.418
 8363SOL     OW25987   4.029   1.965   0.310
 8363SOL    HW125988   3.996   2.044   0.361
 8363SOL    HW225989   3.988   1.966   0.218
 8364SOL     OW25990   1.010   3.043   4.219
 8364SOL    HW125991   0.937   3.032   4.152
 8364SOL    HW225992   1.065   3.123   4.195
 8365SOL     OW25993   2.022   2.574   2.769
 8365SOL    HW125994   2.106   2.524   2.747
 8365SOL    HW225995   1.989   2.545   2.859
 8366SOL     OW25996   4.026   5.185   1.295
 8366SOL    HW125997   4.045   5.265   1.351
 8366SOL    HW225998   3.969   5.120   1.346
 8367SOL     OW25999   2.941   5.175   5.045
 8367SOL    HW126000   2.893   5.131   5.121
 8367SOL    HW226001   2.887   5.165   4.962
 8368SOL     OW26002   1.169   6.201   6.957
 8368SOL    HW126003   1.163   6.101   6.957
 8368SOL    HW226004   1.078   6.240   6.968
 8369SOL     OW26005   0.783   1.202   1.127
 8369SOL    HW126006   0.725   1.272   1.168
 8369SOL    HW226007   0.732   1.116   1.120
 8370SOL     OW26008   2.511   1.686   6.807
 8370SOL    HW126009   2.466   1.606   6.768
 8370SOL    HW226010   2.589   1.712   6.750
 8371SOL     OW26011   1.639   3.299   5.769
 8371SOL    HW126012   1.574   3.232   5.734
 8371SOL    HW226013   1.718   3.305   5.708
 8372SOL     OW26014   2.137   6.177   1.680
 8372SOL    HW126015   2.078   6.195   1.602
 8372SOL    HW226016   2.131   6.081   1.706
 8373SOL     OW26017   0.784   1.587   4.517
 8373SOL    HW126018   0.721   1.600   4.594
 8373SOL    HW226019   0.836   1.671   4.502
 8374SOL     OW26020   0.979   0.266   4.544
 8374SOL    HW126021   0.999   0.336   4.613
 8374SOL    HW226022   0.912   0.302   4.479
 8375SOL     OW26023   3.635   0.567   5.295
 8375SOL    HW126024   3.645   0.582   5.394
 8375SOL    HW226025   3.706   0.504   5.264
 8376SOL     OW26026   1.744   1.311   3.716
 8376SOL    HW126027   1.647   1.287   3.718
 8376SOL    HW226028   1.765   1.371   3.793
 8377SOL     OW26029   5.109   5.632   0.735
 8377SOL    HW126030   5.055   5.568   0.680
 8377SOL    HW226031   5.072   5.635   0.828
 8378SOL     OW26032   5.371   5.302   3.120
 8378SOL    HW126033   5.386   5.246   3.039
 8378SOL    HW226034   5.317   5.250   3.187
 8379SOL     OW26035   4.701   2.205   1.363
 8379SOL    HW126036   4.773   2.149   1.322
 8379SOL    HW226037   4.667   2.270   1.295
 8380SOL     OW26038   6.981   6.745   0.018
 8380SOL    HW126039   6.904   6.681   0.019
 8380SOL    HW226040   7.004   6.772   0.112
 8381SOL     OW26041   0.403   2.486   3.399
 8381SOL    HW126042   0.438   2.456   3.311
 8381SOL    HW226043   0.467   2.551   3.440
 8382SOL     OW26044   2.423   0.564   1.173
 8382SOL    HW126045   2.375   0.562   1.086
 8382SOL    HW226046   2.378   0.502   1.238
 8383SOL     OW26047   2.477   0.554   5.059
 8383SOL    HW126048   2.574   0.580   5.052
 8383SOL    HW226049   2.425   0.598   4.986
 8384SOL     OW26050   6.997   1.752   0.814
 8384SOL    HW126051   0.007   1.662   0.786
 8384SOL    HW226052   6.897   1.750   0.819
 8385SOL     OW26053   4.803   3.076   0.648
 8385SOL    HW126054   4.729   3.130   0.607
 8385SOL    HW226055   4.766   2.990   0.682
 8386SOL     OW26056   2.157   5.676   1.140
 8386SOL    HW126057   2.136   5.594   1.193
 8386SOL    HW226058   2.227   5.729   1.186
 8387SOL     OW26059   2.189   1.455   1.733
 8387SOL    HW126060   2.116   1.484   1.672
 8387SOL    HW226061   2.267   1.424   1.678
 8388SOL     OW26062   1.332   0.363   1.044
 8388SOL    HW126063   1.353   0.428   0.971
 8388SOL    HW226064   1.270   0.293   1.009
 8389SOL     OW26065   1.286   3.373   4.183
 8389SOL    HW126066   1.291   3.472   4.170
 8389SOL    HW226067   1.325   3.350   4.273
 8390SOL     OW26068   3.498   0.015   6.584
 8390SOL    HW126069   3.482   0.081   6.657
 8390SOL    HW226070   3.508   0.064   6.497
 8391SOL     OW26071   5.152   5.188   0.543
 8391SOL    HW126072   5.080   5.171   0.610
 8391SOL    HW226073   5.112   5.192   0.451
 8392SOL     OW26074   6.419   5.415   5.426
 8392SOL    HW126075   6.444   5.446   5.335
 8392SOL    HW226076   6.501   5.400   5.480
 8393SOL     OW26077   0.263   0.503   3.893
 8393SOL    HW126078   0.247   0.436   3.821
 8393SOL    HW226079   0.348   0.552   3.875
 8394SOL     OW26080   0.673   1.639   2.381
 8394SOL    HW126081   0.729   1.699   2.439
 8394SOL    HW226082   0.596   1.691   2.345
 8395SOL     OW26083   0.946   6.599   3.778
 8395SOL    HW126084   1.007   6.658   3.831
 8395SOL    HW226085   0.986   6.581   3.688
 8396SOL     OW26086   4.462   4.433   2.296
 8396SOL    HW126087   4.458   4.493   2.216
 8396SOL    HW226088   4.451   4.338   2.268
 8397SOL     OW26089   2.297   6.923   2.624
 8397SOL    HW126090   2.324   7.018   2.612
 8397SOL    HW226091   2.218   6.903   2.566
 8398SOL     OW26092   3.381   1.637   6.876
 8398SOL    HW126093   3.297   1.686   6.899
 8398SOL    HW226094   3.459   1.699   6.888
 8399SOL     OW26095   6.554   6.448   7.012
 8399SOL    HW126096   6.527   6.406   0.076
 8399SOL    HW226097   6.593   6.378   6.953
 8400SOL     OW26098   1.048   0.703   3.253
 8400SOL    HW126099   0.948   0.713   3.246
 8400SOL    HW226100   1.079   0.739   3.341
 8401SOL     OW26101   4.432   3.028   5.572
 8401SOL    HW126102   4.506   2.984   5.624
 8401SOL    HW226103   4.357   3.050   5.633
 8402SOL     OW26104   3.183   1.769   5.555
 8402SOL    HW126105   3.207   1.851   5.608
 8402SOL    HW226106   3.229   1.689   5.594
 8403SOL     OW26107   0.459   1.398   3.304
 8403SOL    HW126108   0.476   1.450   3.388
 8403SOL    HW226109   0.542   1.395   3.249
 8404SOL     OW26110   5.722   6.554   6.618
 8404SOL    HW126111   5.623   6.560   6.601
 8404SOL    HW226112   5.741   6.472   6.671
 8405SOL     OW26113   1.885   1.605   0.069
 8405SOL    HW126114   1.897   1.634   6.997
 8405SOL    HW226115   1.849   1.511   0.070
 8406SOL     OW26116   3.928   0.814   0.963
 8406SOL    HW126117   3.850   0.823   0.900
 8406SOL    HW226118   4.013   0.815   0.911
 8407SOL     OW26119   5.667   5.647   4.318
 8407SOL    HW126120   5.689   5.568   4.261
 8407SOL    HW226121   5.568   5.663   4.316
 8408SOL     OW26122   4.686   1.333   3.200
 8408SOL    HW126123   4.624   1.277   3.256
 8408SOL    HW226124   4.733   1.399   3.258
 8409SOL     OW26125   6.411   2.587   3.844
 8409SOL    HW126126   6.461   2.501   3.838
 8409SOL    HW226127   6.410   2.619   3.939
 8410SOL     OW26128   4.287   0.909   1.761
 8410SOL    HW126129   4.210   0.963   1.795
 8410SOL    HW226130   4.340   0.964   1.696
 8411SOL     OW26131   1.722   5.344   4.034
 8411SOL    HW126132   1.729   5.374   4.129
 8411SOL    HW226133   1.738   5.245   4.029
 8412SOL     OW26134   3.921   1.763   1.618
 8412SOL    HW126135   3.948   1.769   1.522
 8412SOL    HW226136   3.978   1.697   1.665
 8413SOL     OW26137   4.865   4.538   0.327
 8413SOL    HW126138   4.772   4.570   0.345
 8413SOL    HW226139   4.901   4.585   0.246
 8414SOL     OW26140   3.709   0.235   1.685
 8414SOL    HW126141   3.765   0.311   1.717
 8414SOL    HW226142   3.764   0.177   1.625
 8415SOL     OW26143   0.582   4.957   3.933
 8415SOL    HW126144   0.590   4.998   3.842
 8415SOL    HW226145   0.653   4.994   3.993
 8416SOL     OW26146   4.960   4.908   3.308
 8416SOL    HW126147   5.009   4.835   3.357
 8416SOL    HW226148   4.968   4.994   3.359
 8417SOL     OW26149   1.443   5.803   5.374
 8417SOL    HW126150   1.499   5.856   5.438
 8417SOL    HW226151   1.408   5.863   5.303
 8418SOL     OW26152   5.756   4.999   1.692
 8418SOL    HW126153   5.713   4.934   1.754
 8418SOL    HW226154   5.777   4.954   1.606
 8419SOL     OW26155   4.571   0.904   1.949
 8419SOL    HW126156   4.581   0.805   1.937
 8419SOL    HW226157   4.499   0.922   2.016
 8420SOL     OW26158   3.630   6.495   1.023
 8420SOL    HW126159   3.580   6.450   0.950
 8420SOL    HW226160   3.679   6.574   0.987
 8421SOL     OW26161   3.250   6.725   1.423
 8421SOL    HW126162   3.345   6.731   1.394
 8421SOL    HW226163   3.244   6.740   1.522
 8422SOL     OW26164   4.818   5.850   1.282
 8422SOL    HW126165   4.741   5.806   1.328
 8422SOL    HW226166   4.820   5.947   1.307
 8423SOL     OW26167   4.073   3.758   6.376
 8423SOL    HW126168   4.054   3.853   6.400
 8423SOL    HW226169   4.010   3.729   6.304
 8424SOL     OW26170   2.530   2.495   3.102
 8424SOL    HW126171   2.541   2.451   3.013
 8424SOL    HW226172   2.581   2.443   3.171
 8425SOL     OW26173   6.622   5.510   1.100
 8425SOL    HW126174   6.679   5.586   1.070
 8425SOL    HW226175   6.669   5.423   1.082
 8426SOL     OW26176   3.919   3.007   4.264
 8426SOL    HW126177   3.967   3.092   4.239
 8426SOL    HW226178   3.980   2.951   4.320
 8427SOL     OW26179   1.359   4.264   5.623
 8427SOL    HW126180   1.396   4.205   5.694
 8427SOL    HW226181   1.372   4.360   5.649
 8428SOL     OW26182   6.592   4.765   1.828
 8428SOL    HW126183   6.628   4.716   1.748
 8428SOL    HW226184   6.664   4.772   1.898
 8429SOL     OW26185   2.069   4.401   4.334
 8429SOL    HW126186   2.167   4.411   4.314
 8429SOL    HW226187   2.046   4.304   4.338
 8430SOL     OW26188   4.040   5.223   3.194
 8430SOL    HW126189   4.135   5.194   3.200
 8430SOL    HW226190   4.035   5.323   3.194
 8431SOL     OW26191   2.174   5.234   1.425
 8431SOL    HW126192   2.269   5.202   1.423
 8431SOL    HW226193   2.115   5.159   1.454
 8432SOL     OW26194   4.540   5.581   5.988
 8432SOL    HW126195   4.489   5.505   5.949
 8432SOL    HW226196   4.610   5.612   5.923
 8433SOL     OW26197   6.936   2.592   6.359
 8433SOL    HW126198   0.009   2.571   6.375
 8433SOL    HW226199   6.893   2.618   6.445
 8434SOL     OW26200   2.810   0.379   4.769
 8434SOL    HW126201   2.859   0.311   4.715
 8434SOL    HW226202   2.828   0.364   4.866
 8435SOL     OW26203   4.920   1.936   1.432
 8435SOL    HW126204   4.900   1.980   1.345
 8435SOL    HW226205   4.996   1.872   1.419
 8436SOL     OW26206   3.516   6.673   3.972
 8436SOL    HW126207   3.574   6.605   3.927
 8436SOL    HW226208   3.462   6.721   3.903
 8437SOL     OW26209   1.871   7.002   2.634
 8437SOL    HW126210   1.903   6.993   2.729
 8437SOL    HW226211   1.795   0.044   2.631
 8438SOL     OW26212   3.049   4.967   2.387
 8438SOL    HW126213   3.005   4.882   2.415
 8438SOL    HW226214   3.050   4.973   2.288
 8439SOL     OW26215   6.742   5.854   1.733
 8439SOL    HW126216   6.645   5.875   1.719
 8439SOL    HW226217   6.795   5.883   1.654
 8440SOL     OW26218   0.522   0.685   2.910
 8440SOL    HW126219   0.609   0.638   2.899
 8440SOL    HW226220   0.447   0.620   2.896
 8441SOL     OW26221   6.606   6.308   0.466
 8441SOL    HW126222   6.677   6.281   0.402
 8441SOL    HW226223   6.553   6.227   0.493
 8442SOL     OW26224   3.488   3.264   6.126
 8442SOL    HW126225   3.519   3.357   6.143
 8442SOL    HW226226   3.566   3.202   6.129
 8443SOL     OW26227   1.397   6.588   2.868
 8443SOL    HW126228   1.462   6.656   2.900
 8443SOL    HW226229   1.396   6.511   2.932
 8444SOL     OW26230   3.088   6.356   3.883
 8444SOL    HW126231   3.028   6.361   3.803
 8444SOL    HW226232   3.175   6.399   3.861
 8445SOL     OW26233   3.361   5.146   2.181
 8445SOL    HW126234   3.353   5.055   2.222
 8445SOL    HW226235   3.273   5.193   2.186
 8446SOL     OW26236   4.911   5.375   1.773
 8446SOL    HW126237   4.813   5.355   1.781
 8446SOL    HW226238   4.923   5.463   1.728
 8447SOL     OW26239   5.633   2.259   2.057
 8447SOL    HW126240   5.534   2.249   2.051
 8447SOL    HW226241   5.658   2.353   2.034
 8448SOL     OW26242   6.567   3.627   5.137
 8448SOL    HW126243   6.648   3.617   5.079
 8448SOL    HW226244   6.594   3.668   5.224
 8449SOL     OW26245   0.099   2.784   4.481
 8449SOL    HW126246   0.172   2.742   4.426
 8449SOL    HW226247   0.051   2.852   4.425
 8450SOL     OW26248   2.034   6.087   2.323
 8450SOL    HW126249   1.948   6.089   2.273
 8450SOL    HW226250   2.110   6.105   2.261
 8451SOL     OW26251   4.048   2.939   0.167
 8451SOL    HW126252   4.146   2.920   0.171
 8451SOL    HW226253   4.000   2.860   0.128
 8452SOL     OW26254   0.261   0.413   1.371
 8452SOL    HW126255   0.258   0.318   1.404
 8452SOL    HW226256   0.171   0.456   1.386
 8453SOL     OW26257   6.071   4.358   6.187
 8453SOL    HW126258   6.113   4.431   6.240
 8453SOL    HW226259   5.978   4.385   6.161
 8454SOL     OW26260   1.190   5.747   1.570
 8454SOL    HW126261   1.096   5.716   1.586
 8454SOL    HW226262   1.199   5.842   1.600
 8455SOL     OW26263   5.027   2.287   0.503
 8455SOL    HW126264   5.082   2.212   0.539
 8455SOL    HW226265   5.077   2.373   0.515
 8456SOL     OW26266   5.364   4.552   3.461
 8456SOL    HW126267   5.378   4.638   3.510
 8456SOL    HW226268   5.396   4.561   3.367
 8457SOL     OW26269   6.510   6.413   5.942
 8457SOL    HW126270   6.482   6.364   6.025
 8457SOL    HW226271   6.547   6.503   5.967
 8458SOL     OW26272   2.361   1.145   6.757
 8458SOL    HW126273   2.387   1.104   6.845
 8458SOL    HW226274   2.267   1.177   6.762
 8459SOL     OW26275   3.138   6.603   0.886
 8459SOL    HW126276   3.087   6.593   0.972
 8459SOL    HW226277   3.203   6.528   0.877
 8460SOL     OW26278   4.616   2.230   5.845
 8460SOL    HW126279   4.533   2.211   5.898
 8460SOL    HW226280   4.622   2.328   5.828
 8461SOL     OW26281   1.103   4.004   2.232
 8461SOL    HW126282   1.016   4.003   2.281
 8461SOL    HW226283   1.152   4.089   2.252
 8462SOL     OW26284   3.045   2.490   0.636
 8462SOL    HW126285   2.999   2.502   0.725
 8462SOL    HW226286   3.070   2.579   0.599
 8463SOL     OW26287   6.967   1.409   0.364
 8463SOL    HW126288   6.899   1.343   0.331
 8463SOL    HW226289   0.027   1.360   0.389
 8464SOL     OW26290   6.934   4.348   4.913
 8464SOL    HW126291   6.953   4.445   4.899
 8464SOL    HW226292   6.837   4.330   4.895
 8465SOL     OW26293   3.271   2.138   0.696
 8465SOL    HW126294   3.335   2.102   0.628
 8465SOL    HW226295   3.183   2.091   0.687
 8466SOL     OW26296   6.090   6.692   4.793
 8466SOL    HW126297   6.035   6.615   4.824
 8466SOL    HW226298   6.035   6.776   4.799
 8467SOL     OW26299   4.291   1.259   1.163
 8467SOL    HW126300   4.318   1.338   1.217
 8467SOL    HW226301   4.195   1.267   1.137
 8468SOL     OW26302   5.901   3.287   0.185
 8468SOL    HW126303   5.802   3.283   0.173
 8468SOL    HW226304   5.932   3.209   0.239
 8469SOL     OW26305   2.731   2.052   5.489
 8469SOL    HW126306   2.798   2.116   5.525
 8469SOL    HW226307   2.692   1.998   5.564
 8470SOL     OW26308   1.455   4.553   0.214
 8470SOL    HW126309   1.484   4.645   0.187
 8470SOL    HW226310   1.376   4.559   0.275
 8471SOL     OW26311   3.948   0.387   5.576
 8471SOL    HW126312   4.013   0.418   5.645
 8471SOL    HW226313   3.997   0.362   5.492
 8472SOL     OW26314   5.426   0.895   5.285
 8472SOL    HW126315   5.488   0.971   5.304
 8472SOL    HW226316   5.453   0.816   5.342
 8473SOL     OW26317   5.707   5.594   0.261
 8473SOL    HW126318   5.671   5.594   0.354
 8473SOL    HW226319   5.787   5.655   0.256
 8474SOL     OW26320   3.704   4.146   2.168
 8474SOL    HW126321   3.737   4.237   2.148
 8474SOL    HW226322   3.621   4.128   2.115
 8475SOL     OW26323   6.862   2.923   2.675
 8475SOL    HW126324   6.793   2.986   2.638
 8475SOL    HW226325   6.948   2.973   2.688
 8476SOL     OW26326   6.738   1.963   1.637
 8476SOL    HW126327   6.716   2.057   1.662
 8476SOL    HW226328   6.708   1.945   1.543
 8477SOL     OW26329   4.133   6.662   2.535
 8477SOL    HW126330   4.184   6.723   2.595
 8477SOL    HW226331   4.166   6.672   2.441
 8478SOL     OW26332   0.575   0.889   5.534
 8478SOL    HW126333   0.548   0.981   5.562
 8478SOL    HW226334   0.569   0.827   5.612
 8479SOL     OW26335   1.151   3.262   1.076
 8479SOL    HW126336   1.221   3.334   1.074
 8479SOL    HW226337   1.179   3.190   1.139
 8480SOL     OW26338   5.235   3.794   0.012
 8480SOL    HW126339   5.222   3.893   0.021
 8480SOL    HW226340   5.226   3.752   0.102
 8481SOL     OW26341   5.034   2.201   4.904
 8481SOL    HW126342   4.954   2.159   4.862
 8481SOL    HW226343   5.043   2.168   4.999
 8482SOL     OW26344   5.141   0.319   2.187
 8482SOL    HW126345   5.127   0.373   2.104
 8482SOL    HW226346   5.164   0.379   2.263
 8483SOL     OW26347   3.031   5.895   3.261
 8483SOL    HW126348   2.965   5.885   3.187
 8483SOL    HW226349   2.984   5.893   3.349
 8484SOL     OW26350   6.894   6.253   4.489
 8484SOL    HW126351   6.922   6.167   4.531
 8484SOL    HW226352   6.901   6.327   4.557
 8485SOL     OW26353   3.794   2.778   0.542
 8485SOL    HW126354   3.784   2.695   0.488
 8485SOL    HW226355   3.758   2.856   0.490
 8486SOL     OW26356   1.607   0.750   2.879
 8486SOL    HW126357   1.674   0.740   2.952
 8486SOL    HW226358   1.574   0.845   2.876
 8487SOL     OW26359   5.762   2.170   6.084
 8487SOL    HW126360   5.814   2.128   6.159
 8487SOL    HW226361   5.818   2.240   6.040
 8488SOL     OW26362   5.175   6.154   2.357
 8488SOL    HW126363   5.090   6.200   2.332
 8488SOL    HW226364   5.249   6.189   2.298
 8489SOL     OW26365   6.529   0.978   1.547
 8489SOL    HW126366   6.525   0.887   1.506
 8489SOL    HW226367   6.589   0.975   1.627
 8490SOL     OW26368   2.984   6.670   5.756
 8490SOL    HW126369   2.916   6.606   5.721
 8490SOL    HW226370   2.965   6.690   5.852
 8491SOL     OW26371   1.792   5.950   2.615
 8491SOL    HW126372   1.768   5.990   2.704
 8491SOL    HW226373   1.890   5.932   2.612
 8492SOL     OW26374   5.733   4.956   4.017
 8492SOL    HW126375   5.780   5.014   3.950
 8492SOL    HW226376   5.780   4.868   4.024
 8493SOL     OW26377   1.602   2.045   6.889
 8493SOL    HW126378   1.638   1.962   6.845
 8493SOL    HW226379   1.678   2.105   6.915
 8494SOL     OW26380   4.237   5.083   2.520
 8494SOL    HW126381   4.198   5.131   2.442
 8494SOL    HW226382   4.177   5.095   2.600
 8495SOL     OW26383   0.445   5.080   0.851
 8495SOL    HW126384   0.445   5.146   0.776
 8495SOL    HW226385   0.437   5.128   0.938
 8496SOL     OW26386   6.615   0.931   2.726
 8496SOL    HW126387   6.606   1.017   2.777
 8496SOL    HW226388   6.671   0.867   2.778
 8497SOL     OW26389   0.172   1.078   3.115
 8497SOL    HW126390   0.224   1.057   3.033
 8497SOL    HW226391   0.187   1.006   3.183
 8498SOL     OW26392   6.571   6.756   3.130
 8498SOL    HW126393   6.482   6.769   3.086
 8498SOL    HW226394   6.633   6.708   3.067
 8499SOL     OW26395   0.927   3.943   6.762
 8499SOL    HW126396   0.999   3.875   6.744
 8499SOL    HW226397   0.959   4.033   6.735
 8500SOL     OW26398   1.678   6.621   5.923
 8500SOL    HW126399   1.658   6.615   5.825
 8500SOL    HW226400   1.594   6.643   5.972
 8501SOL     OW26401   0.470   2.586   6.523
 8501SOL    HW126402   0.568   2.570   6.507
 8501SOL    HW226403   0.456   2.614   6.618
 8502SOL     OW26404   0.228   3.141   1.636
 8502SOL    HW126405   0.208   3.079   1.561
 8502SOL    HW226406   0.250   3.089   1.718
 8503SOL     OW26407   0.080   5.716   5.198
 8503SOL    HW126408   0.116   5.641   5.142
 8503SOL    HW226409   0.130   5.799   5.177
 8504SOL     OW26410   1.847   5.735   2.182
 8504SOL    HW126411   1.784   5.752   2.106
 8504SOL    HW226412   1.806   5.768   2.267
 8505SOL     OW26413   6.282   3.463   2.831
 8505SOL    HW126414   6.216   3.407   2.781
 8505SOL    HW226415   6.371   3.459   2.785
 8506SOL     OW26416   1.323   0.812   6.644
 8506SOL    HW126417   1.412   0.771   6.663
 8506SOL    HW226418   1.260   0.741   6.612
 8507SOL     OW26419   3.896   6.628   4.820
 8507SOL    HW126420   3.815   6.680   4.793
 8507SOL    HW226421   3.873   6.567   4.895
 8508SOL     OW26422   4.135   1.741   5.347
 8508SOL    HW126423   4.175   1.651   5.368
 8508SOL    HW226424   4.187   1.783   5.272
 8509SOL     OW26425   5.487   0.238   3.101
 8509SOL    HW126426   5.493   0.323   3.049
 8509SOL    HW226427   5.566   0.231   3.162
 8510SOL     OW26428   5.535   3.829   2.585
 8510SOL    HW126429   5.507   3.773   2.506
 8510SOL    HW226430   5.621   3.876   2.564
 8511SOL     OW26431   6.169   2.809   2.750
 8511SOL    HW126432   6.113   2.803   2.668
 8511SOL    HW226433   6.110   2.812   2.831
 8512SOL     OW26434   2.862   0.188   2.608
 8512SOL    HW126435   2.931   0.259   2.590
 8512SOL    HW226436   2.773   0.232   2.623
 8513SOL     OW26437   0.198   5.385   0.954
 8513SOL    HW126438   0.150   5.359   0.870
 8513SOL    HW226439   0.135   5.432   1.016
 8514SOL     OW26440   2.595   0.659   3.426
 8514SOL    HW126441   2.623   0.612   3.510
 8514SOL    HW226442   2.505   0.627   3.398
 8515SOL     OW26443   4.775   2.270   0.922
 8515SOL    HW126444   4.778   2.303   0.828
 8515SOL    HW226445   4.702   2.202   0.931
 8516SOL     OW26446   0.104   2.043   2.255
 8516SOL    HW126447   0.196   2.045   2.216
 8516SOL    HW226448   0.093   2.118   2.320
 8517SOL     OW26449   0.832   2.804   5.725
 8517SOL    HW126450   0.740   2.780   5.694
 8517SOL    HW226451   0.899   2.780   5.655
 8518SOL     OW26452   4.546   4.183   0.176
 8518SOL    HW126453   4.505   4.273   0.190
 8518SOL    HW226454   4.474   4.113   0.176
 8519SOL     OW26455   2.045   5.543   2.217
 8519SOL    HW126456   1.999   5.626   2.186
 8519SOL    HW226457   2.138   5.566   2.246
 8520SOL     OW26458   3.724   1.193   0.387
 8520SOL    HW126459   3.804   1.232   0.434
 8520SOL    HW226460   3.651   1.178   0.453
 8521SOL     OW26461   1.963   5.802   5.727
 8521SOL    HW126462   1.871   5.774   5.754
 8521SOL    HW226463   2.029   5.770   5.794
 8522SOL     OW26464   1.055   5.591   2.367
 8522SOL    HW126465   1.037   5.644   2.450
 8522SOL    HW226466   1.045   5.651   2.287
 8523SOL     OW26467   2.853   6.920   6.665
 8523SOL    HW126468   2.813   6.927   6.757
 8523SOL    HW226469   2.833   6.830   6.627
 8524SOL     OW26470   1.183   2.781   4.471
 8524SOL    HW126471   1.181   2.841   4.551
 8524SOL    HW226472   1.273   2.737   4.465
 8525SOL     OW26473   6.096   3.960   3.588
 8525SOL    HW126474   6.140   3.873   3.564
 8525SOL    HW226475   6.030   3.944   3.662
 8526SOL     OW26476   2.429   3.840   1.209
 8526SOL    HW126477   2.333   3.851   1.181
 8526SOL    HW226478   2.485   3.910   1.165
 8527SOL     OW26479   3.823   0.038   4.888
 8527SOL    HW126480   3.867   0.115   4.934
 8527SOL    HW226481   3.866   0.022   4.800
 8528SOL     OW26482   5.487   3.270   6.072
 8528SOL    HW126483   5.461   3.183   6.114
 8528SOL    HW226484   5.586   3.273   6.060
 8529SOL     OW26485   0.820   0.191   0.175
 8529SOL    HW126486   0.901   0.181   0.232
 8529SOL    HW226487   0.811   0.286   0.146
 8530SOL     OW26488   0.890   5.033   5.693
 8530SOL    HW126489   0.906   5.042   5.791
 8530SOL    HW226490   0.942   4.956   5.658
 8531SOL     OW26491   5.598   4.321   3.087
 8531SOL    HW126492   5.507   4.345   3.123
 8531SOL    HW226493   5.661   4.397   3.104
 8532SOL     OW26494   4.401   4.774   5.038
 8532SOL    HW126495   4.372   4.824   5.120
 8532SOL    HW226496   4.373   4.678   5.046
 8533SOL     OW26497   1.832   0.834   5.334
 8533SOL    HW126498   1.832   0.741   5.299
 8533SOL    HW226499   1.821   0.898   5.259
 8534SOL     OW26500   0.093   4.557   2.851
 8534SOL    HW126501   0.115   4.625   2.781
 8534SOL    HW226502   0.178   4.521   2.891
 8535SOL     OW26503   0.768   2.152   4.843
 8535SOL    HW126504   0.670   2.131   4.842
 8535SOL    HW226505   0.786   2.229   4.781
 8536SOL     OW26506   6.350   2.327   5.068
 8536SOL    HW126507   6.407   2.397   5.111
 8536SOL    HW226508   6.271   2.371   5.025
 8537SOL     OW26509   6.604   1.655   0.978
 8537SOL    HW126510   6.622   1.579   1.041
 8537SOL    HW226511   6.551   1.725   1.025
 8538SOL     OW26512   0.885   0.450   4.997
 8538SOL    HW126513   0.849   0.513   4.928
 8538SOL    HW226514   0.978   0.424   4.973
 8539SOL     OW26515   6.099   2.198   2.654
 8539SOL    HW126516   6.139   2.114   2.690
 8539SOL    HW226517   6.068   2.255   2.730
 8540SOL     OW26518   3.719   1.715   0.391
 8540SOL    HW126519   3.667   1.642   0.436
 8540SOL    HW226520   3.729   1.695   0.294
 8541SOL     OW26521   2.579   1.634   5.353
 8541SOL    HW126522   2.660   1.686   5.326
 8541SOL    HW226523   2.598   1.586   5.439
 8542SOL     OW26524   3.427   4.647   6.685
 8542SOL    HW126525   3.480   4.585   6.627
 8542SOL    HW226526   3.341   4.602   6.711
 8543SOL     OW26527   2.904   1.716   5.562
 8543SOL    HW126528   3.004   1.719   5.574
 8543SOL    HW226529   2.881   1.729   5.466
 8544SOL     OW26530   5.204   3.048   5.150
 8544SOL    HW126531   5.218   3.115   5.223
 8544SOL    HW226532   5.293   3.020   5.113
 8545SOL     OW26533   3.140   6.623   4.708
 8545SOL    HW126534   3.090   6.540   4.734
 8545SOL    HW226535   3.076   6.692   4.678
 8546SOL     OW26536   5.464   0.325   1.277
 8546SOL    HW126537   5.514   0.343   1.192
 8546SOL    HW226538   5.447   0.227   1.286
 8547SOL     OW26539   6.463   0.919   5.139
 8547SOL    HW126540   6.395   0.989   5.164
 8547SOL    HW226541   6.543   0.964   5.099
 8548SOL     OW26542   0.577   2.850   5.391
 8548SOL    HW126543   0.619   2.761   5.411
 8548SOL    HW226544   0.634   2.923   5.427
 8549SOL     OW26545   0.920   2.284   4.250
 8549SOL    HW126546   0.969   2.371   4.260
 8549SOL    HW226547   0.955   2.218   4.316
 8550SOL     OW26548   1.043   3.650   6.269
 8550SOL    HW126549   1.055   3.675   6.173
 8550SOL    HW226550   1.110   3.580   6.294
 8551SOL     OW26551   2.335   2.534   6.578
 8551SOL    HW126552   2.432   2.557   6.589
 8551SOL    HW226553   2.286   2.554   6.663
 8552SOL     OW26554   3.076   0.511   2.077
 8552SOL    HW126555   3.041   0.419   2.058
 8552SOL    HW226556   3.072   0.566   1.994
 8553SOL     OW26557   4.238   4.223   0.329
 8553SOL    HW126558   4.174   4.159   0.286
 8553SOL    HW226559   4.292   4.174   0.398
 8554SOL     OW26560   0.627   6.479   1.592
 8554SOL    HW126561   0.630   6.379   1.586
 8554SOL    HW226562   0.611   6.506   1.687
 8555SOL     OW26563   4.338   1.603   3.279
 8555SOL    HW126564   4.306   1.509   3.288
 8555SOL    HW226565   4.331   1.649   3.368
 8556SOL     OW26566   1.717   6.278   5.629
 8556SOL    HW126567   1.774   6.263   5.548
 8556SOL    HW226568   1.623   6.253   5.609
 8557SOL     OW26569   6.561   1.366   1.082
 8557SOL    HW126570   6.539   1.285   1.137
 8557SOL    HW226571   6.521   1.356   0.991
 8558SOL     OW26572   2.462   4.845   3.062
 8558SOL    HW126573   2.450   4.860   3.160
 8558SOL    HW226574   2.383   4.794   3.026
 8559SOL     OW26575   1.103   6.466   2.630
 8559SOL    HW126576   1.181   6.528   2.639
 8559SOL    HW226577   1.124   6.396   2.562
 8560SOL     OW26578   1.359   5.545   1.545
 8560SOL    HW126579   1.293   5.620   1.549
 8560SOL    HW226580   1.371   5.506   1.636
 8561SOL     OW26581   4.169   0.110   3.353
 8561SOL    HW126582   4.229   0.186   3.327
 8561SOL    HW226583   4.172   0.040   3.282
 8562SOL     OW26584   4.109   0.222   6.903
 8562SOL    HW126585   4.104   0.301   6.843
 8562SOL    HW226586   4.075   0.246   6.994
 8563SOL     OW26587   0.769   5.483   2.256
 8563SOL    HW126588   0.756   5.386   2.273
 8563SOL    HW226589   0.812   5.525   2.336
 8564SOL     OW26590   3.572   6.141   6.118
 8564SOL    HW126591   3.543   6.155   6.023
 8564SOL    HW226592   3.668   6.164   6.127
 8565SOL     OW26593   4.004   5.234   1.757
 8565SOL    HW126594   4.080   5.201   1.701
 8565SOL    HW226595   3.917   5.211   1.714
 8566SOL     OW26596   2.426   0.891   2.229
 8566SOL    HW126597   2.520   0.878   2.260
 8566SOL    HW226598   2.365   0.895   2.308
 8567SOL     OW26599   1.746   1.680   2.020
 8567SOL    HW126600   1.696   1.615   2.077
 8567SOL    HW226601   1.837   1.643   1.999
 8568SOL     OW26602   6.524   1.344   0.771
 8568SOL    HW126603   6.520   1.432   0.724
 8568SOL    HW226604   6.556   1.274   0.708
 8569SOL     OW26605   5.151   1.877   6.124
 8569SOL    HW126606   5.120   1.825   6.044
 8569SOL    HW226607   5.191   1.815   6.191
 8570SOL     OW26608   2.013   1.805   4.239
 8570SOL    HW126609   2.065   1.812   4.154
 8570SOL    HW226610   2.063   1.852   4.312
 8571SOL     OW26611   1.058   0.454   4.703
 8571SOL    HW126612   1.091   0.392   4.774
 8571SOL    HW226613   0.998   0.523   4.744
 8572SOL     OW26614   1.835   4.003   5.740
 8572SOL    HW126615   1.754   4.026   5.686
 8572SOL    HW226616   1.907   3.970   5.680
 8573SOL     OW26617   2.715   6.251   6.723
 8573SOL    HW126618   2.794   6.313   6.728
 8573SOL    HW226619   2.747   6.157   6.715
 8574SOL     OW26620   6.263   6.788   5.899
 8574SOL    HW126621   6.277   6.752   5.991
 8574SOL    HW226622   6.245   6.713   5.836
 8575SOL     OW26623   3.555   0.807   2.729
 8575SOL    HW126624   3.586   0.847   2.642
 8575SOL    HW226625   3.470   0.758   2.714
 8576SOL     OW26626   2.009   4.672   4.197
 8576SOL    HW126627   2.022   4.744   4.266
 8576SOL    HW226628   2.006   4.583   4.242
 8577SOL     OW26629   1.445   0.495   5.920
 8577SOL    HW126630   1.381   0.567   5.891
 8577SOL    HW226631   1.495   0.525   6.001
 8578SOL     OW26632   6.108   5.343   6.100
 8578SOL    HW126633   6.088   5.402   6.021
 8578SOL    HW226634   6.207   5.342   6.117
 8579SOL     OW26635   1.628   6.125   2.474
 8579SOL    HW126636   1.699   6.067   2.514
 8579SOL    HW226637   1.607   6.093   2.381
 8580SOL     OW26638   1.862   6.451   0.844
 8580SOL    HW126639   1.806   6.423   0.766
 8580SOL    HW226640   1.958   6.431   0.825
 8581SOL     OW26641   3.983   4.717   1.726
 8581SOL    HW126642   4.066   4.699   1.779
 8581SOL    HW226643   3.948   4.631   1.689
 8582SOL     OW26644   4.891   4.532   5.300
 8582SOL    HW126645   4.984   4.548   5.267
 8582SOL    HW226646   4.885   4.441   5.341
 8583SOL     OW26647   3.199   6.693   2.744
 8583SOL    HW126648   3.219   6.632   2.820
 8583SOL    HW226649   3.151   6.774   2.778
 8584SOL     OW26650   7.005   0.329   5.350
 8584SOL    HW126651   6.945   0.253   5.375
 8584SOL    HW226652   0.076   0.307   5.375
 8585SOL     OW26653   6.226   1.642   1.015
 8585SOL    HW126654   6.285   1.669   0.939
 8585SOL    HW226655   6.190   1.724   1.059
 8586SOL     OW26656   4.574   6.603   1.177
 8586SOL    HW126657   4.608   6.518   1.138
 8586SOL    HW226658   4.476   6.597   1.191
 8587SOL     OW26659   1.166   1.546   4.939
 8587SOL    HW126660   1.232   1.606   4.893
 8587SOL    HW226661   1.212   1.495   5.012
 8588SOL     OW26662   4.673   1.375   0.373
 8588SOL    HW126663   4.750   1.389   0.436
 8588SOL    HW226664   4.587   1.384   0.424
 8589SOL     OW26665   6.703   2.697   5.348
 8589SOL    HW126666   6.688   2.796   5.349
 8589SOL    HW226667   6.633   2.653   5.291
 8590SOL     OW26668   0.367   0.778   2.274
 8590SOL    HW126669   0.341   0.682   2.264
 8590SOL    HW226670   0.444   0.785   2.338
 8591SOL     OW26671   6.800   4.512   0.365
 8591SOL    HW126672   6.775   4.420   0.335
 8591SOL    HW226673   6.898   4.525   0.352
 8592SOL     OW26674   0.384   2.777   0.183
 8592SOL    HW126675   0.440   2.749   0.106
 8592SOL    HW226676   0.305   2.716   0.191
 8593SOL     OW26677   3.556   0.945   6.425
 8593SOL    HW126678   3.475   0.899   6.391
 8593SOL    HW226679   3.530   1.028   6.474
 8594SOL     OW26680   5.945   2.367   5.955
 8594SOL    HW126681   5.991   2.376   6.043
 8594SOL    HW226682   5.985   2.432   5.890
 8595SOL     OW26683   6.367   1.253   3.633
 8595SOL    HW126684   6.323   1.259   3.723
 8595SOL    HW226685   6.419   1.168   3.628
 8596SOL     OW26686   1.564   4.677   2.751
 8596SOL    HW126687   1.597   4.655   2.659
 8596SOL    HW226688   1.636   4.657   2.817
 8597SOL     OW26689   5.568   2.007   0.682
 8597SOL    HW126690   5.620   1.962   0.755
 8597SOL    HW226691   5.555   2.104   0.705
 8598SOL     OW26692   5.244   0.306   5.522
 8598SOL    HW126693   5.190   0.364   5.583
 8598SOL    HW226694   5.341   0.327   5.533
 8599SOL     OW26695   1.048   2.509   4.359
 8599SOL    HW126696   1.134   2.556   4.339
 8599SOL    HW226697   0.973   2.576   4.360
 8600SOL     OW26698   5.494   3.646   0.475
 8600SOL    HW126699   5.521   3.644   0.379
 8600SOL    HW226700   5.499   3.554   0.514
 8601SOL     OW26701   6.851   1.816   3.492
 8601SOL    HW126702   6.860   1.724   3.455
 8601SOL    HW226703   6.781   1.866   3.441
 8602SOL     OW26704   2.663   6.465   3.229
 8602SOL    HW126705   2.704   6.441   3.141
 8602SOL    HW226706   2.639   6.562   3.230
 8603SOL     OW26707   5.454   0.101   6.762
 8603SOL    HW126708   5.394   0.086   6.684
 8603SOL    HW226709   5.402   0.085   6.847
 8604SOL     OW26710   1.096   2.685   6.253
 8604SOL    HW126711   1.041   2.755   6.297
 8604SOL    HW226712   1.126   2.717   6.164
 8605SOL     OW26713   0.969   4.899   3.685
 8605SOL    HW126714   0.884   4.946   3.707
 8605SOL    HW226715   1.022   4.884   3.768
 8606SOL     OW26716   2.754   2.073   0.338
 8606SOL    HW126717   2.660   2.102   0.321
 8606SOL    HW226718   2.758   1.973   0.340
 8607SOL     OW26719   2.725   4.426   6.933
 8607SOL    HW126720   2.791   4.426   6.857
 8607SOL    HW226721   2.710   4.520   6.964
 8608SOL     OW26722   2.134   4.913   2.180
 8608SOL    HW126723   2.132   4.870   2.090
 8608SOL    HW226724   2.213   4.879   2.231
 8609SOL     OW26725   4.754   0.520   3.988
 8609SOL    HW126726   4.753   0.592   4.057
 8609SOL    HW226727   4.836   0.463   4.000
 8610SOL     OW26728   6.962   0.320   3.066
 8610SOL    HW126729   6.932   0.239   3.015
 8610SOL    HW226730   6.886   0.355   3.121
 8611SOL     OW26731   2.943   1.243   4.126
 8611SOL    HW126732   2.949   1.172   4.197
 8611SOL    HW226733   2.925   1.331   4.169
 8612SOL     OW26734   2.763   3.476   1.708
 8612SOL    HW126735   2.830   3.404   1.692
 8612SOL    HW226736   2.671   3.436   1.705
 8613SOL     OW26737   3.047   2.479   1.438
 8613SOL    HW126738   3.087   2.448   1.525
 8613SOL    HW226739   3.084   2.424   1.363
 8614SOL     OW26740   1.677   2.642   3.345
 8614SOL    HW126741   1.623   2.726   3.339
 8614SOL    HW226742   1.641   2.585   3.419
 8615SOL     OW26743   4.795   2.177   5.234
 8615SOL    HW126744   4.892   2.160   5.214
 8615SOL    HW226745   4.752   2.093   5.267
 8616SOL     OW26746   2.518   4.560   1.956
 8616SOL    HW126747   2.617   4.566   1.968
 8616SOL    HW226748   2.495   4.478   1.903
 8617SOL     OW26749   5.725   1.387   3.925
 8617SOL    HW126750   5.704   1.484   3.937
 8617SOL    HW226751   5.782   1.375   3.843
 8618SOL     OW26752   6.085   4.497   1.201
 8618SOL    HW126753   6.144   4.432   1.153
 8618SOL    HW226754   6.141   4.557   1.257
 8619SOL     OW26755   4.010   5.583   3.623
 8619SOL    HW126756   4.056   5.538   3.699
 8619SOL    HW226757   3.923   5.537   3.606
 8620SOL     OW26758   1.970   0.072   4.438
 8620SOL    HW126759   1.935   0.122   4.517
 8620SOL    HW226760   1.894   0.034   4.385
 8621SOL     OW26761   4.878   3.196   2.179
 8621SOL    HW126762   4.837   3.146   2.255
 8621SOL    HW226763   4.831   3.172   2.094
 8622SOL     OW26764   5.477   4.723   1.390
 8622SOL    HW126765   5.407   4.693   1.325
 8622SOL    HW226766   5.434   4.750   1.476
 8623SOL     OW26767   0.719   3.974   4.987
 8623SOL    HW126768   0.735   3.929   4.899
 8623SOL    HW226769   0.730   4.073   4.977
 8624SOL     OW26770   3.902   3.716   5.452
 8624SOL    HW126771   3.819   3.752   5.494
 8624SOL    HW226772   3.980   3.774   5.476
 8625SOL     OW26773   4.438   0.836   5.792
 8625SOL    HW126774   4.342   0.847   5.767
 8625SOL    HW226775   4.491   0.808   5.711
 8626SOL     OW26776   3.713   3.257   6.352
 8626SOL    HW126777   3.767   3.210   6.423
 8626SOL    HW226778   3.617   3.230   6.360
 8627SOL     OW26779   1.942   1.748   2.347
 8627SOL    HW126780   2.005   1.820   2.320
 8627SOL    HW226781   1.993   1.663   2.363
 8628SOL     OW26782   6.465   6.663   6.842
 8628SOL    HW126783   6.489   6.750   6.886
 8628SOL    HW226784   6.503   6.587   6.894
 8629SOL     OW26785   1.465   6.234   5.562
 8629SOL    HW126786   1.418   6.302   5.506
 8629SOL    HW226787   1.400   6.188   5.622
 8630SOL     OW26788   4.818   3.972   4.472
 8630SOL    HW126789   4.837   3.881   4.435
 8630SOL    HW226790   4.840   4.041   4.402
 8631SOL     OW26791   1.689   6.076   6.302
 8631SOL    HW126792   1.594   6.059   6.329
 8631SOL    HW226793   1.693   6.098   6.205
 8632SOL     OW26794   4.027   4.056   5.362
 8632SOL    HW126795   4.032   4.079   5.459
 8632SOL    HW226796   3.965   4.119   5.316
 8633SOL     OW26797   5.901   3.314   5.774
 8633SOL    HW126798   5.888   3.403   5.730
 8633SOL    HW226799   5.993   3.280   5.753
 8634SOL     OW26800   5.107   4.366   0.093
 8634SOL    HW126801   5.126   4.371   0.190
 8634SOL    HW226802   5.167   4.428   0.043
 8635SOL     OW26803   5.520   2.663   0.076
 8635SOL    HW126804   5.504   2.762   0.071
 8635SOL    HW226805   5.562   2.632   7.014
 8636SOL     OW26806   4.725   5.644   0.917
 8636SOL    HW126807   4.698   5.585   0.994
 8636SOL    HW226808   4.675   5.730   0.922
 8637SOL     OW26809   1.862   1.330   6.322
 8637SOL    HW126810   1.828   1.405   6.266
 8637SOL    HW226811   1.817   1.245   6.295
 8638SOL     OW26812   4.016   2.425   5.386
 8638SOL    HW126813   4.058   2.496   5.329
 8638SOL    HW226814   4.016   2.338   5.336
 8639SOL     OW26815   4.339   3.598   6.924
 8639SOL    HW126816   4.373   3.668   6.988
 8639SOL    HW226817   4.239   3.599   6.924
 8640SOL     OW26818   4.075   3.166   0.806
 8640SOL    HW126819   4.147   3.126   0.749
 8640SOL    HW226820   4.116   3.231   0.870
 8641SOL     OW26821   3.998   4.850   4.550
 8641SOL    HW126822   3.958   4.793   4.478
 8641SOL    HW226823   3.971   4.945   4.537
 8642SOL     OW26824   0.883   0.200   3.218
 8642SOL    HW126825   0.886   0.139   3.139
 8642SOL    HW226826   0.924   0.153   3.297
 8643SOL     OW26827   2.305   0.210   0.237
 8643SOL    HW126828   2.230   0.218   0.172
 8643SOL    HW226829   2.274   0.160   0.318
 8644SOL     OW26830   6.239   2.691   6.306
 8644SOL    HW126831   6.155   2.644   6.334
 8644SOL    HW226832   6.300   2.626   6.261
 8645SOL     OW26833   4.621   4.836   1.655
 8645SOL    HW126834   4.537   4.781   1.651
 8645SOL    HW226835   4.696   4.786   1.611
 8646SOL     OW26836   0.618   2.020   6.797
 8646SOL    HW126837   0.717   2.002   6.795
 8646SOL    HW226838   0.573   1.966   6.725
 8647SOL     OW26839   2.455   5.080   0.240
 8647SOL    HW126840   2.397   5.058   0.318
 8647SOL    HW226841   2.411   5.050   0.155
 8648SOL     OW26842   6.016   6.464   0.769
 8648SOL    HW126843   5.920   6.455   0.743
 8648SOL    HW226844   6.075   6.435   0.693
 8649SOL     OW26845   5.603   6.752   0.429
 8649SOL    HW126846   5.584   6.832   0.486
 8649SOL    HW226847   5.670   6.776   0.359
 8650SOL     OW26848   1.581   6.792   4.733
 8650SOL    HW126849   1.481   6.800   4.733
 8650SOL    HW226850   1.609   6.724   4.800
 8651SOL     OW26851   3.605   1.506   0.545
 8651SOL    HW126852   3.556   1.548   0.621
 8651SOL    HW226853   3.681   1.451   0.581
 8652SOL     OW26854   1.196   5.081   3.633
 8652SOL    HW126855   1.101   5.111   3.637
 8652SOL    HW226856   1.206   5.012   3.561
 8653SOL     OW26857   6.629   1.264   5.721
 8653SOL    HW126858   6.605   1.282   5.625
 8653SOL    HW226859   6.690   1.337   5.754
 8654SOL     OW26860   0.214   4.939   0.950
 8654SOL    HW126861   0.130   4.991   0.964
 8654SOL    HW226862   0.287   5.001   0.920
 8655SOL     OW26863   5.708   0.806   4.761
 8655SOL    HW126864   5.672   0.725   4.807
 8655SOL    HW226865   5.708   0.883   4.825
 8656SOL     OW26866   5.542   0.810   2.035
 8656SOL    HW126867   5.624   0.790   1.981
 8656SOL    HW226868   5.523   0.908   2.031
 8657SOL     OW26869   5.878   5.732   6.983
 8657SOL    HW126870   5.874   5.633   6.970
 8657SOL    HW226871   5.904   5.752   0.054
 8658SOL     OW26872   6.270   5.802   0.856
 8658SOL    HW126873   6.229   5.780   0.768
 8658SOL    HW226874   6.230   5.744   0.927
 8659SOL     OW26875   4.414   2.429   2.692
 8659SOL    HW126876   4.334   2.407   2.636
 8659SOL    HW226877   4.476   2.488   2.640
 8660SOL     OW26878   0.169   2.956   2.711
 8660SOL    HW126879   0.253   2.903   2.716
 8660SOL    HW226880   0.180   3.042   2.762
 8661SOL     OW26881   5.717   4.029   1.429
 8661SOL    HW126882   5.714   3.940   1.384
 8661SOL    HW226883   5.812   4.056   1.445
 8662SOL     OW26884   4.121   5.947   2.175
 8662SOL    HW126885   4.157   5.957   2.082
 8662SOL    HW226886   4.028   5.911   2.171
 8663SOL     OW26887   2.783   5.011   2.250
 8663SOL    HW126888   2.830   5.099   2.240
 8663SOL    HW226889   2.809   4.951   2.175
 8664SOL     OW26890   2.509   5.114   2.251
 8664SOL    HW126891   2.491   5.151   2.160
 8664SOL    HW226892   2.604   5.083   2.256
 8665SOL     OW26893   6.202   5.540   4.351
 8665SOL    HW126894   6.121   5.596   4.331
 8665SOL    HW226895   6.188   5.494   4.439
 8666SOL     OW26896   5.026   0.478   4.441
 8666SOL    HW126897   5.040   0.403   4.376
 8666SOL    HW226898   5.108   0.488   4.499
 8667SOL     OW26899   5.027   1.666   4.048
 8667SOL    HW126900   5.023   1.732   4.123
 8667SOL    HW226901   5.049   1.575   4.084
 8668SOL     OW26902   5.466   3.290   5.103
 8668SOL    HW126903   5.477   3.191   5.114
 8668SOL    HW226904   5.395   3.323   5.165
 8669SOL     OW26905   0.595   6.414   6.211
 8669SOL    HW126906   0.649   6.450   6.135
 8669SOL    HW226907   0.580   6.488   6.277
 8670SOL     OW26908   4.812   5.090   5.872
 8670SOL    HW126909   4.730   5.034   5.874
 8670SOL    HW226910   4.887   5.040   5.828
 8671SOL     OW26911   0.171   1.664   2.330
 8671SOL    HW126912   0.179   1.695   2.425
 8671SOL    HW226913   0.095   1.712   2.285
 8672SOL     OW26914   0.593   0.267   3.537
 8672SOL    HW126915   0.525   0.216   3.485
 8672SOL    HW226916   0.661   0.205   3.574
 8673SOL     OW26917   6.569   1.303   0.255
 8673SOL    HW126918   6.610   1.351   0.177
 8673SOL    HW226919   6.486   1.350   0.284
 8674SOL     OW26920   6.960   4.894   2.769
 8674SOL    HW126921   6.903   4.897   2.851
 8674SOL    HW226922   6.901   4.891   2.688
 8675SOL     OW26923   4.455   1.176   5.235
 8675SOL    HW126924   4.358   1.199   5.243
 8675SOL    HW226925   4.482   1.121   5.314
 8676SOL     OW26926   5.206   0.357   1.506
 8676SOL    HW126927   5.172   0.416   1.580
 8676SOL    HW226928   5.129   0.330   1.448
 8677SOL     OW26929   1.801   6.114   5.872
 8677SOL    HW126930   1.804   6.189   5.939
 8677SOL    HW226931   1.786   6.153   5.780
 8678SOL     OW26932   1.169   0.187   0.927
 8678SOL    HW126933   1.137   0.238   0.847
 8678SOL    HW226934   1.092   0.167   0.987
 8679SOL     OW26935   2.198   1.009   3.538
 8679SOL    HW126936   2.137   1.024   3.460
 8679SOL    HW226937   2.206   1.093   3.591
 8680SOL     OW26938   6.081   2.681   6.594
 8680SOL    HW126939   6.050   2.765   6.549
 8680SOL    HW226940   6.152   2.702   6.661
 8681SOL     OW26941   4.921   5.217   1.453
 8681SOL    HW126942   4.857   5.279   1.498
 8681SOL    HW226943   5.004   5.268   1.429
 8682SOL     OW26944   6.824   0.765   1.177
 8682SOL    HW126945   6.897   0.803   1.234
 8682SOL    HW226946   6.787   0.683   1.220
 8683SOL     OW26947   1.667   2.782   5.029
 8683SOL    HW126948   1.608   2.710   5.066
 8683SOL    HW226949   1.624   2.871   5.046
 8684SOL     OW26950   6.713   2.856   4.624
 8684SOL    HW126951   6.718   2.907   4.538
 8684SOL    HW226952   6.773   2.899   4.692
 8685SOL     OW26953   5.484   3.206   6.942
 8685SOL    HW126954   5.392   3.242   6.958
 8685SOL    HW226955   5.551   3.263   6.990
 8686SOL     OW26956   6.282   6.839   2.008
 8686SOL    HW126957   6.213   6.873   1.945
 8686SOL    HW226958   6.240   6.777   2.074
 8687SOL     OW26959   6.092   5.059   3.073
 8687SOL    HW126960   6.089   5.096   2.980
 8687SOL    HW226961   6.096   5.135   3.138
 8688SOL     OW26962   1.155   3.789   6.745
 8688SOL    HW126963   1.216   3.852   6.792
 8688SOL    HW226964   1.190   3.771   6.653
 8689SOL     OW26965   4.211   3.235   0.139
 8689SOL    HW126966   4.164   3.155   0.177
 8689SOL    HW226967   4.170   3.318   0.176
 8690SOL     OW26968   0.696   2.878   2.863
 8690SOL    HW126969   0.780   2.823   2.861
 8690SOL    HW226970   0.618   2.819   2.883
 8691SOL     OW26971   2.880   1.948   5.250
 8691SOL    HW126972   2.934   2.032   5.243
 8691SOL    HW226973   2.818   1.955   5.328
 8692SOL     OW26974   3.748   0.664   4.877
 8692SOL    HW126975   3.800   0.662   4.962
 8692SOL    HW226976   3.673   0.730   4.885
 8693SOL     OW26977   6.004   0.926   6.096
 8693SOL    HW126978   5.915   0.886   6.118
 8693SOL    HW226979   5.999   1.026   6.105
 8694SOL     OW26980   6.135   2.077   4.948
 8694SOL    HW126981   6.224   2.042   4.919
 8694SOL    HW226982   6.137   2.177   4.950
 8695SOL     OW26983   4.300   2.751   5.835
 8695SOL    HW126984   4.235   2.815   5.793
 8695SOL    HW226985   4.382   2.801   5.863
 8696SOL     OW26986   2.595   5.757   5.197
 8696SOL    HW126987   2.509   5.714   5.170
 8696SOL    HW226988   2.578   5.825   5.269
 8697SOL     OW26989   0.469   4.210   6.292
 8697SOL    HW126990   0.561   4.230   6.257
 8697SOL    HW226991   0.432   4.131   6.242
 8698SOL     OW26992   5.382   6.198   5.600
 8698SOL    HW126993   5.353   6.269   5.535
 8698SOL    HW226994   5.449   6.138   5.556
 8699SOL     OW26995   1.872   2.997   6.156
 8699SOL    HW126996   1.960   3.026   6.193
 8699SOL    HW226997   1.886   2.946   6.071
 8700SOL     OW26998   1.504   1.174   5.083
 8700SOL    HW126999   1.566   1.113   5.133
 8700SOL    HW227000   1.556   1.227   5.016
 8701SOL     OW27001   1.829   1.341   0.056
 8701SOL    HW127002   1.813   1.314   6.985
 8701SOL    HW227003   1.918   1.305   0.086
 8702SOL     OW27004   5.212   4.951   2.006
 8702SOL    HW127005   5.184   4.936   1.911
 8702SOL    HW227006   5.147   4.906   2.068
 8703SOL     OW27007   3.103   5.163   6.752
 8703SOL    HW127008   3.073   5.177   6.658
 8703SOL    HW227009   3.036   5.204   6.815
 8704SOL     OW27010   6.530   3.768   3.488
 8704SOL    HW127011   6.431   3.759   3.476
 8704SOL    HW227012   6.576   3.732   3.407
 8705SOL     OW27013   4.847   1.754   6.209
 8705SOL    HW127014   4.823   1.715   6.298
 8705SOL    HW227015   4.873   1.849   6.220
 8706SOL     OW27016   5.269   2.008   6.964
 8706SOL    HW127017   5.271   1.991   0.039
 8706SOL    HW227018   5.182   1.979   6.927
 8707SOL     OW27019   0.927   2.764   4.365
 8707SOL    HW127020   1.016   2.771   4.409
 8707SOL    HW227021   0.930   2.805   4.274
 8708SOL     OW27022   4.039   1.726   4.103
 8708SOL    HW127023   4.096   1.727   4.186
 8708SOL    HW227024   4.046   1.637   4.058
 8709SOL     OW27025   6.716   6.875   6.818
 8709SOL    HW127026   6.803   6.919   6.836
 8709SOL    HW227027   6.676   6.842   6.903
 8710SOL     OW27028   2.044   2.712   3.550
 8710SOL    HW127029   2.082   2.749   3.635
 8710SOL    HW227030   1.977   2.641   3.571
 8711SOL     OW27031   1.432   6.387   2.237
 8711SOL    HW127032   1.492   6.422   2.309
 8711SOL    HW227033   1.343   6.364   2.277
 8712SOL     OW27034   3.239   1.364   4.209
 8712SOL    HW127035   3.185   1.349   4.292
 8712SOL    HW227036   3.181   1.402   4.137
 8713SOL     OW27037   0.014   4.501   1.433
 8713SOL    HW127038   6.996   4.426   1.483
 8713SOL    HW227039   6.983   4.584   1.446
 8714SOL     OW27040   0.837   6.932   6.567
 8714SOL    HW127041   0.875   6.918   6.658
 8714SOL    HW227042   0.833   6.844   6.520
 8715SOL     OW27043   4.004   1.426   6.733
 8715SOL    HW127044   3.969   1.378   6.653
 8715SOL    HW227045   3.984   1.524   6.726
 8716SOL     OW27046   0.562   6.504   1.017
 8716SOL    HW127047   0.535   6.517   1.112
 8716SOL    HW227048   0.535   6.413   0.987
 8717SOL     OW27049   1.859   3.836   5.972
 8717SOL    HW127050   1.883   3.905   5.904
 8717SOL    HW227051   1.941   3.806   6.021
 8718SOL     OW27052   2.403   2.961   6.449
 8718SOL    HW127053   2.375   2.909   6.530
 8718SOL    HW227054   2.384   2.907   6.367
 8719SOL     OW27055   4.101   0.511   0.098
 8719SOL    HW127056   4.038   0.563   0.039
 8719SOL    HW227057   4.195   0.532   0.072
 8720SOL     OW27058   0.076   6.123   6.128
 8720SOL    HW127059   0.045   6.032   6.101
 8720SOL    HW227060   0.145   6.115   6.199
 8721SOL     OW27061   6.148   0.204   0.121
 8721SOL    HW127062   6.212   0.163   0.186
 8721SOL    HW227063   6.196   0.270   0.063
 8722SOL     OW27064   3.809   0.970   6.958
 8722SOL    HW127065   3.904   0.945   6.942
 8722SOL    HW227066   3.797   0.994   0.031
 8723SOL     OW27067   5.486   7.015   2.404
 8723SOL    HW127068   5.574   6.970   2.387
 8723SOL    HW227069   5.413   6.953   2.376
 8724SOL     OW27070   5.851   0.851   4.391
 8724SOL    HW127071   5.818   0.773   4.337
 8724SOL    HW227072   5.947   0.868   4.369
 8725SOL     OW27073   0.779   6.165   5.157
 8725SOL    HW127074   0.719   6.140   5.081
 8725SOL    HW227075   0.763   6.104   5.234
 8726SOL     OW27076   6.431   0.376   0.435
 8726SOL    HW127077   6.344   0.404   0.478
 8726SOL    HW227078   6.421   0.284   0.397
 8727SOL     OW27079   5.783   6.741   6.864
 8727SOL    HW127080   5.784   6.683   6.782
 8727SOL    HW227081   5.689   6.773   6.880
 8728SOL     OW27082   5.365   1.844   2.043
 8728SOL    HW127083   5.350   1.773   1.973
 8728SOL    HW227084   5.443   1.819   2.099
 8729SOL     OW27085   2.893   5.320   5.522
 8729SOL    HW127086   2.892   5.379   5.441
 8729SOL    HW227087   2.887   5.376   5.604
 8730SOL     OW27088   5.234   4.322   3.679
 8730SOL    HW127089   5.175   4.244   3.656
 8730SOL    HW227090   5.294   4.341   3.602
 8731SOL     OW27091   0.631   3.029   3.090
 8731SOL    HW127092   0.659   2.972   3.012
 8731SOL    HW227093   0.599   2.970   3.164
 8732SOL     OW27094   5.809   4.629   2.249
 8732SOL    HW127095   5.780   4.609   2.342
 8732SOL    HW227096   5.736   4.603   2.185
 8733SOL     OW27097   0.971   5.974   0.681
 8733SOL    HW127098   0.996   5.926   0.765
 8733SOL    HW227099   0.988   5.915   0.602
 8734SOL     OW27100   6.604   3.093   2.467
 8734SOL    HW127101   6.562   3.010   2.431
 8734SOL    HW227102   6.696   3.104   2.429
 8735SOL     OW27103   0.875   3.294   5.412
 8735SOL    HW127104   0.920   3.310   5.500
 8735SOL    HW227105   0.830   3.378   5.381
 8736SOL     OW27106   0.413   5.454   2.198
 8736SOL    HW127107   0.423   5.358   2.225
 8736SOL    HW227108   0.465   5.511   2.261
 8737SOL     OW27109   2.544   6.546   6.905
 8737SOL    HW127110   2.643   6.547   6.915
 8737SOL    HW227111   2.502   6.588   6.985
 8738SOL     OW27112   2.408   5.101   3.475
 8738SOL    HW127113   2.334   5.106   3.408
 8738SOL    HW227114   2.397   5.173   3.543
 8739SOL     OW27115   5.702   4.639   5.622
 8739SOL    HW127116   5.681   4.564   5.685
 8739SOL    HW227117   5.618   4.688   5.600
 8740SOL     OW27118   3.743   2.121   2.915
 8740SOL    HW127119   3.649   2.124   2.881
 8740SOL    HW227120   3.806   2.104   2.839
 8741SOL     OW27121   2.258   0.302   2.845
 8741SOL    HW127122   2.270   0.203   2.842
 8741SOL    HW227123   2.186   0.325   2.910
 8742SOL     OW27124   3.995   0.087   1.771
 8742SOL    HW127125   4.078   0.130   1.736
 8742SOL    HW227126   3.950   0.150   1.835
 8743SOL     OW27127   2.053   0.865   1.335
 8743SOL    HW127128   2.004   0.915   1.406
 8743SOL    HW227129   2.076   0.928   1.260
 8744SOL     OW27130   4.515   2.922   0.531
 8744SOL    HW127131   4.532   3.001   0.473
 8744SOL    HW227132   4.567   2.844   0.496
 8745SOL     OW27133   6.435   2.568   6.665
 8745SOL    HW127134   6.493   2.497   6.705
 8745SOL    HW227135   6.363   2.524   6.611
 8746SOL     OW27136   4.872   5.762   4.775
 8746SOL    HW127137   4.821   5.757   4.861
 8746SOL    HW227138   4.832   5.833   4.717
 8747SOL     OW27139   0.088   1.145   2.634
 8747SOL    HW127140   0.109   1.220   2.696
 8747SOL    HW227141   7.012   1.141   2.619
 8748SOL     OW27142   0.622   2.469   4.530
 8748SOL    HW127143   0.652   2.550   4.480
 8748SOL    HW227144   0.697   2.433   4.585
 8749SOL     OW27145   1.882   1.098   5.190
 8749SOL    HW127146   1.860   1.190   5.160
 8749SOL    HW227147   1.921   1.046   5.114
 8750SOL     OW27148   3.951   3.442   5.422
 8750SOL    HW127149   4.040   3.421   5.462
 8750SOL    HW227150   3.933   3.540   5.430
 8751SOL     OW27151   0.008   0.938   1.315
 8751SOL    HW127152   0.035   0.874   1.388
 8751SOL    HW227153   0.088   0.959   1.259
 8752SOL     OW27154   4.595   2.992   6.348
 8752SOL    HW127155   4.638   2.909   6.382
 8752SOL    HW227156   4.549   3.039   6.424
 8753SOL     OW27157   2.277   3.377   0.022
 8753SOL    HW127158   2.188   3.336   0.005
 8753SOL    HW227159   2.338   3.308   0.060
 8754SOL     OW27160   3.079   4.712   5.934
 8754SOL    HW127161   3.157   4.695   5.874
 8754SOL    HW227162   3.051   4.626   5.977
 8755SOL     OW27163   2.254   1.236   1.007
 8755SOL    HW127164   2.328   1.200   1.063
 8755SOL    HW227165   2.268   1.210   0.912
 8756SOL     OW27166   1.428   2.940   3.632
 8756SOL    HW127167   1.526   2.925   3.642
 8756SOL    HW227168   1.392   2.883   3.558
 8757SOL     OW27169   5.265   5.963   6.372
 8757SOL    HW127170   5.322   5.883   6.351
 8757SOL    HW227171   5.259   5.975   6.471
 8758SOL     OW27172   4.905   6.505   3.412
 8758SOL    HW127173   4.990   6.460   3.439
 8758SOL    HW227174   4.911   6.535   3.317
 8759SOL     OW27175   6.047   1.968   6.502
 8759SOL    HW127176   6.119   1.900   6.518
 8759SOL    HW227177   6.014   2.003   6.590
 8760SOL     OW27178   2.433   1.699   4.405
 8760SOL    HW127179   2.342   1.673   4.437
 8760SOL    HW227180   2.502   1.673   4.473
 8761SOL     OW27181   6.194   1.921   1.766
 8761SOL    HW127182   6.253   1.846   1.736
 8761SOL    HW227183   6.150   1.962   1.686
 8762SOL     OW27184   1.052   5.701   4.201
 8762SOL    HW127185   1.062   5.602   4.215
 8762SOL    HW227186   0.980   5.718   4.134
 8763SOL     OW27187   5.605   0.099   5.083
 8763SOL    HW127188   5.564   0.067   4.997
 8763SOL    HW227189   5.623   0.197   5.078
 8764SOL     OW27190   4.936   6.008   5.961
 8764SOL    HW127191   4.880   6.084   5.930
 8764SOL    HW227192   5.032   6.036   5.960
 8765SOL     OW27193   5.665   1.055   4.877
 8765SOL    HW127194   5.670   1.140   4.825
 8765SOL    HW227195   5.706   1.067   4.967
 8766SOL     OW27196   4.275   4.172   5.312
 8766SOL    HW127197   4.257   4.268   5.292
 8766SOL    HW227198   4.191   4.128   5.345
 8767SOL     OW27199   4.145   6.936   3.182
 8767SOL    HW127200   4.190   6.873   3.118
 8767SOL    HW227201   4.046   6.921   3.179
 8768SOL     OW27202   0.947   2.150   0.921
 8768SOL    HW127203   0.976   2.074   0.863
 8768SOL    HW227204   0.859   2.128   0.963
 8769SOL     OW27205   0.346   1.172   1.848
 8769SOL    HW127206   0.333   1.267   1.819
 8769SOL    HW227207   0.379   1.171   1.943
 8770SOL     OW27208   5.455   4.647   2.277
 8770SOL    HW127209   5.451   4.601   2.366
 8770SOL    HW227210   5.377   4.619   2.221
 8771SOL     OW27211   0.245   2.851   6.556
 8771SOL    HW127212   0.335   2.809   6.559
 8771SOL    HW227213   0.240   2.916   6.481
 8772SOL     OW27214   4.561   0.442   5.938
 8772SOL    HW127215   4.588   0.463   6.032
 8772SOL    HW227216   4.638   0.457   5.876
 8773SOL     OW27217   5.478   2.630   2.972
 8773SOL    HW127218   5.472   2.727   2.948
 8773SOL    HW227219   5.549   2.617   3.041
 8774SOL     OW27220   0.545   0.286   6.776
 8774SOL    HW127221   0.458   0.291   6.825
 8774SOL    HW227222   0.563   0.191   6.750
 8775SOL     OW27223   5.338   1.075   5.479
 8775SOL    HW127224   5.255   1.047   5.527
 8775SOL    HW227225   5.352   1.015   5.400
 8776SOL     OW27226   5.088   3.167   1.723
 8776SOL    HW127227   5.115   3.073   1.745
 8776SOL    HW227228   5.147   3.231   1.771
 8777SOL     OW27229   0.478   3.570   3.464
 8777SOL    HW127230   0.496   3.472   3.475
 8777SOL    HW227231   0.380   3.584   3.447
 8778SOL     OW27232   5.012   3.351   6.098
 8778SOL    HW127233   5.105   3.387   6.088
 8778SOL    HW227234   4.952   3.422   6.136
 8779SOL     OW27235   2.990   5.448   2.701
 8779SOL    HW127236   2.918   5.403   2.648
 8779SOL    HW227237   2.983   5.421   2.797
 8780SOL     OW27238   0.380   6.432   3.430
 8780SOL    HW127239   0.352   6.437   3.526
 8780SOL    HW227240   0.439   6.353   3.416
 8781SOL     OW27241   4.525   6.820   3.079
 8781SOL    HW127242   4.533   6.919   3.065
 8781SOL    HW227243   4.437   6.789   3.043
 8782SOL     OW27244   5.810   1.621   1.774
 8782SOL    HW127245   5.796   1.523   1.791
 8782SOL    HW227246   5.753   1.674   1.837
 8783SOL     OW27247   6.409   4.054   4.122
 8783SOL    HW127248   6.458   4.019   4.202
 8783SOL    HW227249   6.411   3.986   4.049
 8784SOL     OW27250   6.516   6.066   0.530
 8784SOL    HW127251   6.564   5.978   0.533
 8784SOL    HW227252   6.425   6.056   0.571
 8785SOL     OW27253   0.033   5.082   6.211
 8785SOL    HW127254   0.068   5.030   6.289
 8785SOL    HW227255   6.972   5.041   6.177
 8786SOL     OW27256   3.507   1.689   2.059
 8786SOL    HW127257   3.493   1.723   2.152
 8786SOL    HW227258   3.427   1.710   2.003
 8787SOL     OW27259   3.437   0.750   2.265
 8787SOL    HW127260   3.407   0.728   2.172
 8787SOL    HW227261   3.493   0.675   2.300
 8788SOL     OW27262   6.650   1.159   5.353
 8788SOL    HW127263   6.562   1.115   5.368
 8788SOL    HW227264   6.636   1.254   5.323
 8789SOL     OW27265   6.691   4.326   5.371
 8789SOL    HW127266   6.627   4.250   5.357
 8789SOL    HW227267   6.772   4.293   5.420
 8790SOL     OW27268   6.638   1.123   6.640
 8790SOL    HW127269   6.602   1.061   6.710
 8790SOL    HW227270   6.568   1.190   6.617
 8791SOL     OW27271   4.858   6.368   5.218
 8791SOL    HW127272   4.914   6.451   5.218
 8791SOL    HW227273   4.771   6.387   5.173
 8792SOL     OW27274   3.161   5.106   2.852
 8792SOL    HW127275   3.083   5.121   2.912
 8792SOL    HW227276   3.129   5.077   2.762
 8793SOL     OW27277   0.740   5.030   3.640
 8793SOL    HW127278   0.644   5.056   3.656
 8793SOL    HW227279   0.752   5.007   3.543
 8794SOL     OW27280   6.452   0.950   3.486
 8794SOL    HW127281   6.468   0.906   3.574
 8794SOL    HW227282   6.387   0.897   3.433
 8795SOL     OW27283   1.343   4.944   4.742
 8795SOL    HW127284   1.398   5.020   4.777
 8795SOL    HW227285   1.353   4.865   4.802
 8796SOL     OW27286   6.056   3.663   3.082
 8796SOL    HW127287   6.038   3.567   3.103
 8796SOL    HW227288   6.152   3.684   3.103
 8797SOL     OW27289   6.863   0.312   4.208
 8797SOL    HW127290   6.763   0.303   4.210
 8797SOL    HW227291   6.898   0.314   4.301
 8798SOL     OW27292   4.488   6.255   5.862
 8798SOL    HW127293   4.444   6.172   5.897
 8798SOL    HW227294   4.435   6.335   5.890
 8799SOL     OW27295   2.893   4.759   2.447
 8799SOL    HW127296   2.818   4.812   2.407
 8799SOL    HW227297   2.854   4.684   2.502
 8800SOL     OW27298   6.022   5.350   5.492
 8800SOL    HW127299   6.081   5.348   5.411
 8800SOL    HW227300   6.018   5.259   5.533
 8801SOL     OW27301   5.939   1.932   4.824
 8801SOL    HW127302   6.012   1.979   4.873
 8801SOL    HW227303   5.932   1.969   4.731
 8802SOL     OW27304   1.396   5.445   5.541
 8802SOL    HW127305   1.385   5.485   5.449
 8802SOL    HW227306   1.487   5.467   5.576
 8803SOL     OW27307   6.501   0.566   0.161
 8803SOL    HW127308   6.421   0.584   0.218
 8803SOL    HW227309   6.491   0.613   0.073
 8804SOL     OW27310   1.736   6.302   1.159
 8804SOL    HW127311   1.731   6.347   1.248
 8804SOL    HW227312   1.666   6.230   1.154
 8805SOL     OW27313   3.758   5.467   3.977
 8805SOL    HW127314   3.822   5.399   3.943
 8805SOL    HW227315   3.807   5.551   4.000
 8806SOL     OW27316   2.096   4.942   0.727
 8806SOL    HW127317   2.069   5.026   0.775
 8806SOL    HW227318   2.167   4.895   0.780
 8807SOL     OW27319   4.525   1.701   6.722
 8807SOL    HW127320   4.559   1.607   6.720
 8807SOL    HW227321   4.586   1.758   6.778
 8808SOL     OW27322   0.118   2.136   6.696
 8808SOL    HW127323   0.032   2.185   6.677
 8808SOL    HW227324   0.187   2.202   6.726
 8809SOL     OW27325   2.289   4.244   3.582
 8809SOL    HW127326   2.357   4.210   3.647
 8809SOL    HW227327   2.326   4.238   3.489
 8810SOL     OW27328   5.646   1.101   5.314
 8810SOL    HW127329   5.646   1.194   5.352
 8810SOL    HW227330   5.679   1.104   5.219
 8811SOL     OW27331   3.723   0.370   2.804
 8811SOL    HW127332   3.754   0.336   2.892
 8811SOL    HW227333   3.740   0.469   2.798
 8812SOL     OW27334   3.069   0.623   0.104
 8812SOL    HW127335   3.139   0.684   0.067
 8812SOL    HW227336   2.983   0.674   0.117
 8813SOL     OW27337   1.669   4.663   2.509
 8813SOL    HW127338   1.698   4.754   2.482
 8813SOL    HW227339   1.738   4.596   2.481
 8814SOL     OW27340   5.570   6.960   0.657
 8814SOL    HW127341   5.668   6.954   0.673
 8814SOL    HW227342   5.552   7.022   0.581
 8815SOL     OW27343   5.367   0.103   1.490
 8815SOL    HW127344   5.393   0.037   1.420
 8815SOL    HW227345   5.308   0.172   1.449
 8816SOL     OW27346   0.638   0.036   6.844
 8816SOL    HW127347   0.702   7.003   6.792
 8816SOL    HW227348   0.545   7.022   6.835
 8817SOL     OW27349   6.898   3.677   4.173
 8817SOL    HW127350   6.825   3.662   4.106
 8817SOL    HW227351   6.858   3.694   4.263
 8818SOL     OW27352   0.619   6.290   3.640
 8818SOL    HW127353   0.584   6.355   3.572
 8818SOL    HW227354   0.646   6.340   3.722
 8819SOL     OW27355   6.025   4.697   5.319
 8819SOL    HW127356   6.051   4.613   5.367
 8819SOL    HW227357   6.106   4.751   5.300
 8820SOL     OW27358   2.819   1.817   4.498
 8820SOL    HW127359   2.808   1.896   4.439
 8820SOL    HW227360   2.876   1.841   4.577
 8821SOL     OW27361   1.531   5.250   0.058
 8821SOL    HW127362   1.617   5.297   0.038
 8821SOL    HW227363   1.456   5.314   0.051
 8822SOL     OW27364   0.596   0.272   3.197
 8822SOL    HW127365   0.546   0.222   3.267
 8822SOL    HW227366   0.690   0.286   3.227
 8823SOL     OW27367   2.699   0.856   2.335
 8823SOL    HW127368   2.727   0.793   2.408
 8823SOL    HW227369   2.713   0.812   2.246
 8824SOL     OW27370   1.084   0.858   1.037
 8824SOL    HW127371   1.024   0.920   1.086
 8824SOL    HW227372   1.141   0.808   1.102
 8825SOL     OW27373   0.591   0.564   1.667
 8825SOL    HW127374   0.527   0.640   1.673
 8825SOL    HW227375   0.678   0.590   1.710
 8826SOL     OW27376   0.980   3.019   1.466
 8826SOL    HW127377   0.884   2.993   1.459
 8826SOL    HW227378   0.994   3.074   1.549
 8827SOL     OW27379   3.775   0.129   2.656
 8827SOL    HW127380   3.764   0.219   2.699
 8827SOL    HW227381   3.685   0.090   2.636
 8828SOL     OW27382   3.881   4.743   6.652
 8828SOL    HW127383   3.937   4.754   6.734
 8828SOL    HW227384   3.940   4.733   6.572
 8829SOL     OW27385   6.122   2.061   1.424
 8829SOL    HW127386   6.169   2.118   1.491
 8829SOL    HW227387   6.153   1.966   1.433
 8830SOL     OW27388   1.771   1.830   3.061
 8830SOL    HW127389   1.869   1.821   3.043
 8830SOL    HW227390   1.719   1.775   2.995
 8831SOL     OW27391   5.806   3.025   2.551
 8831SOL    HW127392   5.787   3.036   2.648
 8831SOL    HW227393   5.881   2.960   2.538
 8832SOL     OW27394   0.713   6.520   4.158
 8832SOL    HW127395   0.613   6.519   4.152
 8832SOL    HW227396   0.741   6.484   4.247
 8833SOL     OW27397   3.571   3.860   0.268
 8833SOL    HW127398   3.539   3.862   0.173
 8833SOL    HW227399   3.666   3.829   0.270
 8834SOL     OW27400   6.062   3.614   5.192
 8834SOL    HW127401   5.997   3.632   5.119
 8834SOL    HW227402   6.014   3.577   5.272
 8835SOL     OW27403   5.914   1.583   6.660
 8835SOL    HW127404   5.826   1.565   6.704
 8835SOL    HW227405   5.971   1.639   6.720
 8836SOL     OW27406   5.316   2.252   0.214
 8836SOL    HW127407   5.320   2.171   0.272
 8836SOL    HW227408   5.250   2.238   0.140
 8837SOL     OW27409   6.963   6.950   1.635
 8837SOL    HW127410   6.897   6.899   1.690
 8837SOL    HW227411   6.918   6.988   1.554
 8838SOL     OW27412   0.642   4.792   2.401
 8838SOL    HW127413   0.554   4.804   2.354
 8838SOL    HW227414   0.659   4.694   2.414
 8839SOL     OW27415   3.793   5.682   2.423
 8839SOL    HW127416   3.701   5.694   2.461
 8839SOL    HW227417   3.856   5.652   2.494
 8840SOL     OW27418   5.832   0.024   1.918
 8840SOL    HW127419   5.868   0.097   1.976
 8840SOL    HW227420   5.831   0.054   1.823
 8841SOL     OW27421   5.381   1.101   2.662
 8841SOL    HW127422   5.439   1.182   2.655
 8841SOL    HW227423   5.357   1.069   2.570
 8842SOL     OW27424   3.241   3.845   3.781
 8842SOL    HW127425   3.285   3.933   3.799
 8842SOL    HW227426   3.152   3.861   3.739
 8843SOL     OW27427   1.667   3.151   4.315
 8843SOL    HW127428   1.729   3.131   4.390
 8843SOL    HW227429   1.651   3.067   4.261
 8844SOL     OW27430   0.219   1.788   4.652
 8844SOL    HW127431   0.228   1.715   4.584
 8844SOL    HW227432   0.199   1.748   4.741
 8845SOL     OW27433   2.489   4.779   0.181
 8845SOL    HW127434   2.575   4.831   0.177
 8845SOL    HW227435   2.475   4.747   0.275
 8846SOL     OW27436   5.403   4.506   4.510
 8846SOL    HW127437   5.417   4.605   4.506
 8846SOL    HW227438   5.305   4.487   4.512
 8847SOL     OW27439   2.116   1.230   3.101
 8847SOL    HW127440   2.052   1.158   3.074
 8847SOL    HW227441   2.209   1.191   3.105
 8848SOL     OW27442   3.252   1.875   2.200
 8848SOL    HW127443   3.202   1.961   2.213
 8848SOL    HW227444   3.193   1.798   2.223
 8849SOL     OW27445   3.208   4.978   3.566
 8849SOL    HW127446   3.251   5.042   3.630
 8849SOL    HW227447   3.251   4.986   3.476
 8850SOL     OW27448   2.879   1.105   0.830
 8850SOL    HW127449   2.825   1.177   0.785
 8850SOL    HW227450   2.976   1.124   0.817
 8851SOL     OW27451   1.292   4.398   1.994
 8851SOL    HW127452   1.234   4.466   1.949
 8851SOL    HW227453   1.288   4.411   2.093
 8852SOL     OW27454   4.914   3.091   6.170
 8852SOL    HW127455   4.987   3.054   6.112
 8852SOL    HW227456   4.922   3.190   6.175
 8853SOL     OW27457   3.046   0.701   4.209
 8853SOL    HW127458   3.048   0.615   4.258
 8853SOL    HW227459   3.019   0.685   4.114
 8854SOL     OW27460   2.575   0.659   6.332
 8854SOL    HW127461   2.651   0.675   6.395
 8854SOL    HW227462   2.508   0.598   6.375
 8855SOL     OW27463   0.053   6.313   0.389
 8855SOL    HW127464   0.104   6.321   0.475
 8855SOL    HW227465   0.043   6.403   0.347
 8856SOL     OW27466   6.141   0.201   5.630
 8856SOL    HW127467   6.086   0.270   5.678
 8856SOL    HW227468   6.165   0.127   5.693
 8857SOL     OW27469   6.415   1.815   3.757
 8857SOL    HW127470   6.393   1.859   3.844
 8857SOL    HW227471   6.335   1.820   3.696
 8858SOL     OW27472   2.190   3.378   5.729
 8858SOL    HW127473   2.122   3.404   5.661
 8858SOL    HW227474   2.161   3.293   5.775
 8859SOL     OW27475   0.128   6.934   5.365
 8859SOL    HW127476   0.079   6.946   5.278
 8859SOL    HW227477   0.070   6.964   5.440
 8860SOL     OW27478   1.819   4.146   2.874
 8860SOL    HW127479   1.768   4.229   2.849
 8860SOL    HW227480   1.778   4.105   2.955
 8861SOL     OW27481   3.342   2.330   6.083
 8861SOL    HW127482   3.265   2.268   6.099
 8861SOL    HW227483   3.316   2.398   6.014
 8862SOL     OW27484   6.432   1.504   3.567
 8862SOL    HW127485   6.443   1.549   3.655
 8862SOL    HW227486   6.418   1.406   3.580
 8863SOL     OW27487   1.707   5.830   4.666
 8863SOL    HW127488   1.624   5.859   4.714
 8863SOL    HW227489   1.785   5.832   4.729
 8864SOL     OW27490   2.499   3.412   6.492
 8864SOL    HW127491   2.497   3.325   6.542
 8864SOL    HW227492   2.431   3.474   6.532
 8865SOL     OW27493   2.905   1.848   4.757
 8865SOL    HW127494   2.960   1.765   4.761
 8865SOL    HW227495   2.869   1.869   4.848
 8866SOL     OW27496   5.156   6.837   4.065
 8866SOL    HW127497   5.130   6.808   4.157
 8866SOL    HW227498   5.096   6.911   4.035
 8867SOL     OW27499   5.151   2.919   2.652
 8867SOL    HW127500   5.061   2.899   2.688
 8867SOL    HW227501   5.178   3.012   2.676
 8868SOL     OW27502   6.022   3.697   0.591
 8868SOL    HW127503   6.092   3.755   0.548
 8868SOL    HW227504   5.960   3.754   0.645
 8869SOL     OW27505   4.361   5.580   3.418
 8869SOL    HW127506   4.425   5.504   3.428
 8869SOL    HW227507   4.360   5.634   3.502
 8870SOL     OW27508   3.516   0.147   0.272
 8870SOL    HW127509   3.593   0.139   0.208
 8870SOL    HW227510   3.551   0.145   0.366
 8871SOL     OW27511   3.484   1.222   3.884
 8871SOL    HW127512   3.546   1.156   3.842
 8871SOL    HW227513   3.415   1.250   3.818
 8872SOL     OW27514   1.783   4.210   4.385
 8872SOL    HW127515   1.730   4.130   4.414
 8872SOL    HW227516   1.880   4.185   4.380
 8873SOL     OW27517   6.492   6.383   1.858
 8873SOL    HW127518   6.569   6.322   1.878
 8873SOL    HW227519   6.406   6.335   1.873
 8874SOL     OW27520   2.039   6.744   1.041
 8874SOL    HW127521   1.956   6.699   1.073
 8874SOL    HW227522   2.041   6.742   0.941
 8875SOL     OW27523   1.084   2.740   5.038
 8875SOL    HW127524   1.052   2.725   5.132
 8875SOL    HW227525   1.036   2.820   5.000
 8876SOL     OW27526   0.699   0.132   4.675
 8876SOL    HW127527   0.747   0.073   4.740
 8876SOL    HW227528   0.762   0.203   4.641
 8877SOL     OW27529   2.991   0.759   4.787
 8877SOL    HW127530   3.048   0.779   4.707
 8877SOL    HW227531   3.033   0.687   4.841
 8878SOL     OW27532   0.685   5.313   0.516
 8878SOL    HW127533   0.640   5.362   0.590
 8878SOL    HW227534   0.742   5.240   0.553
 8879SOL     OW27535   5.848   4.951   1.223
 8879SOL    HW127536   5.777   4.887   1.196
 8879SOL    HW227537   5.876   4.933   1.318
 8880SOL     OW27538   6.930   5.626   4.362
 8880SOL    HW127539   6.929   5.726   4.356
 8880SOL    HW227540   6.936   5.599   4.458
 8881SOL     OW27541   6.040   0.031   4.162
 8881SOL    HW127542   6.047   6.960   4.130
 8881SOL    HW227543   6.001   0.033   4.254
 8882SOL     OW27544   5.220   1.474   0.706
 8882SOL    HW127545   5.182   1.455   0.797
 8882SOL    HW227546   5.261   1.566   0.706
 8883SOL     OW27547   0.863   0.872   5.524
 8883SOL    HW127548   0.766   0.849   5.520
 8883SOL    HW227549   0.888   0.928   5.445
 8884SOL     OW27550   5.885   5.888   6.313
 8884SOL    HW127551   5.909   5.982   6.292
 8884SOL    HW227552   5.846   5.844   6.232
 8885SOL     OW27553   6.772   3.991   1.701
 8885SOL    HW127554   6.860   3.980   1.654
 8885SOL    HW227555   6.742   4.086   1.692
 8886SOL     OW27556   3.437   6.582   5.541
 8886SOL    HW127557   3.508   6.518   5.511
 8886SOL    HW227558   3.421   6.572   5.639
 8887SOL     OW27559   3.233   1.221   0.994
 8887SOL    HW127560   3.321   1.250   0.959
 8887SOL    HW227561   3.244   1.135   1.045
 8888SOL     OW27562   0.686   2.072   1.042
 8888SOL    HW127563   0.593   2.036   1.047
 8888SOL    HW227564   0.726   2.074   1.133
 8889SOL     OW27565   5.563   6.597   5.541
 8889SOL    HW127566   5.581   6.523   5.605
 8889SOL    HW227567   5.484   6.650   5.572
 8890SOL     OW27568   6.873   5.917   4.287
 8890SOL    HW127569   6.814   5.988   4.248
 8890SOL    HW227570   6.942   5.892   4.219
 8891SOL     OW27571   6.100   3.274   6.175
 8891SOL    HW127572   6.127   3.281   6.079
 8891SOL    HW227573   6.050   3.188   6.189
 8892SOL     OW27574   3.483   5.944   3.630
 8892SOL    HW127575   3.399   5.912   3.675
 8892SOL    HW227576   3.459   6.011   3.560
 8893SOL     OW27577   1.060   0.754   1.995
 8893SOL    HW127578   1.111   0.805   2.064
 8893SOL    HW227579   1.063   0.802   1.908
 8894SOL     OW27580   4.085   2.900   5.722
 8894SOL    HW127581   4.025   2.964   5.769
 8894SOL    HW227582   4.031   2.832   5.673
 8895SOL     OW27583   6.639   1.508   1.670
 8895SOL    HW127584   6.544   1.497   1.701
 8895SOL    HW227585   6.651   1.461   1.582
 8896SOL     OW27586   1.761   3.224   4.892
 8896SOL    HW127587   1.836   3.173   4.849
 8896SOL    HW227588   1.784   3.241   4.988
 8897SOL     OW27589   2.074   1.826   3.037
 8897SOL    HW127590   2.085   1.756   2.966
 8897SOL    HW227591   2.163   1.846   3.077
 8898SOL     OW27592   6.175   3.538   4.759
 8898SOL    HW127593   6.133   3.628   4.750
 8898SOL    HW227594   6.133   3.475   4.694
 8899SOL     OW27595   1.747   4.734   0.441
 8899SOL    HW127596   1.733   4.796   0.363
 8899SOL    HW227597   1.845   4.721   0.455
 8900SOL     OW27598   5.774   3.763   2.905
 8900SOL    HW127599   5.679   3.759   2.938
 8900SOL    HW227600   5.818   3.845   2.941
 8901SOL     OW27601   2.591   1.070   4.215
 8901SOL    HW127602   2.527   1.072   4.139
 8901SOL    HW227603   2.542   1.057   4.301
 8902SOL     OW27604   3.176   6.069   6.909
 8902SOL    HW127605   3.249   6.014   6.951
 8902SOL    HW227606   3.202   6.165   6.912
 8903SOL     OW27607   1.690   1.013   4.351
 8903SOL    HW127608   1.696   1.111   4.370
 8903SOL    HW227609   1.647   0.966   4.428
 8904SOL     OW27610   6.526   5.725   3.500
 8904SOL    HW127611   6.594   5.656   3.476
 8904SOL    HW227612   6.480   5.699   3.585
 8905SOL     OW27613   2.156   3.870   4.702
 8905SOL    HW127614   2.132   3.775   4.719
 8905SOL    HW227615   2.236   3.895   4.756
 8906SOL     OW27616   0.183   6.831   6.944
 8906SOL    HW127617   0.094   6.793   6.969
 8906SOL    HW227618   0.252   6.799   7.008
 8907SOL     OW27619   3.175   1.927   4.824
 8907SOL    HW127620   3.109   1.875   4.770
 8907SOL    HW227621   3.148   1.926   4.920
 8908SOL     OW27622   1.503   2.963   6.862
 8908SOL    HW127623   1.463   2.992   6.949
 8908SOL    HW227624   1.452   3.002   6.786
 8909SOL     OW27625   1.700   0.875   4.937
 8909SOL    HW127626   1.607   0.846   4.959
 8909SOL    HW227627   1.744   0.806   4.881
 8910SOL     OW27628   1.818   3.506   6.276
 8910SOL    HW127629   1.890   3.569   6.305
 8910SOL    HW227630   1.825   3.490   6.178
 8911SOL     OW27631   4.158   2.204   4.918
 8911SOL    HW127632   4.075   2.152   4.938
 8911SOL    HW227633   4.161   2.286   4.975
 8912SOL     OW27634   4.083   1.682   7.015
 8912SOL    HW127635   4.031   1.694   6.931
 8912SOL    HW227636   4.026   1.635   0.059
 8913SOL     OW27637   4.453   5.357   0.831
 8913SOL    HW127638   4.432   5.453   0.815
 8913SOL    HW227639   4.452   5.337   0.929
 8914SOL     OW27640   4.240   0.334   5.160
 8914SOL    HW127641   4.297   0.414   5.179
 8914SOL    HW227642   4.255   0.305   5.065
 8915SOL     OW27643   0.985   3.134   3.747
 8915SOL    HW127644   1.000   3.141   3.649
 8915SOL    HW227645   0.993   3.225   3.788
 8916SOL     OW27646   0.552   3.437   2.033
 8916SOL    HW127647   0.528   3.349   2.073
 8916SOL    HW227648   0.475   3.471   1.979
 8917SOL     OW27649   5.642   4.754   6.367
 8917SOL    HW127650   5.700   4.680   6.402
 8917SOL    HW227651   5.692   4.840   6.371
 8918SOL     OW27652   6.780   5.703   0.999
 8918SOL    HW127653   6.736   5.775   0.946
 8918SOL    HW227654   6.874   5.691   0.969
 8919SOL     OW27655   4.526   3.537   0.566
 8919SOL    HW127656   4.454   3.555   0.633
 8919SOL    HW227657   4.595   3.477   0.606
 8920SOL     OW27658   0.049   6.802   6.644
 8920SOL    HW127659   0.129   6.742   6.636
 8920SOL    HW227660   6.994   6.748   6.674
 8921SOL     OW27661   2.326   1.930   3.398
 8921SOL    HW127662   2.323   1.856   3.464
 8921SOL    HW227663   2.381   2.006   3.434
 8922SOL     OW27664   2.857   4.782   1.358
 8922SOL    HW127665   2.763   4.768   1.328
 8922SOL    HW227666   2.911   4.818   1.282
 8923SOL     OW27667   1.323   3.640   5.864
 8923SOL    HW127668   1.401   3.612   5.808
 8923SOL    HW227669   1.337   3.608   5.958
 8924SOL     OW27670   3.262   6.013   5.807
 8924SOL    HW127671   3.260   5.926   5.856
 8924SOL    HW227672   3.346   6.063   5.831
 8925SOL     OW27673   1.204   0.542   2.332
 8925SOL    HW127674   1.136   0.515   2.264
 8925SOL    HW227675   1.276   0.596   2.289
 8926SOL     OW27676   6.126   3.374   0.279
 8926SOL    HW127677   6.192   3.410   0.213
 8926SOL    HW227678   6.037   3.365   0.236
 8927SOL     OW27679   1.396   2.075   4.855
 8927SOL    HW127680   1.389   2.121   4.766
 8927SOL    HW227681   1.493   2.062   4.878
 8928SOL     OW27682   6.659   1.106   5.045
 8928SOL    HW127683   6.710   1.141   5.124
 8928SOL    HW227684   6.723   1.080   4.973
 8929SOL     OW27685   0.528   3.398   3.928
 8929SOL    HW127686   0.499   3.344   4.007
 8929SOL    HW227687   0.470   3.376   3.849
 8930SOL     OW27688   2.090   4.863   4.771
 8930SOL    HW127689   2.073   4.857   4.869
 8930SOL    HW227690   2.188   4.870   4.754
 8931SOL     OW27691   3.663   2.923   0.794
 8931SOL    HW127692   3.591   2.911   0.726
 8931SOL    HW227693   3.701   3.015   0.787
 8932SOL     OW27694   5.244   0.582   6.996
 8932SOL    HW127695   5.166   0.638   0.001
 8932SOL    HW227696   5.257   0.590   6.897
 8933SOL     OW27697   0.947   1.768   5.588
 8933SOL    HW127698   0.965   1.696   5.655
 8933SOL    HW227699   0.886   1.733   5.517
 8934SOL     OW27700   2.670   5.899   3.987
 8934SOL    HW127701   2.751   5.848   4.016
 8934SOL    HW227702   2.634   5.859   3.902
 8935SOL     OW27703   5.232   4.413   1.786
 8935SOL    HW127704   5.228   4.402   1.686
 8935SOL    HW227705   5.260   4.326   1.827
 8936SOL     OW27706   0.599   3.734   1.049
 8936SOL    HW127707   0.651   3.805   1.000
 8936SOL    HW227708   0.662   3.674   1.098
 8937SOL     OW27709   0.279   0.634   4.322
 8937SOL    HW127710   0.352   0.661   4.260
 8937SOL    HW227711   0.230   0.555   4.284
 8938SOL     OW27712   0.153   1.251   0.130
 8938SOL    HW127713   0.171   1.301   0.215
 8938SOL    HW227714   0.064   1.205   0.137
 8939SOL     OW27715   6.439   2.985   4.839
 8939SOL    HW127716   6.488   2.943   4.916
 8939SOL    HW227717   6.387   3.064   4.872
 8940SOL     OW27718   5.342   1.898   0.578
 8940SOL    HW127719   5.277   1.863   0.645
 8940SOL    HW227720   5.432   1.909   0.620
 8941SOL     OW27721   4.802   2.057   1.874
 8941SOL    HW127722   4.790   2.054   1.775
 8941SOL    HW227723   4.864   2.133   1.897
 8942SOL     OW27724   0.801   5.285   4.346
 8942SOL    HW127725   0.777   5.381   4.334
 8942SOL    HW227726   0.718   5.232   4.362
 8943SOL     OW27727   4.014   4.870   0.214
 8943SOL    HW127728   4.021   4.966   0.187
 8943SOL    HW227729   4.064   4.855   0.299
 8944SOL     OW27730   5.015   4.959   4.587
 8944SOL    HW127731   4.943   4.987   4.650
 8944SOL    HW227732   5.100   4.945   4.638
 8945SOL     OW27733   6.943   2.070   4.973
 8945SOL    HW127734   0.011   2.074   4.932
 8945SOL    HW227735   6.930   1.980   5.015
 8946SOL     OW27736   3.410   0.249   4.547
 8946SOL    HW127737   3.390   0.286   4.456
 8946SOL    HW227738   3.445   0.156   4.538
 8947SOL     OW27739   1.875   3.803   6.468
 8947SOL    HW127740   1.824   3.792   6.553
 8947SOL    HW227741   1.958   3.856   6.486
 8948SOL     OW27742   6.325   5.881   3.415
 8948SOL    HW127743   6.410   5.830   3.426
 8948SOL    HW227744   6.252   5.838   3.467
 8949SOL     OW27745   3.952   5.986   7.014
 8949SOL    HW127746   3.871   6.007   6.961
 8949SOL    HW227747   3.929   5.981   0.088
 8950SOL     OW27748   4.406   3.296   1.475
 8950SOL    HW127749   4.387   3.323   1.569
 8950SOL    HW227750   4.481   3.351   1.439
 8951SOL     OW27751   2.165   1.037   4.419
 8951SOL    HW127752   2.121   0.953   4.387
 8951SOL    HW227753   2.096   1.104   4.445
 8952SOL     OW27754   1.864   5.227   2.949
 8952SOL    HW127755   1.900   5.298   3.009
 8952SOL    HW227756   1.890   5.247   2.854
 8953SOL     OW27757   1.757   4.649   1.172
 8953SOL    HW127758   1.845   4.608   1.147
 8953SOL    HW227759   1.693   4.577   1.201
 8954SOL     OW27760   0.188   6.621   3.681
 8954SOL    HW127761   0.222   6.714   3.696
 8954SOL    HW227762   0.091   6.624   3.656
 8955SOL     OW27763   0.092   3.270   2.549
 8955SOL    HW127764   0.039   3.273   2.633
 8955SOL    HW227765   0.109   3.363   2.517
 8956SOL     OW27766   0.730   0.288   6.320
 8956SOL    HW127767   0.696   0.229   6.394
 8956SOL    HW227768   0.810   0.245   6.277
 8957SOL     OW27769   1.846   4.811   1.618
 8957SOL    HW127770   1.819   4.832   1.524
 8957SOL    HW227771   1.903   4.885   1.654
 8958SOL     OW27772   1.330   2.778   5.268
 8958SOL    HW127773   1.326   2.679   5.284
 8958SOL    HW227774   1.326   2.797   5.170
 8959SOL     OW27775   1.233   3.676   2.217
 8959SOL    HW127776   1.196   3.717   2.134
 8959SOL    HW227777   1.160   3.667   2.285
 8960SOL     OW27778   6.545   5.137   3.813
 8960SOL    HW127779   6.557   5.064   3.746
 8960SOL    HW227780   6.548   5.226   3.767
 8961SOL     OW27781   4.231   1.480   3.907
 8961SOL    HW127782   4.303   1.413   3.890
 8961SOL    HW227783   4.178   1.494   3.824
 8962SOL     OW27784   6.890   6.349   1.619
 8962SOL    HW127785   6.927   6.338   1.711
 8962SOL    HW227786   6.808   6.405   1.622
 8963SOL     OW27787   3.399   6.517   4.675
 8963SOL    HW127788   3.448   6.500   4.760
 8963SOL    HW227789   3.313   6.565   4.695
 8964SOL     OW27790   4.794   3.998   2.915
 8964SOL    HW127791   4.760   3.967   3.004
 8964SOL    HW227792   4.894   3.995   2.915
 8965SOL     OW27793   3.529   5.281   0.224
 8965SOL    HW127794   3.623   5.264   0.255
 8965SOL    HW227795   3.521   5.254   0.127
 8966SOL     OW27796   6.722   4.848   6.571
 8966SOL    HW127797   6.699   4.846   6.473
 8966SOL    HW227798   6.672   4.775   6.618
 8967SOL     OW27799   4.336   0.707   2.894
 8967SOL    HW127800   4.263   0.665   2.841
 8967SOL    HW227801   4.401   0.751   2.832
 8968SOL     OW27802   3.035   4.922   1.546
 8968SOL    HW127803   2.975   4.858   1.499
 8968SOL    HW227804   2.990   5.011   1.553
 8969SOL     OW27805   0.392   0.709   3.428
 8969SOL    HW127806   0.451   0.642   3.474
 8969SOL    HW227807   0.311   0.726   3.485
 8970SOL     OW27808   1.468   2.365   0.171
 8970SOL    HW127809   1.495   2.442   0.228
 8970SOL    HW227810   1.398   2.395   0.106
 8971SOL     OW27811   4.696   6.694   1.974
 8971SOL    HW127812   4.684   6.756   1.897
 8971SOL    HW227813   4.784   6.712   2.018
 8972SOL     OW27814   5.255   4.440   0.328
 8972SOL    HW127815   5.222   4.526   0.367
 8972SOL    HW227816   5.229   4.364   0.388
 8973SOL     OW27817   0.093   2.533   2.806
 8973SOL    HW127818   0.134   2.602   2.747
 8973SOL    HW227819   7.019   2.523   2.784
 8974SOL     OW27820   2.005   3.905   3.993
 8974SOL    HW127821   2.037   3.856   4.074
 8974SOL    HW227822   2.084   3.937   3.940
 8975SOL     OW27823   0.287   6.958   0.201
 8975SOL    HW127824   0.282   0.029   0.168
 8975SOL    HW227825   0.377   6.920   0.179
 8976SOL     OW27826   0.076   6.209   0.750
 8976SOL    HW127827   7.013   6.196   0.702
 8976SOL    HW227828   0.061   6.199   0.849
 8977SOL     OW27829   0.081   4.466   6.785
 8977SOL    HW127830   0.157   4.509   6.835
 8977SOL    HW227831   0.104   4.371   6.764
 8978SOL     OW27832   5.208   6.165   4.777
 8978SOL    HW127833   5.253   6.087   4.821
 8978SOL    HW227834   5.277   6.229   4.743
 8979SOL     OW27835   1.105   5.365   6.159
 8979SOL    HW127836   1.132   5.290   6.220
 8979SOL    HW227837   1.169   5.369   6.082
 8980SOL     OW27838   5.365   2.008   5.588
 8980SOL    HW127839   5.357   2.006   5.688
 8980SOL    HW227840   5.278   1.980   5.548
 8981SOL     OW27841   5.035   2.096   5.699
 8981SOL    HW127842   5.053   2.058   5.608
 8981SOL    HW227843   4.957   2.048   5.740
 8982SOL     OW27844   6.624   2.207   1.698
 8982SOL    HW127845   6.591   2.276   1.635
 8982SOL    HW227846   6.572   2.212   1.783
 8983SOL     OW27847   1.316   5.277   1.139
 8983SOL    HW127848   1.309   5.376   1.148
 8983SOL    HW227849   1.394   5.244   1.193
 8984SOL     OW27850   6.320   0.255   4.467
 8984SOL    HW127851   6.309   0.175   4.409
 8984SOL    HW227852   6.236   0.309   4.466
 8985SOL     OW27853   4.123   2.276   1.067
 8985SOL    HW127854   4.026   2.254   1.083
 8985SOL    HW227855   4.156   2.334   1.142
 8986SOL     OW27856   5.510   4.343   2.321
 8986SOL    HW127857   5.551   4.318   2.409
 8986SOL    HW227858   5.582   4.376   2.260
 8987SOL     OW27859   3.093   0.661   1.115
 8987SOL    HW127860   3.088   0.651   1.016
 8987SOL    HW227861   3.002   0.684   1.151
 8988SOL     OW27862   2.149   5.228   0.229
 8988SOL    HW127863   2.093   5.152   0.198
 8988SOL    HW227864   2.197   5.203   0.313
 8989SOL     OW27865   4.871   2.992   2.819
 8989SOL    HW127866   4.891   3.043   2.902
 8989SOL    HW227867   4.820   2.909   2.842
 8990SOL     OW27868   2.287   6.205   1.346
 8990SOL    HW127869   2.336   6.194   1.259
 8990SOL    HW227870   2.198   6.159   1.340
 8991SOL     OW27871   2.507   2.279   1.500
 8991SOL    HW127872   2.604   2.285   1.478
 8991SOL    HW227873   2.477   2.364   1.543
 8992SOL     OW27874   0.377   3.185   0.726
 8992SOL    HW127875   0.442   3.260   0.735
 8992SOL    HW227876   0.322   3.198   0.643
 8993SOL     OW27877   5.269   2.564   2.653
 8993SOL    HW127878   5.314   2.653   2.648
 8993SOL    HW227879   5.176   2.577   2.689
 8994SOL     OW27880   1.800   5.027   4.069
 8994SOL    HW127881   1.798   5.055   4.165
 8994SOL    HW227882   1.876   4.964   4.053
 8995SOL     OW27883   1.581   2.238   5.309
 8995SOL    HW127884   1.548   2.288   5.389
 8995SOL    HW227885   1.570   2.139   5.324
 8996SOL     OW27886   0.865   3.856   1.928
 8996SOL    HW127887   0.949   3.854   1.981
 8996SOL    HW227888   0.813   3.771   1.943
 8997SOL     OW27889   5.533   0.920   6.465
 8997SOL    HW127890   5.456   0.983   6.458
 8997SOL    HW227891   5.563   0.894   6.373
 8998SOL     OW27892   0.085   1.652   4.874
 8998SOL    HW127893   0.120   1.636   4.967
 8998SOL    HW227894   0.073   1.564   4.827
 8999SOL     OW27895   5.085   0.805   6.289
 8999SOL    HW127896   5.057   0.900   6.292
 8999SOL    HW227897   5.154   0.788   6.360
 9000SOL     OW27898   2.891   4.376   6.710
 9000SOL    HW127899   2.831   4.330   6.645
 9000SOL    HW227900   2.985   4.374   6.677
 9001SOL     OW27901   0.957   4.658   2.685
 9001SOL    HW127902   0.979   4.653   2.782
 9001SOL    HW227903   1.039   4.683   2.633
 9002SOL     OW27904   6.829   5.573   6.078
 9002SOL    HW127905   6.779   5.584   6.164
 9002SOL    HW227906   6.771   5.600   6.002
 9003SOL     OW27907   6.119   2.183   0.969
 9003SOL    HW127908   6.047   2.171   1.038
 9003SOL    HW227909   6.098   2.129   0.888
 9004SOL     OW27910   4.961   6.209   1.941
 9004SOL    HW127911   5.042   6.266   1.930
 9004SOL    HW227912   4.883   6.253   1.897
 9005SOL     OW27913   5.197   2.677   3.651
 9005SOL    HW127914   5.182   2.585   3.614
 9005SOL    HW227915   5.295   2.698   3.651
 9006SOL     OW27916   1.303   5.785   0.850
 9006SOL    HW127917   1.209   5.815   0.866
 9006SOL    HW227918   1.333   5.726   0.925
 9007SOL     OW27919   3.370   5.447   4.166
 9007SOL    HW127920   3.452   5.407   4.208
 9007SOL    HW227921   3.343   5.529   4.218
 9008SOL     OW27922   6.533   4.935   2.541
 9008SOL    HW127923   6.595   5.011   2.518
 9008SOL    HW227924   6.456   4.935   2.476
 9009SOL     OW27925   3.006   6.498   1.105
 9009SOL    HW127926   2.912   6.490   1.138
 9009SOL    HW227927   3.069   6.468   1.176
 9010SOL     OW27928   1.023   6.454   5.346
 9010SOL    HW127929   0.941   6.475   5.399
 9010SOL    HW227930   0.997   6.431   5.252
 9011SOL     OW27931   3.941   2.271   1.521
 9011SOL    HW127932   3.873   2.201   1.540
 9011SOL    HW227933   4.025   2.228   1.488
 9012SOL     OW27934   1.750   5.481   0.524
 9012SOL    HW127935   1.689   5.520   0.455
 9012SOL    HW227936   1.815   5.552   0.554
 9013SOL     OW27937   6.232   5.639   4.717
 9013SOL    HW127938   6.208   5.577   4.642
 9013SOL    HW227939   6.214   5.733   4.690
 9014SOL     OW27940   1.657   1.570   0.550
 9014SOL    HW127941   1.657   1.587   0.452
 9014SOL    HW227942   1.567   1.593   0.588
 9015SOL     OW27943   6.619   1.266   6.959
 9015SOL    HW127944   6.587   1.185   7.008
 9015SOL    HW227945   6.551   1.339   6.967
 9016SOL     OW27946   6.343   6.137   5.963
 9016SOL    HW127947   6.396   6.152   5.880
 9016SOL    HW227948   6.353   6.042   5.993
 9017SOL     OW27949   5.530   1.800   3.265
 9017SOL    HW127950   5.608   1.778   3.206
 9017SOL    HW227951   5.478   1.875   3.224
 9018SOL     OW27952   3.739   1.522   5.394
 9018SOL    HW127953   3.768   1.482   5.480
 9018SOL    HW227954   3.641   1.540   5.397
 9019SOL     OW27955   1.537   7.001   0.147
 9019SOL    HW127956   1.583   6.954   0.222
 9019SOL    HW227957   1.569   6.965   0.059
 9020SOL     OW27958   1.893   3.691   2.336
 9020SOL    HW127959   1.972   3.658   2.284
 9020SOL    HW227960   1.920   3.705   2.431
 9021SOL     OW27961   6.779   6.546   4.027
 9021SOL    HW127962   6.702   6.482   4.038
 9021SOL    HW227963   6.749   6.624   3.973
 9022SOL     OW27964   2.735   0.402   0.441
 9022SOL    HW127965   2.779   0.351   0.367
 9022SOL    HW227966   2.636   0.397   0.430
 9023SOL     OW27967   3.873   3.411   3.659
 9023SOL    HW127968   3.882   3.428   3.561
 9023SOL    HW227969   3.960   3.430   3.704
 9024SOL     OW27970   1.981   5.978   6.050
 9024SOL    HW127971   1.921   6.018   5.980
 9024SOL    HW227972   2.077   5.995   6.025
 9025SOL     OW27973   6.119   6.012   1.606
 9025SOL    HW127974   6.106   5.946   1.681
 9025SOL    HW227975   6.084   6.101   1.634
 9026SOL     OW27976   3.740   3.620   3.854
 9026SOL    HW127977   3.804   3.687   3.890
 9026SOL    HW227978   3.789   3.552   3.801
 9027SOL     OW27979   2.403   1.755   3.699
 9027SOL    HW127980   2.372   1.667   3.736
 9027SOL    HW227981   2.326   1.820   3.698
 9028SOL     OW27982   2.454   4.708   6.656
 9028SOL    HW127983   2.474   4.664   6.743
 9028SOL    HW227984   2.369   4.670   6.618
 9029SOL     OW27985   3.752   5.279   4.794
 9029SOL    HW127986   3.790   5.235   4.876
 9029SOL    HW227987   3.653   5.287   4.804
 9030SOL     OW27988   1.665   0.634   2.503
 9030SOL    HW127989   1.594   0.679   2.556
 9030SOL    HW227990   1.679   0.683   2.417
 9031SOL     OW27991   3.213   4.940   5.997
 9031SOL    HW127992   3.146   4.891   5.941
 9031SOL    HW227993   3.203   5.038   5.982
 9032SOL     OW27994   3.905   2.914   1.164
 9032SOL    HW127995   3.816   2.869   1.170
 9032SOL    HW227996   3.939   2.908   1.070
 9033SOL     OW27997   1.673   3.343   4.116
 9033SOL    HW127998   1.661   3.300   4.206
 9033SOL    HW227999   1.603   3.309   4.053
 9034SOL     OW28000   2.729   6.785   5.273
 9034SOL    HW128001   2.775   6.747   5.353
 9034SOL    HW228002   2.630   6.781   5.287
 9035SOL     OW28003   0.526   6.652   5.697
 9035SOL    HW128004   0.453   6.693   5.752
 9035SOL    HW228005   0.515   6.681   5.602
 9036SOL     OW28006   2.387   2.404   5.657
 9036SOL    HW128007   2.415   2.497   5.684
 9036SOL    HW228008   2.292   2.405   5.626
 9037SOL     OW28009   1.824   3.769   6.885
 9037SOL    HW128010   1.832   3.867   6.867
 9037SOL    HW228011   1.887   3.744   6.959
 9038SOL     OW28012   5.539   0.918   5.933
 9038SOL    HW128013   5.445   0.888   5.950
 9038SOL    HW228014   5.538   1.007   5.888
 9039SOL     OW28015   2.142   4.523   5.138
 9039SOL    HW128016   2.134   4.425   5.156
 9039SOL    HW228017   2.155   4.539   5.040
 9040SOL     OW28018   2.865   1.204   3.494
 9040SOL    HW128019   2.868   1.155   3.406
 9040SOL    HW228020   2.770   1.221   3.519
 9041SOL     OW28021   0.775   1.439   2.252
 9041SOL    HW128022   0.871   1.459   2.270
 9041SOL    HW228023   0.719   1.516   2.283
 9042SOL     OW28024   2.506   6.630   3.586
 9042SOL    HW128025   2.597   6.596   3.609
 9042SOL    HW228026   2.474   6.587   3.502
 9043SOL     OW28027   1.955   1.823   5.603
 9043SOL    HW128028   1.954   1.821   5.503
 9043SOL    HW228029   1.975   1.917   5.633
 9044SOL     OW28030   6.273   0.941   1.103
 9044SOL    HW128031   6.340   0.886   1.153
 9044SOL    HW228032   6.295   0.940   1.006
 9045SOL     OW28033   3.656   1.138   2.640
 9045SOL    HW128034   3.605   1.218   2.609
 9045SOL    HW228035   3.623   1.110   2.730
 9046SOL     OW28036   3.670   4.108   5.122
 9046SOL    HW128037   3.765   4.136   5.114
 9046SOL    HW228038   3.659   4.016   5.085
 9047SOL     OW28039   2.171   4.250   5.465
 9047SOL    HW128040   2.123   4.163   5.456
 9047SOL    HW228041   2.205   4.279   5.375
 9048SOL     OW28042   0.417   3.717   5.831
 9048SOL    HW128043   0.435   3.620   5.847
 9048SOL    HW228044   0.341   3.747   5.889
 9049SOL     OW28045   4.949   6.467   6.780
 9049SOL    HW128046   4.923   6.549   6.831
 9049SOL    HW228047   4.867   6.423   6.744
 9050SOL     OW28048   1.205   5.171   6.375
 9050SOL    HW128049   1.301   5.192   6.360
 9050SOL    HW228050   1.189   5.160   6.474
 9051SOL     OW28051   4.404   5.880   1.166
 9051SOL    HW128052   4.408   5.980   1.163
 9051SOL    HW228053   4.316   5.851   1.204
 9052SOL     OW28054   2.619   4.632   4.476
 9052SOL    HW128055   2.526   4.668   4.469
 9052SOL    HW228056   2.667   4.647   4.389
 9053SOL     OW28057   2.535   2.262   3.966
 9053SOL    HW128058   2.511   2.323   3.891
 9053SOL    HW228059   2.456   2.204   3.988
 9054SOL     OW28060   1.773   0.807   2.037
 9054SOL    HW128061   1.783   0.886   1.977
 9054SOL    HW228062   1.864   0.774   2.063
 9055SOL     OW28063   0.623   3.994   3.436
 9055SOL    HW128064   0.600   4.003   3.339
 9055SOL    HW228065   0.579   3.912   3.473
 9056SOL     OW28066   4.863   0.592   1.735
 9056SOL    HW128067   4.850   0.690   1.747
 9056SOL    HW228068   4.958   0.574   1.706
 9057SOL     OW28069   6.597   4.592   5.651
 9057SOL    HW128070   6.561   4.675   5.694
 9057SOL    HW228071   6.537   4.564   5.576
 9058SOL     OW28072   2.298   2.095   4.125
 9058SOL    HW128073   2.359   2.039   4.181
 9058SOL    HW228074   2.219   2.040   4.097
 9059SOL     OW28075   6.810   0.562   2.920
 9059SOL    HW128076   6.898   0.520   2.896
 9059SOL    HW228077   6.772   0.516   3.000
 9060SOL     OW28078   6.750   3.940   2.624
 9060SOL    HW128079   6.747   3.856   2.571
 9060SOL    HW228080   6.689   3.931   2.704
 9061SOL     OW28081   4.286   5.584   3.144
 9061SOL    HW128082   4.361   5.637   3.104
 9061SOL    HW228083   4.310   5.560   3.238
 9062SOL     OW28084   0.739   5.035   1.899
 9062SOL    HW128085   0.701   4.943   1.895
 9062SOL    HW228086   0.759   5.068   1.807
 9063SOL     OW28087   3.321   0.657   2.038
 9063SOL    HW128088   3.297   0.753   2.023
 9063SOL    HW228089   3.237   0.602   2.042
 9064SOL     OW28090   6.304   4.335   4.304
 9064SOL    HW128091   6.365   4.279   4.247
 9064SOL    HW228092   6.356   4.409   4.346
 9065SOL     OW28093   2.340   5.887   5.677
 9065SOL    HW128094   2.268   5.949   5.706
 9065SOL    HW228095   2.397   5.862   5.756
 9066SOL     OW28096   5.946   0.324   6.047
 9066SOL    HW128097   5.927   0.417   6.076
 9066SOL    HW228098   5.875   0.295   5.982
 9067SOL     OW28099   6.419   6.071   4.087
 9067SOL    HW128100   6.499   6.072   4.027
 9067SOL    HW228101   6.437   6.012   4.166
 9068SOL     OW28102   3.350   6.933   5.216
 9068SOL    HW128103   3.252   6.917   5.206
 9068SOL    HW228104   3.389   6.958   5.127
 9069SOL     OW28105   4.396   1.902   2.685
 9069SOL    HW128106   4.327   1.845   2.641
 9069SOL    HW228107   4.353   1.983   2.724
 9070SOL     OW28108   1.793   2.540   6.165
 9070SOL    HW128109   1.717   2.503   6.218
 9070SOL    HW228110   1.873   2.480   6.175
 9071SOL     OW28111   4.799   0.202   6.650
 9071SOL    HW128112   4.898   0.216   6.655
 9071SOL    HW228113   4.758   0.226   6.738
 9072SOL     OW28114   5.005   6.662   1.108
 9072SOL    HW128115   4.942   6.601   1.156
 9072SOL    HW228116   4.960   6.750   1.092
 9073SOL     OW28117   3.466   6.333   1.848
 9073SOL    HW128118   3.485   6.401   1.919
 9073SOL    HW228119   3.441   6.246   1.891
 9074SOL     OW28120   1.844   0.498   1.599
 9074SOL    HW128121   1.779   0.480   1.526
 9074SOL    HW228122   1.891   0.413   1.624
 9075SOL     OW28123   0.255   0.065   2.040
 9075SOL    HW128124   0.264   0.014   2.125
 9075SOL    HW228125   0.217   0.005   1.969
 9076SOL     OW28126   4.702   1.850   3.960
 9076SOL    HW128127   4.620   1.838   4.016
 9076SOL    HW228128   4.732   1.761   3.927
 9077SOL     OW28129   4.717   1.606   6.462
 9077SOL    HW128130   4.630   1.635   6.422
 9077SOL    HW228131   4.699   1.550   6.543
 9078SOL     OW28132   5.113   4.867   6.689
 9078SOL    HW128133   5.105   4.770   6.666
 9078SOL    HW228134   5.155   4.877   6.779
 9079SOL     OW28135   1.296   0.032   4.872
 9079SOL    HW128136   1.285   7.007   4.958
 9079SOL    HW228137   1.311   0.129   4.890
 9080SOL     OW28138   5.879   2.713   7.011
 9080SOL    HW128139   5.824   2.748   0.063
 9080SOL    HW228140   5.976   2.728   0.008
 9081SOL     OW28141   3.565   1.404   2.053
 9081SOL    HW128142   3.546   1.502   2.053
 9081SOL    HW228143   3.611   1.379   2.138
 9082SOL     OW28144   2.013   6.362   5.069
 9082SOL    HW128145   1.921   6.353   5.107
 9082SOL    HW228146   2.041   6.458   5.074
 9083SOL     OW28147   3.702   3.953   6.651
 9083SOL    HW128148   3.712   3.875   6.713
 9083SOL    HW228149   3.773   4.020   6.671
 9084SOL     OW28150   1.058   2.333   6.338
 9084SOL    HW128151   1.119   2.396   6.387
 9084SOL    HW228152   0.985   2.385   6.294
 9085SOL     OW28153   2.329   5.856   1.336
 9085SOL    HW128154   2.402   5.808   1.385
 9085SOL    HW228155   2.240   5.831   1.375
 9086SOL     OW28156   5.570   4.270   1.138
 9086SOL    HW128157   5.665   4.300   1.145
 9086SOL    HW228158   5.565   4.186   1.084
 9087SOL     OW28159   5.185   3.088   2.295
 9087SOL    HW128160   5.143   3.131   2.216
 9087SOL    HW228161   5.182   3.151   2.373
 9088SOL     OW28162   6.277   0.060   1.176
 9088SOL    HW128163   6.367   0.018   1.163
 9088SOL    HW228164   6.271   0.098   1.268
 9089SOL     OW28165   3.786   5.828   5.250
 9089SOL    HW128166   3.744   5.898   5.307
 9089SOL    HW228167   3.814   5.869   5.162
 9090SOL     OW28168   5.267   0.414   3.585
 9090SOL    HW128169   5.352   0.367   3.562
 9090SOL    HW228170   5.190   0.370   3.538
 9091SOL     OW28171   2.816   3.250   0.917
 9091SOL    HW128172   2.757   3.329   0.934
 9091SOL    HW228173   2.907   3.267   0.955
 9092SOL     OW28174   0.761   1.204   6.977
 9092SOL    HW128175   0.732   1.170   6.887
 9092SOL    HW228176   0.680   1.237   0.004
 9093SOL     OW28177   1.333   6.544   6.628
 9093SOL    HW128178   1.313   6.447   6.613
 9093SOL    HW228179   1.251   6.598   6.609
 9094SOL     OW28180   0.773   5.279   2.577
 9094SOL    HW128181   0.834   5.333   2.635
 9094SOL    HW228182   0.827   5.236   2.504
 9095SOL     OW28183   4.427   4.082   6.029
 9095SOL    HW128184   4.346   4.037   5.990
 9095SOL    HW228185   4.478   4.017   6.084
 9096SOL     OW28186   5.722   3.626   2.665
 9096SOL    HW128187   5.717   3.706   2.725
 9096SOL    HW228188   5.705   3.654   2.571
 9097SOL     OW28189   0.386   3.350   6.868
 9097SOL    HW128190   0.314   3.369   6.934
 9097SOL    HW228191   0.380   3.415   6.792
 9098SOL     OW28192   3.475   2.569   6.979
 9098SOL    HW128193   3.455   2.471   6.978
 9098SOL    HW228194   3.455   2.607   6.889
 9099SOL     OW28195   3.390   3.607   0.567
 9099SOL    HW128196   3.354   3.514   0.576
 9099SOL    HW228197   3.413   3.643   0.658
 9100SOL     OW28198   0.835   3.395   2.911
 9100SOL    HW128199   0.851   3.392   2.812
 9100SOL    HW228200   0.867   3.310   2.952
 9101SOL     OW28201   2.234   2.977   2.870
 9101SOL    HW128202   2.267   2.913   2.801
 9101SOL    HW228203   2.274   2.952   2.959
 9102SOL     OW28204   3.219   6.743   1.749
 9102SOL    HW128205   3.119   6.747   1.747
 9102SOL    HW228206   3.250   6.718   1.841
 9103SOL     OW28207   6.439   3.661   6.776
 9103SOL    HW128208   6.384   3.740   6.748
 9103SOL    HW228209   6.382   3.579   6.779
 9104SOL     OW28210   4.303   6.345   2.964
 9104SOL    HW128211   4.337   6.253   2.987
 9104SOL    HW228212   4.369   6.392   2.906
 9105SOL     OW28213   2.059   1.049   0.500
 9105SOL    HW128214   2.001   0.971   0.525
 9105SOL    HW228215   2.004   1.115   0.449
 9106SOL     OW28216   5.939   4.091   6.545
 9106SOL    HW128217   5.849   4.049   6.538
 9106SOL    HW228218   5.930   4.191   6.539
 9107SOL     OW28219   3.393   0.672   5.756
 9107SOL    HW128220   3.351   0.656   5.845
 9107SOL    HW228221   3.470   0.610   5.743
 9108SOL     OW28222   5.299   3.870   5.645
 9108SOL    HW128223   5.363   3.794   5.643
 9108SOL    HW228224   5.215   3.844   5.597
 9109SOL     OW28225   1.305   2.742   2.846
 9109SOL    HW128226   1.341   2.744   2.940
 9109SOL    HW228227   1.380   2.751   2.781
 9110SOL     OW28228   2.012   4.366   4.027
 9110SOL    HW128229   2.021   4.341   3.931
 9110SOL    HW228230   2.102   4.384   4.066
 9111SOL     OW28231   3.805   2.996   6.869
 9111SOL    HW128232   3.818   2.981   6.968
 9111SOL    HW228233   3.724   3.052   6.854
 9112SOL     OW28234   0.807   4.530   5.011
 9112SOL    HW128235   0.794   4.499   4.917
 9112SOL    HW228236   0.781   4.626   5.018
 9113SOL     OW28237   4.730   6.997   0.875
 9113SOL    HW128238   4.656   0.040   0.882
 9113SOL    HW228239   4.701   6.920   0.817
 9114SOL     OW28240   1.226   4.750   0.961
 9114SOL    HW128241   1.148   4.698   0.994
 9114SOL    HW228242   1.304   4.689   0.947
 9115SOL     OW28243   0.773   5.434   5.634
 9115SOL    HW128244   0.824   5.465   5.714
 9115SOL    HW228245   0.789   5.336   5.620
 9116SOL     OW28246   6.723   1.424   0.473
 9116SOL    HW128247   6.688   1.372   0.395
 9116SOL    HW228248   6.817   1.453   0.454
 9117SOL     OW28249   5.699   2.852   0.461
 9117SOL    HW128250   5.620   2.824   0.515
 9117SOL    HW228251   5.779   2.799   0.488
 9118SOL     OW28252   6.112   5.290   0.242
 9118SOL    HW128253   6.175   5.367   0.232
 9118SOL    HW228254   6.126   5.246   0.331
 9119SOL     OW28255   5.156   1.134   1.475
 9119SOL    HW128256   5.143   1.217   1.421
 9119SOL    HW228257   5.224   1.075   1.431
 9120SOL     OW28258   6.114   2.171   5.839
 9120SOL    HW128259   6.051   2.099   5.811
 9120SOL    HW228260   6.062   2.249   5.873
 9121SOL     OW28261   2.639   2.428   6.116
 9121SOL    HW128262   2.671   2.416   6.210
 9121SOL    HW228263   2.539   2.416   6.113
 9122SOL     OW28264   2.077   4.293   2.197
 9122SOL    HW128265   2.112   4.211   2.152
 9122SOL    HW228266   2.072   4.277   2.295
 9123SOL     OW28267   3.131   6.966   4.371
 9123SOL    HW128268   3.151   6.868   4.383
 9123SOL    HW228269   3.136   7.012   4.460
 9124SOL     OW28270   5.446   6.585   6.237
 9124SOL    HW128271   5.520   6.542   6.186
 9124SOL    HW228272   5.469   6.585   6.335
 9125SOL     OW28273   5.220   4.187   1.988
 9125SOL    HW128274   5.299   4.126   1.977
 9125SOL    HW228275   5.220   4.225   2.080
 9126SOL     OW28276   5.762   2.343   1.208
 9126SOL    HW128277   5.841   2.282   1.203
 9126SOL    HW228278   5.720   2.336   1.298
 9127SOL     OW28279   6.320   1.290   6.105
 9127SOL    HW128280   6.284   1.248   6.188
 9127SOL    HW228281   6.413   1.258   6.088
 9128SOL     OW28282   5.168   1.621   5.231
 9128SOL    HW128283   5.227   1.671   5.294
 9128SOL    HW228284   5.081   1.670   5.221
 9129SOL     OW28285   0.232   2.869   0.944
 9129SOL    HW128286   0.230   2.827   1.034
 9129SOL    HW228287   0.258   2.965   0.952
 9130SOL     OW28288   6.992   3.501   0.555
 9130SOL    HW128289   0.029   3.539   0.625
 9130SOL    HW228290   6.948   3.418   0.590
 9131SOL     OW28291   0.012   2.872   5.701
 9131SOL    HW128292   6.997   2.943   5.643
 9131SOL    HW228293   0.044   2.913   5.787
 9132SOL     OW28294   0.421   5.331   4.230
 9132SOL    HW128295   0.439   5.324   4.132
 9132SOL    HW228296   0.445   5.245   4.275
 9133SOL     OW28297   4.110   6.002   1.898
 9133SOL    HW128298   4.023   6.023   1.853
 9133SOL    HW228299   4.147   5.917   1.861
 9134SOL     OW28300   4.802   6.149   0.328
 9134SOL    HW128301   4.899   6.169   0.319
 9134SOL    HW228302   4.783   6.056   0.297
 9135SOL     OW28303   6.049   6.751   1.566
 9135SOL    HW128304   6.116   6.687   1.527
 9135SOL    HW228305   6.046   6.834   1.510
 9136SOL     OW28306   5.564   5.396   5.974
 9136SOL    HW128307   5.548   5.493   5.992
 9136SOL    HW228308   5.513   5.368   5.893
 9137SOL     OW28309   4.869   2.056   1.185
 9137SOL    HW128310   4.898   1.989   1.117
 9137SOL    HW228311   4.931   2.134   1.183
 9138SOL     OW28312   0.495   6.097   5.826
 9138SOL    HW128313   0.411   6.114   5.877
 9138SOL    HW228314   0.572   6.089   5.890
 9139SOL     OW28315   2.169   1.656   4.520
 9139SOL    HW128316   2.237   1.692   4.584
 9139SOL    HW228317   2.104   1.729   4.496
 9140SOL     OW28318   6.272   3.421   3.092
 9140SOL    HW128319   6.215   3.340   3.106
 9140SOL    HW228320   6.290   3.432   2.994
 9141SOL     OW28321   5.894   0.605   6.758
 9141SOL    HW128322   5.869   0.642   6.669
 9141SOL    HW228323   5.810   0.592   6.812
 9142SOL     OW28324   0.233   2.435   1.445
 9142SOL    HW128325   0.193   2.400   1.360
 9142SOL    HW228326   0.183   2.396   1.523
 9143SOL     OW28327   6.324   3.181   0.887
 9143SOL    HW128328   6.275   3.265   0.907
 9143SOL    HW228329   6.260   3.110   0.857
 9144SOL     OW28330   2.164   4.952   5.336
 9144SOL    HW128331   2.240   4.964   5.400
 9144SOL    HW228332   2.122   5.040   5.317
 9145SOL     OW28333   0.156   5.483   0.372
 9145SOL    HW128334   0.192   5.510   0.462
 9145SOL    HW228335   0.131   5.386   0.375
 9146SOL     OW28336   5.215   3.158   2.792
 9146SOL    HW128337   5.307   3.186   2.819
 9146SOL    HW228338   5.155   3.156   2.872
 9147SOL     OW28339   6.411   0.637   4.653
 9147SOL    HW128340   6.482   0.647   4.582
 9147SOL    HW228341   6.386   0.727   4.688
 9148SOL     OW28342   5.054   5.983   0.656
 9148SOL    HW128343   4.962   5.946   0.645
 9148SOL    HW228344   5.091   5.953   0.744
 9149SOL     OW28345   6.063   3.410   3.663
 9149SOL    HW128346   6.038   3.347   3.736
 9149SOL    HW228347   6.049   3.504   3.694
 9150SOL     OW28348   3.176   5.062   1.759
 9150SOL    HW128349   3.221   4.996   1.819
 9150SOL    HW228350   3.125   5.014   1.689
 9151SOL     OW28351   1.794   4.604   3.838
 9151SOL    HW128352   1.754   4.579   3.749
 9151SOL    HW228353   1.894   4.602   3.831
 9152SOL     OW28354   2.202   4.455   4.870
 9152SOL    HW128355   2.299   4.477   4.879
 9152SOL    HW228356   2.193   4.357   4.850
 9153SOL     OW28357   1.134   3.374   0.300
 9153SOL    HW128358   1.094   3.337   0.216
 9153SOL    HW228359   1.085   3.338   0.379
 9154SOL     OW28360   4.396   4.498   6.307
 9154SOL    HW128361   4.387   4.512   6.406
 9154SOL    HW228362   4.364   4.406   6.283
 9155SOL     OW28363   1.794   3.888   2.174
 9155SOL    HW128364   1.736   3.968   2.190
 9155SOL    HW228365   1.814   3.844   2.261
 9156SOL     OW28366   1.006   2.305   1.194
 9156SOL    HW128367   0.997   2.251   1.110
 9156SOL    HW228368   1.071   2.260   1.256
 9157SOL     OW28369   6.469   4.497   5.427
 9157SOL    HW128370   6.444   4.546   5.344
 9157SOL    HW228371   6.548   4.439   5.409
 9158SOL     OW28372   5.885   3.031   4.979
 9158SOL    HW128373   5.862   2.994   4.889
 9158SOL    HW228374   5.864   3.129   4.981
 9159SOL     OW28375   2.024   0.737   2.117
 9159SOL    HW128376   2.101   0.751   2.055
 9159SOL    HW228377   2.056   0.742   2.211
 9160SOL     OW28378   5.794   7.019   5.289
 9160SOL    HW128379   5.729   0.014   5.214
 9160SOL    HW228380   5.884   0.032   5.265
 9161SOL     OW28381   5.093   3.987   4.740
 9161SOL    HW128382   5.176   4.029   4.704
 9161SOL    HW228383   5.104   3.969   4.837
 9162SOL     OW28384   4.465   1.078   4.426
 9162SOL    HW128385   4.372   1.071   4.463
 9162SOL    HW228386   4.468   1.151   4.358
 9163SOL     OW28387   1.489   2.634   4.597
 9163SOL    HW128388   1.539   2.719   4.615
 9163SOL    HW228389   1.523   2.562   4.658
 9164SOL     OW28390   2.877   0.310   6.341
 9164SOL    HW128391   2.885   0.229   6.399
 9164SOL    HW228392   2.964   0.359   6.340
 9165SOL     OW28393   6.208   1.733   5.918
 9165SOL    HW128394   6.304   1.738   5.891
 9165SOL    HW228395   6.193   1.788   6.000
 9166SOL     OW28396   3.945   6.246   1.684
 9166SOL    HW128397   3.933   6.187   1.604
 9166SOL    HW228398   3.857   6.286   1.710
 9167SOL     OW28399   2.058   2.412   6.716
 9167SOL    HW128400   2.021   2.486   6.660
 9167SOL    HW228401   2.075   2.332   6.658
 9168SOL     OW28402   0.062   0.109   0.004
 9168SOL    HW128403   0.032   0.030   6.973
 9168SOL    HW228404   7.005   0.162   0.031
 9169SOL     OW28405   5.663   0.376   5.099
 9169SOL    HW128406   5.607   0.408   5.176
 9169SOL    HW228407   5.759   0.388   5.121
 9170SOL     OW28408   1.489   6.073   6.981
 9170SOL    HW128409   1.410   6.078   0.019
 9170SOL    HW228410   1.493   5.982   6.940
 9171SOL     OW28411   4.158   4.913   0.839
 9171SOL    HW128412   4.107   4.998   0.852
 9171SOL    HW228413   4.093   4.839   0.819
 9172SOL     OW28414   4.105   1.055   2.386
 9172SOL    HW128415   4.118   1.114   2.306
 9172SOL    HW228416   4.180   0.989   2.391
 9173SOL     OW28417   6.591   3.444   5.859
 9173SOL    HW128418   6.660   3.380   5.825
 9173SOL    HW228419   6.570   3.512   5.789
 9174SOL     OW28420   5.680   3.968   1.691
 9174SOL    HW128421   5.594   3.920   1.709
 9174SOL    HW228422   5.686   3.987   1.593
 9175SOL     OW28423   0.401   0.266   5.581
 9175SOL    HW128424   0.499   0.281   5.569
 9175SOL    HW228425   0.386   0.179   5.627
 9176SOL     OW28426   2.378   1.070   3.992
 9176SOL    HW128427   2.299   1.088   4.050
 9176SOL    HW228428   2.380   1.136   3.917
 9177SOL     OW28429   0.418   4.747   5.052
 9177SOL    HW128430   0.370   4.719   4.968
 9177SOL    HW228431   0.406   4.845   5.065
 9178SOL     OW28432   1.656   4.836   0.684
 9178SOL    HW128433   1.557   4.819   0.683
 9178SOL    HW228434   1.699   4.787   0.608
 9179SOL     OW28435   2.460   4.423   3.995
 9179SOL    HW128436   2.556   4.451   3.999
 9179SOL    HW228437   2.404   4.500   3.963
 9180SOL     OW28438   6.342   2.701   3.422
 9180SOL    HW128439   6.413   2.684   3.490
 9180SOL    HW228440   6.380   2.689   3.330
 9181SOL     OW28441   4.585   2.272   5.129
 9181SOL    HW128442   4.607   2.357   5.080
 9181SOL    HW228443   4.668   2.238   5.174
 9182SOL     OW28444   2.716   6.216   1.626
 9182SOL    HW128445   2.727   6.214   1.725
 9182SOL    HW228446   2.620   6.234   1.604
 9183SOL     OW28447   5.004   5.476   0.241
 9183SOL    HW128448   4.925   5.430   0.282
 9183SOL    HW228449   5.086   5.420   0.256
 9184SOL     OW28450   4.592   2.035   0.339
 9184SOL    HW128451   4.495   2.047   0.320
 9184SOL    HW228452   4.617   1.939   0.324
 9185SOL     OW28453   4.840   6.925   4.589
 9185SOL    HW128454   4.906   6.860   4.627
 9185SOL    HW228455   4.808   6.891   4.500
 9186SOL     OW28456   5.742   6.068   4.613
 9186SOL    HW128457   5.644   6.083   4.625
 9186SOL    HW228458   5.793   6.134   4.668
 9187SOL     OW28459   2.490   2.109   0.554
 9187SOL    HW128460   2.490   2.208   0.567
 9187SOL    HW228461   2.446   2.087   0.467
 9188SOL     OW28462   1.338   6.747   0.365
 9188SOL    HW128463   1.374   6.839   0.380
 9188SOL    HW228464   1.249   6.738   0.409
 9189SOL     OW28465   2.898   6.067   2.128
 9189SOL    HW128466   2.800   6.085   2.122
 9189SOL    HW228467   2.948   6.153   2.139
 9190SOL     OW28468   2.517   4.715   5.491
 9190SOL    HW128469   2.451   4.736   5.563
 9190SOL    HW228470   2.478   4.742   5.403
 9191SOL     OW28471   6.770   1.930   6.349
 9191SOL    HW128472   6.744   1.921   6.445
 9191SOL    HW228473   6.767   2.027   6.323
 9192SOL     OW28474   1.140   2.556   5.871
 9192SOL    HW128475   1.141   2.650   5.903
 9192SOL    HW228476   1.048   2.518   5.884
 9193SOL     OW28477   3.539   4.118   6.321
 9193SOL    HW128478   3.504   4.116   6.228
 9193SOL    HW228479   3.469   4.153   6.383
 9194SOL     OW28480   3.043   1.090   3.672
 9194SOL    HW128481   3.124   1.079   3.615
 9194SOL    HW228482   2.967   1.123   3.616
 9195SOL     OW28483   1.305   1.545   3.026
 9195SOL    HW128484   1.383   1.520   3.083
 9195SOL    HW228485   1.248   1.612   3.075
 9196SOL     OW28486   5.676   0.462   2.645
 9196SOL    HW128487   5.748   0.480   2.712
 9196SOL    HW228488   5.623   0.382   2.675
 9197SOL     OW28489   1.750   4.876   1.364
 9197SOL    HW128490   1.768   4.821   1.282
 9197SOL    HW228491   1.664   4.925   1.353
 9198SOL     OW28492   5.886   4.833   6.757
 9198SOL    HW128493   5.794   4.870   6.741
 9198SOL    HW228494   5.895   4.809   6.853
 9199SOL     OW28495   0.905   3.593   5.336
 9199SOL    HW128496   0.892   3.683   5.293
 9199SOL    HW228497   0.951   3.605   5.424
 9200SOL     OW28498   2.986   6.347   6.745
 9200SOL    HW128499   3.048   6.286   6.695
 9200SOL    HW228500   3.031   6.379   6.828
 9201SOL     OW28501   6.648   3.524   0.477
 9201SOL    HW128502   6.727   3.541   0.536
 9201SOL    HW228503   6.598   3.445   0.511
 9202SOL     OW28504   0.853   6.541   2.596
 9202SOL    HW128505   0.852   6.625   2.649
 9202SOL    HW228506   0.945   6.502   2.596
 9203SOL     OW28507   0.133   3.772   5.698
 9203SOL    HW128508   0.157   3.835   5.771
 9203SOL    HW228509   0.184   3.687   5.709
 9204SOL     OW28510   5.175   2.997   6.104
 9204SOL    HW128511   5.180   3.025   6.008
 9204SOL    HW228512   5.264   3.013   6.148
 9205SOL     OW28513   5.339   6.094   3.450
 9205SOL    HW128514   5.434   6.080   3.478
 9205SOL    HW228515   5.335   6.109   3.351
 9206SOL     OW28516   3.461   5.220   3.639
 9206SOL    HW128517   3.376   5.232   3.690
 9206SOL    HW228518   3.538   5.214   3.703
 9207SOL     OW28519   4.978   4.064   5.625
 9207SOL    HW128520   5.018   4.061   5.533
 9207SOL    HW228521   4.881   4.042   5.619
 9208SOL     OW28522   5.976   4.825   3.767
 9208SOL    HW128523   6.019   4.864   3.849
 9208SOL    HW228524   5.942   4.733   3.788
 9209SOL     OW28525   4.346   0.279   0.233
 9209SOL    HW128526   4.298   0.323   0.308
 9209SOL    HW228527   4.389   0.349   0.175
 9210SOL     OW28528   0.356   1.247   2.115
 9210SOL    HW128529   0.328   1.167   2.169
 9210SOL    HW228530   0.453   1.264   2.130
 9211SOL     OW28531   0.210   2.800   6.076
 9211SOL    HW128532   0.222   2.711   6.033
 9211SOL    HW228533   0.214   2.872   6.006
 9212SOL     OW28534   4.468   5.726   4.240
 9212SOL    HW128535   4.564   5.749   4.254
 9212SOL    HW228536   4.411   5.782   4.299
 9213SOL     OW28537   5.708   3.216   5.295
 9213SOL    HW128538   5.686   3.198   5.199
 9213SOL    HW228539   5.772   3.146   5.328
 9214SOL     OW28540   6.872   3.834   6.124
 9214SOL    HW128541   6.868   3.933   6.136
 9214SOL    HW228542   6.804   3.791   6.184
 9215SOL     OW28543   1.208   2.685   1.507
 9215SOL    HW128544   1.190   2.613   1.440
 9215SOL    HW228545   1.129   2.693   1.569
 9216SOL     OW28546   3.706   0.277   2.002
 9216SOL    HW128547   3.641   0.341   2.043
 9216SOL    HW228548   3.656   0.200   1.961
 9217SOL     OW28549   7.006   2.985   6.768
 9217SOL    HW128550   0.015   3.076   6.742
 9217SOL    HW228551   0.056   2.936   6.816
 9218SOL     OW28552   2.262   0.706   6.798
 9218SOL    HW128553   2.205   0.624   6.788
 9218SOL    HW228554   2.270   0.730   6.894
 9219SOL     OW28555   5.729   3.244   0.628
 9219SOL    HW128556   5.664   3.182   0.583
 9219SOL    HW228557   5.717   3.336   0.591
 9220SOL     OW28558   1.491   6.296   1.550
 9220SOL    HW128559   1.536   6.382   1.573
 9220SOL    HW228560   1.472   6.245   1.634
 9221SOL     OW28561   2.816   0.636   3.276
 9221SOL    HW128562   2.892   0.701   3.277
 9221SOL    HW228563   2.739   0.674   3.328
 9222SOL     OW28564   2.674   5.988   6.304
 9222SOL    HW128565   2.625   5.911   6.344
 9222SOL    HW228566   2.608   6.058   6.276
 9223SOL     OW28567   0.986   2.222   3.709
 9223SOL    HW128568   0.963   2.281   3.786
 9223SOL    HW228569   0.945   2.132   3.723
 9224SOL     OW28570   1.303   5.273   4.136
 9224SOL    HW128571   1.318   5.224   4.050
 9224SOL    HW228572   1.335   5.217   4.213
 9225SOL     OW28573   2.870   6.611   6.681
 9225SOL    HW128574   2.912   6.521   6.680
 9225SOL    HW228575   2.777   6.605   6.643
 9226SOL     OW28576   6.438   6.944   1.797
 9226SOL    HW128577   6.382   6.910   1.873
 9226SOL    HW228578   6.392   7.022   1.755
 9227SOL     OW28579   1.712   6.282   0.646
 9227SOL    HW128580   1.652   6.257   0.570
 9227SOL    HW228581   1.803   6.242   0.632
 9228SOL     OW28582   1.832   2.260   5.973
 9228SOL    HW128583   1.758   2.276   5.908
 9228SOL    HW228584   1.836   2.162   5.996
 9229SOL     OW28585   1.091   5.430   4.994
 9229SOL    HW128586   1.029   5.388   5.060
 9229SOL    HW228587   1.170   5.468   5.043
 9230SOL     OW28588   4.922   2.447   3.215
 9230SOL    HW128589   4.964   2.537   3.206
 9230SOL    HW228590   4.885   2.435   3.307
 9231SOL     OW28591   0.376   3.429   4.621
 9231SOL    HW128592   0.423   3.473   4.698
 9231SOL    HW228593   0.380   3.490   4.541
 9232SOL     OW28594   4.132   5.130   0.543
 9232SOL    HW128595   4.098   5.158   0.633
 9232SOL    HW228596   4.115   5.033   0.531
 9233SOL     OW28597   5.770   5.303   2.000
 9233SOL    HW128598   5.747   5.219   2.049
 9233SOL    HW228599   5.869   5.319   2.007
 9234SOL     OW28600   3.471   6.173   6.567
 9234SOL    HW128601   3.477   6.109   6.644
 9234SOL    HW228602   3.415   6.133   6.494
 9235SOL     OW28603   1.586   3.414   2.748
 9235SOL    HW128604   1.675   3.402   2.793
 9235SOL    HW228605   1.561   3.510   2.749
 9236SOL     OW28606   1.986   4.616   6.044
 9236SOL    HW128607   2.080   4.587   6.029
 9236SOL    HW228608   1.967   4.618   6.142
 9237SOL     OW28609   1.782   5.900   4.397
 9237SOL    HW128610   1.832   5.826   4.353
 9237SOL    HW228611   1.761   5.874   4.492
 9238SOL     OW28612   2.898   1.899   7.014
 9238SOL    HW128613   2.860   1.984   0.027
 9238SOL    HW228614   2.825   1.833   6.998
 9239SOL     OW28615   6.518   4.159   0.285
 9239SOL    HW128616   6.526   4.093   0.210
 9239SOL    HW228617   6.604   4.210   0.293
 9240SOL     OW28618   4.640   1.680   1.348
 9240SOL    HW128619   4.678   1.664   1.439
 9240SOL    HW228620   4.660   1.602   1.289
 9241SOL     OW28621   0.494   5.377   5.807
 9241SOL    HW128622   0.576   5.351   5.758
 9241SOL    HW228623   0.460   5.464   5.771
 9242SOL     OW28624   1.313   4.825   6.754
 9242SOL    HW128625   1.400   4.777   6.766
 9242SOL    HW228626   1.323   4.920   6.786
 9243SOL     OW28627   6.459   6.766   1.474
 9243SOL    HW128628   6.479   6.862   1.494
 9243SOL    HW228629   6.522   6.732   1.404
 9244SOL     OW28630   4.532   5.588   6.483
 9244SOL    HW128631   4.491   5.499   6.505
 9244SOL    HW228632   4.612   5.602   6.541
 9245SOL     OW28633   1.758   4.977   2.936
 9245SOL    HW128634   1.788   5.072   2.947
 9245SOL    HW228635   1.725   4.943   3.024
 9246SOL     OW28636   0.118   5.615   2.398
 9246SOL    HW128637   0.141   5.629   2.494
 9246SOL    HW228638   0.186   5.555   2.356
 9247SOL     OW28639   1.268   6.676   2.647
 9247SOL    HW128640   1.313   6.759   2.617
 9247SOL    HW228641   1.311   6.643   2.731
 9248SOL     OW28642   2.322   2.319   4.277
 9248SOL    HW128643   2.308   2.242   4.214
 9248SOL    HW228644   2.408   2.365   4.256
 9249SOL     OW28645   3.839   3.832   0.262
 9249SOL    HW128646   3.877   3.924   0.270
 9249SOL    HW228647   3.912   3.767   0.241
 9250SOL     OW28648   5.633   3.402   3.888
 9250SOL    HW128649   5.563   3.473   3.879
 9250SOL    HW228650   5.613   3.347   3.969
 9251SOL     OW28651   3.902   1.819   2.571
 9251SOL    HW128652   3.978   1.818   2.636
 9251SOL    HW228653   3.903   1.735   2.518
 9252SOL     OW28654   5.713   0.328   4.476
 9252SOL    HW128655   5.642   0.372   4.531
 9252SOL    HW228656   5.792   0.389   4.469
 9253SOL     OW28657   5.893   6.495   4.905
 9253SOL    HW128658   5.796   6.477   4.889
 9253SOL    HW228659   5.933   6.421   4.959
 9254SOL     OW28660   6.499   4.743   2.898
 9254SOL    HW128661   6.424   4.679   2.916
 9254SOL    HW228662   6.545   4.718   2.813
 9255SOL     OW28663   4.677   3.778   0.253
 9255SOL    HW128664   4.743   3.844   0.217
 9255SOL    HW228665   4.708   3.745   0.341
 9256SOL     OW28666   3.841   6.852   2.548
 9256SOL    HW128667   3.904   6.798   2.603
 9256SOL    HW228668   3.747   6.836   2.579
 9257SOL     OW28669   0.192   3.651   3.014
 9257SOL    HW128670   0.174   3.706   3.096
 9257SOL    HW228671   0.263   3.695   2.960
 9258SOL     OW28672   3.278   3.191   3.517
 9258SOL    HW128673   3.228   3.109   3.544
 9258SOL    HW228674   3.327   3.173   3.432
 9259SOL     OW28675   1.387   2.573   0.341
 9259SOL    HW128676   1.351   2.496   0.393
 9259SOL    HW228677   1.329   2.590   0.261
 9260SOL     OW28678   5.412   1.646   4.816
 9260SOL    HW128679   5.317   1.615   4.806
 9260SOL    HW228680   5.422   1.736   4.773
 9261SOL     OW28681   4.300   0.716   0.104
 9261SOL    HW128682   4.354   0.769   0.038
 9261SOL    HW228683   4.214   0.763   0.122
 9262SOL     OW28684   0.001   4.140   5.955
 9262SOL    HW128685   6.959   4.145   5.880
 9262SOL    HW228686   6.975   4.145   6.042
 9263SOL     OW28687   4.931   6.150   1.364
 9263SOL    HW128688   4.883   6.222   1.313
 9263SOL    HW228689   5.022   6.136   1.326
 9264SOL     OW28690   5.096   4.628   0.510
 9264SOL    HW128691   5.020   4.576   0.471
 9264SOL    HW228692   5.067   4.723   0.524
 9265SOL     OW28693   3.572   2.184   0.085
 9265SOL    HW128694   3.617   2.134   0.012
 9265SOL    HW228695   3.483   2.216   0.054
 9266SOL     OW28696   2.428   0.163   1.783
 9266SOL    HW128697   2.345   0.115   1.813
 9266SOL    HW228698   2.407   0.218   1.703
 9267SOL     OW28699   6.870   2.638   4.874
 9267SOL    HW128700   6.896   2.706   4.805
 9267SOL    HW228701   6.783   2.596   4.847
 9268SOL     OW28702   0.798   5.430   1.766
 9268SOL    HW128703   0.747   5.361   1.715
 9268SOL    HW228704   0.747   5.516   1.766
 9269SOL     OW28705   2.958   1.368   6.152
 9269SOL    HW128706   3.027   1.435   6.179
 9269SOL    HW228707   2.993   1.312   6.077
 9270SOL     OW28708   4.453   6.497   6.145
 9270SOL    HW128709   4.406   6.507   6.058
 9270SOL    HW228710   4.394   6.529   6.219
 9271SOL     OW28711   0.018   0.406   6.928
 9271SOL    HW128712   0.037   0.442   7.019
 9271SOL    HW228713   6.995   0.476   6.874
 9272SOL     OW28714   1.448   5.589   4.074
 9272SOL    HW128715   1.515   5.521   4.046
 9272SOL    HW228716   1.427   5.578   4.171
 9273SOL     OW28717   6.201   6.186   3.574
 9273SOL    HW128718   6.282   6.131   3.590
 9273SOL    HW228719   6.124   6.148   3.626
 9274SOL     OW28720   6.521   2.515   0.026
 9274SOL    HW128721   6.473   2.603   0.029
 9274SOL    HW228722   6.492   2.458   0.103
 9275SOL     OW28723   0.067   1.165   6.591
 9275SOL    HW128724   0.004   1.140   6.665
 9275SOL    HW228725   0.080   1.264   6.589
 9276SOL     OW28726   2.092   3.906   2.221
 9276SOL    HW128727   1.993   3.917   2.214
 9276SOL    HW228728   2.116   3.810   2.204
 9277SOL     OW28729   5.228   3.305   0.007
 9277SOL    HW128730   5.210   3.208   0.022
 9277SOL    HW228731   5.307   3.333   0.062
 9278SOL     OW28732   1.619   0.581   6.129
 9278SOL    HW128733   1.703   0.586   6.183
 9278SOL    HW228734   1.614   0.660   6.068
 9279SOL     OW28735   4.905   1.049   1.475
 9279SOL    HW128736   4.977   1.105   1.517
 9279SOL    HW228737   4.860   1.102   1.403
 9280SOL     OW28738   2.001   2.063   3.632
 9280SOL    HW128739   1.910   2.101   3.614
 9280SOL    HW228740   2.068   2.107   3.572
 9281SOL     OW28741   2.551   4.610   0.797
 9281SOL    HW128742   2.580   4.572   0.710
 9281SOL    HW228743   2.624   4.599   0.865
 9282SOL     OW28744   4.667   1.295   3.961
 9282SOL    HW128745   4.715   1.235   4.026
 9282SOL    HW228746   4.725   1.310   3.881
 9283SOL     OW28747   5.727   0.513   3.623
 9283SOL    HW128748   5.677   0.514   3.710
 9283SOL    HW228749   5.662   0.512   3.547
 9284SOL     OW28750   3.464   3.552   6.175
 9284SOL    HW128751   3.542   3.609   6.153
 9284SOL    HW228752   3.404   3.600   6.239
 9285SOL     OW28753   4.909   2.961   0.961
 9285SOL    HW128754   4.861   3.015   1.030
 9285SOL    HW228755   4.877   2.987   0.870
 9286SOL     OW28756   5.402   6.157   0.354
 9286SOL    HW128757   5.412   6.171   0.453
 9286SOL    HW228758   5.461   6.221   0.305
 9287SOL     OW28759   3.354   5.168   6.580
 9287SOL    HW128760   3.426   5.235   6.600
 9287SOL    HW228761   3.290   5.164   6.656
 9288SOL     OW28762   4.422   1.300   3.874
 9288SOL    HW128763   4.377   1.227   3.926
 9288SOL    HW228764   4.518   1.307   3.902
 9289SOL     OW28765   3.770   1.415   2.390
 9289SOL    HW128766   3.764   1.329   2.339
 9289SOL    HW228767   3.779   1.396   2.488
 9290SOL     OW28768   5.411   1.170   3.212
 9290SOL    HW128769   5.368   1.108   3.279
 9290SOL    HW228770   5.401   1.131   3.120
 9291SOL     OW28771   1.676   6.695   4.445
 9291SOL    HW128772   1.596   6.686   4.504
 9291SOL    HW228773   1.747   6.631   4.475
 9292SOL     OW28774   0.668   3.772   0.101
 9292SOL    HW128775   0.675   3.674   0.084
 9292SOL    HW228776   0.643   3.787   0.197
 9293SOL     OW28777   5.461   4.179   6.679
 9293SOL    HW128778   5.539   4.135   6.634
 9293SOL    HW228779   5.387   4.114   6.690
 9294SOL     OW28780   3.857   0.430   5.245
 9294SOL    HW128781   3.921   0.375   5.299
 9294SOL    HW228782   3.904   0.512   5.213
 9295SOL     OW28783   5.519   2.475   4.507
 9295SOL    HW128784   5.475   2.521   4.584
 9295SOL    HW228785   5.451   2.460   4.435
 9296SOL     OW28786   0.216   6.466   7.010
 9296SOL    HW128787   0.170   6.451   6.922
 9296SOL    HW228788   0.248   6.561   7.015
 9297SOL     OW28789   6.273   0.656   0.279
 9297SOL    HW128790   6.255   0.736   0.223
 9297SOL    HW228791   6.192   0.633   0.333
 9298SOL     OW28792   0.696   0.381   5.197
 9298SOL    HW128793   0.761   0.401   5.124
 9298SOL    HW228794   0.640   0.302   5.171
 9299SOL     OW28795   0.582   2.790   4.779
 9299SOL    HW128796   0.502   2.796   4.839
 9299SOL    HW228797   0.659   2.836   4.823
 9300SOL     OW28798   0.719   4.637   5.374
 9300SOL    HW128799   0.737   4.671   5.466
 9300SOL    HW228800   0.801   4.589   5.340
 9301SOL     OW28801   4.926   4.583   3.569
 9301SOL    HW128802   4.873   4.531   3.502
 9301SOL    HW228803   4.982   4.651   3.522
 9302SOL     OW28804   2.109   3.282   3.871
 9302SOL    HW128805   2.092   3.376   3.901
 9302SOL    HW228806   2.136   3.282   3.775
 9303SOL     OW28807   2.762   5.092   0.928
 9303SOL    HW128808   2.682   5.119   0.874
 9303SOL    HW228809   2.796   5.004   0.894
 9304SOL     OW28810   4.072   4.801   2.199
 9304SOL    HW128811   4.020   4.867   2.145
 9304SOL    HW228812   4.162   4.786   2.157
 9305SOL     OW28813   3.464   0.925   0.439
 9305SOL    HW128814   3.520   0.913   0.357
 9305SOL    HW228815   3.478   1.017   0.476
 9306SOL     OW28816   0.292   4.563   4.567
 9306SOL    HW128817   0.252   4.630   4.504
 9306SOL    HW228818   0.361   4.509   4.520
 9307SOL     OW28819   1.946   3.384   1.927
 9307SOL    HW128820   1.894   3.460   1.963
 9307SOL    HW228821   2.039   3.414   1.906
 9308SOL     OW28822   1.986   3.712   0.333
 9308SOL    HW128823   1.942   3.788   0.286
 9308SOL    HW228824   1.923   3.675   0.402
 9309SOL     OW28825   3.265   4.681   6.165
 9309SOL    HW128826   3.234   4.688   6.070
 9309SOL    HW228827   3.345   4.739   6.179
 9310SOL     OW28828   4.498   5.052   6.652
 9310SOL    HW128829   4.422   5.115   6.666
 9310SOL    HW228830   4.569   5.098   6.598
 9311SOL     OW28831   4.472   4.919   2.594
 9311SOL    HW128832   4.458   4.829   2.552
 9311SOL    HW228833   4.405   4.983   2.557
 9312SOL     OW28834   1.224   3.585   1.286
 9312SOL    HW128835   1.257   3.553   1.197
 9312SOL    HW228836   1.158   3.520   1.323
 9313SOL     OW28837   0.681   0.749   1.354
 9313SOL    HW128838   0.609   0.680   1.350
 9313SOL    HW228839   0.769   0.707   1.332
 9314SOL     OW28840   5.117   5.285   6.608
 9314SOL    HW128841   5.195   5.297   6.671
 9314SOL    HW228842   5.086   5.375   6.578
 9315SOL     OW28843   6.021   0.404   4.848
 9315SOL    HW128844   6.084   0.400   4.925
 9315SOL    HW228845   5.995   0.499   4.831
 9316SOL     OW28846   4.290   5.717   5.515
 9316SOL    HW128847   4.197   5.752   5.527
 9316SOL    HW228848   4.341   5.725   5.600
 9317SOL     OW28849   5.692   5.270   3.431
 9317SOL    HW128850   5.661   5.325   3.354
 9317SOL    HW228851   5.612   5.237   3.482
 9318SOL     OW28852   5.869   0.684   5.481
 9318SOL    HW128853   5.867   0.585   5.493
 9318SOL    HW228854   5.955   0.720   5.517
 9319SOL     OW28855   2.090   3.194   0.311
 9319SOL    HW128856   2.052   3.271   0.259
 9319SOL    HW228857   2.149   3.229   0.383
 9320SOL     OW28858   3.888   0.285   5.001
 9320SOL    HW128859   3.986   0.288   4.985
 9320SOL    HW228860   3.865   0.344   5.079
 9321SOL     OW28861   6.812   0.279   3.510
 9321SOL    HW128862   6.842   0.316   3.422
 9321SOL    HW228863   6.715   0.303   3.524
 9322SOL     OW28864   0.524   4.428   0.079
 9322SOL    HW128865   0.594   4.364   0.049
 9322SOL    HW228866   0.437   4.379   0.091
 9323SOL     OW28867   1.061   0.523   5.229
 9323SOL    HW128868   1.049   0.526   5.328
 9323SOL    HW228869   0.972   0.513   5.185
 9324SOL     OW28870   1.053   4.469   0.685
 9324SOL    HW128871   1.006   4.487   0.772
 9324SOL    HW228872   1.142   4.514   0.686
 9325SOL     OW28873   5.168   0.340   0.279
 9325SOL    HW128874   5.082   0.338   0.227
 9325SOL    HW228875   5.150   0.374   0.371
 9326SOL     OW28876   1.897   5.676   0.205
 9326SOL    HW128877   1.849   5.588   0.205
 9326SOL    HW228878   1.985   5.666   0.252
 9327SOL     OW28879   5.522   0.734   2.646
 9327SOL    HW128880   5.576   0.810   2.610
 9327SOL    HW228881   5.565   0.647   2.621
 9328SOL     OW28882   2.684   0.989   5.183
 9328SOL    HW128883   2.758   0.987   5.116
 9328SOL    HW228884   2.712   1.043   5.263
 9329SOL     OW28885   5.987   3.503   1.056
 9329SOL    HW128886   5.995   3.510   1.155
 9329SOL    HW228887   6.068   3.457   1.019
 9330SOL     OW28888   6.437   6.828   6.284
 9330SOL    HW128889   6.474   6.850   6.374
 9330SOL    HW228890   6.370   6.898   6.258
 9331SOL     OW28891   2.451   1.179   7.016
 9331SOL    HW128892   2.395   1.224   0.061
 9331SOL    HW228893   2.459   1.237   6.935
 9332SOL     OW28894   4.045   3.875   1.695
 9332SOL    HW128895   4.008   3.796   1.648
 9332SOL    HW228896   4.021   3.959   1.645
 9333SOL     OW28897   4.411   3.911   0.286
 9333SOL    HW128898   4.505   3.881   0.269
 9333SOL    HW228899   4.392   3.907   0.384
 9334SOL     OW28900   6.120   5.946   3.232
 9334SOL    HW128901   6.118   6.046   3.230
 9334SOL    HW228902   6.203   5.915   3.279
 9335SOL     OW28903   0.987   1.396   6.854
 9335SOL    HW128904   0.895   1.366   6.880
 9335SOL    HW228905   1.045   1.316   6.838
 9336SOL     OW28906   3.120   5.914   5.585
 9336SOL    HW128907   3.167   5.975   5.648
 9336SOL    HW228908   3.168   5.912   5.498
 9337SOL     OW28909   4.146   1.954   4.567
 9337SOL    HW128910   4.182   1.933   4.476
 9337SOL    HW228911   4.050   1.923   4.572
 9338SOL     OW28912   5.067   0.476   1.978
 9338SOL    HW128913   4.976   0.509   2.002
 9338SOL    HW228914   5.129   0.553   1.965
 9339SOL     OW28915   5.860   0.037   1.628
 9339SOL    HW128916   5.779   0.057   1.573
 9339SOL    HW228917   5.903   6.977   1.593
 9340SOL     OW28918   5.544   4.305   4.619
 9340SOL    HW128919   5.613   4.347   4.678
 9340SOL    HW228920   5.492   4.378   4.573
 9341SOL     OW28921   7.013   5.667   0.821
 9341SOL    HW128922   0.047   5.598   0.777
 9341SOL    HW228923   7.000   5.744   0.759
 9342SOL     OW28924   1.960   6.460   3.952
 9342SOL    HW128925   1.968   6.498   3.860
 9342SOL    HW228926   2.048   6.470   4.000
 9343SOL     OW28927   5.752   3.990   2.538
 9343SOL    HW128928   5.824   4.017   2.602
 9343SOL    HW228929   5.785   4.001   2.444
 9344SOL     OW28930   4.998   6.413   2.657
 9344SOL    HW128931   5.011   6.502   2.701
 9344SOL    HW228932   5.074   6.353   2.681
 9345SOL     OW28933   5.915   5.369   2.333
 9345SOL    HW128934   6.008   5.395   2.361
 9345SOL    HW228935   5.902   5.271   2.350
 9346SOL     OW28936   5.926   1.548   1.308
 9346SOL    HW128937   5.935   1.622   1.374
 9346SOL    HW228938   6.014   1.500   1.299
 9347SOL     OW28939   2.940   3.746   0.564
 9347SOL    HW128940   2.973   3.696   0.484
 9347SOL    HW228941   2.912   3.838   0.537
 9348SOL     OW28942   3.252   6.445   2.227
 9348SOL    HW128943   3.294   6.530   2.258
 9348SOL    HW228944   3.322   6.381   2.198
 9349SOL     OW28945   6.461   5.391   3.682
 9349SOL    HW128946   6.366   5.370   3.703
 9349SOL    HW228947   6.479   5.488   3.697
 9350SOL     OW28948   0.571   3.018   5.151
 9350SOL    HW128949   0.507   3.021   5.074
 9350SOL    HW228950   0.538   2.954   5.220
 9351SOL     OW28951   2.995   0.143   0.067
 9351SOL    HW128952   3.026   0.219   0.125
 9351SOL    HW228953   3.051   0.063   0.084
 9352SOL     OW28954   3.799   1.568   6.209
 9352SOL    HW128955   3.876   1.593   6.268
 9352SOL    HW228956   3.751   1.489   6.247
 9353SOL     OW28957   0.487   4.354   0.772
 9353SOL    HW128958   0.480   4.294   0.693
 9353SOL    HW228959   0.558   4.423   0.755
 9354SOL     OW28960   0.220   2.208   6.330
 9354SOL    HW128961   0.124   2.230   6.318
 9354SOL    HW228962   0.258   2.260   6.406
 9355SOL     OW28963   0.482   1.997   4.333
 9355SOL    HW128964   0.556   2.023   4.270
 9355SOL    HW228965   0.415   2.071   4.338
 9356SOL     OW28966   4.875   0.369   2.265
 9356SOL    HW128967   4.838   0.278   2.282
 9356SOL    HW228968   4.956   0.361   2.207
 9357SOL     OW28969   1.883   2.921   5.895
 9357SOL    HW128970   1.967   2.929   5.841
 9357SOL    HW228971   1.854   2.825   5.897
 9358SOL     OW28972   6.420   3.335   2.013
 9358SOL    HW128973   6.396   3.383   2.098
 9358SOL    HW228974   6.438   3.402   1.941
 9359SOL     OW28975   1.766   4.576   5.888
 9359SOL    HW128976   1.844   4.583   5.950
 9359SOL    HW228977   1.799   4.571   5.793
 9360SOL     OW28978   0.993   4.440   6.576
 9360SOL    HW128979   1.075   4.495   6.563
 9360SOL    HW228980   0.922   4.470   6.512
 9361SOL     OW28981   1.958   5.274   2.654
 9361SOL    HW128982   1.942   5.349   2.590
 9361SOL    HW228983   1.896   5.199   2.634
 9362SOL     OW28984   1.478   1.519   2.489
 9362SOL    HW128985   1.577   1.534   2.490
 9362SOL    HW228986   1.440   1.545   2.577
 9363SOL     OW28987   3.153   5.347   1.870
 9363SOL    HW128988   3.169   5.268   1.811
 9363SOL    HW228989   3.231   5.409   1.866
 9364SOL     OW28990   2.572   2.241   6.746
 9364SOL    HW128991   2.557   2.205   6.838
 9364SOL    HW228992   2.641   2.314   6.750
 9365SOL     OW28993   3.242   2.159   3.639
 9365SOL    HW128994   3.334   2.196   3.631
 9365SOL    HW228995   3.247   2.060   3.655
 9366SOL     OW28996   3.241   5.574   6.266
 9366SOL    HW128997   3.188   5.658   6.276
 9366SOL    HW228998   3.219   5.511   6.341
 9367SOL     OW28999   6.551   6.325   2.169
 9367SOL    HW129000   6.553   6.246   2.230
 9367SOL    HW229001   6.601   6.304   2.085
 9368SOL     OW29002   3.292   0.604   3.005
 9368SOL    HW129003   3.310   0.589   3.102
 9368SOL    HW229004   3.274   0.517   2.960
 9369SOL     OW29005   6.792   6.778   3.841
 9369SOL    HW129006   6.823   6.734   3.757
 9369SOL    HW229007   6.864   6.838   3.876
 9370SOL     OW29008   5.242   0.550   4.575
 9370SOL    HW129009   5.326   0.502   4.602
 9370SOL    HW229010   5.256   0.649   4.584
 9371SOL     OW29011   2.348   5.421   0.307
 9371SOL    HW129012   2.284   5.360   0.260
 9371SOL    HW229013   2.440   5.405   0.274
 9372SOL     OW29014   5.259   6.529   1.184
 9372SOL    HW129015   5.194   6.589   1.136
 9372SOL    HW229016   5.352   6.549   1.154
 9373SOL     OW29017   4.807   2.656   1.613
 9373SOL    HW129018   4.867   2.734   1.594
 9373SOL    HW229019   4.730   2.687   1.669
 9374SOL     OW29020   0.570   2.983   6.727
 9374SOL    HW129021   0.655   2.941   6.758
 9374SOL    HW229022   0.496   2.960   6.791
 9375SOL     OW29023   0.400   2.595   1.108
 9375SOL    HW129024   0.351   2.569   1.025
 9375SOL    HW229025   0.454   2.518   1.141
 9376SOL     OW29026   2.146   3.827   1.193
 9376SOL    HW129027   2.101   3.900   1.244
 9376SOL    HW229028   2.136   3.741   1.244
 9377SOL     OW29029   1.987   4.821   2.848
 9377SOL    HW129030   1.973   4.750   2.780
 9377SOL    HW229031   1.908   4.883   2.850
 9378SOL     OW29032   3.041   1.161   3.056
 9378SOL    HW129033   3.051   1.226   3.131
 9378SOL    HW229034   3.084   1.197   2.974
 9379SOL     OW29035   4.917   0.208   5.056
 9379SOL    HW129036   4.896   0.202   5.153
 9379SOL    HW229037   4.976   0.131   5.030
 9380SOL     OW29038   3.751   5.353   5.253
 9380SOL    HW129039   3.811   5.429   5.279
 9380SOL    HW229040   3.668   5.355   5.309
 9381SOL     OW29041   5.452   2.995   5.786
 9381SOL    HW129042   5.468   3.088   5.753
 9381SOL    HW229043   5.534   2.962   5.833
 9382SOL     OW29044   3.835   0.438   3.376
 9382SOL    HW129045   3.916   0.494   3.393
 9382SOL    HW229046   3.778   0.483   3.307
 9383SOL     OW29047   5.553   4.668   3.776
 9383SOL    HW129048   5.545   4.588   3.836
 9383SOL    HW229049   5.536   4.750   3.830
 9384SOL     OW29050   3.993   0.322   1.967
 9384SOL    HW129051   3.901   0.293   1.996
 9384SOL    HW229052   3.987   0.368   1.878
 9385SOL     OW29053   4.454   1.246   4.217
 9385SOL    HW129054   4.507   1.174   4.173
 9385SOL    HW229055   4.504   1.332   4.214
 9386SOL     OW29056   3.189   5.912   5.310
 9386SOL    HW129057   3.150   5.825   5.280
 9386SOL    HW229058   3.192   5.976   5.234
 9387SOL     OW29059   2.786   2.282   0.540
 9387SOL    HW129060   2.803   2.224   0.460
 9387SOL    HW229061   2.825   2.237   0.621
 9388SOL     OW29062   2.134   6.037   3.681
 9388SOL    HW129063   2.109   5.940   3.675
 9388SOL    HW229064   2.198   6.059   3.607
 9389SOL     OW29065   2.835   0.529   2.834
 9389SOL    HW129066   2.908   0.559   2.773
 9389SOL    HW229067   2.866   0.534   2.929
 9390SOL     OW29068   5.859   5.342   5.809
 9390SOL    HW129069   5.934   5.408   5.819
 9390SOL    HW229070   5.875   5.265   5.871
 9391SOL     OW29071   0.038   0.099   6.339
 9391SOL    HW129072   6.989   0.085   6.406
 9391SOL    HW229073   0.115   0.040   6.361
 9392SOL     OW29074   5.253   4.933   5.178
 9392SOL    HW129075   5.332   4.995   5.181
 9392SOL    HW229076   5.181   4.970   5.237
 9393SOL     OW29077   2.798   0.170   5.643
 9393SOL    HW129078   2.886   0.214   5.625
 9393SOL    HW229079   2.735   0.236   5.684
 9394SOL     OW29080   6.421   0.624   0.920
 9394SOL    HW129081   6.325   0.600   0.930
 9394SOL    HW229082   6.430   0.723   0.911
 9395SOL     OW29083   2.426   0.862   0.764
 9395SOL    HW129084   2.470   0.804   0.832
 9395SOL    HW229085   2.448   0.829   0.672
 9396SOL     OW29086   2.067   4.884   4.375
 9396SOL    HW129087   2.002   4.927   4.439
 9396SOL    HW229088   2.132   4.829   4.426
 9397SOL     OW29089   3.150   6.407   6.217
 9397SOL    HW129090   3.209   6.351   6.276
 9397SOL    HW229091   3.149   6.501   6.251
 9398SOL     OW29092   5.835   0.899   6.316
 9398SOL    HW129093   5.751   0.851   6.291
 9398SOL    HW229094   5.813   0.994   6.336
 9399SOL     OW29095   0.800   3.368   4.625
 9399SOL    HW129096   0.755   3.288   4.666
 9399SOL    HW229097   0.754   3.392   4.540
 9400SOL     OW29098   4.647   0.703   1.256
 9400SOL    HW129099   4.740   0.672   1.274
 9400SOL    HW229100   4.611   0.654   1.176
 9401SOL     OW29101   0.037   1.905   2.823
 9401SOL    HW129102   7.001   1.905   2.903
 9401SOL    HW229103   0.128   1.940   2.849
 9402SOL     OW29104   1.103   3.615   2.731
 9402SOL    HW129105   1.056   3.682   2.789
 9402SOL    HW229106   1.128   3.658   2.644
 9403SOL     OW29107   6.428   1.541   1.941
 9403SOL    HW129108   6.457   1.595   2.020
 9403SOL    HW229109   6.372   1.598   1.880
 9404SOL     OW29110   0.470   2.244   1.563
 9404SOL    HW129111   0.386   2.241   1.617
 9404SOL    HW229112   0.473   2.328   1.509
 9405SOL     OW29113   1.688   4.447   3.646
 9405SOL    HW129114   1.769   4.408   3.603
 9405SOL    HW229115   1.646   4.380   3.706
 9406SOL     OW29116   0.692   3.217   6.649
 9406SOL    HW129117   0.642   3.145   6.697
 9406SOL    HW229118   0.789   3.211   6.671
 9407SOL     OW29119   2.313   5.459   4.418
 9407SOL    HW129120   2.310   5.459   4.518
 9407SOL    HW229121   2.399   5.501   4.387
 9408SOL     OW29122   6.902   2.602   5.977
 9408SOL    HW129123   6.979   2.539   5.987
 9408SOL    HW229124   6.937   2.694   5.958
 9409SOL     OW29125   6.084   5.844   1.822
 9409SOL    HW129126   6.090   5.882   1.914
 9409SOL    HW229127   6.109   5.748   1.824
 9410SOL     OW29128   3.734   0.893   1.717
 9410SOL    HW129129   3.768   0.887   1.811
 9410SOL    HW229130   3.700   0.804   1.688
 9411SOL     OW29131   3.883   2.987   3.289
 9411SOL    HW129132   3.874   2.987   3.189
 9411SOL    HW229133   3.932   3.069   3.318
 9412SOL     OW29134   1.913   0.453   2.237
 9412SOL    HW129135   1.975   0.431   2.312
 9412SOL    HW229136   1.957   0.518   2.175
 9413SOL     OW29137   4.768   5.290   3.980
 9413SOL    HW129138   4.749   5.282   4.078
 9413SOL    HW229139   4.849   5.237   3.957
 9414SOL     OW29140   3.048   1.527   3.999
 9414SOL    HW129141   2.969   1.544   3.940
 9414SOL    HW229142   3.132   1.541   3.946
 9415SOL     OW29143   2.137   6.789   1.761
 9415SOL    HW129144   2.139   6.763   1.664
 9415SOL    HW229145   2.125   6.707   1.817
 9416SOL     OW29146   7.020   0.582   5.687
 9416SOL    HW129147   6.941   0.604   5.744
 9416SOL    HW229148   7.020   0.484   5.667
 9417SOL     OW29149   3.532   6.561   0.721
 9417SOL    HW129150   3.454   6.502   0.741
 9417SOL    HW229151   3.571   6.536   0.633
 9418SOL     OW29152   1.946   1.428   2.323
 9418SOL    HW129153   1.952   1.452   2.226
 9418SOL    HW229154   1.879   1.355   2.335
 9419SOL     OW29155   1.376   3.396   6.671
 9419SOL    HW129156   1.330   3.431   6.589
 9419SOL    HW229157   1.474   3.411   6.663
 9420SOL     OW29158   5.433   4.293   0.195
 9420SOL    HW129159   5.428   4.283   0.095
 9420SOL    HW229160   5.355   4.347   0.227
 9421SOL     OW29161   3.148   5.197   4.614
 9421SOL    HW129162   3.060   5.157   4.591
 9421SOL    HW229163   3.174   5.169   4.707
 9422SOL     OW29164   3.139   6.091   3.827
 9422SOL    HW129165   3.158   6.188   3.839
 9422SOL    HW229166   3.044   6.080   3.795
 9423SOL     OW29167   3.877   6.404   3.116
 9423SOL    HW129168   3.876   6.331   3.048
 9423SOL    HW229169   3.925   6.372   3.198
 9424SOL     OW29170   5.176   1.938   4.439
 9424SOL    HW129171   5.260   1.984   4.410
 9424SOL    HW229172   5.180   1.918   4.537
 9425SOL     OW29173   5.703   5.322   1.010
 9425SOL    HW129174   5.746   5.253   0.952
 9425SOL    HW229175   5.628   5.366   0.961
 9426SOL     OW29176   2.484   1.744   5.867
 9426SOL    HW129177   2.531   1.658   5.847
 9426SOL    HW229178   2.491   1.765   5.964
 9427SOL     OW29179   2.674   5.605   3.156
 9427SOL    HW129180   2.657   5.552   3.238
 9427SOL    HW229181   2.594   5.602   3.096
 9428SOL     OW29182   6.896   0.042   0.694
 9428SOL    HW129183   6.984   0.084   0.712
 9428SOL    HW229184   6.836   0.107   0.647
 9429SOL     OW29185   2.361   2.700   3.717
 9429SOL    HW129186   2.278   2.731   3.763
 9429SOL    HW229187   2.368   2.745   3.628
 9430SOL     OW29188   0.520   2.087   4.824
 9430SOL    HW129189   0.505   2.027   4.745
 9430SOL    HW229190   0.478   2.176   4.806
 9431SOL     OW29191   6.576   5.012   1.122
 9431SOL    HW129192   6.604   4.956   1.044
 9431SOL    HW229193   6.495   4.971   1.164
 9432SOL     OW29194   6.015   1.534   4.654
 9432SOL    HW129195   6.014   1.545   4.555
 9432SOL    HW229196   6.012   1.436   4.676
 9433SOL     OW29197   3.555   6.801   2.929
 9433SOL    HW129198   3.487   6.791   3.001
 9433SOL    HW229199   3.618   6.723   2.931
 9434SOL     OW29200   6.173   5.601   3.299
 9434SOL    HW129201   6.083   5.565   3.275
 9434SOL    HW229202   6.229   5.610   3.217
 9435SOL     OW29203   0.620   1.794   3.047
 9435SOL    HW129204   0.569   1.820   3.129
 9435SOL    HW229205   0.565   1.730   2.993
 9436SOL     OW29206   1.521   1.263   2.867
 9436SOL    HW129207   1.430   1.221   2.874
 9436SOL    HW229208   1.532   1.330   2.940
 9437SOL     OW29209   0.504   5.117   3.384
 9437SOL    HW129210   0.520   5.207   3.425
 9437SOL    HW229211   0.591   5.075   3.360
 9438SOL     OW29212   1.447   6.845   2.143
 9438SOL    HW129213   1.463   6.863   2.240
 9438SOL    HW229214   1.417   6.929   2.097
 9439SOL     OW29215   0.737   2.940   1.416
 9439SOL    HW129216   0.672   3.014   1.434
 9439SOL    HW229217   0.692   2.870   1.360
 9440SOL     OW29218   3.851   4.949   3.457
 9440SOL    HW129219   3.760   4.913   3.478
 9440SOL    HW229220   3.921   4.890   3.497
 9441SOL     OW29221   6.584   6.043   5.792
 9441SOL    HW129222   6.550   5.971   5.732
 9441SOL    HW229223   6.629   6.002   5.871
 9442SOL     OW29224   4.672   3.417   1.694
 9442SOL    HW129225   4.590   3.359   1.698
 9442SOL    HW229226   4.742   3.379   1.754
 9443SOL     OW29227   2.841   5.386   0.587
 9443SOL    HW129228   2.741   5.388   0.596
 9443SOL    HW229229   2.869   5.295   0.555
 9444SOL     OW29230   1.586   4.312   0.803
 9444SOL    HW129231   1.614   4.394   0.852
 9444SOL    HW229232   1.662   4.247   0.800
 9445SOL     OW29233   0.075   2.410   3.118
 9445SOL    HW129234   0.137   2.425   3.041
 9445SOL    HW229235   0.076   2.492   3.177
 9446SOL     OW29236   0.005   5.235   4.428
 9446SOL    HW129237   6.957   5.263   4.364
 9446SOL    HW229238   6.986   5.209   4.516
 9447SOL     OW29239   5.608   5.170   3.730
 9447SOL    HW129240   5.544   5.094   3.745
 9447SOL    HW229241   5.699   5.142   3.759
 9448SOL     OW29242   6.656   0.030   6.122
 9448SOL    HW129243   6.615   0.074   6.201
 9448SOL    HW229244   6.585   7.006   6.070
 9449SOL     OW29245   6.260   6.589   7.006
 9449SOL    HW129246   6.334   6.600   6.940
 9449SOL    HW229247   6.277   6.648   0.062
 9450SOL     OW29248   2.532   5.553   3.597
 9450SOL    HW129249   2.475   5.627   3.561
 9450SOL    HW229250   2.583   5.510   3.522
 9451SOL     OW29251   3.757   6.057   5.812
 9451SOL    HW129252   3.718   5.967   5.793
 9451SOL    HW229253   3.774   6.104   5.725
 9452SOL     OW29254   1.238   4.212   6.865
 9452SOL    HW129255   1.291   4.129   6.881
 9452SOL    HW229256   1.151   4.189   6.821
 9453SOL     OW29257   2.974   4.858   2.748
 9453SOL    HW129258   2.939   4.767   2.722
 9453SOL    HW229259   2.909   4.928   2.719
 9454SOL     OW29260   3.556   2.938   6.228
 9454SOL    HW129261   3.506   2.888   6.157
 9454SOL    HW229262   3.645   2.967   6.192
 9455SOL     OW29263   2.578   2.431   2.621
 9455SOL    HW129264   2.566   2.442   2.522
 9455SOL    HW229265   2.668   2.391   2.639
 9456SOL     OW29266   6.215   3.735   1.196
 9456SOL    HW129267   6.206   3.810   1.261
 9456SOL    HW229268   6.128   3.686   1.189
 9457SOL     OW29269   0.226   4.976   4.277
 9457SOL    HW129270   0.150   5.009   4.333
 9457SOL    HW229271   0.302   4.949   4.337
 9458SOL     OW29272   7.007   4.241   0.286
 9458SOL    HW129273   0.051   4.312   0.307
 9458SOL    HW229274   0.031   4.159   0.255
 9459SOL     OW29275   5.358   5.008   3.771
 9459SOL    HW129276   5.291   5.077   3.797
 9459SOL    HW229277   5.390   4.961   3.853
 9460SOL     OW29278   2.111   3.358   4.770
 9460SOL    HW129279   2.149   3.275   4.812
 9460SOL    HW229280   2.116   3.351   4.671
 9461SOL     OW29281   0.430   1.705   2.253
 9461SOL    HW129282   0.483   1.655   2.185
 9461SOL    HW229283   0.340   1.661   2.264
 9462SOL     OW29284   1.724   2.902   3.647
 9462SOL    HW129285   1.757   2.808   3.640
 9462SOL    HW229286   1.723   2.931   3.743
 9463SOL     OW29287   5.550   6.521   1.141
 9463SOL    HW129288   5.621   6.585   1.111
 9463SOL    HW229289   5.578   6.478   1.227
 9464SOL     OW29290   5.851   6.875   0.700
 9464SOL    HW129291   5.888   6.914   0.616
 9464SOL    HW229292   5.860   6.941   0.774
 9465SOL     OW29293   6.898   3.824   1.907
 9465SOL    HW129294   6.812   3.775   1.896
 9465SOL    HW229295   6.880   3.917   1.938
 9466SOL     OW29296   3.291   4.095   5.854
 9466SOL    HW129297   3.238   4.024   5.901
 9466SOL    HW229298   3.363   4.052   5.799
 9467SOL     OW29299   0.532   2.839   1.052
 9467SOL    HW129300   0.509   2.749   1.089
 9467SOL    HW229301   0.549   2.831   0.953
 9468SOL     OW29302   6.598   3.586   6.114
 9468SOL    HW129303   6.555   3.510   6.164
 9468SOL    HW229304   6.617   3.557   6.020
 9469SOL     OW29305   6.853   5.876   1.473
 9469SOL    HW129306   6.907   5.956   1.499
 9469SOL    HW229307   6.913   5.806   1.435
 9470SOL     OW29308   4.329   3.257   6.920
 9470SOL    HW129309   4.280   3.228   7.003
 9470SOL    HW229310   4.387   3.335   6.942
 9471SOL     OW29311   6.531   1.832   5.136
 9471SOL    HW129312   6.552   1.842   5.038
 9471SOL    HW229313   6.457   1.766   5.148
 9472SOL     OW29314   0.438   4.033   5.844
 9472SOL    HW129315   0.438   4.117   5.791
 9472SOL    HW229316   0.452   3.955   5.784
 9473SOL     OW29317   3.350   4.252   6.472
 9473SOL    HW129318   3.403   4.316   6.527
 9473SOL    HW229319   3.267   4.226   6.521
 9474SOL     OW29320   5.915   3.596   2.019
 9474SOL    HW129321   5.877   3.571   2.108
 9474SOL    HW229322   5.865   3.549   1.946
 9475SOL     OW29323   4.516   3.501   0.297
 9475SOL    HW129324   4.534   3.510   0.395
 9475SOL    HW229325   4.420   3.522   0.278
 9476SOL     OW29326   3.887   3.714   5.003
 9476SOL    HW129327   3.923   3.686   4.914
 9476SOL    HW229328   3.948   3.782   5.043
 9477SOL     OW29329   0.295   2.679   1.329
 9477SOL    HW129330   0.324   2.654   1.237
 9477SOL    HW229331   0.279   2.596   1.383
 9478SOL     OW29332   5.372   3.107   0.981
 9478SOL    HW129333   5.400   3.194   0.940
 9478SOL    HW229334   5.282   3.118   1.024
 9479SOL     OW29335   4.448   6.408   0.805
 9479SOL    HW129336   4.505   6.456   0.738
 9479SOL    HW229337   4.352   6.432   0.790
 9480SOL     OW29338   5.837   5.371   0.612
 9480SOL    HW129339   5.836   5.462   0.654
 9480SOL    HW229340   5.759   5.363   0.550
 9481SOL     OW29341   4.812   2.252   2.550
 9481SOL    HW129342   4.889   2.212   2.600
 9481SOL    HW229343   4.729   2.244   2.605
 9482SOL     OW29344   6.695   0.411   2.699
 9482SOL    HW129345   6.644   0.445   2.620
 9482SOL    HW229346   6.703   0.484   2.767
 9483SOL     OW29347   1.653   1.112   0.489
 9483SOL    HW129348   1.591   1.136   0.415
 9483SOL    HW229349   1.691   1.196   0.529
 9484SOL     OW29350   3.204   6.984   4.649
 9484SOL    HW129351   3.187   0.038   4.711
 9484SOL    HW229352   3.133   6.914   4.663
 9485SOL     OW29353   0.424   1.945   1.042
 9485SOL    HW129354   0.332   1.942   1.003
 9485SOL    HW229355   0.452   1.853   1.069
 9486SOL     OW29356   4.442   6.137   1.206
 9486SOL    HW129357   4.503   6.128   1.285
 9486SOL    HW229358   4.470   6.216   1.151
 9487SOL     OW29359   3.377   3.984   4.106
 9487SOL    HW129360   3.405   4.051   4.174
 9487SOL    HW229361   3.278   3.969   4.112
 9488SOL     OW29362   2.686   0.502   1.231
 9488SOL    HW129363   2.724   0.448   1.156
 9488SOL    HW229364   2.587   0.509   1.220
 9489SOL     OW29365   5.007   4.666   1.125
 9489SOL    HW129366   5.045   4.600   1.061
 9489SOL    HW229367   4.944   4.619   1.188
 9490SOL     OW29368   6.806   5.954   3.634
 9490SOL    HW129369   6.859   6.038   3.642
 9490SOL    HW229370   6.774   5.943   3.540
 9491SOL     OW29371   5.570   5.441   3.911
 9491SOL    HW129372   5.546   5.420   3.817
 9491SOL    HW229373   5.571   5.540   3.924
 9492SOL     OW29374   3.568   3.248   4.982
 9492SOL    HW129375   3.628   3.322   4.951
 9492SOL    HW229376   3.567   3.176   4.913
 9493SOL     OW29377   3.062   5.777   4.847
 9493SOL    HW129378   3.012   5.863   4.837
 9493SOL    HW229379   3.004   5.701   4.821
 9494SOL     OW29380   5.512   3.261   2.432
 9494SOL    HW129381   5.612   3.266   2.439
 9494SOL    HW229382   5.471   3.340   2.478
 9495SOL     OW29383   6.840   1.581   2.480
 9495SOL    HW129384   6.878   1.520   2.410
 9495SOL    HW229385   6.913   1.638   2.516
 9496SOL     OW29386   5.323   2.616   1.734
 9496SOL    HW129387   5.274   2.702   1.722
 9496SOL    HW229388   5.332   2.596   1.832
 9497SOL     OW29389   4.689   5.930   4.955
 9497SOL    HW129390   4.619   6.000   4.965
 9497SOL    HW229391   4.773   5.960   5.000
 9498SOL     OW29392   6.463   4.765   4.778
 9498SOL    HW129393   6.522   4.746   4.856
 9498SOL    HW229394   6.391   4.829   4.805
 9499SOL     OW29395   0.897   5.894   5.044
 9499SOL    HW129396   0.824   5.828   5.027
 9499SOL    HW229397   0.943   5.916   4.958
 9500SOL     OW29398   3.956   6.512   0.557
 9500SOL    HW129399   3.867   6.546   0.528
 9500SOL    HW229400   3.956   6.496   0.655
 9501SOL     OW29401   2.068   1.420   4.070
 9501SOL    HW129402   2.088   1.327   4.039
 9501SOL    HW229403   2.084   1.427   4.168
 9502SOL     OW29404   6.354   3.883   5.009
 9502SOL    HW129405   6.277   3.890   4.946
 9502SOL    HW229406   6.339   3.808   5.073
 9503SOL     OW29407   6.932   2.897   0.362
 9503SOL    HW129408   6.975   2.895   0.271
 9503SOL    HW229409   6.931   2.804   0.400
 9504SOL     OW29410   6.857   4.072   2.072
 9504SOL    HW129411   6.864   4.002   2.143
 9504SOL    HW229412   6.776   4.128   2.088
 9505SOL     OW29413   5.208   4.463   5.555
 9505SOL    HW129414   5.261   4.532   5.605
 9505SOL    HW229415   5.167   4.399   5.621
 9506SOL     OW29416   1.309   2.500   0.938
 9506SOL    HW129417   1.404   2.472   0.922
 9506SOL    HW229418   1.303   2.544   1.028
 9507SOL     OW29419   6.873   0.935   1.564
 9507SOL    HW129420   6.868   1.010   1.631
 9507SOL    HW229421   6.894   0.972   1.474
 9508SOL     OW29422   5.836   1.551   2.749
 9508SOL    HW129423   5.891   1.493   2.689
 9508SOL    HW229424   5.751   1.576   2.704
 9509SOL     OW29425   0.154   0.901   3.355
 9509SOL    HW129426   0.176   0.987   3.401
 9509SOL    HW229427   0.059   0.876   3.375
 9510SOL     OW29428   1.380   3.801   2.975
 9510SOL    HW129429   1.310   3.734   3.003
 9510SOL    HW229430   1.335   3.883   2.941
 9511SOL     OW29431   2.081   0.620   1.436
 9511SOL    HW129432   2.074   0.638   1.534
 9511SOL    HW229433   2.064   0.705   1.385
 9512SOL     OW29434   6.610   2.187   0.607
 9512SOL    HW129435   6.552   2.263   0.634
 9512SOL    HW229436   6.554   2.114   0.569
 9513SOL     OW29437   2.826   4.355   6.367
 9513SOL    HW129438   2.881   4.272   6.355
 9513SOL    HW229439   2.813   4.399   6.278
 9514SOL     OW29440   2.766   4.907   6.790
 9514SOL    HW129441   2.737   4.975   6.723
 9514SOL    HW229442   2.801   4.826   6.742
 9515SOL     OW29443   2.178   6.129   2.619
 9515SOL    HW129444   2.268   6.086   2.610
 9515SOL    HW229445   2.108   6.065   2.588
 9516SOL     OW29446   5.634   4.898   0.162
 9516SOL    HW129447   5.575   4.943   0.229
 9516SOL    HW229448   5.724   4.884   0.201
 9517SOL     OW29449   2.015   4.071   1.333
 9517SOL    HW129450   1.919   4.079   1.358
 9517SOL    HW229451   2.047   4.157   1.293
 9518SOL     OW29452   2.165   1.511   0.925
 9518SOL    HW129453   2.067   1.504   0.940
 9518SOL    HW229454   2.210   1.429   0.962
 9519SOL     OW29455   2.853   3.215   5.190
 9519SOL    HW129456   2.916   3.224   5.113
 9519SOL    HW229457   2.890   3.147   5.254
 9520SOL     OW29458   2.596   0.612   3.013
 9520SOL    HW129459   2.694   0.630   3.018
 9520SOL    HW229460   2.570   0.590   2.919
 9521SOL     OW29461   5.791   5.520   2.632
 9521SOL    HW129462   5.827   5.582   2.702
 9521SOL    HW229463   5.845   5.436   2.631
 9522SOL     OW29464   3.168   5.295   1.430
 9522SOL    HW129465   3.255   5.282   1.478
 9522SOL    HW229466   3.159   5.391   1.403
 9523SOL     OW29467   3.084   5.407   5.108
 9523SOL    HW129468   3.022   5.330   5.095
 9523SOL    HW229469   3.033   5.485   5.145
 9524SOL     OW29470   4.101   2.599   1.607
 9524SOL    HW129471   4.013   2.621   1.650
 9524SOL    HW229472   4.098   2.623   1.511
 9525SOL     OW29473   2.689   2.762   6.127
 9525SOL    HW129474   2.709   2.765   6.225
 9525SOL    HW229475   2.726   2.678   6.088
 9526SOL     OW29476   4.793   6.045   1.572
 9526SOL    HW129477   4.855   5.993   1.631
 9526SOL    HW229478   4.841   6.072   1.489
 9527SOL     OW29479   0.729   0.278   2.073
 9527SOL    HW129480   0.762   0.203   2.016
 9527SOL    HW229481   0.629   0.277   2.074
 9528SOL     OW29482   6.372   0.684   6.978
 9528SOL    HW129483   6.310   0.743   0.007
 9528SOL    HW229484   6.408   0.735   6.900
 9529SOL     OW29485   0.097   2.870   5.287
 9529SOL    HW129486   0.045   2.789   5.315
 9529SOL    HW229487   0.195   2.853   5.303
 9530SOL     OW29488   1.523   3.187   3.539
 9530SOL    HW129489   1.610   3.170   3.586
 9530SOL    HW229490   1.464   3.107   3.547
 9531SOL     OW29491   3.775   5.142   3.288
 9531SOL    HW129492   3.860   5.175   3.247
 9531SOL    HW229493   3.795   5.067   3.350
 9532SOL     OW29494   0.104   6.156   2.260
 9532SOL    HW129495   0.064   6.244   2.234
 9532SOL    HW229496   0.181   6.172   2.322
 9533SOL     OW29497   6.996   0.722   4.915
 9533SOL    HW129498   6.936   0.731   4.995
 9533SOL    HW229499   0.068   0.729   4.945
 9534SOL     OW29500   6.189   2.762   5.552
 9534SOL    HW129501   6.107   2.745   5.497
 9534SOL    HW229502   6.168   2.830   5.622
 9535SOL     OW29503   2.434   1.283   5.788
 9535SOL    HW129504   2.501   1.350   5.820
 9535SOL    HW229505   2.349   1.331   5.764
 9536SOL     OW29506   2.787   5.054   5.259
 9536SOL    HW129507   2.701   5.101   5.280
 9536SOL    HW229508   2.775   4.955   5.271
 9537SOL     OW29509   2.423   0.232   2.235
 9537SOL    HW129510   2.401   0.319   2.191
 9537SOL    HW229511   2.508   0.241   2.287
 9538SOL     OW29512   6.484   1.814   4.602
 9538SOL    HW129513   6.396   1.853   4.629
 9538SOL    HW229514   6.468   1.733   4.546
 9539SOL     OW29515   2.546   4.363   6.603
 9539SOL    HW129516   2.536   4.381   6.505
 9539SOL    HW229517   2.580   4.446   6.649
 9540SOL     OW29518   4.583   4.287   5.162
 9540SOL    HW129519   4.628   4.203   5.193
 9540SOL    HW229520   4.622   4.315   5.074
 9541SOL     OW29521   2.249   2.168   6.123
 9541SOL    HW129522   2.232   2.162   6.025
 9541SOL    HW229523   2.343   2.139   6.143
 9542SOL     OW29524   5.009   3.540   5.382
 9542SOL    HW129525   4.982   3.459   5.329
 9542SOL    HW229526   4.971   3.533   5.474
 9543SOL     OW29527   4.424   0.401   4.352
 9543SOL    HW129528   4.407   0.306   4.326
 9543SOL    HW229529   4.493   0.404   4.425
 9544SOL     OW29530   6.048   0.991   2.285
 9544SOL    HW129531   5.968   0.945   2.245
 9544SOL    HW229532   6.092   1.047   2.215
 9545SOL     OW29533   6.781   5.056   3.201
 9545SOL    HW129534   6.746   4.991   3.269
 9545SOL    HW229535   6.711   5.076   3.134
 9546SOL     OW29536   2.393   3.778   6.888
 9546SOL    HW129537   2.324   3.811   6.824
 9546SOL    HW229538   2.469   3.843   6.892
 9547SOL     OW29539   2.688   6.377   4.133
 9547SOL    HW129540   2.694   6.306   4.063
 9547SOL    HW229541   2.709   6.338   4.223
 9548SOL     OW29542   0.084   5.403   4.797
 9548SOL    HW129543   0.170   5.434   4.840
 9548SOL    HW229544   0.019   5.379   4.868
 9549SOL     OW29545   2.941   4.906   1.127
 9549SOL    HW129546   3.016   4.938   1.069
 9549SOL    HW229547   2.889   4.985   1.162
 9550SOL     OW29548   6.967   1.197   6.233
 9550SOL    HW129549   6.900   1.176   6.304
 9550SOL    HW229550   6.930   1.171   6.144
 9551SOL     OW29551   0.119   6.836   4.400
 9551SOL    HW129552   0.072   6.830   4.312
 9551SOL    HW229553   0.124   6.932   4.429
 9552SOL     OW29554   1.272   6.298   2.477
 9552SOL    HW129555   1.369   6.297   2.504
 9552SOL    HW229556   1.255   6.228   2.408
 9553SOL     OW29557   5.931   4.380   6.590
 9553SOL    HW129558   5.954   4.368   6.687
 9553SOL    HW229559   5.905   4.475   6.573
 9554SOL     OW29560   2.772   1.252   1.124
 9554SOL    HW129561   2.841   1.190   1.087
 9554SOL    HW229562   2.811   1.343   1.135
 9555SOL     OW29563   6.815   2.344   1.152
 9555SOL    HW129564   6.749   2.417   1.135
 9555SOL    HW229565   6.851   2.352   1.245
 9556SOL     OW29566   2.276   1.859   1.200
 9556SOL    HW129567   2.258   1.855   1.101
 9556SOL    HW229568   2.208   1.919   1.243
 9557SOL     OW29569   6.057   0.860   2.549
 9557SOL    HW129570   6.137   0.802   2.562
 9557SOL    HW229571   6.049   0.886   2.453
 9558SOL     OW29572   6.853   5.524   3.934
 9558SOL    HW129573   6.934   5.490   3.886
 9558SOL    HW229574   6.843   5.622   3.918
 9559SOL     OW29575   6.953   4.422   2.235
 9559SOL    HW129576   0.024   4.435   2.204
 9559SOL    HW229577   6.937   4.325   2.253
 9560SOL     OW29578   1.665   1.756   2.818
 9560SOL    HW129579   1.602   1.679   2.813
 9560SOL    HW229580   1.621   1.838   2.782
 9561SOL     OW29581   3.084   0.062   0.755
 9561SOL    HW129582   2.994   0.104   0.762
 9561SOL    HW229583   3.078   6.988   0.778
 9562SOL     OW29584   3.043   6.176   4.558
 9562SOL    HW129585   3.081   6.268   4.566
 9562SOL    HW229586   2.978   6.174   4.481
 9563SOL     OW29587   6.478   6.001   6.671
 9563SOL    HW129588   6.511   6.094   6.655
 9563SOL    HW229589   6.378   6.002   6.678
 9564SOL     OW29590   2.404   0.337   6.923
 9564SOL    HW129591   2.432   0.322   6.828
 9564SOL    HW229592   2.307   0.316   6.933
 9565SOL     OW29593   4.432   5.728   5.253
 9565SOL    HW129594   4.415   5.817   5.212
 9565SOL    HW229595   4.396   5.727   5.346
 9566SOL     OW29596   3.310   4.643   0.228
 9566SOL    HW129597   3.241   4.676   0.292
 9566SOL    HW229598   3.266   4.597   0.151
 9567SOL     OW29599   6.241   5.165   6.553
 9567SOL    HW129600   6.152   5.124   6.574
 9567SOL    HW229601   6.230   5.263   6.539
 9568SOL     OW29602   4.128   3.320   6.709
 9568SOL    HW129603   4.087   3.397   6.758
 9568SOL    HW229604   4.212   3.292   6.755
 9569SOL     OW29605   6.365   0.924   0.854
 9569SOL    HW129606   6.303   0.976   0.795
 9569SOL    HW229607   6.459   0.937   0.823
 9570SOL     OW29608   0.856   1.661   2.020
 9570SOL    HW129609   0.899   1.575   1.992
 9570SOL    HW229610   0.905   1.698   2.099
 9571SOL     OW29611   3.010   3.100   0.498
 9571SOL    HW129612   3.037   3.196   0.488
 9571SOL    HW229613   2.986   3.081   0.593
 9572SOL     OW29614   1.276   4.935   0.774
 9572SOL    HW129615   1.314   5.020   0.811
 9572SOL    HW229616   1.260   4.871   0.849
 9573SOL     OW29617   0.525   0.915   6.740
 9573SOL    HW129618   0.613   0.961   6.733
 9573SOL    HW229619   0.504   0.868   6.654
 9574SOL     OW29620   3.346   3.292   5.138
 9574SOL    HW129621   3.350   3.392   5.135
 9574SOL    HW229622   3.436   3.255   5.115
 9575SOL     OW29623   5.484   1.016   1.176
 9575SOL    HW129624   5.541   1.040   1.097
 9575SOL    HW229625   5.521   1.059   1.258
 9576SOL     OW29626   3.655   0.675   3.179
 9576SOL    HW129627   3.616   0.763   3.149
 9576SOL    HW229628   3.595   0.601   3.149
 9577SOL     OW29629   1.447   0.508   2.153
 9577SOL    HW129630   1.519   0.459   2.203
 9577SOL    HW229631   1.487   0.588   2.108
 9578SOL     OW29632   5.879   3.157   2.814
 9578SOL    HW129633   5.809   3.221   2.846
 9578SOL    HW229634   5.857   3.065   2.846
 9579SOL     OW29635   1.119   6.843   2.392
 9579SOL    HW129636   1.111   6.942   2.400
 9579SOL    HW229637   1.133   6.803   2.482
 9580SOL     OW29638   5.510   3.824   6.796
 9580SOL    HW129639   5.524   3.859   6.889
 9580SOL    HW229640   5.418   3.786   6.789
 9581SOL     OW29641   2.498   4.400   6.328
 9581SOL    HW129642   2.402   4.382   6.307
 9581SOL    HW229643   2.539   4.454   6.255
 9582SOL     OW29644   4.414   4.714   4.038
 9582SOL    HW129645   4.489   4.670   4.088
 9582SOL    HW229646   4.452   4.772   3.966
 9583SOL     OW29647   2.181   3.226   1.814
 9583SOL    HW129648   2.236   3.308   1.830
 9583SOL    HW229649   2.207   3.155   1.879
 9584SOL     OW29650   6.085   5.833   6.804
 9584SOL    HW129651   6.034   5.801   6.883
 9584SOL    HW229652   6.083   5.764   6.732
 9585SOL     OW29653   6.350   0.037   2.663
 9585SOL    HW129654   6.363   0.053   2.761
 9585SOL    HW229655   6.337   0.124   2.616
 9586SOL     OW29656   5.226   3.730   3.332
 9586SOL    HW129657   5.131   3.759   3.341
 9586SOL    HW229658   5.238   3.642   3.378
 9587SOL     OW29659   6.057   0.224   1.537
 9587SOL    HW129660   5.983   0.159   1.557
 9587SOL    HW229661   6.018   0.315   1.524
 9588SOL     OW29662   0.298   1.213   1.006
 9588SOL    HW129663   0.335   1.291   1.057
 9588SOL    HW229664   0.264   1.145   1.071
 9589SOL     OW29665   2.249   6.344   6.506
 9589SOL    HW129666   2.214   6.320   6.416
 9589SOL    HW229667   2.247   6.264   6.566
 9590SOL     OW29668   0.346   3.687   2.100
 9590SOL    HW129669   0.440   3.711   2.126
 9590SOL    HW229670   0.344   3.656   2.005
 9591SOL     OW29671   2.402   6.287   0.624
 9591SOL    HW129672   2.399   6.220   0.699
 9591SOL    HW229673   2.320   6.277   0.568
 9592SOL     OW29674   4.138   5.396   2.861
 9592SOL    HW129675   4.133   5.490   2.826
 9592SOL    HW229676   4.099   5.333   2.794
 9593SOL     OW29677   5.329   2.357   4.337
 9593SOL    HW129678   5.240   2.391   4.309
 9593SOL    HW229679   5.328   2.257   4.337
 9594SOL     OW29680   6.992   6.298   3.054
 9594SOL    HW129681   7.005   6.368   3.124
 9594SOL    HW229682   6.900   6.260   3.061
 9595SOL     OW29683   2.138   5.950   5.065
 9595SOL    HW129684   2.078   5.889   5.117
 9595SOL    HW229685   2.211   5.983   5.124
 9596SOL     OW29686   6.954   5.127   5.742
 9596SOL    HW129687   6.910   5.209   5.778
 9596SOL    HW229688   0.029   5.133   5.755
 9597SOL     OW29689   0.590   4.083   1.855
 9597SOL    HW129690   0.657   4.067   1.782
 9597SOL    HW229691   0.527   4.154   1.827
 9598SOL     OW29692   6.962   4.115   5.520
 9598SOL    HW129693   6.912   4.185   5.571
 9598SOL    HW229694   0.036   4.135   5.524
 9599SOL     OW29695   3.564   0.137   5.377
 9599SOL    HW129696   3.512   0.065   5.424
 9599SOL    HW229697   3.577   0.113   5.281
 9600SOL     OW29698   1.785   0.542   5.579
 9600SOL    HW129699   1.806   0.637   5.554
 9600SOL    HW229700   1.851   0.482   5.534
 9601SOL     OW29701   6.879   4.108   6.209
 9601SOL    HW129702   6.784   4.139   6.199
 9601SOL    HW229703   6.927   4.168   6.273
 9602SOL     OW29704   6.691   5.129   5.970
 9602SOL    HW129705   6.618   5.075   5.927
 9602SOL    HW229706   6.654   5.175   6.051
 9603SOL     OW29707   2.678   0.040   4.584
 9603SOL    HW129708   2.643   0.133   4.591
 9603SOL    HW229709   2.615   7.009   4.529
 9604SOL     OW29710   4.816   1.085   0.582
 9604SOL    HW129711   4.799   1.028   0.662
 9604SOL    HW229712   4.728   1.106   0.537
 9605SOL     OW29713   1.111   4.893   5.601
 9605SOL    HW129714   1.133   4.894   5.503
 9605SOL    HW229715   1.146   4.809   5.642
 9606SOL     OW29716   1.193   6.747   3.359
 9606SOL    HW129717   1.227   6.841   3.365
 9606SOL    HW229718   1.262   6.684   3.393
 9607SOL     OW29719   0.797   1.136   1.726
 9607SOL    HW129720   0.769   1.229   1.703
 9607SOL    HW229721   0.757   1.071   1.661
 9608SOL     OW29722   6.816   6.906   2.118
 9608SOL    HW129723   6.751   6.837   2.152
 9608SOL    HW229724   6.875   6.936   2.193
 9609SOL     OW29725   1.676   4.318   4.671
 9609SOL    HW129726   1.728   4.292   4.591
 9609SOL    HW229727   1.607   4.249   4.690
 9610SOL     OW29728   1.750   2.706   5.957
 9610SOL    HW129729   1.792   2.642   6.022
 9610SOL    HW229730   1.650   2.699   5.965
 9611SOL     OW29731   6.652   0.108   1.306
 9611SOL    HW129732   6.747   0.137   1.295
 9611SOL    HW229733   6.601   0.127   1.221
 9612SOL     OW29734   6.624   2.826   0.939
 9612SOL    HW129735   6.574   2.905   0.974
 9612SOL    HW229736   6.703   2.857   0.886
 9613SOL     OW29737   5.496   0.097   4.064
 9613SOL    HW129738   5.475   0.008   4.024
 9613SOL    HW229739   5.581   0.091   4.116
 9614SOL     OW29740   3.880   3.958   2.237
 9614SOL    HW129741   3.809   4.027   2.255
 9614SOL    HW229742   3.924   3.978   2.150
 9615SOL     OW29743   2.583   5.208   3.312
 9615SOL    HW129744   2.602   5.150   3.232
 9615SOL    HW229745   2.522   5.159   3.374
 9616SOL     OW29746   3.989   3.080   1.367
 9616SOL    HW129747   3.966   3.022   1.289
 9616SOL    HW229748   3.968   3.032   1.452
 9617SOL     OW29749   1.446   3.738   3.519
 9617SOL    HW129750   1.357   3.702   3.550
 9617SOL    HW229751   1.488   3.789   3.594
 9618SOL     OW29752   3.982   6.515   6.357
 9618SOL    HW129753   3.933   6.524   6.444
 9618SOL    HW229754   4.002   6.418   6.340
 9619SOL     OW29755   1.473   6.306   0.433
 9619SOL    HW129756   1.518   6.394   0.450
 9619SOL    HW229757   1.385   6.305   0.480
 9620SOL     OW29758   4.162   0.343   6.319
 9620SOL    HW129759   4.094   0.311   6.385
 9620SOL    HW229760   4.115   0.377   6.237
 9621SOL     OW29761   1.272   0.136   2.039
 9621SOL    HW129762   1.290   0.205   2.108
 9621SOL    HW229763   1.183   0.094   2.056
 9622SOL     OW29764   6.853   1.364   6.867
 9622SOL    HW129765   6.902   1.387   6.951
 9622SOL    HW229766   6.764   1.325   6.890
 9623SOL     OW29767   4.780   5.883   6.427
 9623SOL    HW129768   4.734   5.803   6.388
 9623SOL    HW229769   4.864   5.902   6.375
 9624SOL     OW29770   5.384   5.316   5.293
 9624SOL    HW129771   5.453   5.244   5.293
 9624SOL    HW229772   5.371   5.349   5.200
 9625SOL     OW29773   5.162   4.602   6.677
 9625SOL    HW129774   5.243   4.592   6.619
 9625SOL    HW229775   5.122   4.512   6.695
 9626SOL     OW29776   1.817   4.598   4.479
 9626SOL    HW129777   1.878   4.569   4.552
 9626SOL    HW229778   1.861   4.582   4.391
 9627SOL     OW29779   1.761   4.213   5.294
 9627SOL    HW129780   1.748   4.115   5.311
 9627SOL    HW229781   1.707   4.265   5.359
 9628SOL     OW29782   5.966   3.926   6.966
 9628SOL    HW129783   6.044   3.914   0.004
 9628SOL    HW229784   5.946   4.023   6.954
 9629SOL     OW29785   6.817   6.534   3.285
 9629SOL    HW129786   6.720   6.519   3.303
 9629SOL    HW229787   6.834   6.632   3.273
 9630SOL     OW29788   6.181   6.167   5.656
 9630SOL    HW129789   6.263   6.214   5.623
 9630SOL    HW229790   6.124   6.232   5.707
 9631SOL     OW29791   4.799   1.288   1.374
 9631SOL    HW129792   4.803   1.335   1.462
 9631SOL    HW229793   4.708   1.300   1.334
 9632SOL     OW29794   2.016   5.509   1.832
 9632SOL    HW129795   1.983   5.602   1.848
 9632SOL    HW229796   2.068   5.478   1.911
 9633SOL     OW29797   3.910   2.986   2.264
 9633SOL    HW129798   3.919   3.027   2.173
 9633SOL    HW229799   3.991   2.930   2.283
 9634SOL     OW29800   5.549   4.319   2.838
 9634SOL    HW129801   5.544   4.226   2.800
 9634SOL    HW229802   5.562   4.313   2.937
 9635SOL     OW29803   0.219   3.940   4.289
 9635SOL    HW129804   0.255   3.937   4.382
 9635SOL    HW229805   0.127   3.979   4.289
 9636SOL     OW29806   4.267   1.513   5.399
 9636SOL    HW129807   4.359   1.541   5.373
 9636SOL    HW229808   4.247   1.424   5.358
 9637SOL     OW29809   2.405   3.462   1.317
 9637SOL    HW129810   2.472   3.527   1.283
 9637SOL    HW229811   2.410   3.458   1.417
 9638SOL     OW29812   0.030   4.666   6.217
 9638SOL    HW129813   0.075   4.611   6.147
 9638SOL    HW229814   6.961   4.632   6.231
 9639SOL     OW29815   4.470   2.603   1.832
 9639SOL    HW129816   4.408   2.558   1.768
 9639SOL    HW229817   4.491   2.695   1.798
 9640SOL     OW29818   4.129   1.252   2.184
 9640SOL    HW129819   4.048   1.274   2.130
 9640SOL    HW229820   4.180   1.178   2.139
 9641SOL     OW29821   5.535   5.491   3.237
 9641SOL    HW129822   5.498   5.569   3.187
 9641SOL    HW229823   5.486   5.408   3.211
 9642SOL     OW29824   1.406   0.057   4.371
 9642SOL    HW129825   1.475   0.129   4.373
 9642SOL    HW229826   1.387   0.032   4.276
 9643SOL     OW29827   4.615   4.330   3.715
 9643SOL    HW129828   4.672   4.270   3.660
 9643SOL    HW229829   4.553   4.275   3.771
 9644SOL     OW29830   2.287   5.749   4.706
 9644SOL    HW129831   2.204   5.719   4.754
 9644SOL    HW229832   2.266   5.761   4.609
 9645SOL     OW29833   1.413   4.122   4.683
 9645SOL    HW129834   1.321   4.081   4.691
 9645SOL    HW229835   1.408   4.205   4.628
 9646SOL     OW29836   2.758   6.599   3.843
 9646SOL    HW129837   2.713   6.687   3.829
 9646SOL    HW229838   2.846   6.614   3.889
 9647SOL     OW29839   6.623   6.045   3.141
 9647SOL    HW129840   6.665   6.086   3.060
 9647SOL    HW229841   6.621   5.946   3.132
 9648SOL     OW29842   5.572   3.165   1.748
 9648SOL    HW129843   5.668   3.184   1.728
 9648SOL    HW229844   5.546   3.076   1.710
 9649SOL     OW29845   2.225   3.732   6.408
 9649SOL    HW129846   2.197   3.763   6.499
 9649SOL    HW229847   2.165   3.657   6.379
 9650SOL     OW29848   6.398   4.900   3.465
 9650SOL    HW129849   6.318   4.940   3.512
 9650SOL    HW229850   6.476   4.898   3.528
 9651SOL     OW29851   3.557   1.196   0.610
 9651SOL    HW129852   3.539   1.295   0.605
 9651SOL    HW229853   3.534   1.163   0.702
 9652SOL     OW29854   0.643   4.335   1.156
 9652SOL    HW129855   0.639   4.267   1.083
 9652SOL    HW229856   0.586   4.306   1.233
 9653SOL     OW29857   4.199   4.675   5.666
 9653SOL    HW129858   4.203   4.709   5.760
 9653SOL    HW229859   4.120   4.616   5.655
 9654SOL     OW29860   3.436   2.854   2.895
 9654SOL    HW129861   3.401   2.942   2.862
 9654SOL    HW229862   3.362   2.802   2.938
 9655SOL     OW29863   0.052   1.513   0.700
 9655SOL    HW129864   0.103   1.435   0.734
 9655SOL    HW229865   0.105   1.559   0.629
 9656SOL     OW29866   4.271   2.403   0.074
 9656SOL    HW129867   4.355   2.441   0.112
 9656SOL    HW229868   4.192   2.451   0.112
 9657SOL     OW29869   5.052   4.110   3.624
 9657SOL    HW129870   5.030   4.125   3.720
 9657SOL    HW229871   5.134   4.053   3.617
 9658SOL     OW29872   5.125   1.838   2.366
 9658SOL    HW129873   5.155   1.777   2.439
 9658SOL    HW229874   5.067   1.910   2.406
 9659SOL     OW29875   2.702   1.678   6.975
 9659SOL    HW129876   2.643   1.673   6.895
 9659SOL    HW229877   2.733   1.586   7.000
 9660SOL     OW29878   0.658   6.919   1.260
 9660SOL    HW129879   0.743   6.917   1.312
 9660SOL    HW229880   0.583   6.883   1.316
 9661SOL     OW29881   4.469   5.320   1.369
 9661SOL    HW129882   4.426   5.405   1.402
 9661SOL    HW229883   4.535   5.288   1.438
 9662SOL     OW29884   5.399   4.257   6.955
 9662SOL    HW129885   5.363   4.346   6.929
 9662SOL    HW229886   5.413   4.202   6.873
 9663SOL     OW29887   0.764   4.546   2.468
 9663SOL    HW129888   0.757   4.448   2.485
 9663SOL    HW229889   0.800   4.592   2.549
 9664SOL     OW29890   5.336   4.099   4.102
 9664SOL    HW129891   5.335   4.156   4.019
 9664SOL    HW229892   5.410   4.032   4.096
 9665SOL     OW29893   6.651   6.305   5.713
 9665SOL    HW129894   6.646   6.208   5.738
 9665SOL    HW229895   6.638   6.361   5.795
 9666SOL     OW29896   6.698   4.553   1.517
 9666SOL    HW129897   6.731   4.545   1.611
 9666SOL    HW229898   6.759   4.612   1.465
 9667SOL     OW29899   4.423   4.203   1.021
 9667SOL    HW129900   4.404   4.254   0.938
 9667SOL    HW229901   4.381   4.249   1.100
 9668SOL     OW29902   1.515   0.806   6.022
 9668SOL    HW129903   1.446   0.769   5.959
 9668SOL    HW229904   1.579   0.863   5.970
 9669SOL     OW29905   2.773   0.181   0.812
 9669SOL    HW129906   2.708   0.210   0.742
 9669SOL    HW229907   2.727   0.120   0.876
 9670SOL     OW29908   0.360   6.023   5.331
 9670SOL    HW129909   0.297   6.009   5.407
 9670SOL    HW229910   0.388   6.119   5.328
 9671SOL     OW29911   0.731   4.994   0.284
 9671SOL    HW129912   0.760   4.919   0.343
 9671SOL    HW229913   0.639   5.023   0.308
 9672SOL     OW29914   1.735   5.074   2.654
 9672SOL    HW129915   1.643   5.103   2.627
 9672SOL    HW229916   1.731   5.027   2.742
 9673SOL     OW29917   3.491   3.957   1.103
 9673SOL    HW129918   3.428   4.014   1.155
 9673SOL    HW229919   3.504   3.996   1.011
 9674SOL     OW29920   3.879   6.362   2.745
 9674SOL    HW129921   3.951   6.321   2.802
 9674SOL    HW229922   3.802   6.299   2.740
 9675SOL     OW29923   5.196   4.083   0.022
 9675SOL    HW129924   5.292   4.094   7.020
 9675SOL    HW229925   5.151   4.173   0.025
 9676SOL     OW29926   1.415   3.510   6.141
 9676SOL    HW129927   1.379   3.499   6.234
 9676SOL    HW229928   1.464   3.597   6.135
 9677SOL     OW29929   6.437   5.084   6.781
 9677SOL    HW129930   6.401   5.167   6.824
 9677SOL    HW229931   6.479   5.108   6.693
 9678SOL     OW29932   3.200   3.718   4.572
 9678SOL    HW129933   3.119   3.668   4.543
 9678SOL    HW229934   3.182   3.817   4.566
 9679SOL     OW29935   2.641   1.591   4.564
 9679SOL    HW129936   2.684   1.502   4.550
 9679SOL    HW229937   2.705   1.663   4.541
 9680SOL     OW29938   5.101   6.843   5.195
 9680SOL    HW129939   5.146   6.759   5.165
 9680SOL    HW229940   5.013   6.852   5.149
 9681SOL     OW29941   2.912   1.634   1.359
 9681SOL    HW129942   2.904   1.596   1.267
 9681SOL    HW229943   2.957   1.568   1.419
 9682SOL     OW29944   4.690   4.526   3.391
 9682SOL    HW129945   4.707   4.428   3.383
 9682SOL    HW229946   4.600   4.547   3.353
 9683SOL     OW29947   2.742   6.319   0.500
 9683SOL    HW129948   2.711   6.238   0.550
 9683SOL    HW229949   2.665   6.382   0.490
 9684SOL     OW29950   0.494   3.811   5.070
 9684SOL    HW129951   0.551   3.891   5.051
 9684SOL    HW229952   0.508   3.780   5.164
 9685SOL     OW29953   4.648   3.813   0.552
 9685SOL    HW129954   4.579   3.743   0.568
 9685SOL    HW229955   4.603   3.897   0.521
 9686SOL     OW29956   0.525   2.943   0.453
 9686SOL    HW129957   0.466   2.962   0.532
 9686SOL    HW229958   0.579   3.024   0.432
 9687SOL     OW29959   6.246   0.354   2.352
 9687SOL    HW129960   6.221   0.352   2.255
 9687SOL    HW229961   6.341   0.326   2.362
 9688SOL     OW29962   0.771   3.761   0.761
 9688SOL    HW129963   0.733   3.794   0.674
 9688SOL    HW229964   0.793   3.839   0.819
 9689SOL     OW29965   0.985   4.533   6.247
 9689SOL    HW129966   0.967   4.567   6.154
 9689SOL    HW229967   0.897   4.514   6.292
 9690SOL     OW29968   4.307   5.715   5.801
 9690SOL    HW129969   4.212   5.740   5.814
 9690SOL    HW229970   4.322   5.621   5.832
 9691SOL     OW29971   3.180   3.982   2.530
 9691SOL    HW129972   3.139   3.950   2.445
 9691SOL    HW229973   3.185   3.906   2.595
 9692SOL     OW29974   4.778   5.328   0.734
 9692SOL    HW129975   4.684   5.312   0.766
 9692SOL    HW229976   4.832   5.364   0.810
 9693SOL     OW29977   5.544   4.387   3.589
 9693SOL    HW129978   5.470   4.442   3.549
 9693SOL    HW229979   5.624   4.445   3.604
 9694SOL     OW29980   4.164   0.940   1.364
 9694SOL    HW129981   4.175   0.946   1.265
 9694SOL    HW229982   4.201   1.022   1.406
 9695SOL     OW29983   0.230   2.895   3.187
 9695SOL    HW129984   0.198   2.863   3.098
 9695SOL    HW229985   0.189   2.839   3.259
 9696SOL     OW29986   5.762   1.665   2.378
 9696SOL    HW129987   5.832   1.638   2.311
 9696SOL    HW229988   5.797   1.739   2.435
 9697SOL     OW29989   0.441   6.679   0.760
 9697SOL    HW129990   0.443   6.660   0.858
 9697SOL    HW229991   0.532   6.709   0.730
 9698SOL     OW29992   5.637   3.051   6.469
 9698SOL    HW129993   5.728   3.062   6.510
 9698SOL    HW229994   5.620   2.955   6.449
 9699SOL     OW29995   0.891   5.548   7.012
 9699SOL    HW129996   0.797   5.512   7.013
 9699SOL    HW229997   0.888   5.646   6.992
 9700SOL     OW29998   6.575   5.511   4.037
 9700SOL    HW129999   6.565   5.417   4.070
 9700SOL    HW230000   6.667   5.524   4.001
 9701SOL     OW30001   4.201   3.963   5.938
 9701SOL    HW130002   4.212   3.986   5.841
 9701SOL    HW230003   4.106   3.979   5.965
 9702SOL     OW30004   3.888   2.727   0.043
 9702SOL    HW130005   3.907   2.749   6.971
 9702SOL    HW230006   3.799   2.763   0.069
 9703SOL     OW30007   5.344   3.702   4.355
 9703SOL    HW130008   5.320   3.656   4.440
 9703SOL    HW230009   5.262   3.719   4.301
 9704SOL     OW30010   3.282   5.569   2.413
 9704SOL    HW130011   3.268   5.530   2.504
 9704SOL    HW230012   3.339   5.507   2.359
 9705SOL     OW30013   6.024   4.174   5.748
 9705SOL    HW130014   5.966   4.214   5.677
 9705SOL    HW230015   5.981   4.186   5.837
 9706SOL     OW30016   2.270   2.171   1.442
 9706SOL    HW130017   2.362   2.138   1.465
 9706SOL    HW230018   2.264   2.270   1.461
 9707SOL     OW30019   5.508   4.914   2.407
 9707SOL    HW130020   5.480   4.825   2.371
 9707SOL    HW230021   5.605   4.912   2.428
 9708SOL     OW30022   1.504   1.535   2.773
 9708SOL    HW130023   1.542   1.445   2.793
 9708SOL    HW230024   1.416   1.545   2.818
 9709SOL     OW30025   5.263   4.547   2.127
 9709SOL    HW130026   5.220   4.463   2.160
 9709SOL    HW230027   5.322   4.526   2.049
 9710SOL     OW30028   6.234   0.410   0.633
 9710SOL    HW130029   6.218   0.474   0.708
 9710SOL    HW230030   6.240   0.317   0.669
 9711SOL     OW30031   3.579   5.804   6.408
 9711SOL    HW130032   3.520   5.880   6.380
 9711SOL    HW230033   3.551   5.721   6.361
 9712SOL     OW30034   6.390   3.164   0.268
 9712SOL    HW130035   6.436   3.253   0.272
 9712SOL    HW230036   6.304   3.169   0.320
 9713SOL     OW30037   3.041   5.782   3.667
 9713SOL    HW130038   3.000   5.796   3.757
 9713SOL    HW230039   2.974   5.804   3.596
 9714SOL     OW30040   4.103   6.394   5.878
 9714SOL    HW130041   4.072   6.299   5.884
 9714SOL    HW230042   4.057   6.448   5.949
 9715SOL     OW30043   5.715   5.070   6.884
 9715SOL    HW130044   5.731   5.156   6.836
 9715SOL    HW230045   5.775   5.065   6.964
 9716SOL     OW30046   3.865   4.161   6.779
 9716SOL    HW130047   3.852   4.251   6.739
 9716SOL    HW230048   3.909   4.170   6.868
 9717SOL     OW30049   4.823   6.597   0.032
 9717SOL    HW130050   4.913   6.607   0.073
 9717SOL    HW230051   4.758   6.659   0.075
 9718SOL     OW30052   4.216   3.266   1.037
 9718SOL    HW130053   4.213   3.320   1.120
 9718SOL    HW230054   4.244   3.172   1.059
 9719SOL     OW30055   5.382   7.002   5.896
 9719SOL    HW130056   5.288   6.992   5.929
 9719SOL    HW230057   5.398   0.073   5.868
 9720SOL     OW30058   0.794   3.167   2.638
 9720SOL    HW130059   0.866   3.112   2.596
 9720SOL    HW230060   0.714   3.109   2.654
 9721SOL     OW30061   0.400   1.202   6.725
 9721SOL    HW130062   0.381   1.241   6.635
 9721SOL    HW230063   0.401   1.102   6.719
 9722SOL     OW30064   3.624   1.055   5.281
 9722SOL    HW130065   3.597   1.147   5.252
 9722SOL    HW230066   3.547   0.992   5.270
 9723SOL     OW30067   5.546   5.722   3.961
 9723SOL    HW130068   5.505   5.749   4.048
 9723SOL    HW230069   5.491   5.759   3.886
 9724SOL     OW30070   2.356   4.436   6.994
 9724SOL    HW130071   2.392   4.524   6.964
 9724SOL    HW230072   2.345   4.437   0.070
 9725SOL     OW30073   4.052   6.113   5.896
 9725SOL    HW130074   4.031   6.036   5.956
 9725SOL    HW230075   4.018   6.093   5.804
 9726SOL     OW30076   4.446   2.029   4.698
 9726SOL    HW130077   4.420   1.946   4.649
 9726SOL    HW230078   4.491   2.005   4.784
 9727SOL     OW30079   0.885   2.526   0.119
 9727SOL    HW130080   0.944   2.452   0.151
 9727SOL    HW230081   0.906   2.546   0.023
 9728SOL     OW30082   0.286   2.049   5.579
 9728SOL    HW130083   0.358   2.108   5.617
 9728SOL    HW230084   0.311   1.953   5.591
 9729SOL     OW30085   1.086   4.286   3.820
 9729SOL    HW130086   1.135   4.200   3.807
 9729SOL    HW230087   1.008   4.290   3.758
 9730SOL     OW30088   0.967   4.198   2.848
 9730SOL    HW130089   0.878   4.154   2.836
 9730SOL    HW230090   0.956   4.297   2.849
 9731SOL     OW30091   4.660   5.221   1.550
 9731SOL    HW130092   4.656   5.144   1.487
 9731SOL    HW230093   4.660   5.188   1.645
 9732SOL     OW30094   0.348   3.201   2.131
 9732SOL    HW130095   0.427   3.178   2.073
 9732SOL    HW230096   0.305   3.118   2.165
 9733SOL     OW30097   5.568   5.903   1.256
 9733SOL    HW130098   5.581   5.855   1.343
 9733SOL    HW230099   5.558   6.001   1.273
 9734SOL     OW30100   6.330   0.069   0.275
 9734SOL    HW130101   6.391   0.040   0.349
 9734SOL    HW230102   6.322   7.020   0.207
 9735SOL     OW30103   1.535   3.132   3.273
 9735SOL    HW130104   1.532   3.169   3.366
 9735SOL    HW230105   1.522   3.206   3.207
 9736SOL     OW30106   5.459   1.714   6.214
 9736SOL    HW130107   5.464   1.807   6.178
 9736SOL    HW230108   5.480   1.714   6.311
 9737SOL     OW30109   5.247   1.976   2.674
 9737SOL    HW130110   5.242   2.063   2.724
 9737SOL    HW230111   5.301   1.989   2.591
 9738SOL     OW30112   1.602   0.301   1.104
 9738SOL    HW130113   1.509   0.331   1.083
 9738SOL    HW230114   1.600   0.205   1.134
 9739SOL     OW30115   5.143   6.281   0.165
 9739SOL    HW130116   5.153   6.381   0.167
 9739SOL    HW230117   5.072   6.256   0.099
 9740SOL     OW30118   6.292   1.068   2.915
 9740SOL    HW130119   6.226   1.059   2.841
 9740SOL    HW230120   6.385   1.067   2.877
 9741SOL     OW30121   2.601   0.499   3.708
 9741SOL    HW130122   2.619   0.401   3.700
 9741SOL    HW230123   2.678   0.543   3.755
 9742SOL     OW30124   4.109   0.885   0.221
 9742SOL    HW130125   4.030   0.847   0.270
 9742SOL    HW230126   4.079   0.961   0.164
 9743SOL     OW30127   0.135   4.237   2.742
 9743SOL    HW130128   0.130   4.270   2.836
 9743SOL    HW230129   0.225   4.197   2.726
 9744SOL     OW30130   2.492   0.139   2.700
 9744SOL    HW130131   2.549   0.060   2.675
 9744SOL    HW230132   2.431   0.161   2.624
 9745SOL     OW30133   5.138   3.093   6.427
 9745SOL    HW130134   5.187   3.168   6.382
 9745SOL    HW230135   5.149   3.009   6.374
 9746SOL     OW30136   5.556   6.448   5.778
 9746SOL    HW130137   5.460   6.452   5.808
 9746SOL    HW230138   5.586   6.353   5.776
 9747SOL     OW30139   3.121   2.382   1.695
 9747SOL    HW130140   3.198   2.346   1.746
 9747SOL    HW230141   3.039   2.382   1.753
 9748SOL     OW30142   0.062   6.571   2.955
 9748SOL    HW130143   0.062   6.598   2.859
 9748SOL    HW230144   0.156   6.553   2.985
 9749SOL     OW30145   0.674   1.243   3.153
 9749SOL    HW130146   0.679   1.145   3.133
 9749SOL    HW230147   0.766   1.282   3.157
 9750SOL     OW30148   6.271   5.806   3.988
 9750SOL    HW130149   6.311   5.749   4.059
 9750SOL    HW230150   6.337   5.876   3.961
 9751SOL     OW30151   2.001   0.163   0.533
 9751SOL    HW130152   1.950   0.077   0.535
 9751SOL    HW230153   1.985   0.213   0.618
 9752SOL     OW30154   3.884   1.695   5.244
 9752SOL    HW130155   3.834   1.632   5.303
 9752SOL    HW230156   3.982   1.685   5.261
 9753SOL     OW30157   1.046   5.521   6.396
 9753SOL    HW130158   1.016   5.616   6.403
 9753SOL    HW230159   1.020   5.485   6.306
 9754SOL     OW30160   2.724   0.587   0.784
 9754SOL    HW130161   2.804   0.648   0.790
 9754SOL    HW230162   2.744   0.513   0.720
 9755SOL     OW30163   3.660   3.867   4.994
 9755SOL    HW130164   3.595   3.828   4.928
 9755SOL    HW230165   3.747   3.818   4.987
 9756SOL     OW30166   6.232   2.408   6.529
 9756SOL    HW130167   6.222   2.331   6.466
 9756SOL    HW230168   6.165   2.479   6.506
 9757SOL     OW30169   5.727   4.410   4.791
 9757SOL    HW130170   5.797   4.343   4.767
 9757SOL    HW230171   5.689   4.386   4.881
 9758SOL     OW30172   2.183   0.999   0.210
 9758SOL    HW130173   2.120   0.967   0.280
 9758SOL    HW230174   2.274   1.008   0.250
 9759SOL     OW30175   1.148   1.481   0.649
 9759SOL    HW130176   1.123   1.447   0.740
 9759SOL    HW230177   1.080   1.451   0.582
 9760SOL     OW30178   4.712   3.682   5.947
 9760SOL    HW130179   4.681   3.598   5.992
 9760SOL    HW230180   4.633   3.736   5.919
 9761SOL     OW30181   1.110   2.382   2.356
 9761SOL    HW130182   1.074   2.360   2.447
 9761SOL    HW230183   1.125   2.481   2.349
 9762SOL     OW30184   3.354   1.336   4.568
 9762SOL    HW130185   3.366   1.428   4.604
 9762SOL    HW230186   3.263   1.326   4.529
 9763SOL     OW30187   5.898   0.695   3.486
 9763SOL    HW130188   5.899   0.673   3.389
 9763SOL    HW230189   5.855   0.621   3.537
 9764SOL     OW30190   6.378   2.350   2.240
 9764SOL    HW130191   6.460   2.387   2.196
 9764SOL    HW230192   6.343   2.416   2.306
 9765SOL     OW30193   6.671   6.585   2.889
 9765SOL    HW130194   6.712   6.629   2.809
 9765SOL    HW230195   6.716   6.498   2.905
 9766SOL     OW30196   2.045   6.642   3.026
 9766SOL    HW130197   2.121   6.594   2.980
 9766SOL    HW230198   2.042   6.613   3.121
 9767SOL     OW30199   2.449   2.703   5.666
 9767SOL    HW130200   2.524   2.756   5.627
 9767SOL    HW230201   2.436   2.730   5.762
 9768SOL     OW30202   4.558   1.389   1.570
 9768SOL    HW130203   4.611   1.458   1.620
 9768SOL    HW230204   4.572   1.299   1.613
 9769SOL     OW30205   3.719   1.100   4.460
 9769SOL    HW130206   3.809   1.065   4.486
 9769SOL    HW230207   3.683   1.158   4.533
 9770SOL     OW30208   3.757   1.323   5.118
 9770SOL    HW130209   3.776   1.303   5.215
 9770SOL    HW230210   3.674   1.379   5.112
 9771SOL     OW30211   2.469   5.746   1.031
 9771SOL    HW130212   2.495   5.664   1.082
 9771SOL    HW230213   2.542   5.814   1.037
 9772SOL     OW30214   1.944   6.223   1.502
 9772SOL    HW130215   1.853   6.233   1.463
 9772SOL    HW230216   1.992   6.149   1.455
 9773SOL     OW30217   4.850   5.473   3.549
 9773SOL    HW130218   4.798   5.403   3.501
 9773SOL    HW230219   4.908   5.522   3.483
 9774SOL     OW30220   0.472   5.669   3.017
 9774SOL    HW130221   0.564   5.673   2.978
 9774SOL    HW230222   0.455   5.578   3.055
 9775SOL     OW30223   2.976   0.088   3.591
 9775SOL    HW130224   2.993   0.099   3.688
 9775SOL    HW230225   3.050   0.130   3.538
 9776SOL     OW30226   1.058   4.162   5.664
 9776SOL    HW130227   1.088   4.069   5.685
 9776SOL    HW230228   1.134   4.215   5.627
 9777SOL     OW30229   5.420   5.689   0.715
 9777SOL    HW130230   5.337   5.636   0.703
 9777SOL    HW230231   5.427   5.719   0.810
 9778SOL     OW30232   6.908   1.475   5.194
 9778SOL    HW130233   6.884   1.489   5.290
 9778SOL    HW230234   6.981   1.539   5.169
 9779SOL     OW30235   0.658   2.142   3.775
 9779SOL    HW130236   0.588   2.071   3.769
 9779SOL    HW230237   0.649   2.190   3.862
 9780SOL     OW30238   2.310   1.954   0.788
 9780SOL    HW130239   2.266   1.938   0.876
 9780SOL    HW230240   2.406   1.980   0.803
 9781SOL     OW30241   2.009   3.475   4.270
 9781SOL    HW130242   1.987   3.414   4.194
 9781SOL    HW230243   1.954   3.451   4.350
 9782SOL     OW30244   0.548   2.049   0.048
 9782SOL    HW130245   0.597   1.999   0.120
 9782SOL    HW230246   0.596   2.037   6.985
 9783SOL     OW30247   4.282   2.341   3.323
 9783SOL    HW130248   4.267   2.434   3.358
 9783SOL    HW230249   4.223   2.326   3.244
 9784SOL     OW30250   3.671   0.674   5.808
 9784SOL    HW130251   3.617   0.743   5.855
 9784SOL    HW230252   3.724   0.622   5.876
 9785SOL     OW30253   6.701   2.077   5.483
 9785SOL    HW130254   6.674   1.983   5.503
 9785SOL    HW230255   6.623   2.138   5.499
 9786SOL     OW30256   2.659   3.227   0.636
 9786SOL    HW130257   2.633   3.313   0.593
 9786SOL    HW230258   2.743   3.241   0.689
 9787SOL     OW30259   3.261   3.477   2.835
 9787SOL    HW130260   3.317   3.425   2.900
 9787SOL    HW230261   3.263   3.430   2.746
 9788SOL     OW30262   0.735   0.051   1.890
 9788SOL    HW130263   0.669   7.001   1.903
 9788SOL    HW230264   0.827   0.013   1.888
 9789SOL     OW30265   1.691   6.245   0.251
 9789SOL    HW130266   1.758   6.318   0.237
 9789SOL    HW230267   1.614   6.281   0.304
 9790SOL     OW30268   6.839   4.482   6.138
 9790SOL    HW130269   6.792   4.393   6.138
 9790SOL    HW230270   6.847   4.514   6.044
 9791SOL     OW30271   6.953   0.643   6.755
 9791SOL    HW130272   6.998   0.723   6.796
 9791SOL    HW230273   6.989   0.629   6.662
 9792SOL     OW30274   3.422   5.046   0.801
 9792SOL    HW130275   3.353   5.064   0.731
 9792SOL    HW230276   3.399   4.961   0.849
 9793SOL     OW30277   4.197   0.167   2.508
 9793SOL    HW130278   4.120   0.104   2.497
 9793SOL    HW230279   4.255   0.162   2.427
 9794SOL     OW30280   6.261   4.446   5.626
 9794SOL    HW130281   6.322   4.437   5.547
 9794SOL    HW230282   6.258   4.541   5.655
 9795SOL     OW30283   1.212   3.196   4.522
 9795SOL    HW130284   1.157   3.271   4.485
 9795SOL    HW230285   1.309   3.218   4.514
 9796SOL     OW30286   3.979   3.633   3.015
 9796SOL    HW130287   3.964   3.720   2.967
 9796SOL    HW230288   4.012   3.564   2.950
 9797SOL     OW30289   1.991   5.417   0.078
 9797SOL    HW130290   2.055   5.469   0.021
 9797SOL    HW230291   2.040   5.349   0.131
 9798SOL     OW30292   2.805   0.980   1.632
 9798SOL    HW130293   2.706   0.972   1.646
 9798SOL    HW230294   2.825   1.071   1.596
 9799SOL     OW30295   2.674   4.036   5.863
 9799SOL    HW130296   2.760   3.987   5.876
 9799SOL    HW230297   2.601   3.971   5.841
 9800SOL     OW30298   5.000   4.294   4.711
 9800SOL    HW130299   5.039   4.237   4.639
 9800SOL    HW230300   5.070   4.310   4.782
 9801SOL     OW30301   4.699   4.581   0.034
 9801SOL    HW130302   4.676   4.606   6.964
 9801SOL    HW230303   4.621   4.536   0.078
 9802SOL     OW30304   5.407   5.107   0.590
 9802SOL    HW130305   5.330   5.147   0.541
 9802SOL    HW230306   5.381   5.088   0.684
 9803SOL     OW30307   1.661   3.069   6.307
 9803SOL    HW130308   1.724   3.042   6.235
 9803SOL    HW230309   1.633   3.164   6.294
 9804SOL     OW30310   0.560   6.421   3.142
 9804SOL    HW130311   0.549   6.337   3.195
 9804SOL    HW230312   0.617   6.486   3.192
 9805SOL     OW30313   0.435   6.877   2.852
 9805SOL    HW130314   0.425   6.859   2.950
 9805SOL    HW230315   0.391   6.963   2.829
 9806SOL     OW30316   1.319   1.490   6.789
 9806SOL    HW130317   1.354   1.477   6.696
 9806SOL    HW230318   1.331   1.405   6.841
 9807SOL     OW30319   3.184   3.821   1.125
 9807SOL    HW130320   3.117   3.749   1.110
 9807SOL    HW230321   3.200   3.871   1.039
 9808SOL     OW30322   3.462   5.976   5.084
 9808SOL    HW130323   3.464   5.887   5.130
 9808SOL    HW230324   3.428   5.964   4.990
 9809SOL     OW30325   0.392   3.867   0.280
 9809SOL    HW130326   0.412   3.853   0.183
 9809SOL    HW230327   0.327   3.798   0.311
 9810SOL     OW30328   3.046   2.190   4.684
 9810SOL    HW130329   3.069   2.287   4.697
 9810SOL    HW230330   3.075   2.139   4.765
 9811SOL     OW30331   6.252   4.583   3.680
 9811SOL    HW130332   6.201   4.616   3.601
 9811SOL    HW230333   6.189   4.550   3.750
 9812SOL     OW30334   3.369   1.599   5.646
 9812SOL    HW130335   3.446   1.656   5.620
 9812SOL    HW230336   3.374   1.511   5.597
 9813SOL     OW30337   5.206   1.769   0.770
 9813SOL    HW130338   5.236   1.824   0.847
 9813SOL    HW230339   5.115   1.733   0.787
 9814SOL     OW30340   6.231   0.889   0.100
 9814SOL    HW130341   6.163   0.952   0.063
 9814SOL    HW230342   6.303   0.941   0.147
 9815SOL     OW30343   4.830   2.844   4.513
 9815SOL    HW130344   4.736   2.831   4.546
 9815SOL    HW230345   4.834   2.824   4.416
 9816SOL     OW30346   0.421   1.394   6.060
 9816SOL    HW130347   0.343   1.333   6.073
 9816SOL    HW230348   0.388   1.482   6.025
 9817SOL     OW30349   1.178   0.029   3.287
 9817SOL    HW130350   1.161   0.115   3.239
 9817SOL    HW230351   1.248   0.044   3.357
 9818SOL     OW30352   6.696   1.937   4.256
 9818SOL    HW130353   6.636   1.992   4.314
 9818SOL    HW230354   6.666   1.942   4.161
 9819SOL     OW30355   4.806   2.940   3.644
 9819SOL    HW130356   4.863   3.017   3.674
 9819SOL    HW230357   4.737   2.973   3.580
 9820SOL     OW30358   3.504   3.224   6.585
 9820SOL    HW130359   3.519   3.194   6.679
 9820SOL    HW230360   3.533   3.320   6.576
 9821SOL     OW30361   5.723   1.260   6.742
 9821SOL    HW130362   5.733   1.354   6.775
 9821SOL    HW230363   5.647   1.254   6.679
 9822SOL     OW30364   1.501   6.883   3.588
 9822SOL    HW130365   1.503   6.853   3.493
 9822SOL    HW230366   1.591   6.870   3.629
 9823SOL     OW30367   3.681   0.214   0.524
 9823SOL    HW130368   3.756   0.266   0.483
 9823SOL    HW230369   3.647   0.261   0.605
 9824SOL     OW30370   1.833   4.734   5.030
 9824SOL    HW130371   1.900   4.808   5.026
 9824SOL    HW230372   1.854   4.675   5.108
 9825SOL     OW30373   3.667   5.245   5.942
 9825SOL    HW130374   3.753   5.223   5.896
 9825SOL    HW230375   3.673   5.219   6.038
 9826SOL     OW30376   5.051   5.168   6.180
 9826SOL    HW130377   5.092   5.167   6.272
 9826SOL    HW230378   4.952   5.183   6.188
 9827SOL     OW30379   2.136   3.634   3.725
 9827SOL    HW130380   2.117   3.621   3.823
 9827SOL    HW230381   2.124   3.547   3.677
 9828SOL     OW30382   2.227   3.316   6.383
 9828SOL    HW130383   2.248   3.368   6.466
 9828SOL    HW230384   2.304   3.321   6.319
 9829SOL     OW30385   2.912   5.969   6.952
 9829SOL    HW130386   2.994   6.027   6.954
 9829SOL    HW230387   2.898   5.929   0.019
 9830SOL     OW30388   5.605   2.790   1.855
 9830SOL    HW130389   5.520   2.836   1.827
 9830SOL    HW230390   5.640   2.736   1.779
 9831SOL     OW30391   2.009   5.996   0.903
 9831SOL    HW130392   2.085   5.941   0.868
 9831SOL    HW230393   1.969   5.951   0.982
 9832SOL     OW30394   5.102   5.817   2.348
 9832SOL    HW130395   5.166   5.742   2.366
 9832SOL    HW230396   5.058   5.803   2.259
 9833SOL     OW30397   3.896   2.942   5.130
 9833SOL    HW130398   3.885   2.908   5.036
 9833SOL    HW230399   3.907   2.864   5.192
 9834SOL     OW30400   3.471   4.186   5.495
 9834SOL    HW130401   3.440   4.210   5.403
 9834SOL    HW230402   3.492   4.269   5.546
 9835SOL     OW30403   3.381   2.720   5.711
 9835SOL    HW130404   3.303   2.759   5.662
 9835SOL    HW230405   3.435   2.663   5.649
 9836SOL     OW30406   6.069   4.570   3.876
 9836SOL    HW130407   6.002   4.523   3.819
 9836SOL    HW230408   6.089   4.515   3.956
 9837SOL     OW30409   3.052   0.365   2.507
 9837SOL    HW130410   3.011   0.425   2.438
 9837SOL    HW230411   3.116   0.302   2.463
 9838SOL     OW30412   0.863   6.710   6.419
 9838SOL    HW130413   0.896   6.621   6.452
 9838SOL    HW230414   0.888   6.721   6.323
 9839SOL     OW30415   5.650   1.503   3.483
 9839SOL    HW130416   5.554   1.481   3.465
 9839SOL    HW230417   5.704   1.480   3.402
 9840SOL     OW30418   0.642   1.356   1.682
 9840SOL    HW130419   0.676   1.446   1.712
 9840SOL    HW230420   0.547   1.346   1.710
 9841SOL     OW30421   1.933   4.178   4.657
 9841SOL    HW130422   1.933   4.145   4.563
 9841SOL    HW230423   2.027   4.196   4.686
 9842SOL     OW30424   4.118   3.659   2.692
 9842SOL    HW130425   4.198   3.714   2.713
 9842SOL    HW230426   4.110   3.585   2.759
 9843SOL     OW30427   5.636   0.749   1.269
 9843SOL    HW130428   5.673   0.700   1.191
 9843SOL    HW230429   5.615   0.843   1.243
 9844SOL     OW30430   6.182   1.087   2.058
 9844SOL    HW130431   6.120   1.061   1.983
 9844SOL    HW230432   6.263   1.131   2.020
 9845SOL     OW30433   3.114   1.569   3.217
 9845SOL    HW130434   3.026   1.575   3.169
 9845SOL    HW230435   3.127   1.651   3.273
 9846SOL     OW30436   3.767   3.425   2.090
 9846SOL    HW130437   3.715   3.340   2.086
 9846SOL    HW230438   3.865   3.404   2.086
 9847SOL     OW30439   3.495   2.951   5.020
 9847SOL    HW130440   3.473   3.047   5.038
 9847SOL    HW230441   3.465   2.895   5.097
 9848SOL     OW30442   3.432   2.770   6.042
 9848SOL    HW130443   3.337   2.743   6.024
 9848SOL    HW230444   3.484   2.689   6.070
 9849SOL     OW30445   0.008   0.545   0.171
 9849SOL    HW130446   0.083   0.592   0.217
 9849SOL    HW230447   6.970   0.613   0.131
 9850SOL     OW30448   6.016   7.021   3.849
 9850SOL    HW130449   5.931   6.970   3.836
 9850SOL    HW230450   5.996   0.088   3.885
 9851SOL     OW30451   5.144   1.927   5.417
 9851SOL    HW130452   5.218   1.859   5.418
 9851SOL    HW230453   5.059   1.884   5.448
 9852SOL     OW30454   4.184   2.115   2.719
 9852SOL    HW130455   4.227   2.175   2.787
 9852SOL    HW230456   4.194   2.156   2.628
 9853SOL     OW30457   5.279   4.622   4.145
 9853SOL    HW130458   5.248   4.714   4.167
 9853SOL    HW230459   5.255   4.559   4.219
 9854SOL     OW30460   0.591   5.727   4.582
 9854SOL    HW130461   0.607   5.819   4.548
 9854SOL    HW230462   0.548   5.671   4.511
 9855SOL     OW30463   2.403   2.862   0.433
 9855SOL    HW130464   2.497   2.897   0.432
 9855SOL    HW230465   2.341   2.932   0.467
 9856SOL     OW30466   4.799   4.001   5.855
 9856SOL    HW130467   4.741   4.082   5.850
 9856SOL    HW230468   4.773   3.947   5.935
 9857SOL     OW30469   4.421   2.407   3.862
 9857SOL    HW130470   4.327   2.377   3.876
 9857SOL    HW230471   4.474   2.391   3.945
 9858SOL     OW30472   0.197   1.079   0.533
 9858SOL    HW130473   0.231   1.023   0.609
 9858SOL    HW230474   0.160   1.019   0.462
 9859SOL     OW30475   5.923   6.785   1.981
 9859SOL    HW130476   5.871   6.734   2.049
 9859SOL    HW230477   5.881   6.874   1.967
 9860SOL     OW30478   0.533   1.537   3.530
 9860SOL    HW130479   0.571   1.629   3.518
 9860SOL    HW230480   0.584   1.489   3.602
 9861SOL     OW30481   3.403   0.115   2.901
 9861SOL    HW130482   3.410   0.191   2.836
 9861SOL    HW230483   3.429   0.029   2.855
 9862SOL     OW30484   3.900   4.220   0.395
 9862SOL    HW130485   3.802   4.200   0.402
 9862SOL    HW230486   3.915   4.318   0.399
 9863SOL     OW30487   3.663   0.032   3.033
 9863SOL    HW130488   3.668   0.017   2.935
 9863SOL    HW230489   3.568   0.023   3.064
 9864SOL     OW30490   3.617   6.259   4.239
 9864SOL    HW130491   3.599   6.338   4.182
 9864SOL    HW230492   3.584   6.276   4.332
 9865SOL     OW30493   1.443   0.919   4.189
 9865SOL    HW130494   1.437   0.999   4.129
 9865SOL    HW230495   1.495   0.943   4.271
 9866SOL     OW30496   4.800   4.824   5.955
 9866SOL    HW130497   4.891   4.866   5.949
 9866SOL    HW230498   4.809   4.725   5.957
 9867SOL     OW30499   6.110   0.953   0.714
 9867SOL    HW130500   6.116   0.896   0.633
 9867SOL    HW230501   6.015   0.982   0.728
 9868SOL     OW30502   0.583   3.957   5.545
 9868SOL    HW130503   0.631   3.879   5.584
 9868SOL    HW230504   0.648   4.030   5.524
 9869SOL     OW30505   1.626   3.063   2.478
 9869SOL    HW130506   1.666   3.116   2.552
 9869SOL    HW230507   1.668   2.972   2.476
 9870SOL     OW30508   3.785   5.929   2.776
 9870SOL    HW130509   3.868   5.938   2.720
 9870SOL    HW230510   3.804   5.963   2.868
 9871SOL     OW30511   0.383   6.285   6.591
 9871SOL    HW130512   0.480   6.305   6.582
 9871SOL    HW230513   0.370   6.187   6.603
 9872SOL     OW30514   2.232   4.582   4.044
 9872SOL    HW130515   2.202   4.627   4.128
 9872SOL    HW230516   2.157   4.582   3.978
 9873SOL     OW30517   2.480   2.169   0.270
 9873SOL    HW130518   2.484   2.151   0.171
 9873SOL    HW230519   2.439   2.259   0.286
 9874SOL     OW30520   0.189   3.225   4.728
 9874SOL    HW130521   0.212   3.130   4.708
 9874SOL    HW230522   0.272   3.282   4.721
 9875SOL     OW30523   6.308   6.677   1.664
 9875SOL    HW130524   6.357   6.727   1.735
 9875SOL    HW230525   6.351   6.693   1.576
 9876SOL     OW30526   6.733   0.453   3.198
 9876SOL    HW130527   6.635   0.439   3.182
 9876SOL    HW230528   6.747   0.531   3.259
 9877SOL     OW30529   0.013   6.299   3.835
 9877SOL    HW130530   0.098   6.347   3.816
 9877SOL    HW230531   0.028   6.230   3.906
 9878SOL     OW30532   2.658   4.783   5.219
 9878SOL    HW130533   2.562   4.754   5.210
 9878SOL    HW230534   2.716   4.725   5.163
 9879SOL     OW30535   5.331   5.216   4.803
 9879SOL    HW130536   5.283   5.262   4.728
 9879SOL    HW230537   5.332   5.276   4.883
 9880SOL     OW30538   3.082   0.976   5.794
 9880SOL    HW130539   3.171   0.978   5.749
 9880SOL    HW230540   3.024   0.908   5.750
 9881SOL     OW30541   0.986   1.343   4.870
 9881SOL    HW130542   0.904   1.400   4.866
 9881SOL    HW230543   1.057   1.392   4.920
 9882SOL     OW30544   1.247   3.777   3.725
 9882SOL    HW130545   1.316   3.731   3.781
 9882SOL    HW230546   1.176   3.814   3.784
 9883SOL     OW30547   1.101   6.629   6.982
 9883SOL    HW130548   1.185   6.606   0.008
 9883SOL    HW230549   1.026   6.638   0.024
 9884SOL     OW30550   4.630   2.165   2.069
 9884SOL    HW130551   4.554   2.215   2.028
 9884SOL    HW230552   4.690   2.131   1.997
 9885SOL     OW30553   6.806   2.253   4.817
 9885SOL    HW130554   6.834   2.199   4.896
 9885SOL    HW230555   6.842   2.211   4.733
 9886SOL     OW30556   1.267   4.230   2.288
 9886SOL    HW130557   1.219   4.318   2.283
 9886SOL    HW230558   1.336   4.234   2.360
 9887SOL     OW30559   3.479   0.286   5.725
 9887SOL    HW130560   3.568   0.295   5.680
 9887SOL    HW230561   3.407   0.280   5.655
 9888SOL     OW30562   5.761   4.543   2.793
 9888SOL    HW130563   5.828   4.553   2.866
 9888SOL    HW230564   5.695   4.472   2.818
 9889SOL     OW30565   6.952   5.171   1.391
 9889SOL    HW130566   6.899   5.087   1.385
 9889SOL    HW230567   0.023   5.153   1.365
 9890SOL     OW30568   1.932   2.186   1.192
 9890SOL    HW130569   1.946   2.275   1.236
 9890SOL    HW230570   1.871   2.197   1.113
 9891SOL     OW30571   5.004   4.086   2.173
 9891SOL    HW130572   5.046   4.083   2.083
 9891SOL    HW230573   4.904   4.087   2.164
 9892SOL     OW30574   6.903   4.711   1.102
 9892SOL    HW130575   6.992   4.704   1.057
 9892SOL    HW230576   6.905   4.656   1.185
 9893SOL     OW30577   0.803   0.630   1.046
 9893SOL    HW130578   0.810   0.542   1.093
 9893SOL    HW230579   0.888   0.681   1.056
 9894SOL     OW30580   2.745   2.415   1.381
 9894SOL    HW130581   2.670   2.475   1.411
 9894SOL    HW230582   2.832   2.449   1.417
 9895SOL     OW30583   6.463   5.056   4.610
 9895SOL    HW130584   6.523   5.074   4.533
 9895SOL    HW230585   6.514   5.010   4.683
 9896SOL     OW30586   6.920   0.706   6.332
 9896SOL    HW130587   7.000   0.704   6.392
 9896SOL    HW230588   6.852   0.770   6.368
 9897SOL     OW30589   5.529   5.880   2.470
 9897SOL    HW130590   5.459   5.926   2.524
 9897SOL    HW230591   5.527   5.781   2.489
 9898SOL     OW30592   1.838   6.106   4.888
 9898SOL    HW130593   1.879   6.015   4.880
 9898SOL    HW230594   1.749   6.098   4.931
 9899SOL     OW30595   1.699   5.870   0.659
 9899SOL    HW130596   1.617   5.924   0.679
 9899SOL    HW230597   1.779   5.929   0.660
 9900SOL     OW30598   1.991   2.975   3.049
 9900SOL    HW130599   2.033   2.994   3.137
 9900SOL    HW230600   2.063   2.953   2.982
 9901SOL     OW30601   2.610   0.524   6.943
 9901SOL    HW130602   2.531   0.466   6.964
 9901SOL    HW230603   2.664   0.482   6.871
 9902SOL     OW30604   3.577   5.024   1.426
 9902SOL    HW130605   3.536   5.115   1.429
 9902SOL    HW230606   3.555   4.981   1.338
 9903SOL     OW30607   5.449   2.545   1.332
 9903SOL    HW130608   5.488   2.453   1.335
 9903SOL    HW230609   5.484   2.599   1.409
 9904SOL     OW30610   0.664   3.850   6.424
 9904SOL    HW130611   0.693   3.807   6.509
 9904SOL    HW230612   0.592   3.917   6.443
 9905SOL     OW30613   1.702   0.454   6.451
 9905SOL    HW130614   1.607   0.486   6.447
 9905SOL    HW230615   1.757   0.508   6.387
 9906SOL     OW30616   2.124   3.538   1.692
 9906SOL    HW130617   2.190   3.517   1.621
 9906SOL    HW230618   2.168   3.530   1.782
 9907SOL     OW30619   0.729   0.203   1.622
 9907SOL    HW130620   0.753   0.154   1.706
 9907SOL    HW230621   0.630   0.210   1.614
 9908SOL     OW30622   6.316   1.662   5.129
 9908SOL    HW130623   6.347   1.570   5.155
 9908SOL    HW230624   6.220   1.658   5.100
 9909SOL     OW30625   4.481   1.533   2.950
 9909SOL    HW130626   4.467   1.617   3.002
 9909SOL    HW230627   4.416   1.464   2.980
 9910SOL     OW30628   1.184   5.172   1.675
 9910SOL    HW130629   1.174   5.075   1.696
 9910SOL    HW230630   1.186   5.225   1.760
 9911SOL     OW30631   2.529   6.238   1.921
 9911SOL    HW130632   2.458   6.209   1.856
 9911SOL    HW230633   2.565   6.326   1.893
 9912SOL     OW30634   3.829   0.072   1.499
 9912SOL    HW130635   3.929   0.064   1.496
 9912SOL    HW230636   3.790   7.008   1.529
 9913SOL     OW30637   6.319   4.194   0.749
 9913SOL    HW130638   6.252   4.135   0.793
 9913SOL    HW230639   6.309   4.189   0.650
 9914SOL     OW30640   5.912   1.449   5.007
 9914SOL    HW130641   5.918   1.365   4.954
 9914SOL    HW230642   5.846   1.511   4.965
 9915SOL     OW30643   5.859   1.410   3.678
 9915SOL    HW130644   5.880   1.321   3.637
 9915SOL    HW230645   5.780   1.451   3.631
 9916SOL     OW30646   1.974   2.321   2.456
 9916SOL    HW130647   1.968   2.221   2.456
 9916SOL    HW230648   1.902   2.359   2.514
 9917SOL     OW30649   5.095   4.380   6.276
 9917SOL    HW130650   5.078   4.478   6.291
 9917SOL    HW230651   5.009   4.334   6.258
 9918SOL     OW30652   2.754   1.930   3.453
 9918SOL    HW130653   2.845   1.969   3.468
 9918SOL    HW230654   2.684   1.999   3.471
 9919SOL     OW30655   0.835   5.148   0.677
 9919SOL    HW130656   0.912   5.084   0.667
 9919SOL    HW230657   0.812   5.157   0.774
 9920SOL     OW30658   5.328   1.532   2.506
 9920SOL    HW130659   5.278   1.613   2.539
 9920SOL    HW230660   5.417   1.527   2.550
 9921SOL     OW30661   4.039   6.158   4.830
 9921SOL    HW130662   3.987   6.087   4.782
 9921SOL    HW230663   4.073   6.121   4.916
 9922SOL     OW30664   2.264   3.943   0.702
 9922SOL    HW130665   2.235   3.880   0.630
 9922SOL    HW230666   2.237   3.906   0.791
 9923SOL     OW30667   5.458   4.721   6.757
 9923SOL    HW130668   5.483   4.633   6.715
 9923SOL    HW230669   5.517   4.793   6.721
 9924SOL     OW30670   6.252   1.721   3.500
 9924SOL    HW130671   6.307   1.638   3.486
 9924SOL    HW230672   6.161   1.707   3.461
 9925SOL     OW30673   0.440   3.831   4.145
 9925SOL    HW130674   0.528   3.827   4.193
 9925SOL    HW230675   0.373   3.880   4.201
 9926SOL     OW30676   4.564   3.066   1.453
 9926SOL    HW130677   4.510   3.151   1.456
 9926SOL    HW230678   4.507   2.992   1.417
 9927SOL     OW30679   1.342   0.445   0.627
 9927SOL    HW130680   1.245   0.419   0.618
 9927SOL    HW230681   1.359   0.480   0.719
 9928SOL     OW30682   5.042   4.918   3.022
 9928SOL    HW130683   5.111   4.859   2.981
 9928SOL    HW230684   5.036   4.901   3.121
 9929SOL     OW30685   3.242   4.060   5.162
 9929SOL    HW130686   3.217   3.991   5.230
 9929SOL    HW230687   3.196   4.146   5.185
 9930SOL     OW30688   6.464   6.352   5.126
 9930SOL    HW130689   6.404   6.272   5.128
 9930SOL    HW230690   6.559   6.323   5.115
 9931SOL     OW30691   0.437   5.599   4.370
 9931SOL    HW130692   0.357   5.591   4.430
 9931SOL    HW230693   0.444   5.518   4.313
 9932SOL     OW30694   3.104   3.201   6.122
 9932SOL    HW130695   3.191   3.155   6.104
 9932SOL    HW230696   3.043   3.190   6.044
 9933SOL     OW30697   0.632   6.127   3.897
 9933SOL    HW130698   0.541   6.120   3.937
 9933SOL    HW230699   0.627   6.109   3.799
 9934SOL     OW30700   6.513   1.598   5.772
 9934SOL    HW130701   6.485   1.573   5.865
 9934SOL    HW230702   6.608   1.628   5.773
 9935SOL     OW30703   3.293   6.598   0.335
 9935SOL    HW130704   3.302   6.524   0.402
 9935SOL    HW230705   3.326   6.683   0.376
 9936SOL     OW30706   6.642   4.396   7.016
 9936SOL    HW130707   6.593   4.469   0.040
 9936SOL    HW230708   6.620   4.399   6.919
 9937SOL     OW30709   0.211   1.519   1.531
 9937SOL    HW130710   0.265   1.582   1.475
 9937SOL    HW230711   0.130   1.566   1.566
 9938SOL     OW30712   6.786   5.087   3.530
 9938SOL    HW130713   6.765   5.006   3.585
 9938SOL    HW230714   6.718   5.098   3.458
 9939SOL     OW30715   4.573   2.483   1.511
 9939SOL    HW130716   4.539   2.414   1.447
 9939SOL    HW230717   4.608   2.439   1.593
 9940SOL     OW30718   0.909   0.565   1.382
 9940SOL    HW130719   0.907   0.488   1.446
 9940SOL    HW230720   1.002   0.602   1.379
 9941SOL     OW30721   3.280   3.050   4.742
 9941SOL    HW130722   3.264   3.097   4.655
 9941SOL    HW230723   3.378   3.050   4.762
 9942SOL     OW30724   2.630   5.381   2.822
 9942SOL    HW130725   2.537   5.380   2.859
 9942SOL    HW230726   2.662   5.287   2.811
 9943SOL     OW30727   0.204   4.170   5.483
 9943SOL    HW130728   0.230   4.197   5.390
 9943SOL    HW230729   0.280   4.190   5.546
 9944SOL     OW30730   1.099   4.099   6.391
 9944SOL    HW130731   1.034   4.035   6.350
 9944SOL    HW230732   1.050   4.159   6.455
 9945SOL     OW30733   4.497   5.273   6.902
 9945SOL    HW130734   4.551   5.270   6.818
 9945SOL    HW230735   4.406   5.309   6.882
 9946SOL     OW30736   6.174   0.378   3.523
 9946SOL    HW130737   6.204   0.309   3.588
 9946SOL    HW230738   6.223   0.366   3.437
 9947SOL     OW30739   2.507   2.246   4.901
 9947SOL    HW130740   2.471   2.182   4.969
 9947SOL    HW230741   2.518   2.200   4.813
 9948SOL     OW30742   5.965   4.750   5.692
 9948SOL    HW130743   5.931   4.834   5.734
 9948SOL    HW230744   5.888   4.691   5.668
 9949SOL     OW30745   6.917   5.020   3.982
 9949SOL    HW130746   6.885   5.061   4.067
 9949SOL    HW230747   7.006   5.058   3.957
 9950SOL     OW30748   5.830   6.343   5.637
 9950SOL    HW130749   5.797   6.263   5.687
 9950SOL    HW230750   5.928   6.333   5.620
 9951SOL     OW30751   0.530   1.524   3.871
 9951SOL    HW130752   0.461   1.567   3.812
 9951SOL    HW230753   0.493   1.518   3.964
 9952SOL     OW30754   1.201   4.623   0.324
 9952SOL    HW130755   1.149   4.667   0.252
 9952SOL    HW230756   1.139   4.575   0.386
 9953SOL     OW30757   5.608   2.428   4.862
 9953SOL    HW130758   5.572   2.355   4.803
 9953SOL    HW230759   5.538   2.453   4.929
 9954SOL     OW30760   0.461   0.337   6.223
 9954SOL    HW130761   0.554   0.347   6.258
 9954SOL    HW230762   0.450   0.246   6.184
 9955SOL     OW30763   5.693   3.525   5.631
 9955SOL    HW130764   5.637   3.561   5.706
 9955SOL    HW230765   5.639   3.462   5.576
 9956SOL     OW30766   1.463   5.935   1.875
 9956SOL    HW130767   1.427   5.929   1.781
 9956SOL    HW230768   1.512   6.021   1.886
 9957SOL     OW30769   5.408   6.200   2.191
 9957SOL    HW130770   5.427   6.260   2.269
 9957SOL    HW230771   5.466   6.118   2.197
 9958SOL     OW30772   2.630   5.503   6.964
 9958SOL    HW130773   2.677   5.580   6.921
 9958SOL    HW230774   2.551   5.537   7.015
 9959SOL     OW30775   4.100   3.502   4.772
 9959SOL    HW130776   4.113   3.557   4.689
 9959SOL    HW230777   4.042   3.423   4.750
 9960SOL     OW30778   0.109   0.709   2.036
 9960SOL    HW130779   0.205   0.702   2.009
 9960SOL    HW230780   0.071   0.794   1.999
 9961SOL     OW30781   1.654   5.624   4.448
 9961SOL    HW130782   1.564   5.583   4.429
 9961SOL    HW230783   1.648   5.678   4.532
 9962SOL     OW30784   5.507   5.839   1.523
 9962SOL    HW130785   5.451   5.921   1.531
 9962SOL    HW230786   5.540   5.813   1.614
 9963SOL     OW30787   2.716   3.291   6.820
 9963SOL    HW130788   2.716   3.191   6.818
 9963SOL    HW230789   2.627   3.325   6.791
 9964SOL     OW30790   5.201   4.244   6.072
 9964SOL    HW130791   5.147   4.294   6.139
 9964SOL    HW230792   5.156   4.156   6.052
 9965SOL     OW30793   4.048   5.940   6.124
 9965SOL    HW130794   4.107   6.013   6.159
 9965SOL    HW230795   4.061   5.858   6.180
 9966SOL     OW30796   2.459   5.813   2.464
 9966SOL    HW130797   2.542   5.816   2.407
 9966SOL    HW230798   2.456   5.895   2.522
 9967SOL     OW30799   5.569   6.951   1.925
 9967SOL    HW130800   5.662   6.985   1.910
 9967SOL    HW230801   5.504   0.003   1.916
 9968SOL     OW30802   3.023   3.508   6.621
 9968SOL    HW130803   2.968   3.525   6.540
 9968SOL    HW230804   3.085   3.431   6.605
 9969SOL     OW30805   1.901   2.965   3.439
 9969SOL    HW130806   1.945   2.903   3.503
 9969SOL    HW230807   1.802   2.960   3.450
 9970SOL     OW30808   5.289   4.210   2.838
 9970SOL    HW130809   5.291   4.261   2.924
 9970SOL    HW230810   5.367   4.147   2.836
 9971SOL     OW30811   2.910   5.115   0.487
 9971SOL    HW130812   2.957   5.045   0.435
 9971SOL    HW230813   2.814   5.119   0.458
 9972SOL     OW30814   4.094   4.603   1.381
 9972SOL    HW130815   4.177   4.659   1.379
 9972SOL    HW230816   4.031   4.633   1.309
 9973SOL     OW30817   4.355   2.291   4.668
 9973SOL    HW130818   4.260   2.273   4.642
 9973SOL    HW230819   4.401   2.204   4.686
 9974SOL     OW30820   6.544   3.212   3.708
 9974SOL    HW130821   6.534   3.306   3.674
 9974SOL    HW230822   6.525   3.148   3.634
 9975SOL     OW30823   6.813   4.958   6.817
 9975SOL    HW130824   6.784   4.953   6.721
 9975SOL    HW230825   6.822   4.865   6.854
 9976SOL     OW30826   1.015   6.127   5.524
 9976SOL    HW130827   1.110   6.099   5.536
 9976SOL    HW230828   0.993   6.199   5.590
 9977SOL     OW30829   6.987   5.524   5.370
 9977SOL    HW130830   0.014   5.463   5.431
 9977SOL    HW230831   0.020   5.605   5.351
 9978SOL     OW30832   6.102   3.206   3.072
 9978SOL    HW130833   6.094   3.127   3.132
 9978SOL    HW230834   6.154   3.181   2.990
 9979SOL     OW30835   6.239   4.726   5.590
 9979SOL    HW130836   6.270   4.734   5.495
 9979SOL    HW230837   6.148   4.765   5.599
 9980SOL     OW30838   1.711   1.504   5.883
 9980SOL    HW130839   1.637   1.568   5.861
 9980SOL    HW230840   1.788   1.520   5.821
 9981SOL     OW30841   2.633   2.045   1.799
 9981SOL    HW130842   2.670   2.100   1.724
 9981SOL    HW230843   2.534   2.038   1.790
 9982SOL     OW30844   0.244   0.333   3.366
 9982SOL    HW130845   0.287   0.349   3.277
 9982SOL    HW230846   0.265   0.408   3.428
 9983SOL     OW30847   0.756   2.586   3.482
 9983SOL    HW130848   0.732   2.634   3.398
 9983SOL    HW230849   0.851   2.608   3.507
 9984SOL     OW30850   2.060   0.773   0.369
 9984SOL    HW130851   2.057   0.777   0.469
 9984SOL    HW230852   1.986   0.715   0.336
 9985SOL     OW30853   2.276   1.410   1.455
 9985SOL    HW130854   2.303   1.479   1.389
 9985SOL    HW230855   2.357   1.361   1.488
 9986SOL     OW30856   4.961   4.496   5.866
 9986SOL    HW130857   4.886   4.511   5.931
 9986SOL    HW230858   5.023   4.574   5.868
 9987SOL     OW30859   0.194   2.737   3.797
 9987SOL    HW130860   0.256   2.659   3.802
 9987SOL    HW230861   0.118   2.723   3.860
 9988SOL     OW30862   0.139   5.338   5.497
 9988SOL    HW130863   0.175   5.414   5.550
 9988SOL    HW230864   0.155   5.252   5.546
 9989SOL     OW30865   6.577   4.284   3.379
 9989SOL    HW130866   6.481   4.259   3.385
 9989SOL    HW230867   6.589   4.355   3.310
 9990SOL     OW30868   2.468   5.923   1.899
 9990SOL    HW130869   2.451   5.949   1.804
 9990SOL    HW230870   2.563   5.945   1.923
 9991SOL     OW30871   1.785   2.869   4.003
 9991SOL    HW130872   1.730   2.947   3.974
 9991SOL    HW230873   1.836   2.893   4.086
 9992SOL     OW30874   5.296   4.781   0.255
 9992SOL    HW130875   5.209   4.733   0.268
 9992SOL    HW230876   5.336   4.753   0.167
 9993SOL     OW30877   3.968   0.608   1.175
 9993SOL    HW130878   3.957   0.667   1.096
 9993SOL    HW230879   3.879   0.569   1.201
 9994SOL     OW30880   0.165   4.776   3.343
 9994SOL    HW130881   0.097   4.707   3.321
 9994SOL    HW230882   0.130   4.867   3.320
 9995SOL     OW30883   4.336   1.328   3.021
 9995SOL    HW130884   4.321   1.308   3.118
 9995SOL    HW230885   4.386   1.252   2.979
 9996SOL     OW30886   2.308   3.175   1.575
 9996SOL    HW130887   2.235   3.186   1.641
 9996SOL    HW230888   2.337   3.079   1.571
 9997SOL     OW30889   3.736   1.928   0.697
 9997SOL    HW130890   3.732   1.933   0.797
 9997SOL    HW230891   3.762   2.017   0.661
 9998SOL     OW30892   5.651   4.452   0.093
 9998SOL    HW130893   5.604   4.390   0.156
 9998SOL    HW230894   5.742   4.416   0.073
 9999SOL     OW30895   0.155   2.512   5.449
 9999SOL    HW130896   0.078   2.534   5.388
 9999SOL    HW230897   0.174   2.591   5.507
10000SOL     OW30898   6.736   3.619   6.766
10000SOL    HW130899   6.763   3.658   6.678
10000SOL    HW230900   6.636   3.609   6.768
10001SOL     OW30901   4.777   0.098   2.226
10001SOL    HW130902   4.771   0.005   2.191
10001SOL    HW230903   4.692   0.121   2.274
10002SOL     OW30904   1.643   0.349   2.274
10002SOL    HW130905   1.597   0.354   2.363
10002SOL    HW230906   1.727   0.403   2.277
10003SOL     OW30907   3.466   1.213   3.228
10003SOL    HW130908   3.479   1.310   3.206
10003SOL    HW230909   3.468   1.160   3.144
10004SOL     OW30910   5.478   2.449   3.783
10004SOL    HW130911   5.415   2.398   3.725
10004SOL    HW230912   5.467   2.547   3.767
10005SOL     OW30913   5.043   0.724   4.255
10005SOL    HW130914   4.964   0.741   4.196
10005SOL    HW230915   5.034   0.634   4.298
10006SOL     OW30916   5.559   6.601   4.582
10006SOL    HW130917   5.470   6.643   4.602
10006SOL    HW230918   5.624   6.673   4.557
10007SOL     OW30919   0.236   5.200   5.750
10007SOL    HW130920   0.279   5.115   5.780
10007SOL    HW230921   0.289   5.278   5.786
10008SOL     OW30922   4.405   1.320   4.687
10008SOL    HW130923   4.434   1.293   4.779
10008SOL    HW230924   4.329   1.386   4.695
10009SOL     OW30925   2.209   4.166   1.728
10009SOL    HW130926   2.136   4.234   1.725
10009SOL    HW230927   2.237   4.151   1.823
10010SOL     OW30928   1.824   0.700   5.896
10010SOL    HW130929   1.780   0.661   5.816
10010SOL    HW230930   1.811   0.799   5.896
10011SOL     OW30931   5.604   1.434   5.181
10011SOL    HW130932   5.693   1.422   5.226
10011SOL    HW230933   5.617   1.486   5.096
10012SOL     OW30934   5.477   0.787   3.289
10012SOL    HW130935   5.561   0.812   3.240
10012SOL    HW230936   5.430   0.869   3.319
10013SOL     OW30937   0.642   1.336   3.693
10013SOL    HW130938   0.635   1.236   3.696
10013SOL    HW230939   0.580   1.376   3.761
10014SOL     OW30940   6.685   4.040   0.734
10014SOL    HW130941   6.653   3.947   0.716
10014SOL    HW230942   6.751   4.039   0.809
10015SOL     OW30943   1.991   4.130   0.503
10015SOL    HW130944   2.070   4.176   0.543
10015SOL    HW230945   1.981   4.039   0.542
10016SOL     OW30946   1.403   0.849   6.248
10016SOL    HW130947   1.449   0.821   6.333
10016SOL    HW230948   1.448   0.806   6.170
10017SOL     OW30949   2.759   1.603   3.061
10017SOL    HW130950   2.728   1.654   3.141
10017SOL    HW230951   2.697   1.526   3.044
10018SOL     OW30952   4.441   6.941   5.523
10018SOL    HW130953   4.429   6.982   5.613
10018SOL    HW230954   4.474   7.010   5.459
10019SOL     OW30955   6.928   2.083   2.666
10019SOL    HW130956   6.985   2.034   2.732
10019SOL    HW230957   6.842   2.033   2.651
10020SOL     OW30958   1.753   2.012   1.724
10020SOL    HW130959   1.765   2.029   1.822
10020SOL    HW230960   1.738   2.099   1.678
10021SOL     OW30961   6.863   2.841   1.646
10021SOL    HW130962   6.849   2.845   1.547
10021SOL    HW230963   6.961   2.844   1.665
10022SOL     OW30964   2.961   0.589   5.821
10022SOL    HW130965   2.930   0.574   5.914
10022SOL    HW230966   2.907   0.662   5.779
10023SOL     OW30967   1.371   5.591   6.870
10023SOL    HW130968   1.340   5.558   6.781
10023SOL    HW230969   1.319   5.546   6.943
10024SOL     OW30970   2.247   6.169   2.131
10024SOL    HW130971   2.286   6.239   2.191
10024SOL    HW230972   2.294   6.171   2.044
10025SOL     OW30973   1.360   1.700   1.252
10025SOL    HW130974   1.301   1.778   1.267
10025SOL    HW230975   1.344   1.631   1.323
10026SOL     OW30976   5.662   6.697   3.604
10026SOL    HW130977   5.682   6.728   3.511
10026SOL    HW230978   5.703   6.607   3.618
10027SOL     OW30979   6.458   3.974   4.612
10027SOL    HW130980   6.454   4.074   4.622
10027SOL    HW230981   6.387   3.944   4.549
10028SOL     OW30982   1.566   1.078   2.302
10028SOL    HW130983   1.552   1.144   2.229
10028SOL    HW230984   1.514   1.106   2.383
10029SOL     OW30985   4.940   1.534   4.544
10029SOL    HW130986   4.888   1.453   4.572
10029SOL    HW230987   4.885   1.616   4.560
10030SOL     OW30988   2.295   6.588   3.183
10030SOL    HW130989   2.388   6.612   3.210
10030SOL    HW230990   2.295   6.555   3.089
10031SOL     OW30991   5.760   4.961   4.746
10031SOL    HW130992   5.799   5.016   4.820
10031SOL    HW230993   5.784   4.865   4.759
10032SOL     OW30994   2.044   1.557   5.259
10032SOL    HW130995   2.063   1.544   5.162
10032SOL    HW230996   2.127   1.588   5.305
10033SOL     OW30997   6.189   2.628   4.242
10033SOL    HW130998   6.177   2.723   4.270
10033SOL    HW230999   6.286   2.611   4.223
10034SOL     OW31000   3.361   0.403   4.314
10034SOL    HW131001   3.449   0.362   4.290
10034SOL    HW231002   3.343   0.481   4.254
10035SOL     OW31003   6.035   4.626   1.813
10035SOL    HW131004   6.086   4.685   1.750
10035SOL    HW231005   6.076   4.630   1.904
10036SOL     OW31006   5.960   2.125   1.210
10036SOL    HW131007   6.017   2.119   1.292
10036SOL    HW231008   5.902   2.044   1.204
10037SOL     OW31009   0.249   1.594   0.049
10037SOL    HW131010   0.279   1.678   0.003
10037SOL    HW231011   0.328   1.538   0.071
10038SOL     OW31012   5.661   0.410   0.132
10038SOL    HW131013   5.691   0.411   0.227
10038SOL    HW231014   5.563   0.388   0.128
10039SOL     OW31015   3.513   0.533   3.434
10039SOL    HW131016   3.530   0.507   3.529
10039SOL    HW231017   3.572   0.610   3.409
10040SOL     OW31018   5.225   5.176   6.385
10040SOL    HW131019   5.182   5.230   6.458
10040SOL    HW231020   5.319   5.207   6.371
10041SOL     OW31021   4.455   5.651   6.830
10041SOL    HW131022   4.533   5.603   6.790
10041SOL    HW231023   4.384   5.662   6.760
10042SOL     OW31024   0.643   2.044   4.111
10042SOL    HW131025   0.703   1.974   4.071
10042SOL    HW231026   0.674   2.135   4.083
10043SOL     OW31027   6.802   1.431   4.703
10043SOL    HW131028   6.870   1.397   4.768
10043SOL    HW231029   6.762   1.354   4.653
10044SOL     OW31030   2.339   2.500   4.656
10044SOL    HW131031   2.371   2.413   4.617
10044SOL    HW231032   2.368   2.575   4.596
10045SOL     OW31033   3.758   0.790   1.352
10045SOL    HW131034   3.841   0.736   1.365
10045SOL    HW231035   3.782   0.886   1.338
10046SOL     OW31036   1.748   3.584   0.469
10046SOL    HW131037   1.667   3.598   0.413
10046SOL    HW231038   1.730   3.513   0.538
10047SOL     OW31039   0.822   3.228   5.051
10047SOL    HW131040   0.773   3.158   5.102
10047SOL    HW231041   0.905   3.254   5.100
10048SOL     OW31042   0.337   6.727   2.629
10048SOL    HW131043   0.375   6.635   2.633
10048SOL    HW231044   0.353   6.774   2.716
10049SOL     OW31045   1.518   1.150   5.712
10049SOL    HW131046   1.579   1.227   5.693
10049SOL    HW231047   1.508   1.095   5.629
10050SOL     OW31048   5.628   3.471   5.010
10050SOL    HW131049   5.574   3.398   5.052
10050SOL    HW231050   5.683   3.516   5.080
10051SOL     OW31051   0.376   4.124   4.873
10051SOL    HW131052   0.284   4.156   4.848
10051SOL    HW231053   0.422   4.194   4.927
10052SOL     OW31054   2.205   1.487   3.026
10052SOL    HW131055   2.295   1.483   3.069
10052SOL    HW231056   2.155   1.403   3.048
10053SOL     OW31057   4.321   5.904   4.396
10053SOL    HW131058   4.297   5.901   4.493
10053SOL    HW231059   4.282   5.986   4.355
10054SOL     OW31060   5.596   4.586   5.151
10054SOL    HW131061   5.654   4.609   5.229
10054SOL    HW231062   5.634   4.506   5.105
10055SOL     OW31063   6.365   2.303   5.793
10055SOL    HW131064   6.277   2.263   5.819
10055SOL    HW231065   6.399   2.360   5.868
10056SOL     OW31066   5.171   4.573   3.800
10056SOL    HW131067   5.174   4.487   3.750
10056SOL    HW231068   5.235   4.638   3.759
10057SOL     OW31069   5.469   3.925   5.337
10057SOL    HW131070   5.421   3.838   5.350
10057SOL    HW231071   5.558   3.921   5.381
10058SOL     OW31072   6.539   3.764   4.779
10058SOL    HW131073   6.565   3.796   4.870
10058SOL    HW231074   6.522   3.843   4.719
10059SOL     OW31075   6.980   2.345   0.365
10059SOL    HW131076   0.051   2.346   0.399
10059SOL    HW231077   6.931   2.267   0.404
10060SOL     OW31078   2.329   2.267   2.383
10060SOL    HW131079   2.235   2.242   2.408
10060SOL    HW231080   2.393   2.215   2.439
10061SOL     OW31081   4.351   1.004   3.907
10061SOL    HW131082   4.367   0.983   3.810
10061SOL    HW231083   4.253   0.998   3.926
10062SOL     OW31084   6.280   6.948   4.539
10062SOL    HW131085   6.378   6.954   4.558
10062SOL    HW231086   6.231   7.015   4.596
10063SOL     OW31087   2.948   1.588   4.455
10063SOL    HW131088   2.893   1.537   4.389
10063SOL    HW231089   2.904   1.675   4.476
10064SOL     OW31090   4.323   5.740   6.548
10064SOL    HW131091   4.402   5.689   6.514
10064SOL    HW231092   4.349   5.834   6.566
10065SOL     OW31093   1.936   1.175   1.776
10065SOL    HW131094   1.906   1.205   1.686
10065SOL    HW231095   2.034   1.158   1.775
10066SOL     OW31096   0.319   2.735   4.897
10066SOL    HW131097   0.229   2.753   4.857
10066SOL    HW231098   0.312   2.733   4.996
10067SOL     OW31099   0.381   3.166   6.627
10067SOL    HW131100   0.342   3.215   6.705
10067SOL    HW231101   0.432   3.087   6.659
10068SOL     OW31102   1.196   4.024   2.931
10068SOL    HW131103   1.225   4.077   2.852
10068SOL    HW231104   1.105   4.053   2.959
10069SOL     OW31105   3.374   4.934   1.618
10069SOL    HW131106   3.310   5.005   1.648
10069SOL    HW231107   3.463   4.975   1.599
10070SOL     OW31108   0.523   5.001   5.298
10070SOL    HW131109   0.609   5.047   5.272
10070SOL    HW231110   0.458   5.009   5.223
10071SOL     OW31111   1.246   0.184   4.008
10071SOL    HW131112   1.313   0.180   4.082
10071SOL    HW231113   1.158   0.148   4.040
10072SOL     OW31114   0.607   1.346   2.916
10072SOL    HW131115   0.605   1.280   2.841
10072SOL    HW231116   0.610   1.297   3.003
10073SOL     OW31117   6.310   3.565   3.764
10073SOL    HW131118   6.305   3.476   3.808
10073SOL    HW231119   6.332   3.635   3.832
10074SOL     OW31120   1.903   6.049   0.656
10074SOL    HW131121   1.982   6.019   0.603
10074SOL    HW231122   1.930   6.062   0.751
10075SOL     OW31123   2.269   0.496   2.540
10075SOL    HW131124   2.194   0.464   2.598
10075SOL    HW231125   2.357   0.472   2.582
10076SOL     OW31126   4.914   5.359   3.015
10076SOL    HW131127   5.001   5.342   2.970
10076SOL    HW231128   4.859   5.275   3.014
10077SOL     OW31129   5.471   2.478   0.283
10077SOL    HW131130   5.487   2.554   0.219
10077SOL    HW231131   5.415   2.408   0.239
10078SOL     OW31132   0.743   6.530   4.922
10078SOL    HW131133   0.832   6.558   4.887
10078SOL    HW231134   0.675   6.539   4.849
10079SOL     OW31135   5.417   2.555   3.385
10079SOL    HW131136   5.363   2.492   3.328
10079SOL    HW231137   5.436   2.638   3.333
10080SOL     OW31138   5.348   1.097   6.142
10080SOL    HW131139   5.437   1.136   6.118
10080SOL    HW231140   5.327   1.021   6.080
10081SOL     OW31141   0.662   1.962   0.292
10081SOL    HW131142   0.731   1.904   0.249
10081SOL    HW231143   0.635   1.924   0.380
10082SOL     OW31144   1.757   5.323   3.583
10082SOL    HW131145   1.669   5.283   3.559
10082SOL    HW231146   1.820   5.315   3.506
10083SOL     OW31147   3.448   6.379   3.679
10083SOL    HW131148   3.436   6.304   3.614
10083SOL    HW231149   3.544   6.408   3.680
10084SOL     OW31150   6.973   6.992   5.158
10084SOL    HW131151   6.939   6.928   5.089
10084SOL    HW231152   6.954   0.063   5.129
10085SOL     OW31153   4.443   6.753   0.420
10085SOL    HW131154   4.448   6.786   0.515
10085SOL    HW231155   4.366   6.797   0.374
10086SOL     OW31156   5.898   6.108   2.679
10086SOL    HW131157   5.853   6.172   2.741
10086SOL    HW231158   5.997   6.110   2.694
10087SOL     OW31159   0.437   6.631   4.139
10087SOL    HW131160   0.400   6.668   4.224
10087SOL    HW231161   0.462   6.706   4.077
10088SOL     OW31162   6.701   1.026   0.039
10088SOL    HW131163   6.634   0.990   0.104
10088SOL    HW231164   6.701   0.970   6.980
10089SOL     OW31165   3.482   1.142   2.934
10089SOL    HW131166   3.435   1.226   2.907
10089SOL    HW231167   3.415   1.069   2.949
10090SOL     OW31168   0.912   4.623   1.984
10090SOL    HW131169   0.881   4.702   2.037
10090SOL    HW231170   0.882   4.539   2.029
10091SOL     OW31171   6.795   5.994   6.708
10091SOL    HW131172   6.736   5.914   6.708
10091SOL    HW231173   6.798   6.033   6.800
10092SOL     OW31174   1.390   3.287   5.596
10092SOL    HW131175   1.444   3.203   5.600
10092SOL    HW231176   1.404   3.331   5.507
10093SOL     OW31177   4.952   3.414   4.880
10093SOL    HW131178   4.919   3.327   4.918
10093SOL    HW231179   4.910   3.490   4.929
10094SOL     OW31180   2.429   6.798   1.417
10094SOL    HW131181   2.528   6.797   1.403
10094SOL    HW231182   2.395   6.891   1.403
10095SOL     OW31183   5.483   1.982   4.696
10095SOL    HW131184   5.449   2.075   4.690
10095SOL    HW231185   5.521   1.953   4.608
10096SOL     OW31186   4.985   0.810   2.173
10096SOL    HW131187   4.932   0.842   2.251
10096SOL    HW231188   5.065   0.869   2.160
10097SOL     OW31189   1.849   2.169   6.710
10097SOL    HW131190   1.840   2.176   6.809
10097SOL    HW231191   1.931   2.117   6.687
10098SOL     OW31192   2.920   5.785   4.528
10098SOL    HW131193   2.865   5.868   4.534
10098SOL    HW231194   3.005   5.804   4.479
10099SOL     OW31195   6.505   4.770   1.474
10099SOL    HW131196   6.572   4.699   1.494
10099SOL    HW231197   6.468   4.757   1.382
10100SOL     OW31198   5.523   5.066   5.256
10100SOL    HW131199   5.622   5.064   5.268
10100SOL    HW231200   5.500   5.045   5.161
10101SOL     OW31201   6.729   3.051   2.076
10101SOL    HW131202   6.817   3.040   2.030
10101SOL    HW231203   6.663   3.092   2.013
10102SOL     OW31204   5.802   0.604   0.614
10102SOL    HW131205   5.810   0.666   0.691
10102SOL    HW231206   5.892   0.586   0.574
10103SOL     OW31207   1.054   0.164   5.409
10103SOL    HW131208   1.057   0.224   5.488
10103SOL    HW231209   1.105   0.080   5.429
10104SOL     OW31210   2.417   1.020   5.916
10104SOL    HW131211   2.333   0.967   5.899
10104SOL    HW231212   2.408   1.110   5.873
10105SOL     OW31213   2.837   1.295   5.779
10105SOL    HW131214   2.896   1.242   5.841
10105SOL    HW231215   2.871   1.389   5.773
10106SOL     OW31216   4.517   5.793   1.447
10106SOL    HW131217   4.488   5.809   1.353
10106SOL    HW231218   4.478   5.863   1.507
10107SOL     OW31219   5.004   3.954   6.796
10107SOL    HW131220   4.982   3.994   6.885
10107SOL    HW231221   4.978   3.857   6.796
10108SOL     OW31222   1.229   2.738   0.651
10108SOL    HW131223   1.323   2.702   0.647
10108SOL    HW231224   1.186   2.709   0.737
10109SOL     OW31225   0.908   0.989   0.084
10109SOL    HW131226   0.888   1.026   7.016
10109SOL    HW231227   1.007   0.985   0.096
10110SOL     OW31228   4.718   5.142   2.716
10110SOL    HW131229   4.701   5.240   2.717
10110SOL    HW231230   4.650   5.097   2.658
10111SOL     OW31231   1.154   2.827   2.098
10111SOL    HW131232   1.058   2.834   2.069
10111SOL    HW231233   1.213   2.835   2.017
10112SOL     OW31234   6.693   3.353   3.018
10112SOL    HW131235   6.669   3.350   3.115
10112SOL    HW231236   6.654   3.275   2.971
10113SOL     OW31237   4.367   1.012   6.490
10113SOL    HW131238   4.312   0.931   6.509
10113SOL    HW231239   4.325   1.065   6.417
10114SOL     OW31240   3.881   2.123   3.307
10114SOL    HW131241   3.939   2.160   3.379
10114SOL    HW231242   3.932   2.123   3.221
10115SOL     OW31243   3.903   1.409   4.276
10115SOL    HW131244   4.000   1.406   4.253
10115SOL    HW231245   3.891   1.462   4.360
10116SOL     OW31246   5.526   0.344   5.581
10116SOL    HW131247   5.549   0.263   5.528
10116SOL    HW231248   5.528   0.425   5.522
10117SOL     OW31249   6.745   5.379   5.415
10117SOL    HW131250   6.769   5.282   5.421
10117SOL    HW231251   6.809   5.426   5.355
10118SOL     OW31252   2.906   5.092   4.522
10118SOL    HW131253   2.824   5.143   4.549
10118SOL    HW231254   2.885   4.995   4.518
10119SOL     OW31255   0.114   5.212   3.964
10119SOL    HW131256   0.189   5.146   3.960
10119SOL    HW231257   0.130   5.277   4.038
10120SOL     OW31258   1.398   3.245   2.856
10120SOL    HW131259   1.461   3.304   2.806
10120SOL    HW231260   1.436   3.152   2.861
10121SOL     OW31261   5.853   4.830   0.661
10121SOL    HW131262   5.881   4.734   0.669
10121SOL    HW231263   5.767   4.836   0.610
10122SOL     OW31264   6.352   1.725   3.128
10122SOL    HW131265   6.364   1.705   3.226
10122SOL    HW231266   6.365   1.641   3.076
10123SOL     OW31267   5.735   6.283   0.994
10123SOL    HW131268   5.754   6.216   1.065
10123SOL    HW231269   5.787   6.260   0.911
10124SOL     OW31270   1.251   5.144   2.522
10124SOL    HW131271   1.223   5.224   2.469
10124SOL    HW231272   1.181   5.073   2.516
10125SOL     OW31273   2.313   1.456   1.981
10125SOL    HW131274   2.280   1.480   1.890
10125SOL    HW231275   2.342   1.539   2.029
10126SOL     OW31276   6.219   0.261   6.106
10126SOL    HW131277   6.125   0.284   6.082
10126SOL    HW231278   6.265   0.222   6.026
10127SOL     OW31279   1.274   4.445   6.064
10127SOL    HW131280   1.220   4.526   6.043
10127SOL    HW231281   1.215   4.376   6.106
10128SOL     OW31282   3.009   0.687   6.811
10128SOL    HW131283   3.022   0.678   6.910
10128SOL    HW231284   2.914   0.666   6.788
10129SOL     OW31285   6.723   1.911   2.585
10129SOL    HW131286   6.630   1.916   2.620
10129SOL    HW231287   6.747   1.816   2.565
10130SOL     OW31288   1.187   2.276   1.946
10130SOL    HW131289   1.234   2.304   1.863
10130SOL    HW231290   1.252   2.233   2.009
10131SOL     OW31291   2.106   0.807   4.283
10131SOL    HW131292   2.139   0.730   4.229
10131SOL    HW231293   2.025   0.846   4.238
10132SOL     OW31294   6.911   6.625   2.318
10132SOL    HW131295   6.873   6.589   2.403
10132SOL    HW231296   7.006   6.652   2.333
10133SOL     OW31297   4.660   5.511   1.157
10133SOL    HW131298   4.722   5.503   1.235
10133SOL    HW231299   4.566   5.513   1.190
10134SOL     OW31300   6.112   1.077   2.719
10134SOL    HW131301   6.161   1.135   2.654
10134SOL    HW231302   6.082   0.994   2.673
10135SOL     OW31303   5.956   0.986   4.009
10135SOL    HW131304   5.957   0.886   4.006
10135SOL    HW231305   5.880   1.016   4.066
10136SOL     OW31306   5.009   2.573   2.742
10136SOL    HW131307   4.971   2.603   2.655
10136SOL    HW231308   4.947   2.506   2.784
10137SOL     OW31309   0.404   5.593   5.699
10137SOL    HW131310   0.436   5.687   5.683
10137SOL    HW231311   0.304   5.592   5.700
10138SOL     OW31312   5.766   1.643   0.053
10138SOL    HW131313   5.708   1.714   0.015
10138SOL    HW231314   5.728   1.612   0.141
10139SOL     OW31315   3.271   3.378   5.625
10139SOL    HW131316   3.183   3.361   5.581
10139SOL    HW231317   3.264   3.458   5.685
10140SOL     OW31318   6.460   6.170   6.239
10140SOL    HW131319   6.363   6.143   6.242
10140SOL    HW231320   6.515   6.091   6.212
10141SOL     OW31321   3.706   1.454   3.770
10141SOL    HW131322   3.670   1.428   3.860
10141SOL    HW231323   3.639   1.429   3.700
10142SOL     OW31324   5.910   6.076   4.903
10142SOL    HW131325   5.962   6.121   4.831
10142SOL    HW231326   5.891   6.142   4.976
10143SOL     OW31327   5.668   3.111   0.242
10143SOL    HW131328   5.702   3.061   0.163
10143SOL    HW231329   5.741   3.118   0.311
10144SOL     OW31330   4.029   6.588   5.207
10144SOL    HW131331   4.098   6.536   5.157
10144SOL    HW231332   4.010   6.673   5.158
10145SOL     OW31333   4.573   6.121   1.435
10145SOL    HW131334   4.517   6.198   1.465
10145SOL    HW231335   4.640   6.099   1.507
10146SOL     OW31336   0.007   3.918   4.000
10146SOL    HW131337   0.057   3.961   4.076
10146SOL    HW231338   0.010   3.819   4.010
10147SOL     OW31339   4.216   5.372   6.832
10147SOL    HW131340   4.142   5.324   6.785
10147SOL    HW231341   4.199   5.470   6.829
10148SOL     OW31342   0.359   4.916   0.618
10148SOL    HW131343   0.393   5.003   0.652
10148SOL    HW231344   0.388   4.843   0.680
10149SOL     OW31345   4.583   5.055   1.796
10149SOL    HW131346   4.627   5.077   1.884
10149SOL    HW231347   4.614   4.966   1.765
10150SOL     OW31348   4.868   3.298   0.995
10150SOL    HW131349   4.819   3.359   1.057
10150SOL    HW231350   4.918   3.352   0.927
10151SOL     OW31351   0.106   6.871   5.923
10151SOL    HW131352   0.036   6.806   5.951
10151SOL    HW231353   0.079   6.964   5.949
10152SOL     OW31354   5.947   6.064   2.974
10152SOL    HW131355   5.978   6.015   2.893
10152SOL    HW231356   5.849   6.050   2.987
10153SOL     OW31357   4.762   5.952   4.067
10153SOL    HW131358   4.749   5.899   4.150
10153SOL    HW231359   4.734   5.898   3.988
10154SOL     OW31360   4.196   4.899   5.530
10154SOL    HW131361   4.167   4.973   5.590
10154SOL    HW231362   4.184   4.811   5.576
10155SOL     OW31363   4.840   2.037   5.917
10155SOL    HW131364   4.760   2.097   5.925
10155SOL    HW231365   4.882   2.026   6.007
10156SOL     OW31366   4.608   0.147   1.611
10156SOL    HW131367   4.644   0.223   1.666
10156SOL    HW231368   4.682   0.108   1.557
10157SOL     OW31369   0.205   2.323   0.454
10157SOL    HW131370   0.264   2.297   0.530
10157SOL    HW231371   0.250   2.392   0.398
10158SOL     OW31372   5.102   6.918   2.510
10158SOL    HW131373   5.171   6.930   2.582
10158SOL    HW231374   5.018   6.965   2.536
10159SOL     OW31375   3.733   3.292   3.052
10159SOL    HW131376   3.819   3.324   3.012
10159SOL    HW231377   3.741   3.195   3.075
10160SOL     OW31378   2.066   4.272   2.750
10160SOL    HW131379   1.997   4.232   2.811
10160SOL    HW231380   2.153   4.280   2.799
10161SOL     OW31381   3.439   4.892   6.161
10161SOL    HW131382   3.459   4.948   6.241
10161SOL    HW231383   3.368   4.936   6.106
10162SOL     OW31384   1.546   4.672   1.399
10162SOL    HW131385   1.471   4.710   1.453
10162SOL    HW231386   1.615   4.743   1.384
10163SOL     OW31387   1.587   5.996   5.501
10163SOL    HW131388   1.592   5.967   5.597
10163SOL    HW231389   1.527   6.075   5.494
10164SOL     OW31390   6.399   3.431   3.448
10164SOL    HW131391   6.374   3.516   3.403
10164SOL    HW231392   6.458   3.451   3.527
10165SOL     OW31393   5.755   2.631   3.822
10165SOL    HW131394   5.728   2.727   3.822
10165SOL    HW231395   5.681   2.575   3.783
10166SOL     OW31396   1.036   2.561   1.301
10166SOL    HW131397   0.971   2.601   1.366
10166SOL    HW231398   1.005   2.469   1.276
10167SOL     OW31399   0.361   4.876   6.786
10167SOL    HW131400   0.302   4.892   6.707
10167SOL    HW231401   0.312   4.899   6.870
10168SOL     OW31402   6.054   1.763   6.810
10168SOL    HW131403   6.028   1.832   6.742
10168SOL    HW231404   6.098   1.808   6.888
10169SOL     OW31405   0.190   4.000   2.947
10169SOL    HW131406   0.228   4.081   2.990
10169SOL    HW231407   0.094   3.989   2.973
10170SOL     OW31408   6.201   5.794   0.208
10170SOL    HW131409   6.281   5.771   0.262
10170SOL    HW231410   6.221   5.778   0.111
10171SOL     OW31411   1.334   2.713   5.735
10171SOL    HW131412   1.256   2.652   5.751
10171SOL    HW231413   1.399   2.703   5.811
10172SOL     OW31414   6.746   0.008   3.525
10172SOL    HW131415   6.795   0.087   3.489
10172SOL    HW231416   6.678   0.037   3.593
10173SOL     OW31417   3.797   4.804   0.000
10173SOL    HW131418   3.816   4.901   7.007
10173SOL    HW231419   3.713   4.794   0.053
10174SOL     OW31420   5.000   0.346   3.198
10174SOL    HW131421   5.020   0.285   3.122
10174SOL    HW231422   5.065   0.330   3.272
10175SOL     OW31423   0.098   1.950   3.224
10175SOL    HW131424   0.141   2.039   3.215
10175SOL    HW231425   0.024   1.941   3.157
10176SOL     OW31426   6.237   3.057   5.939
10176SOL    HW131427   6.331   3.079   5.964
10176SOL    HW231428   6.202   2.986   6.000
10177SOL     OW31429   2.444   0.337   1.568
10177SOL    HW131430   2.538   0.372   1.571
10177SOL    HW231431   2.421   0.313   1.474
10178SOL     OW31432   1.897   1.469   0.824
10178SOL    HW131433   1.861   1.379   0.850
10178SOL    HW231434   1.977   1.457   0.765
10179SOL     OW31435   6.746   4.261   0.202
10179SOL    HW131436   6.846   4.253   0.202
10179SOL    HW231437   6.716   4.309   0.120
10180SOL     OW31438   4.693   0.039   0.029
10180SOL    HW131439   4.704   6.983   0.088
10180SOL    HW231440   4.746   0.025   6.968
10181SOL     OW31441   6.340   3.741   1.554
10181SOL    HW131442   6.361   3.670   1.487
10181SOL    HW231443   6.421   3.797   1.570
10182SOL     OW31444   5.392   1.293   0.357
10182SOL    HW131445   5.316   1.295   0.422
10182SOL    HW231446   5.471   1.247   0.399
10183SOL     OW31447   6.605   2.793   6.346
10183SOL    HW131448   6.611   2.722   6.275
10183SOL    HW231449   6.674   2.863   6.328
10184SOL     OW31450   5.682   2.560   6.897
10184SOL    HW131451   5.672   2.551   6.798
10184SOL    HW231452   5.760   2.619   6.917
10185SOL     OW31453   4.159   6.048   2.553
10185SOL    HW131454   4.190   5.989   2.478
10185SOL    HW231455   4.066   6.079   2.535
10186SOL     OW31456   4.408   3.726   5.889
10186SOL    HW131457   4.336   3.794   5.903
10186SOL    HW231458   4.450   3.740   5.799
10187SOL     OW31459   2.301   4.278   5.935
10187SOL    HW131460   2.396   4.259   5.910
10187SOL    HW231461   2.240   4.241   5.865
10188SOL     OW31462   2.462   6.743   0.044
10188SOL    HW131463   2.378   6.791   0.019
10188SOL    HW231464   2.469   6.738   0.144
10189SOL     OW31465   1.300   1.255   6.942
10189SOL    HW131466   1.238   1.278   7.018
10189SOL    HW231467   1.248   1.253   6.856
10190SOL     OW31468   3.081   3.869   1.735
10190SOL    HW131469   3.023   3.791   1.714
10190SOL    HW231470   3.047   3.950   1.688
10191SOL     OW31471   6.150   5.373   1.071
10191SOL    HW131472   6.086   5.313   1.119
10191SOL    HW231473   6.219   5.318   1.024
10192SOL     OW31474   2.367   1.634   5.020
10192SOL    HW131475   2.366   1.624   4.920
10192SOL    HW231476   2.382   1.544   5.062
10193SOL     OW31477   3.596   3.404   2.407
10193SOL    HW131478   3.685   3.450   2.404
10193SOL    HW231479   3.610   3.305   2.399
10194SOL     OW31480   3.559   0.021   4.423
10194SOL    HW131481   3.566   6.999   4.334
10194SOL    HW231482   3.558   6.976   4.495
10195SOL     OW31483   5.469   0.304   1.650
10195SOL    HW131484   5.383   0.343   1.618
10195SOL    HW231485   5.471   0.206   1.629
10196SOL     OW31486   5.267   2.388   3.593
10196SOL    HW131487   5.304   2.425   3.508
10196SOL    HW231488   5.189   2.329   3.573
10197SOL     OW31489   5.827   0.093   2.986
10197SOL    HW131490   5.869   0.008   2.955
10197SOL    HW231491   5.774   0.076   3.069
10198SOL     OW31492   3.671   5.976   1.048
10198SOL    HW131493   3.651   6.017   1.137
10198SOL    HW231494   3.766   5.992   1.024
10199SOL     OW31495   0.779   1.838   0.045
10199SOL    HW131496   0.813   1.886   6.987
10199SOL    HW231497   0.729   1.756   0.016
10200SOL     OW31498   5.280   3.400   6.146
10200SOL    HW131499   5.351   3.346   6.102
10200SOL    HW231500   5.261   3.363   6.237
10201SOL     OW31501   0.483   5.897   1.738
10201SOL    HW131502   0.433   5.914   1.653
10201SOL    HW231503   0.527   5.808   1.733
10202SOL     OW31504   0.285   3.858   1.287
10202SOL    HW131505   0.284   3.953   1.315
10202SOL    HW231506   0.192   3.830   1.262
10203SOL     OW31507   1.980   2.946   2.721
10203SOL    HW131508   2.001   2.859   2.676
10203SOL    HW231509   2.063   3.001   2.727
10204SOL     OW31510   2.999   4.148   6.230
10204SOL    HW131511   2.921   4.162   6.169
10204SOL    HW231512   3.007   4.051   6.252
10205SOL     OW31513   4.526   1.192   3.388
10205SOL    HW131514   4.468   1.110   3.396
10205SOL    HW231515   4.495   1.260   3.454
10206SOL     OW31516   5.169   5.993   5.629
10206SOL    HW131517   5.127   5.982   5.539
10206SOL    HW231518   5.239   6.065   5.625
10207SOL     OW31519   2.095   0.363   1.379
10207SOL    HW131520   2.089   0.454   1.419
10207SOL    HW231521   2.003   0.323   1.372
10208SOL     OW31522   6.247   5.535   5.605
10208SOL    HW131523   6.207   5.615   5.561
10208SOL    HW231524   6.335   5.515   5.563
10209SOL     OW31525   0.166   1.005   5.853
10209SOL    HW131526   0.160   0.908   5.877
10209SOL    HW231527   0.080   1.034   5.812
10210SOL     OW31528   4.999   6.985   1.850
10210SOL    HW131529   5.017   0.059   1.840
10210SOL    HW231530   5.004   6.940   1.761
10211SOL     OW31531   3.683   6.477   5.586
10211SOL    HW131532   3.735   6.487   5.501
10211SOL    HW231533   3.676   6.380   5.609
10212SOL     OW31534   0.814   1.494   4.011
10212SOL    HW131535   0.734   1.515   3.954
10212SOL    HW231536   0.783   1.464   4.101
10213SOL     OW31537   5.534   1.335   2.684
10213SOL    HW131538   5.550   1.430   2.656
10213SOL    HW231539   5.589   1.315   2.765
10214SOL     OW31540   6.665   0.806   2.203
10214SOL    HW131541   6.645   0.884   2.144
10214SOL    HW231542   6.760   0.809   2.232
10215SOL     OW31543   3.132   2.972   5.742
10215SOL    HW131544   3.226   3.004   5.750
10215SOL    HW231545   3.070   3.050   5.741
10216SOL     OW31546   6.731   0.183   0.998
10216SOL    HW131547   6.776   0.264   1.037
10216SOL    HW231548   6.639   0.208   0.969
10217SOL     OW31549   2.613   1.341   4.185
10217SOL    HW131550   2.563   1.421   4.219
10217SOL    HW231551   2.591   1.261   4.242
10218SOL     OW31552   1.228   1.286   1.473
10218SOL    HW131553   1.275   1.230   1.541
10218SOL    HW231554   1.248   1.252   1.381
10219SOL     OW31555   0.457   2.307   2.430
10219SOL    HW131556   0.403   2.232   2.467
10219SOL    HW231557   0.418   2.336   2.343
10220SOL     OW31558   4.125   1.588   1.680
10220SOL    HW131559   4.200   1.539   1.634
10220SOL    HW231560   4.164   1.659   1.739
10221SOL     OW31561   1.489   2.020   4.404
10221SOL    HW131562   1.537   1.949   4.456
10221SOL    HW231563   1.517   2.015   4.308
10222SOL     OW31564   1.471   3.493   5.404
10222SOL    HW131565   1.408   3.571   5.397
10222SOL    HW231566   1.561   3.520   5.368
10223SOL     OW31567   2.024   5.307   6.221
10223SOL    HW131568   2.081   5.228   6.246
10223SOL    HW231569   1.934   5.298   6.263
10224SOL     OW31570   0.949   1.210   4.402
10224SOL    HW131571   1.002   1.233   4.483
10224SOL    HW231572   0.893   1.128   4.420
10225SOL     OW31573   1.047   6.123   5.218
10225SOL    HW131574   1.031   6.103   5.315
10225SOL    HW231575   0.961   6.145   5.173
10226SOL     OW31576   3.111   0.933   6.700
10226SOL    HW131577   3.122   0.837   6.724
10226SOL    HW231578   3.045   0.975   6.762
10227SOL     OW31579   4.652   4.667   0.853
10227SOL    HW131580   4.571   4.693   0.801
10227SOL    HW231581   4.662   4.567   0.853
10228SOL     OW31582   0.694   5.125   2.160
10228SOL    HW131583   0.767   5.107   2.226
10228SOL    HW231584   0.722   5.090   2.070
10229SOL     OW31585   1.175   1.089   3.608
10229SOL    HW131586   1.238   1.054   3.678
10229SOL    HW231587   1.227   1.127   3.532
10230SOL     OW31588   0.110   0.651   3.284
10230SOL    HW131589   0.187   0.597   3.249
10230SOL    HW231590   0.136   0.747   3.290
10231SOL     OW31591   6.794   6.642   5.640
10231SOL    HW131592   6.733   6.563   5.630
10231SOL    HW231593   6.860   6.643   5.565
10232SOL     OW31594   4.191   0.544   4.380
10232SOL    HW131595   4.267   0.486   4.350
10232SOL    HW231596   4.227   0.617   4.439
10233SOL     OW31597   4.886   3.018   5.525
10233SOL    HW131598   4.844   3.039   5.437
10233SOL    HW231599   4.876   3.096   5.586
10234SOL     OW31600   5.312   0.439   0.944
10234SOL    HW131601   5.277   0.362   0.997
10234SOL    HW231602   5.412   0.444   0.955
10235SOL     OW31603   4.260   1.484   0.571
10235SOL    HW131604   4.188   1.546   0.540
10235SOL    HW231605   4.324   1.468   0.495
10236SOL     OW31606   1.751   6.214   1.853
10236SOL    HW131607   1.783   6.134   1.803
10236SOL    HW231608   1.778   6.297   1.805
10237SOL     OW31609   6.141   4.175   1.094
10237SOL    HW131610   6.108   4.143   1.005
10237SOL    HW231611   6.185   4.099   1.142
10238SOL     OW31612   3.664   3.542   4.935
10238SOL    HW131613   3.692   3.537   4.839
10238SOL    HW231614   3.727   3.600   4.985
10239SOL     OW31615   1.298   4.626   5.501
10239SOL    HW131616   1.315   4.540   5.453
10239SOL    HW231617   1.385   4.664   5.532
10240SOL     OW31618   1.234   4.506   2.262
10240SOL    HW131619   1.146   4.554   2.260
10240SOL    HW231620   1.305   4.567   2.296
10241SOL     OW31621   0.277   0.983   1.187
10241SOL    HW131622   0.323   0.902   1.150
10241SOL    HW231623   0.326   1.015   1.268
10242SOL     OW31624   0.288   2.387   6.526
10242SOL    HW131625   0.363   2.451   6.509
10242SOL    HW231626   0.302   2.341   6.614
10243SOL     OW31627   7.016   5.497   1.097
10243SOL    HW131628   6.994   5.466   1.189
10243SOL    HW231629   6.948   5.565   1.068
10244SOL     OW31630   2.275   4.383   0.224
10244SOL    HW131631   2.212   4.305   0.233
10244SOL    HW231632   2.281   4.431   0.311
10245SOL     OW31633   2.446   3.592   0.060
10245SOL    HW131634   2.382   3.515   0.055
10245SOL    HW231635   2.408   3.669   0.009
10246SOL     OW31636   2.924   3.805   4.651
10246SOL    HW131637   2.831   3.840   4.658
10246SOL    HW231638   2.950   3.760   4.736
10247SOL     OW31639   0.790   4.788   5.142
10247SOL    HW131640   0.744   4.734   5.212
10247SOL    HW231641   0.804   4.881   5.176
10248SOL     OW31642   3.341   0.219   2.074
10248SOL    HW131643   3.283   0.246   1.997
10248SOL    HW231644   3.343   0.119   2.080
10249SOL     OW31645   2.846   0.777   6.109
10249SOL    HW131646   2.754   0.805   6.137
10249SOL    HW231647   2.888   0.851   6.055
10250SOL     OW31648   0.220   2.195   0.860
10250SOL    HW131649   0.219   2.108   0.811
10250SOL    HW231650   0.129   2.236   0.857
10251SOL     OW31651   1.618   3.017   5.907
10251SOL    HW131652   1.610   3.048   5.813
10251SOL    HW231653   1.706   2.971   5.921
10252SOL     OW31654   6.607   6.571   0.511
10252SOL    HW131655   6.547   6.593   0.588
10252SOL    HW231656   6.616   6.472   0.502
10253SOL     OW31657   4.676   5.403   0.039
10253SOL    HW131658   4.594   5.370   7.015
10253SOL    HW231659   4.755   5.395   7.002
10254SOL     OW31660   3.418   2.068   4.708
10254SOL    HW131661   3.448   2.098   4.798
10254SOL    HW231662   3.341   2.004   4.718
10255SOL     OW31663   2.090   5.831   1.473
10255SOL    HW131664   2.134   5.835   1.563
10255SOL    HW231665   2.004   5.781   1.481
10256SOL     OW31666   5.326   6.857   1.400
10256SOL    HW131667   5.361   6.832   1.490
10256SOL    HW231668   5.226   6.861   1.403
10257SOL     OW31669   1.249   4.546   5.017
10257SOL    HW131670   1.176   4.597   5.064
10257SOL    HW231671   1.244   4.450   5.042
10258SOL     OW31672   5.023   0.293   3.717
10258SOL    HW131673   5.069   0.206   3.696
10258SOL    HW231674   5.019   0.349   3.634
10259SOL     OW31675   0.997   4.998   3.273
10259SOL    HW131676   1.076   5.052   3.244
10259SOL    HW231677   1.027   4.921   3.329
10260SOL     OW31678   0.144   7.021   2.938
10260SOL    HW131679   0.206   0.054   2.883
10260SOL    HW231680   0.142   0.032   3.032
10261SOL     OW31681   6.973   6.321   1.881
10261SOL    HW131682   6.992   6.366   1.968
10261SOL    HW231683   7.021   6.233   1.877
10262SOL     OW31684   2.688   5.707   4.763
10262SOL    HW131685   2.700   5.806   4.754
10262SOL    HW231686   2.778   5.664   4.770
10263SOL     OW31687   4.966   1.280   6.093
10263SOL    HW131688   5.064   1.270   6.110
10263SOL    HW231689   4.916   1.264   6.179
10264SOL     OW31690   6.324   1.679   6.754
10264SOL    HW131691   6.373   1.748   6.807
10264SOL    HW231692   6.233   1.666   6.794
10265SOL     OW31693   3.437   2.116   2.904
10265SOL    HW131694   3.359   2.108   2.841
10265SOL    HW231695   3.420   2.061   2.985
10266SOL     OW31696   3.385   3.110   5.532
10266SOL    HW131697   3.358   3.195   5.577
10266SOL    HW231698   3.308   3.072   5.481
10267SOL     OW31699   6.257   1.800   6.534
10267SOL    HW131700   6.282   1.749   6.617
10267SOL    HW231701   6.338   1.815   6.478
10268SOL     OW31702   4.844   6.530   1.602
10268SOL    HW131703   4.750   6.534   1.635
10268SOL    HW231704   4.886   6.444   1.633
10269SOL     OW31705   1.848   1.513   5.443
10269SOL    HW131706   1.919   1.523   5.374
10269SOL    HW231707   1.760   1.542   5.405
10270SOL     OW31708   2.212   5.862   2.027
10270SOL    HW131709   2.298   5.912   2.010
10270SOL    HW231710   2.137   5.928   2.035
10271SOL     OW31711   3.212   3.312   0.411
10271SOL    HW131712   3.232   3.323   0.509
10271SOL    HW231713   3.234   3.398   0.364
10272SOL     OW31714   1.164   0.902   4.115
10272SOL    HW131715   1.247   0.860   4.149
10272SOL    HW231716   1.168   1.001   4.130
10273SOL     OW31717   4.176   5.940   3.823
10273SOL    HW131718   4.236   5.872   3.864
10273SOL    HW231719   4.091   5.896   3.794
10274SOL     OW31720   1.520   4.485   5.717
10274SOL    HW131721   1.551   4.550   5.648
10274SOL    HW231722   1.557   4.511   5.806
10275SOL     OW31723   1.550   0.143   2.109
10275SOL    HW131724   1.554   0.230   2.159
10275SOL    HW231725   1.474   0.146   2.044
10276SOL     OW31726   6.898   5.349   6.361
10276SOL    HW131727   6.995   5.346   6.386
10276SOL    HW231728   6.847   5.285   6.419
10277SOL     OW31729   2.296   6.575   3.830
10277SOL    HW131730   2.366   6.623   3.777
10277SOL    HW231731   2.318   6.582   3.928
10278SOL     OW31732   5.860   0.939   5.367
10278SOL    HW131733   5.865   0.854   5.420
10278SOL    HW231734   5.772   0.983   5.384
10279SOL     OW31735   3.120   0.362   3.682
10279SOL    HW131736   3.157   0.318   3.600
10279SOL    HW231737   3.103   0.459   3.663
10280SOL     OW31738   2.604   4.389   1.130
10280SOL    HW131739   2.684   4.356   1.080
10280SOL    HW231740   2.594   4.337   1.215
10281SOL     OW31741   5.486   2.443   2.795
10281SOL    HW131742   5.505   2.507   2.869
10281SOL    HW231743   5.421   2.483   2.731
10282SOL     OW31744   6.349   3.331   3.904
10282SOL    HW131745   6.306   3.252   3.948
10282SOL    HW231746   6.408   3.299   3.829
10283SOL     OW31747   1.042   2.803   0.975
10283SOL    HW131748   1.035   2.902   0.978
10283SOL    HW231749   0.985   2.767   0.902
10284SOL     OW31750   5.304   4.644   5.772
10284SOL    HW131751   5.357   4.724   5.743
10284SOL    HW231752   5.362   4.586   5.829
10285SOL     OW31753   5.074   0.231   1.771
10285SOL    HW131754   5.099   0.223   1.675
10285SOL    HW231755   5.067   0.327   1.796
10286SOL     OW31756   3.078   1.861   3.607
10286SOL    HW131757   3.013   1.878   3.681
10286SOL    HW231758   3.168   1.840   3.646
10287SOL     OW31759   1.712   6.749   2.319
10287SOL    HW131760   1.721   6.820   2.249
10287SOL    HW231761   1.748   6.663   2.284
10288SOL     OW31762   4.825   5.916   2.144
10288SOL    HW131763   4.852   5.821   2.132
10288SOL    HW231764   4.891   5.975   2.097
10289SOL     OW31765   3.544   0.706   1.193
10289SOL    HW131766   3.626   0.743   1.236
10289SOL    HW231767   3.502   0.777   1.136
10290SOL     OW31768   3.583   4.032   2.867
10290SOL    HW131769   3.630   4.061   2.950
10290SOL    HW231770   3.486   4.016   2.887
10291SOL     OW31771   4.017   0.213   4.015
10291SOL    HW131772   4.007   0.208   3.915
10291SOL    HW231773   4.080   0.287   4.038
10292SOL     OW31774   0.767   2.005   4.583
10292SOL    HW131775   0.673   2.029   4.559
10292SOL    HW231776   0.795   1.924   4.531
10293SOL     OW31777   1.616   5.949   3.015
10293SOL    HW131778   1.649   5.984   3.103
10293SOL    HW231779   1.641   6.012   2.942
10294SOL     OW31780   4.832   3.031   3.334
10294SOL    HW131781   4.875   3.072   3.415
10294SOL    HW231782   4.868   3.075   3.252
10295SOL     OW31783   5.760   4.607   5.363
10295SOL    HW131784   5.764   4.638   5.458
10295SOL    HW231785   5.850   4.621   5.320
10296SOL     OW31786   5.298   4.417   6.473
10296SOL    HW131787   5.281   4.333   6.525
10296SOL    HW231788   5.280   4.401   6.376
10297SOL     OW31789   2.391   6.653   4.325
10297SOL    HW131790   2.406   6.744   4.287
10297SOL    HW231791   2.363   6.661   4.420
10298SOL     OW31792   4.017   4.765   3.513
10298SOL    HW131793   4.078   4.740   3.438
10298SOL    HW231794   4.041   4.714   3.595
10299SOL     OW31795   4.200   4.705   3.245
10299SOL    HW131796   4.239   4.797   3.244
10299SOL    HW231797   4.228   4.657   3.161
10300SOL     OW31798   1.737   4.362   2.102
10300SOL    HW131799   1.824   4.400   2.133
10300SOL    HW231800   1.672   4.436   2.087
10301SOL     OW31801   5.650   2.300   2.625
10301SOL    HW131802   5.582   2.356   2.673
10301SOL    HW231803   5.656   2.329   2.530
10302SOL     OW31804   1.342   5.968   3.078
10302SOL    HW131805   1.441   5.974   3.063
10302SOL    HW231806   1.314   6.038   3.143
10303SOL     OW31807   4.055   4.245   1.124
10303SOL    HW131808   4.134   4.224   1.181
10303SOL    HW231809   4.011   4.161   1.094
10304SOL     OW31810   5.993   0.652   3.987
10304SOL    HW131811   5.928   0.610   3.923
10304SOL    HW231812   5.988   0.605   4.075
10305SOL     OW31813   1.284   6.236   6.676
10305SOL    HW131814   1.319   6.150   6.639
10305SOL    HW231815   1.241   6.218   6.765
10306SOL     OW31816   4.694   5.550   6.771
10306SOL    HW131817   4.793   5.563   6.772
10306SOL    HW231818   4.673   5.458   6.738
10307SOL     OW31819   1.740   1.803   5.279
10307SOL    HW131820   1.838   1.822   5.272
10307SOL    HW231821   1.706   1.772   5.190
10308SOL     OW31822   3.348   5.204   4.421
10308SOL    HW131823   3.406   5.275   4.461
10308SOL    HW231824   3.287   5.167   4.491
10309SOL     OW31825   6.509   0.338   3.577
10309SOL    HW131826   6.467   0.334   3.667
10309SOL    HW231827   6.494   0.251   3.529
10310SOL     OW31828   3.345   3.804   1.647
10310SOL    HW131829   3.336   3.785   1.550
10310SOL    HW231830   3.255   3.815   1.688
10311SOL     OW31831   0.591   5.675   1.251
10311SOL    HW131832   0.529   5.732   1.196
10311SOL    HW231833   0.544   5.590   1.275
10312SOL     OW31834   3.598   5.424   1.108
10312SOL    HW131835   3.636   5.397   1.197
10312SOL    HW231836   3.596   5.345   1.048
10313SOL     OW31837   4.079   6.859   2.152
10313SOL    HW131838   4.149   6.827   2.216
10313SOL    HW231839   3.993   6.873   2.202
10314SOL     OW31840   6.450   0.700   1.198
10314SOL    HW131841   6.378   0.661   1.256
10314SOL    HW231842   6.440   0.664   1.105
10315SOL     OW31843   6.802   6.247   4.852
10315SOL    HW131844   6.862   6.168   4.840
10315SOL    HW231845   6.807   6.305   4.770
10316SOL     OW31846   6.983   2.927   4.279
10316SOL    HW131847   6.996   2.956   4.184
10316SOL    HW231848   6.892   2.954   4.310
10317SOL     OW31849   4.055   4.595   6.164
10317SOL    HW131850   4.050   4.695   6.153
10317SOL    HW231851   3.965   4.555   6.146
10318SOL     OW31852   6.180   5.608   1.759
10318SOL    HW131853   6.274   5.575   1.764
10318SOL    HW231854   6.140   5.583   1.671
10319SOL     OW31855   0.491   5.018   4.719
10319SOL    HW131856   0.585   5.004   4.689
10319SOL    HW231857   0.491   5.051   4.814
10320SOL     OW31858   0.907   0.851   0.810
10320SOL    HW131859   0.944   0.883   0.896
10320SOL    HW231860   0.808   0.866   0.808
10321SOL     OW31861   4.008   6.298   4.444
10321SOL    HW131862   3.945   6.223   4.426
10321SOL    HW231863   4.044   6.334   4.358
10322SOL     OW31864   6.666   5.810   0.552
10322SOL    HW131865   6.658   5.798   0.651
10322SOL    HW231866   6.732   5.745   0.515
10323SOL     OW31867   6.608   3.052   6.609
10323SOL    HW131868   6.660   3.042   6.694
10323SOL    HW231869   6.513   3.075   6.631
10324SOL     OW31870   3.138   3.027   3.733
10324SOL    HW131871   3.113   3.069   3.820
10324SOL    HW231872   3.207   2.957   3.748
10325SOL     OW31873   6.905   4.568   4.193
10325SOL    HW131874   6.890   4.549   4.096
10325SOL    HW231875   6.951   4.657   4.202
10326SOL     OW31876   4.652   2.495   6.923
10326SOL    HW131877   4.733   2.515   6.868
10326SOL    HW231878   4.671   2.420   6.985
10327SOL     OW31879   2.447   1.463   3.180
10327SOL    HW131880   2.493   1.443   3.093
10327SOL    HW231881   2.486   1.405   3.252
10328SOL     OW31882   5.781   3.877   2.061
10328SOL    HW131883   5.815   3.783   2.060
10328SOL    HW231884   5.681   3.877   2.063
10329SOL     OW31885   2.574   0.699   4.138
10329SOL    HW131886   2.484   0.729   4.109
10329SOL    HW231887   2.643   0.768   4.113
10330SOL     OW31888   3.373   5.007   3.358
10330SOL    HW131889   3.334   4.978   3.271
10330SOL    HW231890   3.414   5.098   3.348
10331SOL     OW31891   5.647   0.915   3.104
10331SOL    HW131892   5.629   1.012   3.121
10331SOL    HW231893   5.594   0.885   3.025
10332SOL     OW31894   7.000   2.427   0.748
10332SOL    HW131895   6.918   2.410   0.802
10332SOL    HW231896   6.980   2.493   0.676
10333SOL     OW31897   5.742   4.450   4.086
10333SOL    HW131898   5.752   4.365   4.034
10333SOL    HW231899   5.722   4.429   4.181
10334SOL     OW31900   2.085   5.196   3.767
10334SOL    HW131901   2.182   5.187   3.787
10334SOL    HW231902   2.045   5.267   3.826
10335SOL     OW31903   2.043   4.765   0.099
10335SOL    HW131904   2.126   4.819   0.085
10335SOL    HW231905   2.020   4.718   0.014
10336SOL     OW31906   4.645   6.161   2.723
10336SOL    HW131907   4.733   6.177   2.678
10336SOL    HW231908   4.652   6.085   2.786
10337SOL     OW31909   6.947   5.037   5.322
10337SOL    HW131910   6.928   4.979   5.242
10337SOL    HW231911   0.014   5.014   5.358
10338SOL     OW31912   3.494   6.963   0.635
10338SOL    HW131913   3.594   6.973   0.635
10338SOL    HW231914   3.452   0.022   0.673
10339SOL     OW31915   3.756   5.276   0.728
10339SOL    HW131916   3.696   5.250   0.652
10339SOL    HW231917   3.717   5.243   0.814
10340SOL     OW31918   1.968   5.672   6.902
10340SOL    HW131919   1.949   5.697   6.997
10340SOL    HW231920   2.064   5.645   6.893
10341SOL     OW31921   2.339   2.796   1.982
10341SOL    HW131922   2.416   2.781   1.920
10341SOL    HW231923   2.260   2.742   1.949
10342SOL     OW31924   1.926   6.395   6.224
10342SOL    HW131925   1.907   6.331   6.298
10342SOL    HW231926   1.985   6.352   6.156
10343SOL     OW31927   2.182   4.088   0.022
10343SOL    HW131928   2.220   4.146   6.974
10343SOL    HW231929   2.146   4.144   0.096
10344SOL     OW31930   4.133   3.557   4.253
10344SOL    HW131931   4.080   3.589   4.175
10344SOL    HW231932   4.224   3.598   4.250
10345SOL     OW31933   1.946   1.344   6.586
10345SOL    HW131934   1.881   1.384   6.650
10345SOL    HW231935   1.904   1.337   6.496
10346SOL     OW31936   5.708   0.268   0.702
10346SOL    HW131937   5.633   0.314   0.654
10346SOL    HW231938   5.774   0.232   0.636
10347SOL     OW31939   4.868   1.378   0.743
10347SOL    HW131940   4.778   1.335   0.738
10347SOL    HW231941   4.910   1.378   0.652
10348SOL     OW31942   6.545   0.618   6.241
10348SOL    HW131943   6.597   0.650   6.162
10348SOL    HW231944   6.581   0.661   6.324
10349SOL     OW31945   5.755   0.618   1.051
10349SOL    HW131946   5.852   0.632   1.071
10349SOL    HW231947   5.731   0.668   0.968
10350SOL     OW31948   3.569   5.955   4.445
10350SOL    HW131949   3.580   5.927   4.541
10350SOL    HW231950   3.626   5.896   4.387
10351SOL     OW31951   6.281   4.823   5.321
10351SOL    HW131952   6.378   4.844   5.335
10351SOL    HW231953   6.227   4.904   5.344
10352SOL     OW31954   5.395   2.462   6.520
10352SOL    HW131955   5.389   2.457   6.421
10352SOL    HW231956   5.303   2.467   6.559
10353SOL     OW31957   0.329   2.908   3.643
10353SOL    HW131958   0.287   2.835   3.697
10353SOL    HW231959   0.259   2.973   3.614
10354SOL     OW31960   0.545   4.145   0.962
10354SOL    HW131961   0.465   4.112   1.013
10354SOL    HW231962   0.520   4.228   0.913
10355SOL     OW31963   1.168   1.669   1.499
10355SOL    HW131964   1.124   1.593   1.547
10355SOL    HW231965   1.264   1.674   1.525
10356SOL     OW31966   0.455   3.075   0.143
10356SOL    HW131967   0.421   3.152   0.197
10356SOL    HW231968   0.433   2.989   0.191
10357SOL     OW31969   2.005   2.240   6.450
10357SOL    HW131970   1.909   2.230   6.423
10357SOL    HW231971   2.044   2.320   6.406
10358SOL     OW31972   1.735   2.803   2.496
10358SOL    HW131973   1.721   2.728   2.432
10358SOL    HW231974   1.831   2.806   2.524
10359SOL     OW31975   4.819   2.490   2.092
10359SOL    HW131976   4.820   2.445   2.181
10359SOL    HW231977   4.724   2.502   2.062
10360SOL     OW31978   5.451   5.020   3.336
10360SOL    HW131979   5.460   5.001   3.238
10360SOL    HW231980   5.389   5.097   3.349
10361SOL     OW31981   2.331   1.113   1.515
10361SOL    HW131982   2.248   1.071   1.551
10361SOL    HW231983   2.341   1.205   1.552
10362SOL     OW31984   0.171   5.025   2.225
10362SOL    HW131985   0.193   5.037   2.321
10362SOL    HW231986   0.075   5.048   2.208
10363SOL     OW31987   4.303   2.925   0.141
10363SOL    HW131988   4.285   2.916   0.043
10363SOL    HW231989   4.379   2.989   0.155
10364SOL     OW31990   5.509   5.465   0.915
10364SOL    HW131991   5.510   5.541   0.980
10364SOL    HW231992   5.417   5.425   0.911
10365SOL     OW31993   5.872   5.366   0.145
10365SOL    HW131994   5.807   5.421   0.198
10365SOL    HW231995   5.955   5.352   0.199
10366SOL     OW31996   4.626   7.007   3.323
10366SOL    HW131997   4.608   6.965   3.234
10366SOL    HW231998   4.624   6.937   3.394
10367SOL     OW31999   6.319   2.095   2.107
10367SOL    HW132000   6.401   2.038   2.110
10367SOL    HW232001   6.336   2.180   2.158
10368SOL     OW32002   2.861   0.915   1.938
10368SOL    HW132003   2.840   0.935   1.843
10368SOL    HW232004   2.914   0.990   1.977
10369SOL     OW32005   2.805   6.474   5.688
10369SOL    HW132006   2.861   6.398   5.655
10369SOL    HW232007   2.724   6.438   5.735
10370SOL     OW32008   6.195   1.842   4.373
10370SOL    HW132009   6.279   1.800   4.338
10370SOL    HW232010   6.219   1.927   4.421
10371SOL     OW32011   3.431   6.604   3.367
10371SOL    HW132012   3.529   6.586   3.359
10371SOL    HW232013   3.388   6.527   3.414
10372SOL     OW32014   3.036   0.957   1.249
10372SOL    HW132015   2.952   0.906   1.269
10372SOL    HW232016   3.102   0.942   1.322
10373SOL     OW32017   0.425   0.066   4.663
10373SOL    HW132018   0.390   0.055   4.756
10373SOL    HW232019   0.517   0.104   4.666
10374SOL     OW32020   2.587   6.745   4.078
10374SOL    HW132021   2.516   6.816   4.070
10374SOL    HW232022   2.549   6.657   4.049
10375SOL     OW32023   3.115   1.995   6.316
10375SOL    HW132024   3.045   1.945   6.367
10375SOL    HW232025   3.149   1.938   6.242
10376SOL     OW32026   1.742   6.208   3.788
10376SOL    HW132027   1.758   6.237   3.882
10376SOL    HW232028   1.829   6.207   3.739
10377SOL     OW32029   0.500   1.672   1.800
10377SOL    HW132030   0.446   1.732   1.741
10377SOL    HW232031   0.573   1.630   1.747
10378SOL     OW32032   0.094   5.843   5.837
10378SOL    HW132033   0.016   5.814   5.781
10378SOL    HW232034   0.113   5.940   5.820
10379SOL     OW32035   2.931   6.024   4.237
10379SOL    HW132036   2.978   5.936   4.222
10379SOL    HW232037   2.918   6.070   4.150
10380SOL     OW32038   1.327   1.743   4.813
10380SOL    HW132039   1.314   1.761   4.911
10380SOL    HW232040   1.290   1.819   4.760
10381SOL     OW32041   3.687   4.207   0.684
10381SOL    HW132042   3.745   4.158   0.749
10381SOL    HW232043   3.716   4.303   0.679
10382SOL     OW32044   3.212   5.898   1.819
10382SOL    HW132045   3.272   5.955   1.762
10382SOL    HW232046   3.117   5.921   1.799
10383SOL     OW32047   1.831   3.907   0.595
10383SOL    HW132048   1.866   3.816   0.616
10383SOL    HW232049   1.736   3.900   0.567
10384SOL     OW32050   6.368   6.331   1.062
10384SOL    HW132051   6.272   6.324   1.037
10384SOL    HW232052   6.398   6.246   1.107
10385SOL     OW32053   3.684   5.612   5.740
10385SOL    HW132054   3.747   5.542   5.708
10385SOL    HW232055   3.612   5.570   5.796
10386SOL     OW32056   0.305   0.842   5.587
10386SOL    HW132057   0.386   0.794   5.556
10386SOL    HW232058   0.330   0.908   5.657
10387SOL     OW32059   5.344   3.187   3.365
10387SOL    HW132060   5.302   3.111   3.317
10387SOL    HW232061   5.387   3.154   3.449
10388SOL     OW32062   2.611   0.151   0.593
10388SOL    HW132063   2.591   0.168   0.497
10388SOL    HW232064   2.653   0.061   0.603
10389SOL     OW32065   5.660   3.412   0.043
10389SOL    HW132066   5.693   3.489   0.097
10389SOL    HW232067   5.653   3.439   6.971
10390SOL     OW32068   1.653   2.529   0.429
10390SOL    HW132069   1.624   2.522   0.333
10390SOL    HW232070   1.710   2.450   0.453
10391SOL     OW32071   1.479   6.259   4.056
10391SOL    HW132072   1.552   6.323   4.032
10391SOL    HW232073   1.507   6.205   4.135
10392SOL     OW32074   5.978   5.115   5.610
10392SOL    HW132075   5.888   5.074   5.598
10392SOL    HW232076   6.010   5.100   5.704
10393SOL     OW32077   1.811   3.879   3.780
10393SOL    HW132078   1.739   3.827   3.827
10393SOL    HW232079   1.884   3.901   3.845
10394SOL     OW32080   2.718   6.061   4.474
10394SOL    HW132081   2.668   5.979   4.446
10394SOL    HW232082   2.783   6.086   4.403
10395SOL     OW32083   0.183   6.417   1.409
10395SOL    HW132084   0.114   6.440   1.478
10395SOL    HW232085   0.140   6.365   1.335
10396SOL     OW32086   4.016   1.898   3.881
10396SOL    HW132087   4.042   1.844   3.961
10396SOL    HW232088   3.957   1.844   3.821
10397SOL     OW32089   3.141   1.840   3.340
10397SOL    HW132090   3.088   1.853   3.424
10397SOL    HW232091   3.139   1.924   3.286
10398SOL     OW32092   5.722   2.245   0.833
10398SOL    HW132093   5.782   2.314   0.793
10398SOL    HW232094   5.635   2.287   0.858
10399SOL     OW32095   5.209   2.402   3.273
10399SOL    HW132096   5.146   2.435   3.203
10399SOL    HW232097   5.157   2.353   3.343
10400SOL     OW32098   4.483   6.441   0.266
10400SOL    HW132099   4.437   6.513   0.319
10400SOL    HW232100   4.556   6.401   0.321
10401SOL     OW32101   6.378   6.604   2.908
10401SOL    HW132102   6.476   6.585   2.903
10401SOL    HW232103   6.349   6.655   2.827
10402SOL     OW32104   6.370   2.466   5.466
10402SOL    HW132105   6.403   2.496   5.556
10402SOL    HW232106   6.367   2.543   5.403
10403SOL     OW32107   4.677   1.518   3.421
10403SOL    HW132108   4.767   1.475   3.416
10403SOL    HW232109   4.628   1.483   3.501
10404SOL     OW32110   6.212   6.409   4.793
10404SOL    HW132111   6.178   6.472   4.723
10404SOL    HW232112   6.296   6.446   4.834
10405SOL     OW32113   1.171   0.336   4.971
10405SOL    HW132114   1.167   0.365   5.067
10405SOL    HW232115   1.265   0.341   4.938
10406SOL     OW32116   2.640   4.612   3.313
10406SOL    HW132117   2.707   4.686   3.311
10406SOL    HW232118   2.664   4.546   3.383
10407SOL     OW32119   2.584   6.624   6.170
10407SOL    HW132120   2.542   6.713   6.149
10407SOL    HW232121   2.535   6.582   6.246
10408SOL     OW32122   4.412   0.444   1.862
10408SOL    HW132123   4.499   0.492   1.881
10408SOL    HW232124   4.396   0.443   1.763
10409SOL     OW32125   0.353   4.459   0.983
10409SOL    HW132126   0.421   4.416   0.924
10409SOL    HW232127   0.300   4.389   1.030
10410SOL     OW32128   5.240   2.066   1.587
10410SOL    HW132129   5.286   2.053   1.499
10410SOL    HW232130   5.308   2.076   1.659
10411SOL     OW32131   3.228   6.294   3.321
10411SOL    HW132132   3.180   6.226   3.265
10411SOL    HW232133   3.164   6.334   3.387
10412SOL     OW32134   0.340   1.027   0.134
10412SOL    HW132135   0.283   1.108   0.118
10412SOL    HW232136   0.340   0.969   0.052
10413SOL     OW32137   6.824   3.138   0.485
10413SOL    HW132138   6.876   3.172   0.563
10413SOL    HW232139   6.862   3.050   0.456
10414SOL     OW32140   3.996   4.409   5.887
10414SOL    HW132141   4.082   4.402   5.938
10414SOL    HW232142   3.921   4.425   5.951
10415SOL     OW32143   1.766   3.416   4.441
10415SOL    HW132144   1.770   3.514   4.423
10415SOL    HW232145   1.737   3.400   4.535
10416SOL     OW32146   5.871   0.186   4.937
10416SOL    HW132147   5.931   0.243   4.880
10416SOL    HW232148   5.812   0.131   4.877
10417SOL     OW32149   3.046   5.416   4.494
10417SOL    HW132150   3.080   5.339   4.548
10417SOL    HW232151   3.075   5.501   4.536
10418SOL     OW32152   0.197   4.220   6.721
10418SOL    HW132153   0.226   4.222   6.625
10418SOL    HW232154   0.273   4.191   6.779
10419SOL     OW32155   1.851   0.083   6.135
10419SOL    HW132156   1.766   0.128   6.108
10419SOL    HW232157   1.918   0.090   6.062
10420SOL     OW32158   0.196   3.641   3.439
10420SOL    HW132159   0.190   3.695   3.355
10420SOL    HW232160   0.188   3.703   3.518
10421SOL     OW32161   0.490   1.946   3.738
10421SOL    HW132162   0.532   1.897   3.662
10421SOL    HW232163   0.426   2.014   3.703
10422SOL     OW32164   6.891   3.078   5.195
10422SOL    HW132165   6.962   3.011   5.173
10422SOL    HW232166   6.874   3.137   5.116
10423SOL     OW32167   6.441   5.830   4.958
10423SOL    HW132168   6.439   5.803   4.862
10423SOL    HW232169   6.532   5.810   4.996
10424SOL     OW32170   5.040   3.165   0.572
10424SOL    HW132171   4.960   3.130   0.621
10424SOL    HW232172   5.010   3.210   0.488
10425SOL     OW32173   0.787   0.637   1.865
10425SOL    HW132174   0.784   0.558   1.927
10425SOL    HW232175   0.877   0.681   1.872
10426SOL     OW32176   6.088   4.987   0.735
10426SOL    HW132177   6.167   4.938   0.773
10426SOL    HW232178   6.017   4.921   0.711
10427SOL     OW32179   3.938   0.328   6.536
10427SOL    HW132180   3.903   0.234   6.536
10427SOL    HW232181   3.861   0.392   6.536
10428SOL     OW32182   3.648   0.731   3.653
10428SOL    HW132183   3.705   0.746   3.572
10428SOL    HW232184   3.644   0.633   3.673
10429SOL     OW32185   6.892   4.979   0.670
10429SOL    HW132186   6.853   5.036   0.598
10429SOL    HW232187   6.988   4.959   0.650
10430SOL     OW32188   5.175   6.957   4.398
10430SOL    HW132189   5.268   6.946   4.433
10430SOL    HW232190   5.143   6.871   4.359
10431SOL     OW32191   3.272   6.084   4.180
10431SOL    HW132192   3.217   6.004   4.204
10431SOL    HW232193   3.356   6.054   4.135
10432SOL     OW32194   5.591   6.562   4.850
10432SOL    HW132195   5.622   6.647   4.892
10432SOL    HW232196   5.581   6.575   4.751
10433SOL     OW32197   1.405   6.454   1.147
10433SOL    HW132198   1.387   6.420   1.055
10433SOL    HW232199   1.482   6.518   1.145
10434SOL     OW32200   4.272   6.636   3.284
10434SOL    HW132201   4.243   6.704   3.217
10434SOL    HW232202   4.295   6.681   3.370
10435SOL     OW32203   6.751   0.281   4.657
10435SOL    HW132204   6.687   0.295   4.582
10435SOL    HW232205   6.756   0.365   4.712
10436SOL     OW32206   0.636   5.128   5.637
10436SOL    HW132207   0.724   5.084   5.658
10436SOL    HW232208   0.563   5.060   5.646
10437SOL     OW32209   5.389   5.075   5.679
10437SOL    HW132210   5.453   5.143   5.641
10437SOL    HW232211   5.295   5.111   5.673
10438SOL     OW32212   6.389   6.573   0.682
10438SOL    HW132213   6.457   6.562   0.754
10438SOL    HW232214   6.344   6.661   0.692
10439SOL     OW32215   4.629   1.072   6.106
10439SOL    HW132216   4.560   1.114   6.047
10439SOL    HW232217   4.594   0.987   6.143
10440SOL     OW32218   1.112   6.989   0.736
10440SOL    HW132219   1.155   0.026   0.804
10440SOL    HW232220   1.017   7.019   0.722
10441SOL     OW32221   4.101   0.523   0.732
10441SOL    HW132222   4.115   0.600   0.795
10441SOL    HW232223   4.085   0.440   0.785
10442SOL     OW32224   3.045   6.134   6.096
10442SOL    HW132225   2.989   6.137   6.178
10442SOL    HW232226   3.094   6.220   6.085
10443SOL     OW32227   5.132   3.826   4.511
10443SOL    HW132228   5.178   3.910   4.482
10443SOL    HW232229   5.044   3.819   4.465
10444SOL     OW32230   3.574   5.808   4.717
10444SOL    HW132231   3.475   5.802   4.725
10444SOL    HW232232   3.614   5.718   4.732
10445SOL     OW32233   0.694   5.245   4.786
10445SOL    HW132234   0.677   5.318   4.720
10445SOL    HW232235   0.708   5.158   4.738
10446SOL     OW32236   1.358   2.783   5.005
10446SOL    HW132237   1.261   2.760   4.999
10446SOL    HW232238   1.385   2.834   4.923
10447SOL     OW32239   0.057   1.053   2.096
10447SOL    HW132240   7.020   1.131   2.112
10447SOL    HW232241   0.054   1.027   2.000
10448SOL     OW32242   3.660   1.179   2.257
10448SOL    HW132243   3.682   1.086   2.227
10448SOL    HW232244   3.561   1.188   2.268
10449SOL     OW32245   2.055   5.594   4.842
10449SOL    HW132246   2.013   5.584   4.751
10449SOL    HW232247   1.994   5.555   4.911
10450SOL     OW32248   0.504   1.857   0.560
10450SOL    HW132249   0.479   1.953   0.571
10450SOL    HW232250   0.435   1.799   0.602
10451SOL     OW32251   1.715   5.199   2.327
10451SOL    HW132252   1.798   5.185   2.381
10451SOL    HW232253   1.727   5.278   2.267
10452SOL     OW32254   6.052   3.823   2.681
10452SOL    HW132255   6.065   3.768   2.763
10452SOL    HW232256   6.035   3.763   2.603
10453SOL     OW32257   4.033   5.386   1.491
10453SOL    HW132258   4.012   5.394   1.588
10453SOL    HW232259   4.052   5.477   1.454
10454SOL     OW32260   4.511   3.206   0.572
10454SOL    HW132261   4.562   3.274   0.624
10454SOL    HW232262   4.458   3.149   0.635
10455SOL     OW32263   6.733   5.323   2.558
10455SOL    HW132264   6.678   5.260   2.613
10455SOL    HW232265   6.789   5.379   2.618
10456SOL     OW32266   3.135   6.188   0.905
10456SOL    HW132267   3.098   6.199   0.998
10456SOL    HW232268   3.060   6.194   0.839
10457SOL     OW32269   3.440   3.707   2.291
10457SOL    HW132270   3.390   3.629   2.255
10457SOL    HW232271   3.530   3.711   2.247
10458SOL     OW32272   0.169   1.219   6.024
10458SOL    HW132273   0.156   1.136   5.970
10458SOL    HW232274   0.120   1.212   6.111
10459SOL     OW32275   4.864   5.508   2.497
10459SOL    HW132276   4.815   5.437   2.548
10459SOL    HW232277   4.958   5.514   2.530
10460SOL     OW32278   1.521   4.961   1.204
10460SOL    HW132279   1.478   4.910   1.130
10460SOL    HW232280   1.468   4.948   1.288
10461SOL     OW32281   1.196   5.233   5.273
10461SOL    HW132282   1.142   5.246   5.356
10461SOL    HW232283   1.279   5.288   5.278
10462SOL     OW32284   6.013   1.631   3.419
10462SOL    HW132285   6.046   1.537   3.414
10462SOL    HW232286   5.933   1.635   3.479
10463SOL     OW32287   3.790   3.183   5.706
10463SOL    HW132288   3.744   3.212   5.622
10463SOL    HW232289   3.860   3.250   5.731
10464SOL     OW32290   5.861   6.289   1.433
10464SOL    HW132291   5.945   6.264   1.482
10464SOL    HW232292   5.855   6.236   1.349
10465SOL     OW32293   6.371   6.329   1.526
10465SOL    HW132294   6.322   6.336   1.613
10465SOL    HW232295   6.361   6.414   1.475
10466SOL     OW32296   4.632   5.026   5.502
10466SOL    HW132297   4.613   5.123   5.521
10466SOL    HW232298   4.717   5.000   5.548
10467SOL     OW32299   1.221   1.696   5.447
10467SOL    HW132300   1.187   1.761   5.515
10467SOL    HW232301   1.296   1.643   5.485
10468SOL     OW32302   3.790   4.862   2.963
10468SOL    HW132303   3.845   4.879   3.045
10468SOL    HW232304   3.840   4.799   2.903
10469SOL     OW32305   3.488   2.504   6.443
10469SOL    HW132306   3.482   2.438   6.369
10469SOL    HW232307   3.396   2.524   6.477
10470SOL     OW32308   2.976   1.931   3.021
10470SOL    HW132309   3.074   1.924   3.005
10470SOL    HW232310   2.927   1.875   2.955
10471SOL     OW32311   2.012   3.117   1.050
10471SOL    HW132312   2.106   3.102   1.081
10471SOL    HW232313   1.970   3.188   1.107
10472SOL     OW32314   2.772   5.537   0.981
10472SOL    HW132315   2.836   5.462   1.001
10472SOL    HW232316   2.819   5.625   0.991
10473SOL     OW32317   5.958   0.939   0.271
10473SOL    HW132318   5.975   0.993   0.188
10473SOL    HW232319   5.909   0.856   0.247
10474SOL     OW32320   4.490   1.585   4.945
10474SOL    HW132321   4.561   1.639   4.901
10474SOL    HW232322   4.532   1.523   5.012
10475SOL     OW32323   4.514   6.388   2.779
10475SOL    HW132324   4.461   6.373   2.696
10475SOL    HW232325   4.582   6.315   2.789
10476SOL     OW32326   6.935   5.615   6.567
10476SOL    HW132327   7.018   5.563   6.586
10476SOL    HW232328   6.938   5.651   6.474
10477SOL     OW32329   6.265   2.031   4.545
10477SOL    HW132330   6.166   2.045   4.545
10477SOL    HW232331   6.308   2.101   4.602
10478SOL     OW32332   0.387   0.745   1.091
10478SOL    HW132333   0.432   0.683   1.026
10478SOL    HW232334   0.356   0.693   1.170
10479SOL     OW32335   0.276   2.950   1.844
10479SOL    HW132336   0.362   2.909   1.813
10479SOL    HW232337   0.280   2.964   1.943
10480SOL     OW32338   5.960   0.472   1.471
10480SOL    HW132339   5.993   0.559   1.434
10480SOL    HW232340   5.861   0.464   1.454
10481SOL     OW32341   2.470   0.547   4.552
10481SOL    HW132342   2.445   0.578   4.644
10481SOL    HW232343   2.545   0.603   4.517
10482SOL     OW32344   0.668   5.707   4.858
10482SOL    HW132345   0.751   5.660   4.828
10482SOL    HW232346   0.615   5.736   4.778
10483SOL     OW32347   6.845   5.586   0.475
10483SOL    HW132348   6.865   5.488   0.475
10483SOL    HW232349   6.920   5.636   0.432
10484SOL     OW32350   6.077   0.840   1.341
10484SOL    HW132351   6.144   0.869   1.410
10484SOL    HW232352   6.009   0.912   1.328
10485SOL     OW32353   3.586   3.149   2.286
10485SOL    HW132354   3.550   3.156   2.193
10485SOL    HW232355   3.633   3.062   2.298
10486SOL     OW32356   6.357   0.295   5.885
10486SOL    HW132357   6.332   0.392   5.885
10486SOL    HW232358   6.386   0.268   5.793
10487SOL     OW32359   4.580   2.094   1.011
10487SOL    HW132360   4.599   2.060   1.103
10487SOL    HW232361   4.481   2.103   0.998
10488SOL     OW32362   1.829   1.978   6.047
10488SOL    HW132363   1.822   1.922   5.965
10488SOL    HW232364   1.916   1.959   6.093
10489SOL     OW32365   6.211   6.422   4.303
10489SOL    HW132366   6.272   6.404   4.226
10489SOL    HW232367   6.219   6.348   4.369
10490SOL     OW32368   6.053   1.304   0.688
10490SOL    HW132369   6.135   1.344   0.729
10490SOL    HW232370   6.046   1.208   0.714
10491SOL     OW32371   2.329   2.440   6.155
10491SOL    HW132372   2.321   2.340   6.153
10491SOL    HW232373   2.279   2.479   6.077
10492SOL     OW32374   4.370   5.516   1.154
10492SOL    HW132375   4.359   5.557   1.064
10492SOL    HW232376   4.350   5.418   1.150
10493SOL     OW32377   2.926   6.110   1.447
10493SOL    HW132378   2.841   6.136   1.492
10493SOL    HW232379   2.905   6.060   1.363
10494SOL     OW32380   6.308   4.246   5.790
10494SOL    HW132381   6.268   4.330   5.751
10494SOL    HW232382   6.237   4.177   5.799
10495SOL     OW32383   6.395   0.101   0.731
10495SOL    HW132384   6.457   0.061   0.663
10495SOL    HW232385   6.442   0.173   0.781
10496SOL     OW32386   6.560   4.654   5.037
10496SOL    HW132387   6.600   4.566   5.010
10496SOL    HW232388   6.467   4.639   5.072
10497SOL     OW32389   1.180   6.742   2.145
10497SOL    HW132390   1.276   6.767   2.132
10497SOL    HW232391   1.150   6.774   2.235
10498SOL     OW32392   5.798   6.101   1.189
10498SOL    HW132393   5.732   6.067   1.256
10498SOL    HW232394   5.848   6.023   1.150
10499SOL     OW32395   4.839   6.624   1.329
10499SOL    HW132396   4.848   6.556   1.402
10499SOL    HW232397   4.746   6.621   1.293
10500SOL     OW32398   5.576   2.463   5.865
10500SOL    HW132399   5.545   2.417   5.948
10500SOL    HW232400   5.615   2.397   5.802
10501SOL     OW32401   2.171   6.110   2.902
10501SOL    HW132402   2.170   6.137   2.805
10501SOL    HW232403   2.166   6.010   2.908
10502SOL     OW32404   2.613   3.985   1.074
10502SOL    HW132405   2.582   4.061   1.018
10502SOL    HW232406   2.668   3.923   1.018
10503SOL     OW32407   5.516   4.404   0.479
10503SOL    HW132408   5.584   4.362   0.540
10503SOL    HW232409   5.503   4.345   0.399
10504SOL     OW32410   0.401   2.389   5.521
10504SOL    HW132411   0.338   2.464   5.501
10504SOL    HW232412   0.459   2.372   5.442
10505SOL     OW32413   5.367   6.671   1.605
10505SOL    HW132414   5.368   6.757   1.656
10505SOL    HW232415   5.418   6.602   1.656
10506SOL     OW32416   0.444   3.494   0.412
10506SOL    HW132417   0.405   3.516   0.501
10506SOL    HW232418   0.482   3.577   0.371
10507SOL     OW32419   2.215   5.532   6.954
10507SOL    HW132420   2.221   5.521   6.855
10507SOL    HW232421   2.290   5.590   6.986
10508SOL     OW32422   0.795   5.584   4.360
10508SOL    HW132423   0.880   5.607   4.408
10508SOL    HW232424   0.766   5.663   4.306
10509SOL     OW32425   6.087   4.435   4.621
10509SOL    HW132426   6.156   4.478   4.679
10509SOL    HW232427   6.103   4.462   4.526
10510SOL     OW32428   4.561   6.547   0.607
10510SOL    HW132429   4.496   6.613   0.569
10510SOL    HW232430   4.611   6.504   0.532
10511SOL     OW32431   3.028   1.853   1.546
10511SOL    HW132432   3.003   1.757   1.541
10511SOL    HW232433   3.018   1.885   1.641
10512SOL     OW32434   3.985   6.848   5.858
10512SOL    HW132435   4.019   6.762   5.820
10512SOL    HW232436   3.928   6.895   5.791
10513SOL     OW32437   6.415   2.954   3.111
10513SOL    HW132438   6.430   2.985   3.017
10513SOL    HW232439   6.483   2.996   3.172
10514SOL     OW32440   1.570   1.708   1.803
10514SOL    HW132441   1.622   1.729   1.721
10514SOL    HW232442   1.632   1.698   1.881
10515SOL     OW32443   2.197   3.032   3.904
10515SOL    HW132444   2.162   3.125   3.899
10515SOL    HW232445   2.216   3.007   3.999
10516SOL     OW32446   2.684   1.807   0.218
10516SOL    HW132447   2.701   1.782   0.123
10516SOL    HW232448   2.592   1.779   0.244
10517SOL     OW32449   1.281   4.504   1.220
10517SOL    HW132450   1.284   4.600   1.250
10517SOL    HW232451   1.364   4.482   1.171
10518SOL     OW32452   0.122   6.096   1.855
10518SOL    HW132453   0.143   6.017   1.799
10518SOL    HW232454   0.083   6.066   1.942
10519SOL     OW32455   2.843   4.850   0.793
10519SOL    HW132456   2.818   4.863   0.697
10519SOL    HW232457   2.937   4.815   0.799
10520SOL     OW32458   6.912   1.876   6.061
10520SOL    HW132459   6.848   1.824   6.117
10520SOL    HW232460   7.006   1.848   6.083
10521SOL     OW32461   6.386   5.272   1.527
10521SOL    HW132462   6.407   5.353   1.582
10521SOL    HW232463   6.300   5.287   1.478
10522SOL     OW32464   0.495   2.729   2.980
10522SOL    HW132465   0.448   2.662   2.922
10522SOL    HW232466   0.490   2.701   3.076
10523SOL     OW32467   0.537   4.255   2.873
10523SOL    HW132468   0.609   4.248   2.803
10523SOL    HW232469   0.578   4.282   2.960
10524SOL     OW32470   0.819   5.720   4.066
10524SOL    HW132471   0.830   5.812   4.028
10524SOL    HW232472   0.725   5.708   4.099
10525SOL     OW32473   3.714   6.885   5.193
10525SOL    HW132474   3.807   6.852   5.205
10525SOL    HW232475   3.715   6.982   5.169
10526SOL     OW32476   0.803   6.877   1.647
10526SOL    HW132477   0.803   6.938   1.569
10526SOL    HW232478   0.712   6.875   1.689
10527SOL     OW32479   0.685   0.326   5.978
10527SOL    HW132480   0.737   0.406   6.009
10527SOL    HW232481   0.748   0.252   5.956
10528SOL     OW32482   0.764   4.457   6.419
10528SOL    HW132483   0.739   4.401   6.340
10528SOL    HW232484   0.709   4.431   6.498
10529SOL     OW32485   1.941   5.509   5.054
10529SOL    HW132486   1.859   5.542   5.103
10529SOL    HW232487   2.022   5.532   5.107
10530SOL     OW32488   1.044   5.915   6.062
10530SOL    HW132489   0.993   5.980   6.004
10530SOL    HW232490   1.065   5.833   6.009
10531SOL     OW32491   2.642   2.389   4.591
10531SOL    HW132492   2.697   2.307   4.610
10531SOL    HW232493   2.554   2.362   4.553
10532SOL     OW32494   6.848   6.647   6.715
10532SOL    HW132495   6.799   6.718   6.766
10532SOL    HW232496   6.819   6.557   6.747
10533SOL     OW32497   3.357   6.621   4.174
10533SOL    HW132498   3.417   6.659   4.103
10533SOL    HW232499   3.354   6.522   4.166
10534SOL     OW32500   6.657   5.383   1.791
10534SOL    HW132501   6.730   5.329   1.749
10534SOL    HW232502   6.697   5.459   1.841
10535SOL     OW32503   1.285   1.381   2.326
10535SOL    HW132504   1.373   1.419   2.356
10535SOL    HW232505   1.274   1.289   2.363
10536SOL     OW32506   4.636   6.933   4.021
10536SOL    HW132507   4.721   6.882   4.034
10536SOL    HW232508   4.610   6.931   3.925
10537SOL     OW32509   5.209   6.323   4.110
10537SOL    HW132510   5.197   6.414   4.071
10537SOL    HW232511   5.140   6.261   4.072
10538SOL     OW32512   6.071   4.098   2.142
10538SOL    HW132513   6.056   4.175   2.081
10538SOL    HW232514   6.169   4.084   2.156
10539SOL     OW32515   6.070   5.419   1.513
10539SOL    HW132516   5.990   5.421   1.453
10539SOL    HW232517   6.141   5.479   1.477
10540SOL     OW32518   2.201   3.822   5.936
10540SOL    HW132519   2.181   3.824   6.034
10540SOL    HW232520   2.209   3.916   5.902
10541SOL     OW32521   3.956   3.086   3.903
10541SOL    HW132522   3.872   3.100   3.851
10541SOL    HW232523   3.982   2.990   3.898
10542SOL     OW32524   6.536   0.022   5.158
10542SOL    HW132525   6.631   0.019   5.188
10542SOL    HW232526   6.488   0.096   5.205
10543SOL     OW32527   1.151   1.884   4.611
10543SOL    HW132528   1.169   1.952   4.541
10543SOL    HW232529   1.103   1.927   4.687
10544SOL     OW32530   2.242   6.229   3.222
10544SOL    HW132531   2.300   6.268   3.150
10544SOL    HW232532   2.153   6.275   3.221
10545SOL     OW32533   1.445   2.246   1.541
10545SOL    HW132534   1.456   2.147   1.553
10545SOL    HW232535   1.472   2.270   1.447
10546SOL     OW32536   3.442   6.365   1.177
10546SOL    HW132537   3.525   6.409   1.145
10546SOL    HW232538   3.385   6.431   1.226
10547SOL     OW32539   4.845   1.629   3.853
10547SOL    HW132540   4.917   1.640   3.922
10547SOL    HW232541   4.854   1.539   3.810
10548SOL     OW32542   0.184   3.609   4.071
10548SOL    HW132543   0.152   3.680   4.134
10548SOL    HW232544   0.145   3.521   4.096
10549SOL     OW32545   0.359   1.650   0.706
10549SOL    HW132546   0.441   1.593   0.712
10549SOL    HW232547   0.318   1.660   0.796
10550SOL     OW32548   4.353   6.731   3.527
10550SOL    HW132549   4.443   6.722   3.485
10550SOL    HW232550   4.339   6.658   3.594
10551SOL     OW32551   2.062   1.934   6.165
10551SOL    HW132552   2.105   1.845   6.174
10551SOL    HW232553   2.133   2.004   6.154
10552SOL     OW32554   2.411   0.664   4.813
10552SOL    HW132555   2.510   0.680   4.803
10552SOL    HW232556   2.362   0.749   4.795
10553SOL     OW32557   0.061   4.170   1.292
10553SOL    HW132558   7.018   4.098   1.312
10553SOL    HW232559   0.013   4.254   1.267
10554SOL     OW32560   5.381   5.437   2.656
10554SOL    HW132561   5.417   5.356   2.611
10554SOL    HW232562   5.457   5.498   2.681
10555SOL     OW32563   2.559   2.295   1.009
10555SOL    HW132564   2.537   2.285   1.106
10555SOL    HW232565   2.517   2.220   0.958
10556SOL     OW32566   2.920   1.281   3.845
10556SOL    HW132567   2.927   1.264   3.943
10556SOL    HW232568   2.967   1.210   3.795
10557SOL     OW32569   1.813   3.571   4.037
10557SOL    HW132570   1.749   3.508   4.081
10557SOL    HW232571   1.765   3.626   3.969
10558SOL     OW32572   3.941   5.737   5.818
10558SOL    HW132573   3.902   5.757   5.909
10558SOL    HW232574   3.872   5.690   5.763
10559SOL     OW32575   4.070   0.668   1.427
10559SOL    HW132576   4.111   0.756   1.402
10559SOL    HW232577   4.040   0.620   1.345
10560SOL     OW32578   4.342   6.333   2.553
10560SOL    HW132579   4.284   6.260   2.516
10560SOL    HW232580   4.424   6.342   2.496
10561SOL     OW32581   3.654   4.588   1.655
10561SOL    HW132582   3.588   4.528   1.610
10561SOL    HW232583   3.623   4.608   1.748
10562SOL     OW32584   4.390   5.741   0.378
10562SOL    HW132585   4.293   5.758   0.366
10562SOL    HW232586   4.403   5.669   0.446
10563SOL     OW32587   0.674   0.891   1.576
10563SOL    HW132588   0.666   0.834   1.494
10563SOL    HW232589   0.640   0.841   1.655
10564SOL     OW32590   5.952   6.468   3.797
10564SOL    HW132591   5.961   6.405   3.875
10564SOL    HW232592   6.027   6.534   3.799
10565SOL     OW32593   6.770   6.341   5.462
10565SOL    HW132594   6.732   6.320   5.551
10565SOL    HW232595   6.813   6.260   5.423
10566SOL     OW32596   3.319   1.999   6.522
10566SOL    HW132597   3.249   1.986   6.451
10566SOL    HW232598   3.283   1.969   6.610
10567SOL     OW32599   2.412   2.751   5.935
10567SOL    HW132600   2.360   2.782   6.014
10567SOL    HW232601   2.510   2.767   5.951
10568SOL     OW32602   6.050   2.602   0.260
10568SOL    HW132603   5.955   2.622   0.285
10568SOL    HW232604   6.060   2.505   0.241
10569SOL     OW32605   5.428   0.477   1.832
10569SOL    HW132606   5.447   0.404   1.767
10569SOL    HW232607   5.500   0.546   1.826
10570SOL     OW32608   1.892   4.748   3.476
10570SOL    HW132609   1.988   4.747   3.448
10570SOL    HW232610   1.872   4.831   3.527
10571SOL     OW32611   6.991   4.035   5.263
10571SOL    HW132612   6.989   4.070   5.356
10571SOL    HW232613   0.003   4.106   5.201
10572SOL     OW32614   0.286   5.063   2.483
10572SOL    HW132615   0.324   4.979   2.521
10572SOL    HW232616   0.245   5.118   2.556
10573SOL     OW32617   5.105   0.366   4.908
10573SOL    HW132618   5.034   0.410   4.852
10573SOL    HW232619   5.062   0.300   4.970
10574SOL     OW32620   6.826   1.420   3.675
10574SOL    HW132621   6.731   1.450   3.668
10574SOL    HW232622   6.873   1.473   3.747
10575SOL     OW32623   6.030   1.454   3.891
10575SOL    HW132624   6.070   1.363   3.897
10575SOL    HW232625   5.959   1.455   3.820
10576SOL     OW32626   1.437   5.279   2.844
10576SOL    HW132627   1.356   5.307   2.792
10576SOL    HW232628   1.461   5.185   2.821
10577SOL     OW32629   2.445   4.842   0.582
10577SOL    HW132630   2.440   4.774   0.655
10577SOL    HW232631   2.541   4.855   0.556
10578SOL     OW32632   4.740   0.964   3.358
10578SOL    HW132633   4.691   1.048   3.381
10578SOL    HW232634   4.676   0.887   3.354
10579SOL     OW32635   3.589   3.134   1.658
10579SOL    HW132636   3.591   3.088   1.747
10579SOL    HW232637   3.520   3.090   1.600
10580SOL     OW32638   6.681   6.304   6.339
10580SOL    HW132639   6.597   6.256   6.311
10580SOL    HW232640   6.743   6.311   6.261
10581SOL     OW32641   5.425   0.148   2.603
10581SOL    HW132642   5.430   0.091   2.521
10581SOL    HW232643   5.515   0.151   2.647
10582SOL     OW32644   5.028   4.649   6.251
10582SOL    HW132645   4.976   4.729   6.282
10582SOL    HW232646   5.070   4.669   6.163
10583SOL     OW32647   4.356   0.105   4.268
10583SOL    HW132648   4.371   0.006   4.276
10583SOL    HW232649   4.405   0.140   4.188
10584SOL     OW32650   6.570   6.972   6.615
10584SOL    HW132651   6.480   6.929   6.629
10584SOL    HW232652   6.637   6.929   6.675
10585SOL     OW32653   2.009   2.082   5.682
10585SOL    HW132654   2.013   2.148   5.607
10585SOL    HW232655   2.053   2.120   5.763
10586SOL     OW32656   4.907   4.948   5.555
10586SOL    HW132657   4.965   4.970   5.634
10586SOL    HW232658   4.893   4.849   5.550
10587SOL     OW32659   6.847   5.648   0.010
10587SOL    HW132660   6.848   5.576   6.964
10587SOL    HW232661   6.755   5.684   0.020
10588SOL     OW32662   2.097   2.091   5.141
10588SOL    HW132663   1.998   2.102   5.132
10588SOL    HW232664   2.118   1.996   5.164
10589SOL     OW32665   5.325   0.156   4.261
10589SOL    HW132666   5.292   0.073   4.307
10589SOL    HW232667   5.389   0.131   4.189
10590SOL     OW32668   0.048   6.613   1.657
10590SOL    HW132669   7.015   6.660   1.589
10590SOL    HW232670   7.023   6.610   1.744
10591SOL     OW32671   2.164   1.793   0.950
10591SOL    HW132672   2.072   1.790   0.989
10591SOL    HW232673   2.191   1.702   0.920
10592SOL     OW32674   5.815   2.942   4.735
10592SOL    HW132675   5.911   2.918   4.719
10592SOL    HW232676   5.777   2.982   4.652
10593SOL     OW32677   2.103   5.962   0.467
10593SOL    HW132678   2.193   5.929   0.439
10593SOL    HW232679   2.037   5.946   0.393
10594SOL     OW32680   4.172   1.787   2.953
10594SOL    HW132681   4.089   1.783   3.009
10594SOL    HW232682   4.252   1.791   3.012
10595SOL     OW32683   6.351   6.942   7.023
10595SOL    HW132684   6.272   6.913   0.053
10595SOL    HW232685   6.320   6.996   6.945
10596SOL     OW32686   4.968   0.492   6.874
10596SOL    HW132687   5.054   0.486   6.823
10596SOL    HW232688   4.947   0.587   6.895
10597SOL     OW32689   1.970   0.468   5.397
10597SOL    HW132690   1.887   0.487   5.345
10597SOL    HW232691   2.038   0.425   5.337
10598SOL     OW32692   2.847   2.192   6.440
10598SOL    HW132693   2.940   2.214   6.412
10598SOL    HW232694   2.788   2.272   6.426
10599SOL     OW32695   6.345   3.472   6.532
10599SOL    HW132696   6.343   3.422   6.618
10599SOL    HW232697   6.255   3.467   6.489
10600SOL     OW32698   3.829   2.073   1.240
10600SOL    HW132699   3.918   2.036   1.265
10600SOL    HW232700   3.758   2.026   1.292
10601SOL     OW32701   1.228   4.853   5.352
10601SOL    HW132702   1.294   4.887   5.285
10601SOL    HW232703   1.255   4.762   5.383
10602SOL     OW32704   1.090   1.370   0.895
10602SOL    HW132705   1.133   1.391   0.983
10602SOL    HW232706   1.021   1.299   0.908
10603SOL     OW32707   4.898   6.861   3.277
10603SOL    HW132708   4.989   6.822   3.264
10603SOL    HW232709   4.831   6.807   3.226
10604SOL     OW32710   0.151   5.801   4.884
10604SOL    HW132711   0.222   5.745   4.840
10604SOL    HW232712   0.185   5.834   4.972
10605SOL     OW32713   1.599   6.889   6.920
10605SOL    HW132714   1.576   6.799   6.884
10605SOL    HW232715   1.581   6.958   6.850
10606SOL     OW32716   6.703   1.353   1.451
10606SOL    HW132717   6.674   1.275   1.395
10606SOL    HW232718   6.796   1.337   1.484
10607SOL     OW32719   3.904   4.479   0.388
10607SOL    HW132720   3.847   4.507   0.464
10607SOL    HW232721   3.879   4.530   0.306
10608SOL     OW32722   0.125   3.058   3.544
10608SOL    HW132723   0.046   3.110   3.576
10608SOL    HW232724   0.149   3.087   3.451
10609SOL     OW32725   2.731   0.061   0.027
10609SOL    HW132726   2.660   0.132   0.033
10609SOL    HW232727   2.821   0.104   0.030
10610SOL     OW32728   0.372   1.576   4.107
10610SOL    HW132729   0.368   1.662   4.056
10610SOL    HW232730   0.280   1.552   4.137
10611SOL     OW32731   2.592   4.845   6.146
10611SOL    HW132732   2.669   4.810   6.092
10611SOL    HW232733   2.608   4.827   6.243
10612SOL     OW32734   4.901   2.145   4.262
10612SOL    HW132735   4.807   2.125   4.291
10612SOL    HW232736   4.923   2.091   4.181
10613SOL     OW32737   6.581   5.830   4.714
10613SOL    HW132738   6.642   5.824   4.635
10613SOL    HW232739   6.525   5.912   4.706
10614SOL     OW32740   5.299   1.082   4.403
10614SOL    HW132741   5.229   1.150   4.424
10614SOL    HW232742   5.388   1.113   4.438
10615SOL     OW32743   3.356   0.923   5.681
10615SOL    HW132744   3.424   0.989   5.713
10615SOL    HW232745   3.388   0.830   5.699
10616SOL     OW32746   3.097   6.160   6.569
10616SOL    HW132747   3.038   6.168   6.489
10616SOL    HW232748   3.091   6.067   6.606
10617SOL     OW32749   2.629   4.578   1.480
10617SOL    HW132750   2.563   4.561   1.553
10617SOL    HW232751   2.582   4.583   1.392
10618SOL     OW32752   1.042   5.219   5.497
10618SOL    HW132753   1.048   5.311   5.536
10618SOL    HW232754   1.053   5.152   5.571
10619SOL     OW32755   0.486   2.415   3.146
10619SOL    HW132756   0.566   2.355   3.142
10619SOL    HW232757   0.448   2.426   3.054
10620SOL     OW32758   1.236   6.944   5.455
10620SOL    HW132759   1.185   6.859   5.466
10620SOL    HW232760   1.311   6.947   5.521
10621SOL     OW32761   0.125   4.378   1.903
10621SOL    HW132762   0.197   4.389   1.972
10621SOL    HW232763   0.135   4.449   1.833
10622SOL     OW32764   4.649   2.375   1.771
10622SOL    HW132765   4.748   2.366   1.784
10622SOL    HW232766   4.614   2.445   1.833
10623SOL     OW32767   6.628   5.652   5.860
10623SOL    HW132768   6.555   5.590   5.887
10623SOL    HW232769   6.665   5.624   5.772
10624SOL     OW32770   0.479   2.635   5.862
10624SOL    HW132771   0.500   2.717   5.809
10624SOL    HW232772   0.387   2.603   5.839
10625SOL     OW32773   0.451   4.047   1.573
10625SOL    HW132774   0.414   4.114   1.637
10625SOL    HW232775   0.389   3.968   1.569
10626SOL     OW32776   3.123   2.486   1.020
10626SOL    HW132777   3.155   2.438   0.939
10626SOL    HW232778   3.094   2.579   0.994
10627SOL     OW32779   6.294   0.864   6.638
10627SOL    HW132780   6.204   0.884   6.677
10627SOL    HW232781   6.295   0.888   6.541
10628SOL     OW32782   4.491   6.822   1.329
10628SOL    HW132783   4.547   6.813   1.411
10628SOL    HW232784   4.511   6.746   1.266
10629SOL     OW32785   3.227   4.879   4.858
10629SOL    HW132786   3.132   4.851   4.874
10629SOL    HW232787   3.287   4.835   4.924
10630SOL     OW32788   5.625   1.316   2.409
10630SOL    HW132789   5.720   1.310   2.441
10630SOL    HW232790   5.564   1.325   2.488
10631SOL     OW32791   3.702   4.519   5.601
10631SOL    HW132792   3.679   4.615   5.610
10631SOL    HW232793   3.618   4.465   5.590
10632SOL     OW32794   5.427   6.383   3.465
10632SOL    HW132795   5.401   6.346   3.554
10632SOL    HW232796   5.355   6.363   3.398
10633SOL     OW32797   2.339   2.756   1.059
10633SOL    HW132798   2.357   2.725   1.152
10633SOL    HW232799   2.338   2.678   0.997
10634SOL     OW32800   1.957   5.284   0.588
10634SOL    HW132801   1.887   5.347   0.553
10634SOL    HW232802   1.918   5.231   0.663
10635SOL     OW32803   2.069   3.645   6.721
10635SOL    HW132804   2.008   3.711   6.765
10635SOL    HW232805   2.023   3.557   6.713
10636SOL     OW32806   0.018   2.380   1.652
10636SOL    HW132807   6.986   2.323   1.713
10636SOL    HW232808   0.065   2.450   1.706
10637SOL     OW32809   1.470   5.335   6.007
10637SOL    HW132810   1.480   5.245   6.050
10637SOL    HW232811   1.380   5.342   5.964
10638SOL     OW32812   5.191   6.409   2.894
10638SOL    HW132813   5.248   6.402   2.977
10638SOL    HW232814   5.145   6.497   2.892
10639SOL     OW32815   1.785   3.566   2.098
10639SOL    HW132816   1.686   3.552   2.100
10639SOL    HW232817   1.806   3.660   2.127
10640SOL     OW32818   4.772   0.712   3.765
10640SOL    HW132819   4.753   0.650   3.842
10640SOL    HW232820   4.741   0.804   3.788
10641SOL     OW32821   2.189   1.355   3.361
10641SOL    HW132822   2.171   1.307   3.275
10641SOL    HW232823   2.269   1.415   3.349
10642SOL     OW32824   6.354   1.719   0.791
10642SOL    HW132825   6.315   1.771   0.715
10642SOL    HW232826   6.400   1.638   0.755
10643SOL     OW32827   2.336   6.376   5.477
10643SOL    HW132828   2.391   6.312   5.531
10643SOL    HW232829   2.354   6.362   5.380
10644SOL     OW32830   5.426   3.054   1.373
10644SOL    HW132831   5.520   3.050   1.341
10644SOL    HW232832   5.379   3.130   1.329
10645SOL     OW32833   2.183   2.910   4.166
10645SOL    HW132834   2.200   2.994   4.217
10645SOL    HW232835   2.087   2.884   4.174
10646SOL     OW32836   6.794   0.382   6.445
10646SOL    HW132837   6.828   0.406   6.354
10646SOL    HW232838   6.695   0.387   6.446
10647SOL     OW32839   3.228   5.515   4.866
10647SOL    HW132840   3.156   5.584   4.853
10647SOL    HW232841   3.197   5.446   4.931
10648SOL     OW32842   5.925   5.258   6.373
10648SOL    HW132843   5.983   5.195   6.425
10648SOL    HW232844   5.974   5.288   6.291
10649SOL     OW32845   0.470   3.388   2.709
10649SOL    HW132846   0.519   3.366   2.625
10649SOL    HW232847   0.479   3.313   2.774
10650SOL     OW32848   0.506   0.579   4.093
10650SOL    HW132849   0.538   0.671   4.113
10650SOL    HW232850   0.551   0.544   4.011
10651SOL     OW32851   6.212   5.678   5.951
10651SOL    HW132852   6.226   5.729   6.035
10651SOL    HW232853   6.211   5.741   5.873
10652SOL     OW32854   2.145   0.011   6.683
10652SOL    HW132855   2.051   0.019   6.651
10652SOL    HW232856   2.162   6.942   6.716
10653SOL     OW32857   3.887   5.921   5.023
10653SOL    HW132858   3.972   5.966   5.048
10653SOL    HW232859   3.870   5.933   4.926
10654SOL     OW32860   4.864   0.649   6.307
10654SOL    HW132861   4.813   0.659   6.393
10654SOL    HW232862   4.952   0.695   6.315
10655SOL     OW32863   1.794   4.884   0.186
10655SOL    HW132864   1.828   4.973   0.156
10655SOL    HW232865   1.862   4.814   0.166
10656SOL     OW32866   6.865   1.282   2.180
10656SOL    HW132867   6.952   1.329   2.191
10656SOL    HW232868   6.824   1.265   2.270
10657SOL     OW32869   5.564   0.735   4.509
10657SOL    HW132870   5.578   0.636   4.510
10657SOL    HW232871   5.647   0.781   4.540
10658SOL     OW32872   5.942   4.229   4.726
10658SOL    HW132873   5.941   4.134   4.695
10658SOL    HW232874   6.019   4.277   4.684
10659SOL     OW32875   1.106   5.237   0.422
10659SOL    HW132876   1.060   5.286   0.348
10659SOL    HW232877   1.165   5.165   0.383
10660SOL     OW32878   5.836   3.452   6.179
10660SOL    HW132879   5.936   3.463   6.178
10660SOL    HW232880   5.801   3.482   6.268
10661SOL     OW32881   1.582   6.445   0.927
10661SOL    HW132882   1.681   6.456   0.915
10661SOL    HW232883   1.535   6.521   0.883
10662SOL     OW32884   4.478   0.388   2.390
10662SOL    HW132885   4.547   0.460   2.376
10662SOL    HW232886   4.524   0.303   2.415
10663SOL     OW32887   0.511   0.896   2.721
10663SOL    HW132888   0.508   0.881   2.623
10663SOL    HW232889   0.537   0.811   2.767
10664SOL     OW32890   6.118   4.250   5.241
10664SOL    HW132891   6.094   4.326   5.301
10664SOL    HW232892   6.071   4.261   5.153
10665SOL     OW32893   1.460   1.796   0.146
10665SOL    HW132894   1.381   1.830   0.197
10665SOL    HW232895   1.451   1.697   0.134
10666SOL     OW32896   3.270   4.063   1.875
10666SOL    HW132897   3.210   4.015   1.939
10666SOL    HW232898   3.267   4.018   1.786
10667SOL     OW32899   4.508   2.414   3.182
10667SOL    HW132900   4.586   2.364   3.146
10667SOL    HW232901   4.444   2.350   3.225
10668SOL     OW32902   2.843   1.537   5.046
10668SOL    HW132903   2.912   1.574   4.984
10668SOL    HW232904   2.757   1.526   4.997
10669SOL     OW32905   5.813   0.792   1.494
10669SOL    HW132906   5.901   0.832   1.471
10669SOL    HW232907   5.753   0.795   1.415
10670SOL     OW32908   5.871   4.705   4.620
10670SOL    HW132909   5.907   4.791   4.583
10670SOL    HW232910   5.942   4.635   4.615
10671SOL     OW32911   2.165   1.946   4.451
10671SOL    HW132912   2.226   1.964   4.528
10671SOL    HW232913   2.124   2.032   4.420
10672SOL     OW32914   6.839   4.583   1.761
10672SOL    HW132915   6.801   4.594   1.854
10672SOL    HW232916   6.936   4.563   1.767
10673SOL     OW32917   0.523   1.214   0.078
10673SOL    HW132918   0.492   1.279   0.009
10673SOL    HW232919   0.460   1.137   0.082
10674SOL     OW32920   4.081   3.660   3.993
10674SOL    HW132921   4.103   3.591   3.924
10674SOL    HW232922   4.086   3.751   3.952
10675SOL     OW32923   1.836   0.207   6.876
10675SOL    HW132924   1.785   0.254   6.804
10675SOL    HW232925   1.857   0.114   6.845
10676SOL     OW32926   0.218   5.942   5.111
10676SOL    HW132927   0.207   6.035   5.077
10676SOL    HW232928   0.252   5.945   5.205
10677SOL     OW32929   1.400   0.457   1.884
10677SOL    HW132930   1.405   0.475   1.983
10677SOL    HW232931   1.476   0.399   1.856
10678SOL     OW32932   5.149   5.624   4.184
10678SOL    HW132933   5.216   5.558   4.218
10678SOL    HW232934   5.061   5.579   4.170
10679SOL     OW32935   3.875   5.702   6.708
10679SOL    HW132936   3.839   5.791   6.677
10679SOL    HW232937   3.895   5.707   6.805
10680SOL     OW32938   3.779   2.147   4.325
10680SOL    HW132939   3.784   2.148   4.226
10680SOL    HW232940   3.693   2.103   4.354
10681SOL     OW32941   0.116   3.950   0.924
10681SOL    HW132942   0.103   4.024   0.858
10681SOL    HW232943   0.213   3.939   0.944
10682SOL     OW32944   0.055   1.741   5.494
10682SOL    HW132945   0.005   1.817   5.453
10682SOL    HW232946   0.138   1.775   5.537
10683SOL     OW32947   4.886   1.366   3.766
10683SOL    HW132948   4.980   1.338   3.785
10683SOL    HW232949   4.841   1.296   3.711
10684SOL     OW32950   4.925   4.960   2.586
10684SOL    HW132951   4.863   5.028   2.625
10684SOL    HW232952   4.933   4.883   2.648
10685SOL     OW32953   0.944   5.899   1.731
10685SOL    HW132954   0.916   5.875   1.638
10685SOL    HW232955   0.877   5.863   1.796
10686SOL     OW32956   1.136   3.852   5.714
10686SOL    HW132957   1.200   3.820   5.783
10686SOL    HW232958   1.184   3.864   5.627
10687SOL     OW32959   5.716   5.426   4.155
10687SOL    HW132960   5.663   5.423   4.071
10687SOL    HW232961   5.797   5.369   4.146
10688SOL     OW32962   5.966   3.594   2.847
10688SOL    HW132963   5.881   3.645   2.850
10688SOL    HW232964   6.025   3.621   2.924
10689SOL     OW32965   0.111   0.142   3.207
10689SOL    HW132966   0.041   0.194   3.157
10689SOL    HW232967   0.142   0.195   3.286
10690SOL     OW32968   0.133   5.588   4.066
10690SOL    HW132969   0.117   5.512   4.128
10690SOL    HW232970   0.232   5.600   4.053
10691SOL     OW32971   1.208   1.639   2.480
10691SOL    HW132972   1.278   1.571   2.457
10691SOL    HW232973   1.251   1.722   2.515
10692SOL     OW32974   2.439   6.911   3.652
10692SOL    HW132975   2.342   6.933   3.660
10692SOL    HW232976   2.450   6.813   3.639
10693SOL     OW32977   1.510   5.977   1.189
10693SOL    HW132978   1.500   6.017   1.281
10693SOL    HW232979   1.524   6.050   1.123
10694SOL     OW32980   5.281   6.615   6.949
10694SOL    HW132981   5.362   6.561   6.926
10694SOL    HW232982   5.256   6.672   6.870
10695SOL     OW32983   0.920   2.225   2.921
10695SOL    HW132984   0.842   2.250   2.863
10695SOL    HW232985   0.970   2.149   2.880
10696SOL     OW32986   6.793   4.486   3.383
10696SOL    HW132987   6.800   4.393   3.419
10696SOL    HW232988   6.777   4.482   3.284
10697SOL     OW32989   0.440   6.320   5.345
10697SOL    HW132990   0.362   6.369   5.305
10697SOL    HW232991   0.524   6.372   5.329
10698SOL     OW32992   5.558   4.475   6.668
10698SOL    HW132993   5.510   4.390   6.646
10698SOL    HW232994   5.604   4.466   6.756
10699SOL     OW32995   3.901   4.444   1.631
10699SOL    HW132996   3.952   4.427   1.547
10699SOL    HW232997   3.822   4.501   1.611
10700SOL     OW32998   5.742   6.530   0.692
10700SOL    HW132999   5.676   6.482   0.749
10700SOL    HW233000   5.700   6.612   0.654
10701SOL     OW33001   2.598   6.563   6.635
10701SOL    HW133002   2.528   6.626   6.603
10701SOL    HW233003   2.585   6.544   6.733
10702SOL     OW33004   4.973   3.044   1.291
10702SOL    HW133005   4.907   3.090   1.232
10702SOL    HW233006   4.975   2.947   1.269
10703SOL     OW33007   2.633   3.139   5.364
10703SOL    HW133008   2.547   3.118   5.318
10703SOL    HW233009   2.703   3.161   5.296
10704SOL     OW33010   5.773   5.622   2.261
10704SOL    HW133011   5.807   5.539   2.306
10704SOL    HW233012   5.790   5.616   2.163
10705SOL     OW33013   5.982   4.924   1.995
10705SOL    HW133014   5.883   4.920   2.008
10705SOL    HW233015   6.018   4.831   1.987
10706SOL     OW33016   4.732   0.533   2.433
10706SOL    HW133017   4.786   0.554   2.514
10706SOL    HW233018   4.779   0.462   2.380
10707SOL     OW33019   0.132   0.079   4.422
10707SOL    HW133020   0.061   0.148   4.436
10707SOL    HW233021   0.198   0.084   4.497
10708SOL     OW33022   4.053   1.240   1.590
10708SOL    HW133023   4.049   1.206   1.684
10708SOL    HW233024   4.146   1.232   1.555
10709SOL     OW33025   5.644   5.268   5.644
10709SOL    HW133026   5.599   5.345   5.599
10709SOL    HW233027   5.722   5.303   5.697
10710SOL     OW33028   6.996   0.606   4.375
10710SOL    HW133029   0.045   0.670   4.399
10710SOL    HW233030   0.004   0.545   4.302
10711SOL     OW33031   1.799   6.881   4.608
10711SOL    HW133032   1.723   6.839   4.656
10711SOL    HW233033   1.782   6.979   4.599
10712SOL     OW33034   2.948   0.769   1.504
10712SOL    HW133035   2.899   0.745   1.420
10712SOL    HW233036   2.908   0.851   1.544
10713SOL     OW33037   0.564   3.492   2.353
10713SOL    HW133038   0.497   3.418   2.363
10713SOL    HW233039   0.624   3.472   2.276
10714SOL     OW33040   5.693   3.693   4.863
10714SOL    HW133041   5.695   3.762   4.935
10714SOL    HW233042   5.645   3.611   4.896
10715SOL     OW33043   5.474   0.817   2.915
10715SOL    HW133044   5.515   0.769   2.837
10715SOL    HW233045   5.397   0.763   2.950
10716SOL     OW33046   5.976   2.028   3.610
10716SOL    HW133047   5.956   1.956   3.677
10716SOL    HW233048   5.946   1.998   3.520
10717SOL     OW33049   1.465   1.980   1.589
10717SOL    HW133050   1.391   1.960   1.524
10717SOL    HW233051   1.528   1.902   1.591
10718SOL     OW33052   1.401   2.799   6.602
10718SOL    HW133053   1.413   2.749   6.687
10718SOL    HW233054   1.362   2.889   6.621
10719SOL     OW33055   6.524   5.640   2.812
10719SOL    HW133056   6.519   5.734   2.777
10719SOL    HW233057   6.581   5.638   2.894
10720SOL     OW33058   0.533   4.130   4.669
10720SOL    HW133059   0.486   4.166   4.749
10720SOL    HW233060   0.470   4.125   4.592
10721SOL     OW33061   5.387   3.864   5.018
10721SOL    HW133062   5.482   3.867   5.049
10721SOL    HW233063   5.331   3.821   5.088
10722SOL     OW33064   1.212   5.074   7.009
10722SOL    HW133065   1.115   5.096   6.998
10722SOL    HW233066   1.256   5.069   6.919
10723SOL     OW33067   0.387   3.301   5.894
10723SOL    HW133068   0.371   3.239   5.971
10723SOL    HW233069   0.468   3.357   5.914
10724SOL     OW33070   5.985   1.304   6.904
10724SOL    HW133071   5.943   1.329   6.992
10724SOL    HW233072   5.914   1.294   6.835
10725SOL     OW33073   0.978   5.889   4.593
10725SOL    HW133074   0.950   5.923   4.504
10725SOL    HW233075   1.009   5.794   4.584
10726SOL     OW33076   5.421   0.100   5.319
10726SOL    HW133077   5.508   0.089   5.369
10726SOL    HW233078   5.440   0.138   5.229
10727SOL     OW33079   0.157   4.746   5.216
10727SOL    HW133080   0.174   4.832   5.169
10727SOL    HW233081   0.227   4.680   5.191
10728SOL     OW33082   0.249   5.947   6.841
10728SOL    HW133083   0.312   5.977   6.770
10728SOL    HW233084   0.294   5.880   6.899
10729SOL     OW33085   5.131   1.363   1.322
10729SOL    HW133086   5.043   1.405   1.299
10729SOL    HW233087   5.204   1.429   1.308
10730SOL     OW33088   2.412   0.725   1.550
10730SOL    HW133089   2.372   0.749   1.462
10730SOL    HW233090   2.377   0.636   1.580
10731SOL     OW33091   3.277   5.994   0.571
10731SOL    HW133092   3.249   6.073   0.517
10731SOL    HW233093   3.200   5.930   0.579
10732SOL     OW33094   5.924   5.255   4.150
10732SOL    HW133095   5.950   5.172   4.200
10732SOL    HW233096   5.997   5.279   4.086
10733SOL     OW33097   6.477   1.825   1.153
10733SOL    HW133098   6.378   1.836   1.163
10733SOL    HW233099   6.522   1.837   1.242
10734SOL     OW33100   1.209   0.776   0.324
10734SOL    HW133101   1.126   0.728   0.295
10734SOL    HW233102   1.198   0.806   0.419
10735SOL     OW33103   0.953   3.183   3.066
10735SOL    HW133104   1.033   3.184   3.127
10735SOL    HW233105   0.979   3.144   2.978
10736SOL     OW33106   1.309   0.336   2.886
10736SOL    HW133107   1.308   0.254   2.829
10736SOL    HW233108   1.398   0.380   2.881
10737SOL     OW33109   1.918   1.790   1.047
10737SOL    HW133110   1.850   1.822   1.112
10737SOL    HW233111   1.872   1.758   0.964
10738SOL     OW33112   2.559   0.301   3.437
10738SOL    HW133113   2.490   0.366   3.407
10738SOL    HW233114   2.648   0.346   3.441
10739SOL     OW33115   0.893   1.635   0.893
10739SOL    HW133116   0.911   1.557   0.832
10739SOL    HW233117   0.829   1.698   0.848
10740SOL     OW33118   0.094   4.230   5.088
10740SOL    HW133119   0.128   4.291   5.160
10740SOL    HW233120   0.020   4.276   5.038
10741SOL     OW33121   5.951   0.179   1.255
10741SOL    HW133122   5.872   0.178   1.317
10741SOL    HW233123   5.940   0.108   1.185
10742SOL     OW33124   5.246   0.994   0.904
10742SOL    HW133125   5.200   0.921   0.954
10742SOL    HW233126   5.193   1.018   0.823
10743SOL     OW33127   2.439   1.440   5.240
10743SOL    HW133128   2.499   1.385   5.183
10743SOL    HW233129   2.493   1.513   5.283
10744SOL     OW33130   3.785   1.407   0.741
10744SOL    HW133131   3.871   1.368   0.774
10744SOL    HW233132   3.764   1.489   0.794
10745SOL     OW33133   0.298   5.203   6.652
10745SOL    HW133134   0.366   5.183   6.724
10745SOL    HW233135   0.276   5.119   6.603
10746SOL     OW33136   1.682   4.308   1.299
10746SOL    HW133137   1.608   4.333   1.362
10746SOL    HW233138   1.717   4.217   1.322
10747SOL     OW33139   4.470   0.893   3.657
10747SOL    HW133140   4.471   0.794   3.674
10747SOL    HW233141   4.564   0.927   3.654
10748SOL     OW33142   4.702   1.566   1.049
10748SOL    HW133143   4.692   1.657   1.009
10748SOL    HW233144   4.659   1.498   0.989
10749SOL     OW33145   0.496   5.950   3.229
10749SOL    HW133146   0.414   5.911   3.189
10749SOL    HW233147   0.568   5.955   3.159
10750SOL     OW33148   4.397   5.967   5.114
10750SOL    HW133149   4.439   6.023   5.186
10750SOL    HW233150   4.394   6.019   5.029
10751SOL     OW33151   1.793   4.398   4.206
10751SOL    HW133152   1.790   4.337   4.285
10751SOL    HW233153   1.883   4.390   4.161
10752SOL     OW33154   5.953   3.694   6.314
10752SOL    HW133155   5.970   3.793   6.320
10752SOL    HW233156   5.971   3.663   6.221
10753SOL     OW33157   5.086   5.932   4.211
10753SOL    HW133158   5.077   5.838   4.177
10753SOL    HW233159   5.081   5.931   4.311
10754SOL     OW33160   0.934   1.369   3.131
10754SOL    HW133161   0.899   1.408   3.046
10754SOL    HW233162   0.924   1.436   3.205
10755SOL     OW33163   6.744   0.892   6.416
10755SOL    HW133164   6.789   0.974   6.450
10755SOL    HW233165   6.694   0.848   6.491
10756SOL     OW33166   6.799   4.840   0.383
10756SOL    HW133167   6.777   4.842   0.286
10756SOL    HW233168   6.897   4.858   0.395
10757SOL     OW33169   1.338   3.248   0.415
10757SOL    HW133170   1.310   3.152   0.405
10757SOL    HW233171   1.271   3.308   0.372
10758SOL     OW33172   0.487   0.134   3.992
10758SOL    HW133173   0.468   0.206   4.059
10758SOL    HW233174   0.558   0.166   3.929
10759SOL     OW33175   1.712   3.182   0.886
10759SOL    HW133176   1.733   3.105   0.946
10759SOL    HW233177   1.797   3.228   0.860
10760SOL     OW33178   6.447   1.790   2.134
10760SOL    HW133179   6.426   1.788   2.231
10760SOL    HW233180   6.524   1.852   2.117
10761SOL     OW33181   0.776   0.659   6.244
10761SOL    HW133182   0.846   0.602   6.200
10761SOL    HW233183   0.820   0.717   6.313
10762SOL     OW33184   4.187   1.808   4.823
10762SOL    HW133185   4.114   1.827   4.889
10762SOL    HW233186   4.175   1.866   4.742
10763SOL     OW33187   5.069   6.467   2.356
10763SOL    HW133188   5.077   6.413   2.439
10763SOL    HW233189   4.980   6.513   2.353
10764SOL     OW33190   5.228   2.524   6.013
10764SOL    HW133191   5.190   2.456   5.949
10764SOL    HW233192   5.277   2.594   5.961
10765SOL     OW33193   5.281   1.961   0.303
10765SOL    HW133194   5.296   1.928   0.396
10765SOL    HW233195   5.267   1.884   0.242
10766SOL     OW33196   4.938   3.648   0.650
10766SOL    HW133197   4.876   3.717   0.687
10766SOL    HW233198   4.974   3.592   0.724
10767SOL     OW33199   1.482   0.730   0.313
10767SOL    HW133200   1.509   0.780   0.395
10767SOL    HW233201   1.382   0.727   0.307
10768SOL     OW33202   4.584   4.266   1.601
10768SOL    HW133203   4.521   4.267   1.679
10768SOL    HW233204   4.677   4.281   1.634
10769SOL     OW33205   2.626   4.735   4.762
10769SOL    HW133206   2.630   4.693   4.672
10769SOL    HW233207   2.704   4.797   4.774
10770SOL     OW33208   5.438   0.722   5.004
10770SOL    HW133209   5.513   0.786   5.022
10770SOL    HW233210   5.358   0.774   4.970
10771SOL     OW33211   6.090   0.868   3.510
10771SOL    HW133212   6.071   0.907   3.600
10771SOL    HW233213   6.018   0.804   3.485
10772SOL     OW33214   6.590   6.551   4.386
10772SOL    HW133215   6.513   6.542   4.449
10772SOL    HW233216   6.629   6.461   4.367
10773SOL     OW33217   6.494   5.382   0.200
10773SOL    HW133218   6.579   5.435   0.202
10773SOL    HW233219   6.417   5.442   0.220
10774SOL     OW33220   2.077   1.441   0.238
10774SOL    HW133221   2.081   1.483   0.329
10774SOL    HW233222   2.059   1.511   0.170
10775SOL     OW33223   7.000   5.036   1.103
10775SOL    HW133224   6.948   5.074   1.026
10775SOL    HW233225   6.960   4.949   1.132
10776SOL     OW33226   0.216   0.911   6.525
10776SOL    HW133227   0.205   1.010   6.515
10776SOL    HW233228   0.165   0.879   6.605
10777SOL     OW33229   3.436   5.535   3.192
10777SOL    HW133230   3.436   5.442   3.229
10777SOL    HW233231   3.347   5.578   3.209
10778SOL     OW33232   5.906   0.522   4.459
10778SOL    HW133233   5.950   0.519   4.370
10778SOL    HW233234   5.968   0.565   4.525
10779SOL     OW33235   6.481   3.877   3.733
10779SOL    HW133236   6.479   3.815   3.655
10779SOL    HW233237   6.540   3.955   3.713
10780SOL     OW33238   1.902   0.786   3.982
10780SOL    HW133239   1.930   0.860   4.044
10780SOL    HW233240   1.827   0.817   3.924
10781SOL     OW33241   4.355   0.979   3.409
10781SOL    HW133242   4.379   0.931   3.493
10781SOL    HW233243   4.348   0.914   3.334
10782SOL     OW33244   5.406   2.064   1.803
10782SOL    HW133245   5.385   2.022   1.892
10782SOL    HW233246   5.443   2.156   1.817
10783SOL     OW33247   0.724   3.392   3.454
10783SOL    HW133248   0.675   3.408   3.368
10783SOL    HW233249   0.674   3.326   3.509
10784SOL     OW33250   4.141   6.687   4.204
10784SOL    HW133251   4.223   6.737   4.176
10784SOL    HW233252   4.061   6.744   4.190
10785SOL     OW33253   0.214   4.346   1.567
10785SOL    HW133254   0.180   4.425   1.515
10785SOL    HW233255   0.158   4.266   1.547
10786SOL     OW33256   5.782   4.527   3.128
10786SOL    HW133257   5.734   4.604   3.086
10786SOL    HW233258   5.879   4.549   3.138
10787SOL     OW33259   1.858   1.554   4.667
10787SOL    HW133260   1.854   1.615   4.588
10787SOL    HW233261   1.953   1.529   4.685
10788SOL     OW33262   2.002   4.382   6.321
10788SOL    HW133263   1.979   4.317   6.394
10788SOL    HW233264   2.079   4.346   6.267
10789SOL     OW33265   0.162   2.778   6.832
10789SOL    HW133266   0.230   2.840   6.873
10789SOL    HW233267   0.173   2.779   6.733
10790SOL     OW33268   1.155   0.427   1.736
10790SOL    HW133269   1.237   0.463   1.779
10790SOL    HW233270   1.166   0.329   1.718
10791SOL     OW33271   0.280   0.035   1.143
10791SOL    HW133272   0.200   0.092   1.161
10791SOL    HW233273   0.353   0.057   1.209
10792SOL     OW33274   3.340   4.102   3.851
10792SOL    HW133275   3.309   4.197   3.856
10792SOL    HW233276   3.390   4.079   3.935
10793SOL     OW33277   5.388   3.308   4.549
10793SOL    HW133278   5.302   3.287   4.596
10793SOL    HW233279   5.392   3.255   4.464
10794SOL     OW33280   2.978   3.807   3.594
10794SOL    HW133281   2.932   3.760   3.519
10794SOL    HW233282   3.021   3.891   3.560
10795SOL     OW33283   6.472   4.995   2.159
10795SOL    HW133284   6.438   4.988   2.065
10795SOL    HW233285   6.539   5.069   2.165
10796SOL     OW33286   5.604   0.337   6.725
10796SOL    HW133287   5.557   0.251   6.747
10796SOL    HW233288   5.689   0.317   6.675
10797SOL     OW33289   4.239   2.896   1.648
10797SOL    HW133290   4.294   2.816   1.624
10797SOL    HW233291   4.228   2.955   1.567
10798SOL     OW33292   3.167   0.069   0.492
10798SOL    HW133293   3.197   7.004   0.458
10798SOL    HW233294   3.134   0.059   0.586
10799SOL     OW33295   3.897   1.050   1.381
10799SOL    HW133296   3.839   1.121   1.422
10799SOL    HW233297   3.979   1.038   1.437
10800SOL     OW33298   0.436   6.931   6.568
10800SOL    HW133299   0.388   6.957   6.651
10800SOL    HW233300   0.467   6.837   6.575
10801SOL     OW33301   0.735   6.097   5.996
10801SOL    HW133302   0.724   6.147   6.081
10801SOL    HW233303   0.720   5.999   6.012
10802SOL     OW33304   1.000   1.029   3.205
10802SOL    HW133305   0.934   1.096   3.239
10802SOL    HW233306   1.005   0.952   3.269
10803SOL     OW33307   2.515   4.041   6.122
10803SOL    HW133308   2.518   3.964   6.059
10803SOL    HW233309   2.602   4.089   6.120
10804SOL     OW33310   5.643   3.426   2.120
10804SOL    HW133311   5.611   3.332   2.123
10804SOL    HW233312   5.577   3.483   2.071
10805SOL     OW33313   4.398   6.339   6.868
10805SOL    HW133314   4.334   6.266   6.848
10805SOL    HW233315   4.417   6.392   6.785
10806SOL     OW33316   3.955   3.905   5.722
10806SOL    HW133317   3.871   3.918   5.774
10806SOL    HW233318   3.987   3.994   5.687
10807SOL     OW33319   1.434   0.047   2.387
10807SOL    HW133320   1.391   0.126   2.342
10807SOL    HW233321   1.530   0.042   2.361
10808SOL     OW33322   0.547   2.849   5.721
10808SOL    HW133323   0.517   2.883   5.632
10808SOL    HW233324   0.609   2.915   5.763
10809SOL     OW33325   2.983   4.870   3.638
10809SOL    HW133326   3.070   4.912   3.613
10809SOL    HW233327   2.927   4.859   3.557
10810SOL     OW33328   1.418   6.981   4.132
10810SOL    HW133329   1.479   7.015   4.060
10810SOL    HW233330   1.385   6.890   4.106
10811SOL     OW33331   4.000   3.998   6.486
10811SOL    HW133332   3.964   3.942   6.559
10811SOL    HW233333   3.935   4.070   6.463
10812SOL     OW33334   0.113   4.004   0.252
10812SOL    HW133335   0.200   4.051   0.246
10812SOL    HW233336   0.126   3.906   0.236
10813SOL     OW33337   2.009   4.656   6.344
10813SOL    HW133338   1.959   4.684   6.426
10813SOL    HW233339   1.988   4.561   6.323
10814SOL     OW33340   1.388   6.949   6.292
10814SOL    HW133341   1.442   6.865   6.302
10814SOL    HW233342   1.389   7.000   6.378
10815SOL     OW33343   4.451   4.682   3.432
10815SOL    HW133344   4.447   4.782   3.431
10815SOL    HW233345   4.387   4.645   3.365
10816SOL     OW33346   3.215   2.993   2.290
10816SOL    HW133347   3.259   3.056   2.354
10816SOL    HW233348   3.211   3.035   2.199
10817SOL     OW33349   4.697   0.807   2.996
10817SOL    HW133350   4.726   0.893   3.038
10817SOL    HW233351   4.674   0.823   2.900
10818SOL     OW33352   4.358   4.538   5.440
10818SOL    HW133353   4.319   4.491   5.520
10818SOL    HW233354   4.398   4.624   5.468
10819SOL     OW33355   6.687   4.889   6.277
10819SOL    HW133356   6.771   4.923   6.234
10819SOL    HW233357   6.628   4.966   6.301
10820SOL     OW33358   0.032   5.401   3.750
10820SOL    HW133359   0.006   5.357   3.664
10820SOL    HW233360   0.037   5.332   3.823
10821SOL     OW33361   5.040   0.123   3.000
10821SOL    HW133362   5.104   0.144   2.927
10821SOL    HW233363   4.957   0.082   2.962
10822SOL     OW33364   6.746   2.787   3.122
10822SOL    HW133365   6.840   2.802   3.151
10822SOL    HW233366   6.733   2.823   3.030
10823SOL     OW33367   1.626   0.375   1.733
10823SOL    HW133368   1.686   0.387   1.811
10823SOL    HW233369   1.654   0.436   1.659
10824SOL     OW33370   6.511   1.409   2.811
10824SOL    HW133371   6.544   1.452   2.894
10824SOL    HW233372   6.429   1.457   2.778
10825SOL     OW33373   2.528   1.518   6.357
10825SOL    HW133374   2.446   1.566   6.388
10825SOL    HW233375   2.502   1.434   6.309
10826SOL     OW33376   1.253   2.988   3.851
10826SOL    HW133377   1.317   2.979   3.775
10826SOL    HW233378   1.166   3.023   3.817
10827SOL     OW33379   7.015   3.002   3.983
10827SOL    HW133380   0.091   3.009   3.984
10827SOL    HW233381   6.977   3.066   3.916
10828SOL     OW33382   1.270   4.265   0.842
10828SOL    HW133383   1.235   4.351   0.805
10828SOL    HW233384   1.284   4.199   0.768
10829SOL     OW33385   4.058   2.538   0.199
10829SOL    HW133386   3.995   2.462   0.186
10829SOL    HW233387   4.024   2.618   0.151
10830SOL     OW33388   5.256   1.599   2.947
10830SOL    HW133389   5.253   1.567   3.042
10830SOL    HW233390   5.332   1.555   2.899
10831SOL     OW33391   2.837   6.119   2.985
10831SOL    HW133392   2.887   6.045   2.941
10831SOL    HW233393   2.744   6.088   3.007
10832SOL     OW33394   0.984   2.900   6.371
10832SOL    HW133395   1.056   2.954   6.416
10832SOL    HW233396   0.914   2.961   6.335
10833SOL     OW33397   0.753   0.613   2.170
10833SOL    HW133398   0.726   0.704   2.139
10833SOL    HW233399   0.847   0.594   2.142
10834SOL     OW33400   0.520   1.681   1.116
10834SOL    HW133401   0.504   1.632   1.031
10834SOL    HW233402   0.618   1.679   1.139
10835SOL     OW33403   5.577   2.447   0.577
10835SOL    HW133404   5.516   2.391   0.635
10835SOL    HW233405   5.533   2.463   0.489
10836SOL     OW33406   6.336   1.259   4.537
10836SOL    HW133407   6.269   1.185   4.538
10836SOL    HW233408   6.388   1.258   4.622
10837SOL     OW33409   6.356   5.527   1.190
10837SOL    HW133410   6.449   5.543   1.156
10837SOL    HW233411   6.313   5.455   1.135
10838SOL     OW33412   6.509   5.673   3.777
10838SOL    HW133413   6.606   5.693   3.793
10838SOL    HW233414   6.472   5.623   3.855
10839SOL     OW33415   4.291   3.148   1.805
10839SOL    HW133416   4.239   3.070   1.770
10839SOL    HW233417   4.382   3.118   1.832
10840SOL     OW33418   2.872   5.476   2.991
10840SOL    HW133419   2.804   5.450   2.923
10840SOL    HW233420   2.834   5.545   3.053
10841SOL     OW33421   6.369   5.278   5.718
10841SOL    HW133422   6.338   5.331   5.640
10841SOL    HW233423   6.366   5.334   5.801
10842SOL     OW33424   4.934   2.427   1.697
10842SOL    HW133425   4.887   2.509   1.662
10842SOL    HW233426   5.030   2.430   1.671
10843SOL     OW33427   0.796   1.586   1.748
10843SOL    HW133428   0.859   1.598   1.672
10843SOL    HW233429   0.836   1.625   1.831
10844SOL     OW33430   0.711   6.738   3.565
10844SOL    HW133431   0.809   6.722   3.550
10844SOL    HW233432   0.689   6.720   3.661
10845SOL     OW33433   3.149   6.671   5.430
10845SOL    HW133434   3.243   6.655   5.458
10845SOL    HW233435   3.109   6.585   5.396
10846SOL     OW33436   5.654   0.867   0.314
10846SOL    HW133437   5.688   0.949   0.360
10846SOL    HW233438   5.642   0.886   0.217
10847SOL     OW33439   3.740   2.861   6.471
10847SOL    HW133440   3.811   2.923   6.438
10847SOL    HW233441   3.697   2.816   6.392
10848SOL     OW33442   2.832   3.716   0.173
10848SOL    HW133443   2.828   3.653   0.095
10848SOL    HW233444   2.763   3.788   0.161
10849SOL     OW33445   2.008   4.864   3.996
10849SOL    HW133446   2.006   4.853   3.897
10849SOL    HW233447   1.991   4.776   4.040
10850SOL     OW33448   2.268   6.125   6.633
10850SOL    HW133449   2.310   6.060   6.570
10850SOL    HW233450   2.317   6.123   6.720
10851SOL     OW33451   1.974   3.482   0.149
10851SOL    HW133452   1.875   3.478   0.134
10851SOL    HW233453   1.994   3.548   0.221
10852SOL     OW33454   0.943   0.404   6.782
10852SOL    HW133455   0.957   0.421   6.684
10852SOL    HW233456   0.972   0.311   6.804
10853SOL     OW33457   1.881   2.204   5.386
10853SOL    HW133458   1.796   2.243   5.421
10853SOL    HW233459   1.958   2.260   5.416
10854SOL     OW33460   4.459   4.804   5.523
10854SOL    HW133461   4.529   4.872   5.500
10854SOL    HW233462   4.370   4.847   5.528
10855SOL     OW33463   4.132   0.440   1.065
10855SOL    HW133464   4.217   0.463   1.112
10855SOL    HW233465   4.061   0.505   1.093
10856SOL     OW33466   5.202   1.273   0.534
10856SOL    HW133467   5.180   1.186   0.578
10856SOL    HW233468   5.213   1.344   0.603
10857SOL     OW33469   6.576   2.155   3.440
10857SOL    HW133470   6.497   2.199   3.398
10857SOL    HW233471   6.660   2.192   3.400
10858SOL     OW33472   0.753   1.632   6.722
10858SOL    HW133473   0.852   1.645   6.711
10858SOL    HW233474   0.705   1.680   6.650
10859SOL     OW33475   1.123   4.231   4.377
10859SOL    HW133476   1.129   4.331   4.367
10859SOL    HW233477   1.190   4.188   4.317
10860SOL     OW33478   0.301   1.779   5.625
10860SOL    HW133479   0.334   1.687   5.606
10860SOL    HW233480   0.337   1.809   5.714
10861SOL     OW33481   3.703   3.458   3.355
10861SOL    HW133482   3.660   3.524   3.294
10861SOL    HW233483   3.690   3.366   3.319
10862SOL     OW33484   2.179   1.481   6.458
10862SOL    HW133485   2.254   1.415   6.456
10862SOL    HW233486   2.097   1.435   6.493
10863SOL     OW33487   3.903   0.726   3.922
10863SOL    HW133488   3.805   0.730   3.902
10863SOL    HW233489   3.918   0.670   4.003
10864SOL     OW33490   2.370   6.105   0.812
10864SOL    HW133491   2.349   6.032   0.747
10864SOL    HW233492   2.351   6.073   0.905
10865SOL     OW33493   0.071   1.362   1.900
10865SOL    HW133494   0.129   1.430   1.944
10865SOL    HW233495   7.006   1.402   1.878
10866SOL     OW33496   5.137   4.472   0.988
10866SOL    HW133497   5.101   4.432   0.904
10866SOL    HW233498   5.236   4.461   0.990
10867SOL     OW33499   3.586   4.126   6.849
10867SOL    HW133500   3.599   4.080   6.761
10867SOL    HW233501   3.672   4.167   6.879
10868SOL     OW33502   4.374   1.911   4.273
10868SOL    HW133503   4.402   1.856   4.194
10868SOL    HW233504   4.406   1.868   4.357
10869NA      NA33505   6.906   2.164   5.408
10870NA      NA33506   4.471   4.473   5.246
10871NA      NA33507   2.015   3.087   2.147
10872NA      NA33508   5.134   3.733   4.725
10873NA      NA33509   4.296   2.668   5.359
10874NA      NA33510   3.340   4.722   1.736
10875NA      NA33511   6.669   4.684   0.482
10876NA      NA33512   3.346   3.650   3.829
10877NA      NA33513   5.166   6.095   0.336
10878NA      NA33514   3.005   6.809   5.547
10879NA      NA33515   5.744   5.259   1.755
10880NA      NA33516   2.157   0.426   4.198
10881NA      NA33517   3.663   5.245   2.924
10882NA      NA33518   3.889   3.737   2.351
   7.02341   7.02341   7.02341
