Generated by trjconv : CNT in water t= 548.00000
33518
    1C        C    1   2.840   2.762   4.749
    1C        C    2   2.898   2.715   4.868
    1C        C    3   2.839   2.767   4.985
    1C        C    4   2.851   2.777   4.262
    1C        C    5   2.901   2.724   4.383
    1C        C    6   2.848   2.772   4.505
    1C        C    7   3.010   2.638   4.628
    1C        C    8   2.891   2.714   4.627
    1C        C    9   3.076   2.601   4.747
    1C        C   10   3.010   2.630   4.868
    1C        C   11   3.185   2.494   4.980
    1C        C   12   3.059   2.554   4.976
    1C        C   13   2.848   2.771   3.775
    1C        C   14   2.897   2.717   3.896
    1C        C   15   2.847   2.770   4.017
    1C        C   16   3.012   2.638   4.140
    1C        C   17   2.899   2.724   4.140
    1C        C   18   3.075   2.604   4.262
    1C        C   19   3.014   2.639   4.385
    1C        C   20   3.208   2.557   4.506
    1C        C   21   3.073   2.601   4.507
    1C        C   22   3.277   2.537   4.627
    1C        C   23   3.207   2.546   4.750
    1C        C   24   3.416   2.485   4.866
    1C        C   25   3.274   2.504   4.868
    1C        C   26   3.493   2.483   4.983
    1C        C   27   2.843   2.760   3.281
    1C        C   28   2.901   2.721   3.405
    1C        C   29   2.853   2.772   3.528
    1C        C   30   3.011   2.635   3.651
    1C        C   31   2.902   2.725   3.652
    1C        C   32   3.073   2.596   3.772
    1C        C   33   3.011   2.634   3.893
    1C        C   34   3.200   2.546   4.018
    1C        C   35   3.069   2.599   4.017
    1C        C   36   3.271   2.530   4.140
    1C        C   37   3.207   2.555   4.264
    1C        C   38   3.416   2.511   4.382
    1C        C   39   3.278   2.539   4.385
    1C        C   40   3.485   2.502   4.505
    1C        C   41   3.415   2.504   4.627
    1C        C   42   3.632   2.488   4.748
    1C        C   43   3.490   2.481   4.745
    1C        C   44   3.706   2.498   4.867
    1C        C   45   3.632   2.487   4.986
    1C        C   46   2.833   2.747   2.793
    1C        C   47   2.893   2.709   2.915
    1C        C   48   2.840   2.755   3.038
    1C        C   49   3.010   2.629   3.161
    1C        C   50   2.895   2.710   3.160
    1C        C   51   3.073   2.598   3.284
    1C        C   52   3.013   2.636   3.407
    1C        C   53   3.203   2.545   3.529
    1C        C   54   3.073   2.600   3.529
    1C        C   55   3.270   2.522   3.652
    1C        C   56   3.203   2.541   3.775
    1C        C   57   3.410   2.510   3.894
    1C        C   58   3.269   2.521   3.898
    1C        C   59   3.483   2.506   4.015
    1C        C   60   3.411   2.510   4.137
    1C        C   61   3.625   2.506   4.260
    1C        C   62   3.484   2.507   4.258
    1C        C   63   3.695   2.510   4.382
    1C        C   64   3.626   2.503   4.506
    1C        C   65   3.836   2.545   4.622
    1C        C   66   3.701   2.504   4.626
    1C        C   67   3.908   2.561   4.743
    1C        C   68   3.843   2.532   4.865
    1C        C   69   4.056   2.587   4.977
    1C        C   70   3.929   2.528   4.976
    1C        C   71   2.826   2.737   2.308
    1C        C   72   2.879   2.688   2.430
    1C        C   73   2.826   2.739   2.550
    1C        C   74   3.003   2.620   2.673
    1C        C   75   2.883   2.695   2.672
    1C        C   76   3.069   2.591   2.794
    1C        C   77   3.009   2.629   2.917
    1C        C   78   3.203   2.544   3.037
    1C        C   79   3.070   2.592   3.038
    1C        C   80   3.271   2.530   3.160
    1C        C   81   3.206   2.551   3.284
    1C        C   82   3.411   2.503   3.402
    1C        C   83   3.271   2.527   3.407
    1C        C   84   3.479   2.497   3.526
    1C        C   85   3.410   2.502   3.649
    1C        C   86   3.621   2.510   3.770
    1C        C   87   3.480   2.503   3.772
    1C        C   88   3.691   2.517   3.892
    1C        C   89   3.624   2.511   4.016
    1C        C   90   3.831   2.554   4.137
    1C        C   91   3.696   2.515   4.138
    1C        C   92   3.900   2.574   4.259
    1C        C   93   3.832   2.546   4.379
    1C        C   94   4.026   2.636   4.498
    1C        C   95   3.901   2.571   4.500
    1C        C   96   4.095   2.669   4.617
    1C        C   97   4.034   2.627   4.738
    1C        C   98   4.197   2.761   4.863
    1C        C   99   4.100   2.656   4.860
    1C        C  100   4.218   2.839   4.977
    1C        C  101   2.823   2.730   2.069
    1C        C  102   2.992   2.595   2.186
    1C        C  103   2.876   2.679   2.188
    1C        C  104   3.060   2.573   2.309
    1C        C  105   3.000   2.615   2.430
    1C        C  106   3.197   2.531   2.550
    1C        C  107   3.065   2.582   2.551
    1C        C  108   3.265   2.510   2.672
    1C        C  109   3.200   2.538   2.794
    1C        C  110   3.411   2.502   2.915
    1C        C  111   3.270   2.520   2.915
    1C        C  112   3.481   2.498   3.037
    1C        C  113   3.409   2.500   3.159
    1C        C  114   3.623   2.504   3.279
    1C        C  115   3.482   2.497   3.280
    1C        C  116   3.690   2.519   3.402
    1C        C  117   3.620   2.510   3.525
    1C        C  118   3.828   2.550   3.647
    1C        C  119   3.690   2.519   3.647
    1C        C  120   3.893   2.582   3.769
    1C        C  121   3.826   2.559   3.891
    1C        C  122   4.023   2.638   4.014
    1C        C  123   3.895   2.579   4.013
    1C        C  124   4.088   2.673   4.134
    1C        C  125   4.026   2.639   4.256
    1C        C  126   4.197   2.766   4.379
    1C        C  127   4.086   2.678   4.377
    1C        C  128   4.250   2.816   4.499
    1C        C  129   4.197   2.766   4.620
    1C        C  130   4.329   2.932   4.739
    1C        C  131   4.250   2.814   4.742
    1C        C  132   4.355   3.006   4.857
    1C        C  133   4.291   2.957   4.972
    1C        C  134   3.167   2.463   2.088
    1C        C  135   3.033   2.502   2.085
    1C        C  136   3.260   2.482   2.191
    1C        C  137   3.195   2.527   2.308
    1C        C  138   3.405   2.487   2.426
    1C        C  139   3.265   2.505   2.429
    1C        C  140   3.478   2.491   2.547
    1C        C  141   3.405   2.493   2.669
    1C        C  142   3.618   2.500   2.791
    1C        C  143   3.477   2.495   2.790
    1C        C  144   3.690   2.510   2.912
    1C        C  145   3.622   2.500   3.036
    1C        C  146   3.831   2.544   3.157
    1C        C  147   3.694   2.508   3.157
    1C        C  148   3.896   2.570   3.280
    1C        C  149   3.827   2.553   3.402
    1C        C  150   4.022   2.634   3.526
    1C        C  151   3.895   2.572   3.525
    1C        C  152   4.083   2.675   3.646
    1C        C  153   4.022   2.640   3.769
    1C        C  154   4.196   2.761   3.891
    1C        C  155   4.083   2.675   3.891
    1C        C  156   4.248   2.810   4.013
    1C        C  157   4.203   2.755   4.135
    1C        C  158   4.342   2.918   4.254
    1C        C  159   4.253   2.808   4.256
    1C        C  160   4.377   2.984   4.374
    1C        C  161   4.333   2.931   4.498
    1C        C  162   4.440   3.116   4.615
    1C        C  163   4.372   2.992   4.619
    1C        C  164   4.468   3.185   4.735
    1C        C  165   4.435   3.121   4.857
    1C        C  166   4.516   3.319   4.972
    1C        C  167   4.479   3.185   4.974
    1C        C  168   3.477   2.439   2.073
    1C        C  169   3.399   2.458   2.188
    1C        C  170   3.617   2.478   2.304
    1C        C  171   3.476   2.469   2.306
    1C        C  172   3.690   2.491   2.424
    1C        C  173   3.619   2.492   2.546
    1C        C  174   3.823   2.550   2.667
    1C        C  175   3.688   2.509   2.668
    1C        C  176   3.890   2.569   2.790
    1C        C  177   3.826   2.547   2.915
    1C        C  178   4.024   2.630   3.034
    1C        C  179   3.895   2.574   3.035
    1C        C  180   4.087   2.665   3.156
    1C        C  181   4.023   2.632   3.278
    1C        C  182   4.195   2.751   3.401
    1C        C  183   4.082   2.665   3.402
    1C        C  184   4.245   2.805   3.521
    1C        C  185   4.195   2.760   3.646
    1C        C  186   4.336   2.917   3.767
    1C        C  187   4.248   2.807   3.768
    1C        C  188   4.380   2.973   3.889
    1C        C  189   4.338   2.919   4.012
    1C        C  190   4.446   3.104   4.130
    1C        C  191   4.381   2.979   4.133
    1C        C  192   4.471   3.175   4.249
    1C        C  193   4.442   3.109   4.371
    1C        C  194   4.503   3.316   4.493
    1C        C  195   4.463   3.180   4.491
    1C        C  196   4.525   3.389   4.611
    1C        C  197   4.510   3.321   4.734
    1C        C  198   4.551   3.535   4.850
    1C        C  199   4.530   3.394   4.854
    1C        C  200   4.583   3.620   4.961
    1C        C  201   3.617   2.423   2.070
    1C        C  202   3.828   2.511   2.183
    1C        C  203   3.689   2.475   2.181
    1C        C  204   3.899   2.541   2.303
    1C        C  205   3.827   2.526   2.423
    1C        C  206   4.018   2.624   2.544
    1C        C  207   3.891   2.562   2.544
    1C        C  208   4.081   2.660   2.666
    1C        C  209   4.017   2.631   2.789
    1C        C  210   4.194   2.750   2.909
    1C        C  211   4.080   2.667   2.910
    1C        C  212   4.249   2.796   3.031
    1C        C  213   4.199   2.751   3.155
    1C        C  214   4.334   2.910   3.273
    1C        C  215   4.249   2.798   3.279
    1C        C  216   4.372   2.970   3.395
    1C        C  217   4.336   2.914   3.520
    1C        C  218   4.436   3.100   3.642
    1C        C  219   4.373   2.974   3.642
    1C        C  220   4.466   3.167   3.763
    1C        C  221   4.443   3.100   3.885
    1C        C  222   4.501   3.306   4.004
    1C        C  223   4.467   3.168   4.006
    1C        C  224   4.512   3.380   4.124
    1C        C  225   4.502   3.313   4.247
    1C        C  226   4.518   3.524   4.365
    1C        C  227   4.513   3.383   4.369
    1C        C  228   4.522   3.601   4.484
    1C        C  229   4.532   3.530   4.606
    1C        C  230   4.504   3.742   4.728
    1C        C  231   4.539   3.604   4.726
    1C        C  232   4.491   3.818   4.845
    1C        C  233   4.544   3.754   4.959
    1C        C  234   4.017   2.611   2.064
    1C        C  235   3.897   2.541   2.065
    1C        C  236   4.085   2.649   2.180
    1C        C  237   4.023   2.610   2.301
    1C        C  238   4.197   2.737   2.422
    1C        C  239   4.082   2.652   2.422
    1C        C  240   4.255   2.781   2.543
    1C        C  241   4.196   2.742   2.665
    1C        C  242   4.338   2.903   2.785
    1C        C  243   4.246   2.796   2.786
    1C        C  244   4.383   2.959   2.906
    1C        C  245   4.338   2.906   3.029
    1C        C  246   4.444   3.092   3.151
    1C        C  247   4.374   2.968   3.151
    1C        C  248   4.463   3.160   3.273
    1C        C  249   4.430   3.098   3.396
    1C        C  250   4.497   3.300   3.515
    1C        C  251   4.459   3.164   3.518
    1C        C  252   4.509   3.374   3.635
    1C        C  253   4.496   3.305   3.757
    1C        C  254   4.518   3.514   3.878
    1C        C  255   4.510   3.373   3.880
    1C        C  256   4.517   3.589   3.998
    1C        C  257   4.521   3.521   4.122
    1C        C  258   4.491   3.734   4.241
    1C        C  259   4.513   3.594   4.243
    1C        C  260   4.470   3.805   4.362
    1C        C  261   4.487   3.737   4.485
    1C        C  262   4.422   3.939   4.605
    1C        C  263   4.473   3.808   4.607
    1C        C  264   4.392   4.011   4.723
    1C        C  265   4.425   3.943   4.843
    1C        C  266   4.320   4.132   4.959
    1C        C  267   4.399   4.017   4.958
    1C        C  268   4.265   2.775   2.065
    1C        C  269   4.200   2.732   2.181
    1C        C  270   4.353   2.884   2.299
    1C        C  271   4.258   2.778   2.301
    1C        C  272   4.380   2.952   2.420
    1C        C  273   4.344   2.890   2.542
    1C        C  274   4.451   3.079   2.662
    1C        C  275   4.383   2.956   2.661
    1C        C  276   4.480   3.147   2.782
    1C        C  277   4.448   3.085   2.905
    1C        C  278   4.509   3.289   3.028
    1C        C  279   4.471   3.153   3.026
    1C        C  280   4.519   3.363   3.148
    1C        C  281   4.502   3.295   3.271
    1C        C  282   4.515   3.509   3.388
    1C        C  283   4.510   3.368   3.392
    1C        C  284   4.517   3.583   3.509
    1C        C  285   4.518   3.515   3.633
    1C        C  286   4.491   3.724   3.751
    1C        C  287   4.513   3.585   3.756
    1C        C  288   4.468   3.790   3.873
    1C        C  289   4.489   3.727   3.998
    1C        C  290   4.423   3.933   4.117
    1C        C  291   4.472   3.800   4.118
    1C        C  292   4.398   4.001   4.238
    1C        C  293   4.425   3.939   4.362
    1C        C  294   4.323   4.127   4.480
    1C        C  295   4.391   4.003   4.483
    1C        C  296   4.282   4.192   4.599
    1C        C  297   4.324   4.136   4.721
    1C        C  298   4.198   4.314   4.841
    1C        C  299   4.277   4.195   4.842
    1C        C  300   4.169   4.403   4.950
    1C        C  301   4.353   2.883   2.063
    1C        C  302   4.471   3.066   2.177
    1C        C  303   4.406   2.939   2.180
    1C        C  304   4.479   3.142   2.298
    1C        C  305   4.448   3.076   2.418
    1C        C  306   4.508   3.282   2.537
    1C        C  307   4.475   3.144   2.539
    1C        C  308   4.518   3.353   2.658
    1C        C  309   4.512   3.285   2.781
    1C        C  310   4.523   3.496   2.899
    1C        C  311   4.519   3.355   2.904
    1C        C  312   4.516   3.572   3.019
    1C        C  313   4.517   3.504   3.143
    1C        C  314   4.484   3.715   3.263
    1C        C  315   4.508   3.576   3.264
    1C        C  316   4.476   3.788   3.384
    1C        C  317   4.500   3.723   3.508
    1C        C  318   4.424   3.924   3.628
    1C        C  319   4.479   3.794   3.628
    1C        C  320   4.392   3.988   3.750
    1C        C  321   4.421   3.923   3.872
    1C        C  322   4.320   4.114   3.992
    1C        C  323   4.391   3.992   3.992
    1C        C  324   4.279   4.176   4.112
    1C        C  325   4.324   4.121   4.234
    1C        C  326   4.189   4.284   4.353
    1C        C  327   4.287   4.183   4.356
    1C        C  328   4.133   4.337   4.472
    1C        C  329   4.191   4.300   4.595
    1C        C  330   4.030   4.441   4.716
    1C        C  331   4.143   4.354   4.716
    1C        C  332   3.972   4.498   4.831
    1C        C  333   4.053   4.482   4.944
    1C        C  334   4.559   3.263   2.065
    1C        C  335   4.536   3.125   2.064
    1C        C  336   4.538   3.349   2.174
    1C        C  337   4.518   3.278   2.295
    1C        C  338   4.524   3.492   2.411
    1C        C  339   4.529   3.351   2.415
    1C        C  340   4.518   3.565   2.532
    1C        C  341   4.521   3.495   2.655
    1C        C  342   4.489   3.704   2.774
    1C        C  343   4.518   3.566   2.777
    1C        C  344   4.472   3.777   2.894
    1C        C  345   4.490   3.711   3.017
    1C        C  346   4.421   3.913   3.138
    1C        C  347   4.463   3.778   3.139
    1C        C  348   4.392   3.979   3.259
    1C        C  349   4.421   3.918   3.383
    1C        C  350   4.318   4.104   3.501
    1C        C  351   4.388   3.982   3.504
    1C        C  352   4.274   4.162   3.622
    1C        C  353   4.315   4.106   3.745
    1C        C  354   4.175   4.263   3.867
    1C        C  355   4.274   4.162   3.867
    1C        C  356   4.123   4.315   3.987
    1C        C  357   4.174   4.271   4.111
    1C        C  358   4.012   4.406   4.231
    1C        C  359   4.128   4.326   4.233
    1C        C  360   3.951   4.447   4.352
    1C        C  361   4.017   4.417   4.473
    1C        C  362   3.830   4.513   4.595
    1C        C  363   3.962   4.464   4.595
    1C        C  364   3.761   4.542   4.715
    1C        C  365   3.837   4.541   4.834
    1C        C  366   3.627   4.589   4.952
    1C        C  367   3.766   4.575   4.950
    1C        C  368   4.514   3.565   2.053
    1C        C  369   4.527   3.489   2.171
    1C        C  370   4.503   3.705   2.286
    1C        C  371   4.521   3.565   2.290
    1C        C  372   4.482   3.775   2.407
    1C        C  373   4.499   3.705   2.528
    1C        C  374   4.423   3.903   2.649
    1C        C  375   4.474   3.771   2.650
    1C        C  376   4.390   3.970   2.769
    1C        C  377   4.424   3.910   2.891
    1C        C  378   4.321   4.095   3.010
    1C        C  379   4.396   3.975   3.013
    1C        C  380   4.274   4.153   3.130
    1C        C  381   4.312   4.095   3.253
    1C        C  382   4.174   4.255   3.374
    1C        C  383   4.273   4.154   3.376
    1C        C  384   4.121   4.304   3.495
    1C        C  385   4.176   4.264   3.619
    1C        C  386   4.010   4.390   3.741
    1C        C  387   4.127   4.311   3.743
    1C        C  388   3.947   4.429   3.861
    1C        C  389   4.008   4.397   3.985
    1C        C  390   3.818   4.489   4.108
    1C        C  391   3.949   4.434   4.107
    1C        C  392   3.752   4.517   4.230
    1C        C  393   3.822   4.504   4.352
    1C        C  394   3.617   4.546   4.473
    1C        C  395   3.756   4.523   4.475
    1C        C  396   3.547   4.561   4.595
    1C        C  397   3.621   4.564   4.716
    1C        C  398   3.411   4.545   4.840
    1C        C  399   3.549   4.574   4.837
    1C        C  400   3.339   4.515   4.956
    1C        C  401   4.510   3.704   2.052
    1C        C  402   4.458   3.918   2.166
    1C        C  403   4.492   3.781   2.168
    1C        C  404   4.413   3.978   2.285
    1C        C  405   4.432   3.907   2.406
    1C        C  406   4.330   4.095   2.527
    1C        C  407   4.397   3.970   2.527
    1C        C  408   4.280   4.153   2.645
    1C        C  409   4.318   4.091   2.767
    1C        C  410   4.175   4.250   2.887
    1C        C  411   4.274   4.149   2.888
    1C        C  412   4.121   4.295   3.009
    1C        C  413   4.175   4.253   3.133
    1C        C  414   4.006   4.386   3.252
    1C        C  415   4.121   4.304   3.253
    1C        C  416   3.945   4.420   3.374
    1C        C  417   4.004   4.384   3.498
    1C        C  418   3.815   4.480   3.617
    1C        C  419   3.944   4.422   3.620
    1C        C  420   3.750   4.502   3.741
    1C        C  421   3.816   4.481   3.864
    1C        C  422   3.610   4.527   3.986
    1C        C  423   3.750   4.508   3.986
    1C        C  424   3.541   4.536   4.109
    1C        C  425   3.612   4.535   4.231
    1C        C  426   3.401   4.545   4.356
    1C        C  427   3.542   4.549   4.353
    1C        C  428   3.333   4.540   4.479
    1C        C  429   3.406   4.555   4.599
    1C        C  430   3.195   4.517   4.722
    1C        C  431   3.335   4.542   4.720
    1C        C  432   3.121   4.501   4.842
    1C        C  433   3.201   4.498   4.956
    1C        C  434   4.382   4.122   2.050
    1C        C  435   4.447   3.998   2.052
    1C        C  436   4.303   4.162   2.163
    1C        C  437   4.336   4.098   2.285
    1C        C  438   4.187   4.253   2.399
    1C        C  439   4.288   4.154   2.406
    1C        C  440   4.127   4.297   2.518
    1C        C  441   4.180   4.253   2.642
    1C        C  442   4.008   4.377   2.763
    1C        C  443   4.124   4.297   2.764
    1C        C  444   3.943   4.410   2.885
    1C        C  445   4.005   4.376   3.007
    1C        C  446   3.813   4.467   3.128
    1C        C  447   3.944   4.415   3.128
    1C        C  448   3.746   4.489   3.251
    1C        C  449   3.812   4.468   3.374
    1C        C  450   3.608   4.527   3.498
    1C        C  451   3.745   4.494   3.495
    1C        C  452   3.540   4.541   3.621
    1C        C  453   3.612   4.532   3.742
    1C        C  454   3.399   4.537   3.862
    1C        C  455   3.540   4.534   3.863
    1C        C  456   3.331   4.534   3.986
    1C        C  457   3.400   4.539   4.109
    1C        C  458   3.194   4.502   4.236
    1C        C  459   3.332   4.535   4.233
    1C        C  460   3.127   4.486   4.359
    1C        C  461   3.195   4.510   4.481
    1C        C  462   2.995   4.436   4.602
    1C        C  463   3.125   4.489   4.602
    1C        C  464   2.925   4.406   4.722
    1C        C  465   2.987   4.449   4.843
    1C        C  466   2.804   4.336   4.962
    1C        C  467   2.905   4.434   4.958
    1C        C  468   4.125   4.288   2.040
    1C        C  469   4.190   4.249   2.158
    1C        C  470   4.006   4.366   2.277
    1C        C  471   4.131   4.298   2.278
    1C        C  472   3.940   4.397   2.398
    1C        C  473   4.006   4.370   2.520
    1C        C  474   3.813   4.461   2.644
    1C        C  475   3.944   4.407   2.641
    1C        C  476   3.745   4.487   2.765
    1C        C  477   3.814   4.467   2.887
    1C        C  478   3.604   4.516   3.007
    1C        C  479   3.742   4.487   3.008
    1C        C  480   3.537   4.531   3.131
    1C        C  481   3.608   4.520   3.252
    1C        C  482   3.397   4.526   3.375
    1C        C  483   3.538   4.528   3.375
    1C        C  484   3.328   4.525   3.498
    1C        C  485   3.399   4.539   3.619
    1C        C  486   3.189   4.504   3.744
    1C        C  487   3.327   4.532   3.741
    1C        C  488   3.127   4.476   3.868
    1C        C  489   3.195   4.498   3.990
    1C        C  490   3.003   4.415   4.116
    1C        C  491   3.127   4.481   4.113
    1C        C  492   2.939   4.387   4.239
    1C        C  493   2.997   4.432   4.360
    1C        C  494   2.826   4.305   4.484
    1C        C  495   2.934   4.396   4.481
    1C        C  496   2.771   4.258   4.606
    1C        C  497   2.814   4.317   4.726
    1C        C  498   2.664   4.166   4.844
    1C        C  499   2.752   4.277   4.846
    1C        C  500   2.594   4.117   4.955
    1C        C  501   4.004   4.356   2.039
    1C        C  502   3.813   4.459   2.154
    1C        C  503   3.940   4.399   2.156
    1C        C  504   3.743   4.473   2.276
    1C        C  505   3.808   4.448   2.399
    1C        C  506   3.606   4.508   2.518
    1C        C  507   3.743   4.473   2.522
    1C        C  508   3.537   4.516   2.641
    1C        C  509   3.605   4.505   2.764
    1C        C  510   3.392   4.520   2.885
    1C        C  511   3.533   4.519   2.885
    1C        C  512   3.322   4.518   3.008
    1C        C  513   3.396   4.527   3.128
    1C        C  514   3.189   4.491   3.256
    1C        C  515   3.328   4.517   3.252
    1C        C  516   3.120   4.471   3.377
    1C        C  517   3.190   4.493   3.498
    1C        C  518   2.998   4.413   3.625
    1C        C  519   3.123   4.478   3.622
    1C        C  520   2.943   4.372   3.749
    1C        C  521   3.004   4.406   3.871
    1C        C  522   2.835   4.282   3.996
    1C        C  523   2.946   4.370   3.995
    1C        C  524   2.787   4.237   4.121
    1C        C  525   2.831   4.296   4.242
    1C        C  526   2.691   4.137   4.365
    1C        C  527   2.780   4.246   4.364
    1C        C  528   2.648   4.079   4.487
    1C        C  529   2.686   4.145   4.606
    1C        C  530   2.581   3.961   4.730
    1C        C  531   2.642   4.089   4.728
    1C        C  532   2.542   3.901   4.853
    1C        C  533   2.528   3.994   4.961
    1C        C  534   3.617   4.558   2.040
    1C        C  535   3.748   4.509   2.041
    1C        C  536   3.535   4.540   2.156
    1C        C  537   3.605   4.508   2.276
    1C        C  538   3.392   4.514   2.399
    1C        C  539   3.533   4.510   2.397
    1C        C  540   3.322   4.509   2.521
    1C        C  541   3.395   4.512   2.642
    1C        C  542   3.184   4.484   2.765
    1C        C  543   3.323   4.507   2.763
    1C        C  544   3.118   4.464   2.888
    1C        C  545   3.185   4.486   3.011
    1C        C  546   2.995   4.401   3.136
    1C        C  547   3.120   4.466   3.135
    1C        C  548   2.933   4.369   3.259
    1C        C  549   2.994   4.408   3.380
    1C        C  550   2.827   4.283   3.506
    1C        C  551   2.937   4.372   3.505
    1C        C  552   2.780   4.234   3.630
    1C        C  553   2.831   4.285   3.751
    1C        C  554   2.694   4.126   3.876
    1C        C  555   2.781   4.237   3.874
    1C        C  556   2.654   4.069   4.000
    1C        C  557   2.695   4.130   4.120
    1C        C  558   2.600   3.944   4.245
    1C        C  559   2.656   4.074   4.244
    1C        C  560   2.571   3.879   4.367
    1C        C  561   2.589   3.951   4.488
    1C        C  562   2.536   3.748   4.615
    1C        C  563   2.567   3.885   4.611
    1C        C  564   2.520   3.681   4.738
    1C        C  565   2.522   3.759   4.857
    1C        C  566   2.531   3.545   4.980
    1C        C  567   2.526   3.684   4.976
    1C        C  568   3.328   4.475   2.041
    1C        C  569   3.395   4.519   2.156
    1C        C  570   3.183   4.475   2.279
    1C        C  571   3.321   4.512   2.277
    1C        C  572   3.116   4.454   2.401
    1C        C  573   3.183   4.482   2.522
    1C        C  574   2.985   4.408   2.646
    1C        C  575   3.113   4.467   2.643
    1C        C  576   2.928   4.366   2.769
    1C        C  577   2.990   4.405   2.890
    1C        C  578   2.825   4.276   3.017
    1C        C  579   2.934   4.366   3.013
    1C        C  580   2.774   4.227   3.139
    1C        C  581   2.824   4.279   3.260
    1C        C  582   2.693   4.118   3.386
    1C        C  583   2.777   4.231   3.385
    1C        C  584   2.656   4.060   3.510
    1C        C  585   2.693   4.123   3.631
    1C        C  586   2.592   3.939   3.753
    1C        C  587   2.655   4.065   3.755
    1C        C  588   2.568   3.876   3.877
    1C        C  589   2.597   3.940   4.000
    1C        C  590   2.540   3.739   4.127
    1C        C  591   2.572   3.877   4.124
    1C        C  592   2.526   3.672   4.250
    1C        C  593   2.534   3.743   4.372
    1C        C  594   2.511   3.534   4.498
    1C        C  595   2.521   3.675   4.495
    1C        C  596   2.517   3.463   4.620
    1C        C  597   2.520   3.539   4.739
    1C        C  598   2.537   3.330   4.861
    1C        C  599   2.528   3.471   4.862
    1C        C  600   2.536   3.247   4.974
    1C        C  601   3.195   4.436   2.042
    1C        C  602   2.982   4.396   2.159
    1C        C  603   3.117   4.442   2.158
    1C        C  604   2.917   4.368   2.283
    1C        C  605   2.987   4.396   2.403
    1C        C  606   2.817   4.275   2.531
    1C        C  607   2.925   4.366   2.526
    1C        C  608   2.774   4.218   2.653
    1C        C  609   2.823   4.272   2.774
    1C        C  610   2.683   4.114   2.897
    1C        C  611   2.770   4.225   2.897
    1C        C  612   2.648   4.056   3.020
    1C        C  613   2.687   4.115   3.142
    1C        C  614   2.590   3.929   3.265
    1C        C  615   2.651   4.057   3.266
    1C        C  616   2.568   3.866   3.389
    1C        C  617   2.596   3.932   3.510
    1C        C  618   2.529   3.732   3.637
    1C        C  619   2.566   3.869   3.633
    1C        C  620   2.519   3.667   3.762
    1C        C  621   2.532   3.740   3.883
    1C        C  622   2.512   3.529   4.007
    1C        C  623   2.526   3.669   4.005
    1C        C  624   2.518   3.461   4.131
    1C        C  625   2.517   3.531   4.253
    1C        C  626   2.542   3.322   4.379
    1C        C  627   2.520   3.462   4.377
    1C        C  628   2.557   3.252   4.501
    1C        C  629   2.540   3.323   4.622
    1C        C  630   2.601   3.119   4.746
    1C        C  631   2.557   3.254   4.744
    1C        C  632   2.617   3.046   4.866
    1C        C  633   2.560   3.109   4.982
    1C        C  634   2.779   4.306   2.055
    1C        C  635   2.892   4.389   2.048
    1C        C  636   2.744   4.235   2.170
    1C        C  637   2.806   4.280   2.289
    1C        C  638   2.684   4.105   2.410
    1C        C  639   2.765   4.221   2.411
    1C        C  640   2.641   4.049   2.533
    1C        C  641   2.685   4.109   2.653
    1C        C  642   2.593   3.920   2.776
    1C        C  643   2.650   4.049   2.776
    1C        C  644   2.565   3.856   2.899
    1C        C  645   2.588   3.928   3.019
    1C        C  646   2.527   3.727   3.148
    1C        C  647   2.565   3.863   3.142
    1C        C  648   2.517   3.658   3.271
    1C        C  649   2.534   3.729   3.392
    1C        C  650   2.520   3.520   3.517
    1C        C  651   2.521   3.661   3.516
    1C        C  652   2.522   3.453   3.642
    1C        C  653   2.517   3.526   3.763
    1C        C  654   2.539   3.317   3.891
    1C        C  655   2.516   3.456   3.886
    1C        C  656   2.557   3.250   4.014
    1C        C  657   2.545   3.322   4.135
    1C        C  658   2.611   3.122   4.257
    1C        C  659   2.561   3.254   4.257
    1C        C  660   2.642   3.059   4.380
    1C        C  661   2.605   3.119   4.503
    1C        C  662   2.712   2.937   4.628
    1C        C  663   2.632   3.053   4.625
    1C        C  664   2.752   2.874   4.748
    1C        C  665   2.697   2.927   4.868
    1C        C  666   2.740   2.864   4.986
    1C        C  667   2.683   4.025   2.057
    1C        C  668   2.686   4.106   2.171
    1C        C  669   2.587   3.913   2.291
    1C        C  670   2.645   4.043   2.290
    1C        C  671   2.561   3.849   2.414
    1C        C  672   2.583   3.920   2.534
    1C        C  673   2.520   3.717   2.659
    1C        C  674   2.561   3.852   2.656
    1C        C  675   2.513   3.649   2.782
    1C        C  676   2.529   3.720   2.903
    1C        C  677   2.511   3.513   3.029
    1C        C  678   2.516   3.654   3.028
    1C        C  679   2.515   3.444   3.153
    1C        C  680   2.511   3.517   3.274
    1C        C  681   2.543   3.308   3.401
    1C        C  682   2.518   3.447   3.396
    1C        C  683   2.560   3.243   3.526
    1C        C  684   2.542   3.314   3.647
    1C        C  685   2.605   3.114   3.771
    1C        C  686   2.553   3.246   3.770
    1C        C  687   2.638   3.052   3.894
    1C        C  688   2.604   3.116   4.015
    1C        C  689   2.712   2.933   4.140
    1C        C  690   2.638   3.053   4.137
    1C        C  691   2.753   2.878   4.263
    1C        C  692   2.713   2.937   4.386
    1C        C  693   2.758   2.880   4.507
    1C        C  694   2.632   3.894   2.060
    1C        C  695   2.532   3.701   2.173
    1C        C  696   2.575   3.836   2.173
    1C        C  697   2.512   3.637   2.297
    1C        C  698   2.524   3.712   2.416
    1C        C  699   2.488   3.505   2.541
    1C        C  700   2.502   3.646   2.538
    1C        C  701   2.500   3.437   2.664
    1C        C  702   2.502   3.508   2.787
    1C        C  703   2.531   3.299   2.912
    1C        C  704   2.508   3.438   2.909
    1C        C  705   2.550   3.232   3.035
    1C        C  706   2.540   3.305   3.156
    1C        C  707   2.605   3.105   3.279
    1C        C  708   2.561   3.239   3.279
    1C        C  709   2.633   3.043   3.403
    1C        C  710   2.603   3.108   3.524
    1C        C  711   2.710   2.930   3.649
    1C        C  712   2.634   3.049   3.649
    1C        C  713   2.752   2.874   3.772
    1C        C  714   2.717   2.935   3.894
    1C        C  715   2.757   2.879   4.017
    1C        C  716   2.456   3.495   2.060
    1C        C  717   2.497   3.629   2.058
    1C        C  718   2.462   3.420   2.182
    1C        C  719   2.481   3.499   2.299
    1C        C  720   2.517   3.292   2.425
    1C        C  721   2.484   3.429   2.422
    1C        C  722   2.543   3.225   2.547
    1C        C  723   2.526   3.298   2.667
    1C        C  724   2.595   3.098   2.790
    1C        C  725   2.547   3.231   2.789
    1C        C  726   2.625   3.035   2.913
    1C        C  727   2.601   3.101   3.035
    1C        C  728   2.708   2.919   3.157
    1C        C  729   2.635   3.039   3.158
    1C        C  730   2.751   2.867   3.282
    1C        C  731   2.710   2.924   3.404
    1C        C  732   2.755   2.874   3.528
    1C        C  733   2.489   3.198   2.072
    1C        C  734   2.493   3.281   2.185
    1C        C  735   2.586   3.086   2.305
    1C        C  736   2.531   3.217   2.306
    1C        C  737   2.618   3.023   2.427
    1C        C  738   2.594   3.093   2.547
    1C        C  739   2.701   2.911   2.669
    1C        C  740   2.625   3.030   2.670
    1C        C  741   2.741   2.854   2.792
    1C        C  742   2.698   2.914   2.913
    1C        C  743   2.746   2.860   3.034
    1C        C  744   2.545   3.070   2.072
    1C        C  745   2.687   2.899   2.183
    1C        C  746   2.607   3.015   2.185
    1C        C  747   2.729   2.841   2.304
    1C        C  748   2.687   2.900   2.426
    1C        C  749   2.737   2.849   2.548
    1C        C  750   2.736   2.838   2.066
    1C        C  751   3.671   2.300   2.007
    1C        O  752   3.658   2.181   2.045
    1C        O  753   3.705   2.292   1.872
    1C        C  754   4.632   3.041   1.988
    1C        O  755   4.632   3.051   1.862
    1C        O  756   4.761   3.011   2.030
    1C        C  757   4.448   4.219   1.959
    1C        O  758   4.551   4.280   1.996
    1C        O  759   4.386   4.280   1.849
    1C        C  760   3.583   4.666   1.944
    1C        O  761   3.671   4.752   1.918
    1C        O  762   3.512   4.644   1.825
    1C        C  763   2.900   4.474   1.927
    1C        O  764   2.916   4.419   1.815
    1C        O  765   2.888   4.613   1.937
    1C        C  766   2.364   3.448   1.954
    1C        O  767   2.387   3.438   1.830
    1C        O  768   2.226   3.463   1.968
    1C        C  769   4.692   3.606   5.061
    1C        O  770   4.679   3.581   5.183
    1C        O  771   4.829   3.593   5.032
    1C        C  772   4.280   4.464   5.026
    1C        O  773   4.293   4.432   5.147
    1C        O  774   4.376   4.546   4.965
    1C        C  775   4.160   2.512   5.051
    1C        O  776   4.139   2.391   5.078
    1C        O  777   4.229   2.552   5.166
    1C        C  778   2.876   4.554   5.040
    1C        O  779   2.773   4.625   5.027
    1C        O  780   2.936   4.553   5.167
    1C        C  781   2.468   3.033   5.068
    1C        O  782   2.357   2.986   5.032
    1C        O  783   2.484   3.029   5.206
    1C        C  784   2.416   3.998   5.058
    1C        O  785   2.309   4.050   5.017
    1C        O  786   2.429   3.933   5.181
    1C        C  787   2.935   2.399   2.045
    1C        O  788   2.914   2.362   1.927
    1C        O  789   2.876   2.310   2.134
    1C        C  790   3.196   2.398   5.092
    1C        O  791   3.172   2.275   5.089
    1C        O  792   3.252   2.441   5.214
    1C        H  793   4.294   3.019   5.060
    1C        H  794   4.152   2.827   5.060
    1C        H  795   4.511   3.118   5.050
    1C        H  796   4.525   3.366   5.068
    1C        H  797   4.557   3.813   5.047
    1C        H  798   4.421   3.970   5.051
    1C        H  799   4.294   4.175   5.054
    1C        H  800   4.002   4.484   5.038
    1C        H  801   3.817   4.638   5.019
    1C        H  802   3.589   4.659   5.023
    1C        H  803   3.387   4.524   5.052
    1C        H  804   3.158   4.504   5.054
    1C        H  805   3.894   2.482   5.066
    1C        H  806   3.678   2.476   5.082
    1C        H  807   2.985   2.508   5.039
    1C        H  808   3.447   2.513   5.075
    1C        H  809   2.874   2.733   5.080
    1C        H  810   2.688   2.881   5.078
    1C        H  811   2.479   3.280   5.058
    1C        H  812   2.479   3.499   5.062
    1C        H  813   2.545   3.736   5.068
    1C        H  814   2.588   4.177   5.044
    1C        H  815   2.796   4.280   5.052
    1C        H  816   2.719   2.877   1.968
    1C        H  817   2.855   2.693   1.974
    1C        H  818   3.196   2.390   2.015
    1C        H  819   3.425   2.458   1.981
    1C        H  820   3.892   2.469   1.986
    1C        H  821   4.039   2.665   1.974
    1C        H  822   4.269   2.713   1.978
    1C        H  823   4.368   2.932   1.969
    1C        H  824   4.605   3.300   1.976
    1C        H  825   4.549   3.524   1.961
    1C        H  826   4.527   3.751   1.957
    1C        H  827   3.809   4.548   1.962
    1C        H  828   3.953   4.353   1.945
    1C        H  829   4.164   4.247   1.949
    1C        H  830   4.525   3.983   1.980
    1C        H  831   2.635   3.842   1.967
    1C        H  832   2.711   4.066   1.963
    1C        H  833   2.697   4.320   1.988
    1C        H  834   3.379   4.482   1.947
    1C        H  835   3.167   4.374   1.959
    1C        H  836   2.531   3.012   1.983
    1C        H  837   2.401   3.203   2.011
    1C        H  838   2.468   3.686   1.972
    2V3OU   H29  839   2.816   3.547   6.047
    2V3OU   C27  840   2.784   3.503   6.145
    2V3OU   H27  841   2.723   3.568   6.212
    2V3OU   H28  842   2.730   3.407   6.125
    2V3OU   O11  843   2.907   3.474   6.212
    2V3OU   C15  844   2.919   3.398   6.326
    2V3OU   C13  845   3.051   3.375   6.371
    2V3OU   C14  846   3.078   3.263   6.451
    2V3OU   C16  847   2.970   3.188   6.495
    2V3OU    H6  848   2.986   3.111   6.572
    2V3OU   C12  849   3.218   3.226   6.483
    2V3OU    O2  850   3.243   3.135   6.564
    2V3OU   C10  851   3.326   3.308   6.425
    2V3OU    C8  852   3.458   3.272   6.447
    2V3OU   O10  853   3.490   3.155   6.509
    2V3OU   H26  854   3.406   3.108   6.520
    2V3OU    C6  855   3.568   3.351   6.400
    2V3OU    C5  856   3.538   3.466   6.328
    2V3OU    C4  857   3.705   3.292   6.394
    2V3OU    H4  858   3.725   3.228   6.485
    2V3OU    H5  859   3.711   3.222   6.305
    2V3OU    C2  860   3.818   3.395   6.387
    2V3OU    O6  861   3.807   3.472   6.507
    2V3OU   H21  862   3.759   3.551   6.478
    2V3OU    C3  863   3.781   3.494   6.276
    2V3OU    H2  864   3.861   3.572   6.270
    2V3OU    H3  865   3.781   3.438   6.179
    2V3OU   C25  866   3.951   3.323   6.363
    2V3OU    O7  867   4.008   3.293   6.258
    2V3OU   C26  868   4.029   3.291   6.489
    2V3OU   H22  869   4.053   3.393   6.530
    2V3OU   H23  870   4.118   3.227   6.465
    2V3OU    O8  871   3.965   3.206   6.581
    2V3OU   H24  872   3.927   3.259   6.654
    2V3OU    C1  873   3.646   3.563   6.292
    2V3OU    H1  874   3.624   3.622   6.198
    2V3OU    O3  875   3.659   3.653   6.402
    2V3OU   C19  876   3.617   3.789   6.385
    2V3OU    H9  877   3.520   3.795   6.327
    2V3OU    O4  878   3.716   3.850   6.305
    2V3OU   C20  879   3.845   3.879   6.359
    2V3OU   H10  880   3.894   3.778   6.371
    2V3OU   C24  881   3.612   3.857   6.522
    2V3OU   H16  882   3.544   3.798   6.588
    2V3OU   H17  883   3.560   3.954   6.503
    2V3OU   C23  884   3.749   3.875   6.588
    2V3OU   H15  885   3.789   3.770   6.605
    2V3OU    N1  886   3.738   3.956   6.707
    2V3OU   H19  887   3.808   3.927   6.773
    2V3OU   H20  888   3.643   3.940   6.733
    2V3OU   C21  889   3.848   3.951   6.494
    2V3OU   H11  890   3.953   3.924   6.525
    2V3OU    O5  891   3.833   4.092   6.489
    2V3OU   H18  892   3.784   4.111   6.571
    2V3OU   C22  893   3.914   3.952   6.245
    2V3OU   H12  894   3.863   4.049   6.220
    2V3OU   H13  895   3.906   3.890   6.153
    2V3OU   H14  896   4.024   3.965   6.267
    2V3OU   C11  897   3.158   3.471   6.342
    2V3OU    O1  898   3.138   3.594   6.328
    2V3OU    C9  899   3.298   3.424   6.349
    2V3OU    C7  900   3.402   3.504   6.305
    2V3OU    O9  901   3.383   3.615   6.225
    2V3OU   H25  902   3.288   3.628   6.211
    2V3OU   C17  903   2.813   3.314   6.367
    2V3OU    H7  904   2.714   3.344   6.333
    2V3OU   C18  905   2.837   3.212   6.460
    2V3OU    H8  906   2.756   3.150   6.499
    3SOL     OW  907   3.364   2.899   4.113
    3SOL    HW1  908   3.305   2.828   4.076
    3SOL    HW2  909   3.309   2.968   4.160
    4SOL     OW  910   0.238   6.578   0.759
    4SOL    HW1  911   0.318   6.623   0.720
    4SOL    HW2  912   0.215   6.497   0.704
    5SOL     OW  913   3.961   2.252   0.794
    5SOL    HW1  914   3.894   2.203   0.850
    5SOL    HW2  915   3.918   2.332   0.752
    6SOL     OW  916   3.472   1.821   2.603
    6SOL    HW1  917   3.513   1.908   2.576
    6SOL    HW2  918   3.421   1.782   2.526
    7SOL     OW  919   2.212   3.025   4.503
    7SOL    HW1  920   2.270   2.953   4.541
    7SOL    HW2  921   2.136   2.984   4.453
    8SOL     OW  922   1.269   2.533   5.935
    8SOL    HW1  923   1.358   2.531   5.980
    8SOL    HW2  924   1.279   2.569   5.842
    9SOL     OW  925   1.176   2.287   6.538
    9SOL    HW1  926   1.120   2.248   6.466
    9SOL    HW2  927   1.272   2.283   6.511
   10SOL     OW  928   5.302   5.129   1.534
   10SOL    HW1  929   5.287   5.183   1.617
   10SOL    HW2  930   5.386   5.159   1.489
   11SOL     OW  931   2.844   1.972   0.496
   11SOL    HW1  932   2.902   1.896   0.467
   11SOL    HW2  933   2.766   1.980   0.433
   12SOL     OW  934   4.799   5.506   1.685
   12SOL    HW1  935   4.896   5.530   1.678
   12SOL    HW2  936   4.790   5.406   1.694
   13SOL     OW  937   5.656   6.039   2.351
   13SOL    HW1  938   5.625   6.091   2.431
   13SOL    HW2  939   5.755   6.052   2.340
   14SOL     OW  940   3.830   6.169   0.478
   14SOL    HW1  941   3.754   6.202   0.534
   14SOL    HW2  942   3.819   6.204   0.384
   15SOL     OW  943   0.491   6.211   6.844
   15SOL    HW1  944   0.570   6.239   6.790
   15SOL    HW2  945   0.418   6.181   6.782
   16SOL     OW  946   1.962   5.690   4.702
   16SOL    HW1  947   1.961   5.644   4.613
   16SOL    HW2  948   1.897   5.766   4.701
   17SOL     OW  949   0.188   1.721   3.533
   17SOL    HW1  950   0.248   1.797   3.558
   17SOL    HW2  951   0.211   1.641   3.588
   18SOL     OW  952   2.887   1.656   5.432
   18SOL    HW1  953   2.866   1.624   5.524
   18SOL    HW2  954   2.802   1.684   5.387
   19SOL     OW  955   3.108   5.894   3.079
   19SOL    HW1  956   3.021   5.919   3.037
   19SOL    HW2  957   3.094   5.819   3.144
   20SOL     OW  958   6.942   1.825   5.673
   20SOL    HW1  959   6.982   1.751   5.619
   20SOL    HW2  960   7.014   1.891   5.696
   21SOL     OW  961   1.888   3.664   1.911
   21SOL    HW1  962   1.912   3.729   1.839
   21SOL    HW2  963   1.961   3.662   1.980
   22SOL     OW  964   0.603   0.912   7.020
   22SOL    HW1  965   0.623   0.826   6.974
   22SOL    HW2  966   0.582   0.895   0.093
   23SOL     OW  967   6.874   5.362   6.966
   23SOL    HW1  968   6.948   5.341   0.006
   23SOL    HW2  969   6.825   5.278   6.943
   24SOL     OW  970   5.199   1.068   6.655
   24SOL    HW1  971   5.258   1.147   6.645
   24SOL    HW2  972   5.254   0.985   6.664
   25SOL     OW  973   1.423   0.999   4.749
   25SOL    HW1  974   1.337   0.958   4.780
   25SOL    HW2  975   1.405   1.058   4.671
   26SOL     OW  976   2.009   0.323   6.398
   26SOL    HW1  977   2.032   0.380   6.320
   26SOL    HW2  978   2.006   0.379   6.481
   27SOL     OW  979   6.917   6.883   2.168
   27SOL    HW1  980   6.994   6.903   2.107
   27SOL    HW2  981   6.867   6.804   2.134
   28SOL     OW  982   1.649   1.061   5.830
   28SOL    HW1  983   1.686   0.979   5.875
   28SOL    HW2  984   1.550   1.066   5.845
   29SOL     OW  985   5.426   1.008   1.128
   29SOL    HW1  986   5.490   0.969   1.194
   29SOL    HW2  987   5.359   1.064   1.176
   30SOL     OW  988   5.086   0.555   5.206
   30SOL    HW1  989   5.025   0.477   5.189
   30SOL    HW2  990   5.080   0.619   5.129
   31SOL     OW  991   6.497   4.799   4.684
   31SOL    HW1  992   6.407   4.794   4.642
   31SOL    HW2  993   6.562   4.842   4.621
   32SOL     OW  994   3.072   1.264   1.130
   32SOL    HW1  995   3.106   1.288   1.039
   32SOL    HW2  996   3.086   1.167   1.147
   33SOL     OW  997   1.837   4.955   5.388
   33SOL    HW1  998   1.904   5.029   5.391
   33SOL    HW2  999   1.810   4.930   5.481
   34SOL     OW 1000   2.098   6.248   5.433
   34SOL    HW1 1001   2.147   6.333   5.412
   34SOL    HW2 1002   2.164   6.176   5.456
   35SOL     OW 1003   1.008   3.084   4.169
   35SOL    HW1 1004   1.083   3.056   4.110
   35SOL    HW2 1005   1.015   3.182   4.188
   36SOL     OW 1006   5.944   1.371   3.563
   36SOL    HW1 1007   6.016   1.371   3.632
   36SOL    HW2 1008   5.857   1.398   3.605
   37SOL     OW 1009   1.560   6.471   4.696
   37SOL    HW1 1010   1.606   6.559   4.684
   37SOL    HW2 1011   1.611   6.415   4.761
   38SOL     OW 1012   0.856   3.284   1.099
   38SOL    HW1 1013   0.947   3.244   1.113
   38SOL    HW2 1014   0.787   3.222   1.136
   39SOL     OW 1015   6.520   4.900   1.024
   39SOL    HW1 1016   6.546   4.804   1.026
   39SOL    HW2 1017   6.420   4.907   1.017
   40SOL     OW 1018   3.813   0.943   6.834
   40SOL    HW1 1019   3.870   0.958   6.754
   40SOL    HW2 1020   3.716   0.953   6.809
   41SOL     OW 1021   5.602   4.008   1.786
   41SOL    HW1 1022   5.653   4.013   1.700
   41SOL    HW2 1023   5.545   3.925   1.786
   42SOL     OW 1024   2.503   3.710   0.021
   42SOL    HW1 1025   2.508   3.807   7.022
   42SOL    HW2 1026   2.525   3.697   0.117
   43SOL     OW 1027   4.920   6.736   4.892
   43SOL    HW1 1028   4.957   6.807   4.831
   43SOL    HW2 1029   4.905   6.653   4.839
   44SOL     OW 1030   6.845   0.561   6.608
   44SOL    HW1 1031   6.870   0.650   6.646
   44SOL    HW2 1032   6.751   0.538   6.636
   45SOL     OW 1033   2.920   4.389   6.024
   45SOL    HW1 1034   2.941   4.296   5.993
   45SOL    HW2 1035   2.831   4.389   6.070
   46SOL     OW 1036   0.776   4.749   4.445
   46SOL    HW1 1037   0.773   4.737   4.544
   46SOL    HW2 1038   0.765   4.661   4.400
   47SOL     OW 1039   6.352   4.274   6.724
   47SOL    HW1 1040   6.307   4.189   6.700
   47SOL    HW2 1041   6.325   4.302   6.816
   48SOL     OW 1042   0.194   3.939   0.103
   48SOL    HW1 1043   0.158   3.894   0.185
   48SOL    HW2 1044   0.294   3.941   0.107
   49SOL     OW 1045   3.139   2.346   6.758
   49SOL    HW1 1046   3.190   2.344   6.844
   49SOL    HW2 1047   3.041   2.348   6.777
   50SOL     OW 1048   4.880   2.332   6.948
   50SOL    HW1 1049   4.784   2.348   6.971
   50SOL    HW2 1050   4.891   2.238   6.915
   51SOL     OW 1051   1.092   6.216   2.078
   51SOL    HW1 1052   1.109   6.302   2.126
   51SOL    HW2 1053   1.153   6.145   2.114
   52SOL     OW 1054   5.970   1.745   2.421
   52SOL    HW1 1055   6.032   1.792   2.359
   52SOL    HW2 1056   5.884   1.796   2.427
   53SOL     OW 1057   4.547   0.906   0.680
   53SOL    HW1 1058   4.612   0.904   0.756
   53SOL    HW2 1059   4.562   0.989   0.625
   54SOL     OW 1060   6.584   0.478   6.646
   54SOL    HW1 1061   6.563   0.416   6.571
   54SOL    HW2 1062   6.526   0.560   6.639
   55SOL     OW 1063   1.548   3.599   5.370
   55SOL    HW1 1064   1.452   3.627   5.376
   55SOL    HW2 1065   1.583   3.580   5.462
   56SOL     OW 1066   0.681   2.782   6.877
   56SOL    HW1 1067   0.669   2.683   6.883
   56SOL    HW2 1068   0.592   2.826   6.869
   57SOL     OW 1069   4.114   5.929   1.592
   57SOL    HW1 1070   4.029   5.875   1.593
   57SOL    HW2 1071   4.135   5.960   1.685
   58SOL     OW 1072   0.719   0.708   6.827
   58SOL    HW1 1073   0.675   0.724   6.738
   58SOL    HW2 1074   0.668   0.637   6.876
   59SOL     OW 1075   4.001   2.899   6.928
   59SOL    HW1 1076   3.918   2.945   6.960
   59SOL    HW2 1077   4.005   2.903   6.828
   60SOL     OW 1078   6.678   3.157   2.774
   60SOL    HW1 1079   6.735   3.222   2.724
   60SOL    HW2 1080   6.608   3.207   2.825
   61SOL     OW 1081   1.433   5.674   2.949
   61SOL    HW1 1082   1.371   5.603   2.986
   61SOL    HW2 1083   1.505   5.630   2.895
   62SOL     OW 1084   5.180   2.871   2.848
   62SOL    HW1 1085   5.262   2.921   2.821
   62SOL    HW2 1086   5.204   2.778   2.876
   63SOL     OW 1087   3.697   0.083   6.677
   63SOL    HW1 1088   3.632   0.056   6.606
   63SOL    HW2 1089   3.655   0.073   6.767
   64SOL     OW 1090   1.984   2.360   6.833
   64SOL    HW1 1091   1.945   2.308   6.757
   64SOL    HW2 1092   1.911   2.397   6.890
   65SOL     OW 1093   0.979   4.911   5.530
   65SOL    HW1 1094   1.074   4.937   5.511
   65SOL    HW2 1095   0.965   4.905   5.628
   66SOL     OW 1096   4.563   1.169   1.347
   66SOL    HW1 1097   4.523   1.165   1.255
   66SOL    HW2 1098   4.658   1.201   1.340
   67SOL     OW 1099   0.237   3.395   1.155
   67SOL    HW1 1100   0.137   3.407   1.154
   67SOL    HW2 1101   0.269   3.370   1.064
   68SOL     OW 1102   0.442   1.013   6.175
   68SOL    HW1 1103   0.510   1.071   6.221
   68SOL    HW2 1104   0.471   0.994   6.082
   69SOL     OW 1105   1.573   6.982   6.351
   69SOL    HW1 1106   1.573   7.013   6.446
   69SOL    HW2 1107   1.495   7.021   6.303
   70SOL     OW 1108   4.853   4.708   3.344
   70SOL    HW1 1109   4.803   4.793   3.328
   70SOL    HW2 1110   4.844   4.648   3.265
   71SOL     OW 1111   4.776   2.067   5.254
   71SOL    HW1 1112   4.806   1.987   5.202
   71SOL    HW2 1113   4.689   2.099   5.217
   72SOL     OW 1114   6.762   0.876   2.353
   72SOL    HW1 1115   6.762   0.976   2.359
   72SOL    HW2 1116   6.706   0.838   2.427
   73SOL     OW 1117   3.007   0.976   1.182
   73SOL    HW1 1118   3.091   0.946   1.228
   73SOL    HW2 1119   2.951   0.895   1.162
   74SOL     OW 1120   2.336   1.432   0.019
   74SOL    HW1 1121   2.273   1.354   0.022
   74SOL    HW2 1122   2.347   1.469   0.111
   75SOL     OW 1123   2.948   2.785   1.264
   75SOL    HW1 1124   2.897   2.788   1.350
   75SOL    HW2 1125   2.960   2.878   1.229
   76SOL     OW 1126   3.644   5.487   6.210
   76SOL    HW1 1127   3.647   5.539   6.125
   76SOL    HW2 1128   3.733   5.494   6.256
   77SOL     OW 1129   0.092   5.281   4.391
   77SOL    HW1 1130   0.139   5.300   4.477
   77SOL    HW2 1131   0.093   5.183   4.372
   78SOL     OW 1132   5.515   1.249   1.403
   78SOL    HW1 1133   5.468   1.208   1.325
   78SOL    HW2 1134   5.448   1.275   1.472
   79SOL     OW 1135   1.458   4.744   4.281
   79SOL    HW1 1136   1.425   4.725   4.373
   79SOL    HW2 1137   1.409   4.687   4.215
   80SOL     OW 1138   3.846   2.128   5.588
   80SOL    HW1 1139   3.921   2.133   5.522
   80SOL    HW2 1140   3.762   2.162   5.546
   81SOL     OW 1141   3.349   4.866   3.019
   81SOL    HW1 1142   3.374   4.962   3.015
   81SOL    HW2 1143   3.430   4.810   2.999
   82SOL     OW 1144   3.381   0.320   1.987
   82SOL    HW1 1145   3.337   0.234   2.014
   82SOL    HW2 1146   3.320   0.370   1.926
   83SOL     OW 1147   5.561   1.277   3.519
   83SOL    HW1 1148   5.571   1.339   3.596
   83SOL    HW2 1149   5.497   1.316   3.453
   84SOL     OW 1150   5.573   2.407   2.816
   84SOL    HW1 1151   5.524   2.422   2.730
   84SOL    HW2 1152   5.512   2.362   2.881
   85SOL     OW 1153   2.591   5.366   3.377
   85SOL    HW1 1154   2.541   5.453   3.381
   85SOL    HW2 1155   2.546   5.299   3.436
   86SOL     OW 1156   5.028   1.132   0.766
   86SOL    HW1 1157   4.967   1.061   0.801
   86SOL    HW2 1158   5.087   1.165   0.839
   87SOL     OW 1159   2.970   3.308   6.865
   87SOL    HW1 1160   2.929   3.343   6.781
   87SOL    HW2 1161   3.065   3.283   6.847
   88SOL     OW 1162   1.616   2.470   0.910
   88SOL    HW1 1163   1.517   2.465   0.922
   88SOL    HW2 1164   1.638   2.546   0.848
   89SOL     OW 1165   3.471   4.164   4.796
   89SOL    HW1 1166   3.564   4.135   4.776
   89SOL    HW2 1167   3.469   4.211   4.884
   90SOL     OW 1168   6.581   3.733   2.090
   90SOL    HW1 1169   6.659   3.694   2.041
   90SOL    HW2 1170   6.574   3.831   2.070
   91SOL     OW 1171   4.803   5.564   0.694
   91SOL    HW1 1172   4.778   5.491   0.758
   91SOL    HW2 1173   4.818   5.649   0.745
   92SOL     OW 1174   5.485   5.694   7.021
   92SOL    HW1 1175   5.545   5.617   0.016
   92SOL    HW2 1176   5.539   5.779   7.019
   93SOL     OW 1177   2.972   3.653   2.013
   93SOL    HW1 1178   3.002   3.710   2.089
   93SOL    HW2 1179   3.011   3.688   1.927
   94SOL     OW 1180   3.030   1.557   4.369
   94SOL    HW1 1181   2.968   1.525   4.441
   94SOL    HW2 1182   2.984   1.626   4.314
   95SOL     OW 1183   1.193   6.179   3.887
   95SOL    HW1 1184   1.222   6.094   3.843
   95SOL    HW2 1185   1.149   6.157   3.974
   96SOL     OW 1186   0.113   6.392   6.931
   96SOL    HW1 1187   0.148   6.421   6.842
   96SOL    HW2 1188   0.131   6.463   6.999
   97SOL     OW 1189   3.721   4.696   5.356
   97SOL    HW1 1190   3.673   4.670   5.440
   97SOL    HW2 1191   3.670   4.769   5.310
   98SOL     OW 1192   0.996   3.106   4.619
   98SOL    HW1 1193   0.970   3.020   4.575
   98SOL    HW2 1194   1.083   3.137   4.582
   99SOL     OW 1195   4.354   4.820   4.930
   99SOL    HW1 1196   4.392   4.729   4.946
   99SOL    HW2 1197   4.287   4.816   4.856
  100SOL     OW 1198   1.523   1.188   5.310
  100SOL    HW1 1199   1.478   1.110   5.266
  100SOL    HW2 1200   1.620   1.168   5.321
  101SOL     OW 1201   5.387   3.231   2.671
  101SOL    HW1 1202   5.334   3.291   2.731
  101SOL    HW2 1203   5.478   3.270   2.658
  102SOL     OW 1204   3.515   6.966   0.163
  102SOL    HW1 1205   3.438   0.006   0.169
  102SOL    HW2 1206   3.487   6.876   0.196
  103SOL     OW 1207   1.685   1.961   1.450
  103SOL    HW1 1208   1.752   1.889   1.433
  103SOL    HW2 1209   1.713   2.014   1.530
  104SOL     OW 1210   0.459   4.474   1.252
  104SOL    HW1 1211   0.427   4.458   1.345
  104SOL    HW2 1212   0.553   4.442   1.243
  105SOL     OW 1213   6.689   1.449   4.971
  105SOL    HW1 1214   6.745   1.410   5.044
  105SOL    HW2 1215   6.694   1.549   4.975
  106SOL     OW 1216   4.750   3.153   1.658
  106SOL    HW1 1217   4.714   3.113   1.573
  106SOL    HW2 1218   4.705   3.110   1.736
  107SOL     OW 1219   4.311   6.643   2.386
  107SOL    HW1 1220   4.375   6.714   2.356
  107SOL    HW2 1221   4.223   6.656   2.340
  108SOL     OW 1222   3.311   1.307   4.692
  108SOL    HW1 1223   3.366   1.230   4.724
  108SOL    HW2 1224   3.364   1.391   4.698
  109SOL     OW 1225   1.798   1.705   5.021
  109SOL    HW1 1226   1.709   1.733   5.058
  109SOL    HW2 1227   1.784   1.646   4.942
  110SOL     OW 1228   4.352   4.627   5.539
  110SOL    HW1 1229   4.255   4.607   5.524
  110SOL    HW2 1230   4.401   4.541   5.553
  111SOL     OW 1231   5.927   3.121   1.430
  111SOL    HW1 1232   5.989   3.199   1.439
  111SOL    HW2 1233   5.967   3.053   1.368
  112SOL     OW 1234   4.511   6.688   4.992
  112SOL    HW1 1235   4.480   6.780   5.015
  112SOL    HW2 1236   4.484   6.665   4.899
  113SOL     OW 1237   1.103   5.129   2.116
  113SOL    HW1 1238   1.150   5.132   2.205
  113SOL    HW2 1239   1.165   5.091   2.047
  114SOL     OW 1240   6.761   1.616   2.071
  114SOL    HW1 1241   6.801   1.675   2.141
  114SOL    HW2 1242   6.831   1.591   2.004
  115SOL     OW 1243   4.413   1.111   3.039
  115SOL    HW1 1244   4.316   1.134   3.050
  115SOL    HW2 1245   4.425   1.049   2.962
  116SOL     OW 1246   6.154   5.628   0.707
  116SOL    HW1 1247   6.164   5.628   0.608
  116SOL    HW2 1248   6.147   5.723   0.740
  117SOL     OW 1249   2.552   1.740   0.482
  117SOL    HW1 1250   2.478   1.762   0.546
  117SOL    HW2 1251   2.609   1.668   0.521
  118SOL     OW 1252   7.003   2.491   2.261
  118SOL    HW1 1253   6.938   2.560   2.289
  118SOL    HW2 1254   0.072   2.528   2.266
  119SOL     OW 1255   6.061   5.743   4.967
  119SOL    HW1 1256   6.015   5.771   5.052
  119SOL    HW2 1257   6.006   5.674   4.921
  120SOL     OW 1258   4.450   1.573   4.672
  120SOL    HW1 1259   4.499   1.660   4.665
  120SOL    HW2 1260   4.365   1.586   4.723
  121SOL     OW 1261   6.913   5.359   6.006
  121SOL    HW1 1262   6.956   5.296   5.942
  121SOL    HW2 1263   6.945   5.452   5.987
  122SOL     OW 1264   0.206   4.828   5.858
  122SOL    HW1 1265   0.150   4.868   5.785
  122SOL    HW2 1266   0.148   4.800   5.934
  123SOL     OW 1267   0.846   2.634   0.864
  123SOL    HW1 1268   0.769   2.661   0.805
  123SOL    HW2 1269   0.885   2.549   0.830
  124SOL     OW 1270   2.139   3.899   6.363
  124SOL    HW1 1271   2.234   3.898   6.394
  124SOL    HW2 1272   2.105   3.805   6.358
  125SOL     OW 1273   4.420   2.153   0.396
  125SOL    HW1 1274   4.498   2.098   0.426
  125SOL    HW2 1275   4.336   2.116   0.436
  126SOL     OW 1276   3.831   3.467   4.733
  126SOL    HW1 1277   3.929   3.446   4.743
  126SOL    HW2 1278   3.782   3.383   4.709
  127SOL     OW 1279   7.002   4.935   6.205
  127SOL    HW1 1280   6.925   4.996   6.186
  127SOL    HW2 1281   7.012   4.870   6.130
  128SOL     OW 1282   4.468   4.245   6.007
  128SOL    HW1 1283   4.508   4.154   5.998
  128SOL    HW2 1284   4.534   4.314   5.979
  129SOL     OW 1285   0.745   4.506   1.244
  129SOL    HW1 1286   0.758   4.531   1.148
  129SOL    HW2 1287   0.746   4.589   1.300
  130SOL     OW 1288   6.489   3.737   5.105
  130SOL    HW1 1289   6.407   3.784   5.072
  130SOL    HW2 1290   6.504   3.761   5.201
  131SOL     OW 1291   1.117   3.840   2.542
  131SOL    HW1 1292   1.134   3.769   2.473
  131SOL    HW2 1293   1.066   3.800   2.618
  132SOL     OW 1294   3.976   2.586   1.685
  132SOL    HW1 1295   3.899   2.522   1.681
  132SOL    HW2 1296   4.057   2.539   1.720
  133SOL     OW 1297   4.235   4.565   6.062
  133SOL    HW1 1298   4.331   4.589   6.049
  133SOL    HW2 1299   4.177   4.644   6.041
  134SOL     OW 1300   6.200   2.005   6.612
  134SOL    HW1 1301   6.130   2.025   6.544
  134SOL    HW2 1302   6.156   1.983   6.699
  135SOL     OW 1303   4.543   4.442   3.634
  135SOL    HW1 1304   4.489   4.466   3.715
  135SOL    HW2 1305   4.595   4.359   3.652
  136SOL     OW 1306   4.011   6.654   6.092
  136SOL    HW1 1307   4.008   6.609   6.182
  136SOL    HW2 1308   3.960   6.599   6.026
  137SOL     OW 1309   1.463   4.212   0.056
  137SOL    HW1 1310   1.404   4.149   0.107
  137SOL    HW2 1311   1.408   4.290   0.024
  138SOL     OW 1312   1.052   5.510   0.310
  138SOL    HW1 1313   0.962   5.471   0.290
  138SOL    HW2 1314   1.044   5.578   0.383
  139SOL     OW 1315   0.616   1.089   0.922
  139SOL    HW1 1316   0.587   1.136   0.839
  139SOL    HW2 1317   0.555   1.115   0.998
  140SOL     OW 1318   3.844   0.280   2.060
  140SOL    HW1 1319   3.763   0.265   2.115
  140SOL    HW2 1320   3.922   0.300   2.120
  141SOL     OW 1321   1.283   1.777   0.182
  141SOL    HW1 1322   1.279   1.709   0.108
  141SOL    HW2 1323   1.360   1.756   0.242
  142SOL     OW 1324   2.137   3.902   0.071
  142SOL    HW1 1325   2.043   3.890   0.039
  142SOL    HW2 1326   2.168   3.995   0.049
  143SOL     OW 1327   5.459   5.746   2.013
  143SOL    HW1 1328   5.450   5.840   2.044
  143SOL    HW2 1329   5.528   5.699   2.068
  144SOL     OW 1330   3.104   5.250   3.064
  144SOL    HW1 1331   3.022   5.220   3.113
  144SOL    HW2 1332   3.176   5.270   3.130
  145SOL     OW 1333   0.094   5.987   3.442
  145SOL    HW1 1334   0.183   5.995   3.486
  145SOL    HW2 1335   0.082   6.063   3.378
  146SOL     OW 1336   0.470   0.740   5.868
  146SOL    HW1 1337   0.536   0.778   5.933
  146SOL    HW2 1338   0.481   0.640   5.865
  147SOL     OW 1339   5.884   1.000   4.744
  147SOL    HW1 1340   5.829   1.072   4.788
  147SOL    HW2 1341   5.946   1.041   4.677
  148SOL     OW 1342   1.894   6.790   1.832
  148SOL    HW1 1343   1.930   6.859   1.896
  148SOL    HW2 1344   1.968   6.760   1.772
  149SOL     OW 1345   1.667   2.696   4.974
  149SOL    HW1 1346   1.742   2.709   4.909
  149SOL    HW2 1347   1.683   2.752   5.055
  150SOL     OW 1348   5.166   3.325   5.407
  150SOL    HW1 1349   5.209   3.400   5.457
  150SOL    HW2 1350   5.236   3.272   5.360
  151SOL     OW 1351   6.520   2.893   1.748
  151SOL    HW1 1352   6.442   2.830   1.746
  151SOL    HW2 1353   6.503   2.965   1.815
  152SOL     OW 1354   6.973   2.681   0.069
  152SOL    HW1 1355   6.879   2.714   0.074
  152SOL    HW2 1356   0.005   2.744   0.016
  153SOL     OW 1357   1.732   1.817   3.911
  153SOL    HW1 1358   1.748   1.725   3.874
  153SOL    HW2 1359   1.771   1.885   3.849
  154SOL     OW 1360   0.263   1.328   3.924
  154SOL    HW1 1361   0.239   1.288   4.013
  154SOL    HW2 1362   0.358   1.304   3.902
  155SOL     OW 1363   5.674   4.518   3.024
  155SOL    HW1 1364   5.626   4.430   3.029
  155SOL    HW2 1365   5.662   4.568   3.110
  156SOL     OW 1366   4.274   0.333   1.172
  156SOL    HW1 1367   4.299   0.296   1.083
  156SOL    HW2 1368   4.238   0.259   1.229
  157SOL     OW 1369   5.146   6.758   1.208
  157SOL    HW1 1370   5.198   6.709   1.138
  157SOL    HW2 1371   5.060   6.791   1.169
  158SOL     OW 1372   0.831   3.558   4.560
  158SOL    HW1 1373   0.851   3.553   4.463
  158SOL    HW2 1374   0.813   3.466   4.595
  159SOL     OW 1375   6.554   5.059   0.089
  159SOL    HW1 1376   6.576   5.037   0.184
  159SOL    HW2 1377   6.508   5.147   0.084
  160SOL     OW 1378   3.932   0.267   0.945
  160SOL    HW1 1379   3.995   0.339   0.917
  160SOL    HW2 1380   3.958   0.181   0.901
  161SOL     OW 1381   0.169   0.391   0.357
  161SOL    HW1 1382   0.127   0.343   0.434
  161SOL    HW2 1383   0.212   0.324   0.297
  162SOL     OW 1384   4.129   6.774   5.223
  162SOL    HW1 1385   4.162   6.680   5.233
  162SOL    HW2 1386   4.207   6.836   5.215
  163SOL     OW 1387   0.925   3.464   2.669
  163SOL    HW1 1388   1.003   3.474   2.608
  163SOL    HW2 1389   0.849   3.520   2.635
  164SOL     OW 1390   2.267   2.181   2.736
  164SOL    HW1 1391   2.324   2.218   2.663
  164SOL    HW2 1392   2.282   2.083   2.744
  165SOL     OW 1393   0.138   6.333   3.986
  165SOL    HW1 1394   0.093   6.244   3.987
  165SOL    HW2 1395   0.113   6.383   4.069
  166SOL     OW 1396   0.629   4.626   3.465
  166SOL    HW1 1397   0.661   4.553   3.524
  166SOL    HW2 1398   0.670   4.615   3.374
  167SOL     OW 1399   0.943   1.266   3.024
  167SOL    HW1 1400   0.849   1.236   3.043
  167SOL    HW2 1401   0.940   1.357   2.983
  168SOL     OW 1402   3.283   3.871   3.098
  168SOL    HW1 1403   3.324   3.831   3.180
  168SOL    HW2 1404   3.194   3.910   3.121
  169SOL     OW 1405   5.174   2.617   6.689
  169SOL    HW1 1406   5.121   2.636   6.607
  169SOL    HW2 1407   5.204   2.522   6.688
  170SOL     OW 1408   0.167   5.081   2.085
  170SOL    HW1 1409   0.071   5.096   2.060
  170SOL    HW2 1410   0.188   4.983   2.080
  171SOL     OW 1411   3.002   2.268   0.737
  171SOL    HW1 1412   2.936   2.260   0.812
  171SOL    HW2 1413   3.086   2.221   0.762
  172SOL     OW 1414   1.428   0.944   6.907
  172SOL    HW1 1415   1.334   0.920   6.930
  172SOL    HW2 1416   1.462   1.013   6.972
  173SOL     OW 1417   5.914   0.517   4.998
  173SOL    HW1 1418   5.843   0.488   5.062
  173SOL    HW2 1419   5.965   0.594   5.038
  174SOL     OW 1420   6.528   3.694   5.374
  174SOL    HW1 1421   6.555   3.664   5.466
  174SOL    HW2 1422   6.496   3.615   5.321
  175SOL     OW 1423   0.810   6.166   2.870
  175SOL    HW1 1424   0.843   6.252   2.832
  175SOL    HW2 1425   0.878   6.131   2.935
  176SOL     OW 1426   6.684   3.902   0.911
  176SOL    HW1 1427   6.639   3.903   0.822
  176SOL    HW2 1428   6.644   3.973   0.970
  177SOL     OW 1429   6.592   2.774   3.565
  177SOL    HW1 1430   6.594   2.830   3.648
  177SOL    HW2 1431   6.681   2.730   3.552
  178SOL     OW 1432   1.670   5.838   4.813
  178SOL    HW1 1433   1.616   5.789   4.745
  178SOL    HW2 1434   1.662   5.936   4.797
  179SOL     OW 1435   3.657   4.113   2.158
  179SOL    HW1 1436   3.603   4.028   2.152
  179SOL    HW2 1437   3.617   4.172   2.228
  180SOL     OW 1438   5.039   1.107   6.080
  180SOL    HW1 1439   4.990   1.131   5.997
  180SOL    HW2 1440   4.974   1.074   6.149
  181SOL     OW 1441   3.656   0.440   5.657
  181SOL    HW1 1442   3.556   0.442   5.656
  181SOL    HW2 1443   3.688   0.369   5.594
  182SOL     OW 1444   2.860   3.174   5.699
  182SOL    HW1 1445   2.797   3.107   5.660
  182SOL    HW2 1446   2.940   3.184   5.640
  183SOL     OW 1447   3.416   1.357   3.813
  183SOL    HW1 1448   3.400   1.324   3.720
  183SOL    HW2 1449   3.515   1.359   3.831
  184SOL     OW 1450   4.742   5.786   3.448
  184SOL    HW1 1451   4.745   5.869   3.391
  184SOL    HW2 1452   4.826   5.733   3.434
  185SOL     OW 1453   0.190   6.803   5.086
  185SOL    HW1 1454   0.210   6.779   4.991
  185SOL    HW2 1455   0.187   6.902   5.096
  186SOL     OW 1456   2.595   5.846   6.159
  186SOL    HW1 1457   2.581   5.792   6.077
  186SOL    HW2 1458   2.582   5.789   6.240
  187SOL     OW 1459   3.729   5.438   0.797
  187SOL    HW1 1460   3.701   5.383   0.876
  187SOL    HW2 1461   3.788   5.513   0.828
  188SOL     OW 1462   1.519   3.769   3.681
  188SOL    HW1 1463   1.570   3.722   3.609
  188SOL    HW2 1464   1.452   3.831   3.640
  189SOL     OW 1465   5.688   4.614   6.074
  189SOL    HW1 1466   5.609   4.673   6.087
  189SOL    HW2 1467   5.743   4.612   6.158
  190SOL     OW 1468   6.000   6.366   0.637
  190SOL    HW1 1469   5.956   6.456   0.629
  190SOL    HW2 1470   6.079   6.372   0.698
  191SOL     OW 1471   2.060   3.313   5.715
  191SOL    HW1 1472   2.119   3.336   5.792
  191SOL    HW2 1473   2.112   3.322   5.630
  192SOL     OW 1474   6.879   6.846   1.091
  192SOL    HW1 1475   6.804   6.794   1.050
  192SOL    HW2 1476   6.917   6.796   1.169
  193SOL     OW 1477   3.205   0.250   1.407
  193SOL    HW1 1478   3.272   0.320   1.431
  193SOL    HW2 1479   3.253   0.166   1.381
  194SOL     OW 1480   4.061   5.767   3.311
  194SOL    HW1 1481   4.030   5.837   3.248
  194SOL    HW2 1482   4.155   5.742   3.290
  195SOL     OW 1483   2.623   0.610   0.779
  195SOL    HW1 1484   2.686   0.675   0.736
  195SOL    HW2 1485   2.538   0.607   0.727
  196SOL     OW 1486   4.215   2.491   1.176
  196SOL    HW1 1487   4.188   2.506   1.271
  196SOL    HW2 1488   4.238   2.579   1.133
  197SOL     OW 1489   1.491   5.956   1.017
  197SOL    HW1 1490   1.481   6.007   0.931
  197SOL    HW2 1491   1.533   5.867   0.999
  198SOL     OW 1492   5.466   6.770   6.309
  198SOL    HW1 1493   5.513   6.843   6.260
  198SOL    HW2 1494   5.533   6.706   6.347
  199SOL     OW 1495   1.935   1.195   3.341
  199SOL    HW1 1496   1.938   1.285   3.298
  199SOL    HW2 1497   1.867   1.138   3.295
  200SOL     OW 1498   1.245   3.725   4.284
  200SOL    HW1 1499   1.338   3.688   4.293
  200SOL    HW2 1500   1.180   3.663   4.327
  201SOL     OW 1501   4.860   1.258   0.129
  201SOL    HW1 1502   4.922   1.182   0.111
  201SOL    HW2 1503   4.862   1.280   0.227
  202SOL     OW 1504   4.426   0.341   3.220
  202SOL    HW1 1505   4.422   0.358   3.319
  202SOL    HW2 1506   4.432   0.428   3.172
  203SOL     OW 1507   5.725   2.575   0.119
  203SOL    HW1 1508   5.791   2.503   0.097
  203SOL    HW2 1509   5.772   2.653   0.159
  204SOL     OW 1510   1.976   6.003   1.055
  204SOL    HW1 1511   1.889   5.993   1.104
  204SOL    HW2 1512   2.044   5.942   1.095
  205SOL     OW 1513   5.421   0.316   1.486
  205SOL    HW1 1514   5.354   0.288   1.555
  205SOL    HW2 1515   5.373   0.360   1.410
  206SOL     OW 1516   0.003   6.277   1.208
  206SOL    HW1 1517   0.058   6.344   1.159
  206SOL    HW2 1518   6.978   6.219   1.143
  207SOL     OW 1519   6.701   2.174   5.625
  207SOL    HW1 1520   6.653   2.162   5.712
  207SOL    HW2 1521   6.735   2.268   5.618
  208SOL     OW 1522   4.066   3.888   6.842
  208SOL    HW1 1523   4.095   3.852   6.930
  208SOL    HW2 1524   4.086   3.986   6.837
  209SOL     OW 1525   0.058   6.696   3.702
  209SOL    HW1 1526   0.023   6.770   3.759
  209SOL    HW2 1527   7.007   6.636   3.676
  210SOL     OW 1528   3.979   1.821   0.869
  210SOL    HW1 1529   4.030   1.746   0.909
  210SOL    HW2 1530   3.892   1.833   0.918
  211SOL     OW 1531   0.952   3.132   1.768
  211SOL    HW1 1532   0.938   3.035   1.749
  211SOL    HW2 1533   0.865   3.181   1.760
  212SOL     OW 1534   1.105   5.257   5.493
  212SOL    HW1 1535   1.033   5.272   5.425
  212SOL    HW2 1536   1.078   5.299   5.580
  213SOL     OW 1537   3.649   2.478   0.956
  213SOL    HW1 1538   3.715   2.539   1.000
  213SOL    HW2 1539   3.633   2.399   1.016
  214SOL     OW 1540   1.347   6.113   3.466
  214SOL    HW1 1541   1.320   6.040   3.529
  214SOL    HW2 1542   1.324   6.086   3.373
  215SOL     OW 1543   3.399   4.137   3.186
  215SOL    HW1 1544   3.491   4.155   3.150
  215SOL    HW2 1545   3.343   4.095   3.114
  216SOL     OW 1546   3.388   0.507   5.719
  216SOL    HW1 1547   3.313   0.442   5.710
  216SOL    HW2 1548   3.351   0.600   5.726
  217SOL     OW 1549   0.245   2.143   5.140
  217SOL    HW1 1550   0.242   2.049   5.106
  217SOL    HW2 1551   0.211   2.145   5.235
  218SOL     OW 1552   2.716   4.170   5.888
  218SOL    HW1 1553   2.717   4.087   5.832
  218SOL    HW2 1554   2.644   4.231   5.856
  219SOL     OW 1555   2.534   5.677   6.377
  219SOL    HW1 1556   2.571   5.603   6.433
  219SOL    HW2 1557   2.492   5.746   6.436
  220SOL     OW 1558   1.401   5.073   0.458
  220SOL    HW1 1559   1.403   5.039   0.364
  220SOL    HW2 1560   1.316   5.045   0.502
  221SOL     OW 1561   5.856   2.618   4.851
  221SOL    HW1 1562   5.888   2.698   4.902
  221SOL    HW2 1563   5.815   2.647   4.764
  222SOL     OW 1564   2.082   6.834   4.371
  222SOL    HW1 1565   2.167   6.812   4.324
  222SOL    HW2 1566   2.092   6.817   4.469
  223SOL     OW 1567   5.520   4.980   2.452
  223SOL    HW1 1568   5.468   4.929   2.383
  223SOL    HW2 1569   5.617   4.965   2.437
  224SOL     OW 1570   5.056   2.462   2.472
  224SOL    HW1 1571   4.998   2.542   2.460
  224SOL    HW2 1572   5.138   2.487   2.524
  225SOL     OW 1573   4.809   6.237   1.359
  225SOL    HW1 1574   4.886   6.299   1.347
  225SOL    HW2 1575   4.794   6.186   1.274
  226SOL     OW 1576   0.511   5.901   2.094
  226SOL    HW1 1577   0.522   5.960   2.175
  226SOL    HW2 1578   0.451   5.946   2.028
  227SOL     OW 1579   1.356   3.683   3.293
  227SOL    HW1 1580   1.306   3.613   3.242
  227SOL    HW2 1581   1.422   3.728   3.233
  228SOL     OW 1582   4.120   6.465   2.997
  228SOL    HW1 1583   4.029   6.429   2.974
  228SOL    HW2 1584   4.188   6.427   2.934
  229SOL     OW 1585   6.848   5.628   3.196
  229SOL    HW1 1586   6.772   5.619   3.259
  229SOL    HW2 1587   6.821   5.687   3.119
  230SOL     OW 1588   0.904   4.614   6.129
  230SOL    HW1 1589   0.983   4.673   6.140
  230SOL    HW2 1590   0.893   4.590   6.032
  231SOL     OW 1591   0.272   2.365   6.460
  231SOL    HW1 1592   0.256   2.308   6.541
  231SOL    HW2 1593   0.354   2.333   6.412
  232SOL     OW 1594   1.298   4.216   5.702
  232SOL    HW1 1595   1.230   4.283   5.732
  232SOL    HW2 1596   1.303   4.142   5.770
  233SOL     OW 1597   3.309   0.185   6.815
  233SOL    HW1 1598   3.310   0.129   6.732
  233SOL    HW2 1599   3.387   0.248   6.813
  234SOL     OW 1600   2.268   5.097   6.736
  234SOL    HW1 1601   2.216   5.020   6.774
  234SOL    HW2 1602   2.286   5.164   6.808
  235SOL     OW 1603   3.773   3.457   5.756
  235SOL    HW1 1604   3.725   3.372   5.737
  235SOL    HW2 1605   3.718   3.514   5.817
  236SOL     OW 1606   6.941   1.580   6.036
  236SOL    HW1 1607   6.883   1.596   5.956
  236SOL    HW2 1608   0.003   1.630   6.026
  237SOL     OW 1609   6.749   6.426   2.162
  237SOL    HW1 1610   6.719   6.439   2.256
  237SOL    HW2 1611   6.686   6.366   2.114
  238SOL     OW 1612   6.927   2.210   2.369
  238SOL    HW1 1613   7.004   2.148   2.381
  238SOL    HW2 1614   6.933   2.254   2.279
  239SOL     OW 1615   6.172   5.228   0.588
  239SOL    HW1 1616   6.267   5.222   0.556
  239SOL    HW2 1617   6.156   5.159   0.658
  240SOL     OW 1618   0.051   2.255   4.992
  240SOL    HW1 1619   6.997   2.272   5.053
  240SOL    HW2 1620   0.127   2.218   5.045
  241SOL     OW 1621   5.538   2.014   5.123
  241SOL    HW1 1622   5.593   1.988   5.043
  241SOL    HW2 1623   5.544   1.942   5.192
  242SOL     OW 1624   2.824   2.250   4.384
  242SOL    HW1 1625   2.797   2.177   4.321
  242SOL    HW2 1626   2.917   2.281   4.361
  243SOL     OW 1627   5.126   1.018   6.910
  243SOL    HW1 1628   5.032   0.985   6.906
  243SOL    HW2 1629   5.158   1.042   6.818
  244SOL     OW 1630   0.507   1.951   5.939
  244SOL    HW1 1631   0.583   1.989   5.886
  244SOL    HW2 1632   0.516   1.851   5.942
  245SOL     OW 1633   4.780   2.546   3.896
  245SOL    HW1 1634   4.845   2.485   3.852
  245SOL    HW2 1635   4.828   2.606   3.960
  246SOL     OW 1636   5.193   3.313   4.157
  246SOL    HW1 1637   5.258   3.368   4.104
  246SOL    HW2 1638   5.242   3.248   4.214
  247SOL     OW 1639   3.158   0.488   2.839
  247SOL    HW1 1640   3.212   0.429   2.779
  247SOL    HW2 1641   3.151   0.447   2.930
  248SOL     OW 1642   0.366   2.479   2.600
  248SOL    HW1 1643   0.412   2.443   2.519
  248SOL    HW2 1644   0.435   2.514   2.664
  249SOL     OW 1645   1.760   5.550   5.219
  249SOL    HW1 1646   1.661   5.548   5.233
  249SOL    HW2 1647   1.806   5.546   5.308
  250SOL     OW 1648   5.185   2.262   0.167
  250SOL    HW1 1649   5.247   2.289   0.094
  250SOL    HW2 1650   5.099   2.313   0.159
  251SOL     OW 1651   2.063   0.931   1.253
  251SOL    HW1 1652   2.157   0.925   1.218
  251SOL    HW2 1653   2.003   0.967   1.181
  252SOL     OW 1654   0.536   2.260   6.832
  252SOL    HW1 1655   0.633   2.241   6.846
  252SOL    HW2 1656   0.490   2.265   6.920
  253SOL     OW 1657   1.908   4.423   6.518
  253SOL    HW1 1658   1.813   4.408   6.491
  253SOL    HW2 1659   1.962   4.341   6.498
  254SOL     OW 1660   4.797   3.785   6.469
  254SOL    HW1 1661   4.850   3.853   6.418
  254SOL    HW2 1662   4.724   3.830   6.519
  255SOL     OW 1663   4.381   1.990   2.252
  255SOL    HW1 1664   4.357   1.904   2.207
  255SOL    HW2 1665   4.455   1.975   2.317
  256SOL     OW 1666   6.577   6.045   1.529
  256SOL    HW1 1667   6.506   6.114   1.519
  256SOL    HW2 1668   6.640   6.051   1.451
  257SOL     OW 1669   2.979   5.805   5.510
  257SOL    HW1 1670   3.072   5.818   5.477
  257SOL    HW2 1671   2.977   5.810   5.610
  258SOL     OW 1672   4.069   5.228   4.287
  258SOL    HW1 1673   3.994   5.162   4.291
  258SOL    HW2 1674   4.077   5.265   4.194
  259SOL     OW 1675   0.546   1.580   2.625
  259SOL    HW1 1676   0.614   1.508   2.611
  259SOL    HW2 1677   0.548   1.610   2.720
  260SOL     OW 1678   6.292   6.683   5.018
  260SOL    HW1 1679   6.336   6.700   5.106
  260SOL    HW2 1680   6.220   6.751   5.003
  261SOL     OW 1681   0.603   0.680   4.561
  261SOL    HW1 1682   0.698   0.651   4.544
  261SOL    HW2 1683   0.578   0.658   4.655
  262SOL     OW 1684   1.405   5.454   1.593
  262SOL    HW1 1685   1.443   5.508   1.519
  262SOL    HW2 1686   1.340   5.387   1.556
  263SOL     OW 1687   0.472   4.545   4.081
  263SOL    HW1 1688   0.531   4.518   4.157
  263SOL    HW2 1689   0.385   4.497   4.088
  264SOL     OW 1690   2.993   4.232   0.589
  264SOL    HW1 1691   3.040   4.277   0.514
  264SOL    HW2 1692   2.980   4.298   0.664
  265SOL     OW 1693   3.983   5.496   3.709
  265SOL    HW1 1694   4.024   5.405   3.715
  265SOL    HW2 1695   4.015   5.551   3.785
  266SOL     OW 1696   4.160   3.475   6.754
  266SOL    HW1 1697   4.158   3.557   6.697
  266SOL    HW2 1698   4.235   3.481   6.820
  267SOL     OW 1699   2.387   2.748   5.733
  267SOL    HW1 1700   2.287   2.754   5.735
  267SOL    HW2 1701   2.425   2.836   5.704
  268SOL     OW 1702   1.954   4.439   3.523
  268SOL    HW1 1703   1.897   4.516   3.495
  268SOL    HW2 1704   1.974   4.446   3.621
  269SOL     OW 1705   3.029   1.701   5.861
  269SOL    HW1 1706   3.003   1.656   5.946
  269SOL    HW2 1707   3.118   1.745   5.872
  270SOL     OW 1708   5.220   6.317   4.812
  270SOL    HW1 1709   5.213   6.383   4.737
  270SOL    HW2 1710   5.316   6.295   4.829
  271SOL     OW 1711   2.089   1.749   0.427
  271SOL    HW1 1712   2.172   1.796   0.395
  271SOL    HW2 1713   2.034   1.813   0.480
  272SOL     OW 1714   4.455   5.360   0.190
  272SOL    HW1 1715   4.450   5.350   0.090
  272SOL    HW2 1716   4.417   5.278   0.233
  273SOL     OW 1717   1.571   5.990   3.803
  273SOL    HW1 1718   1.622   5.991   3.888
  273SOL    HW2 1719   1.571   5.898   3.764
  274SOL     OW 1720   5.867   2.405   2.194
  274SOL    HW1 1721   5.814   2.351   2.260
  274SOL    HW2 1722   5.837   2.383   2.101
  275SOL     OW 1723   5.904   5.550   5.696
  275SOL    HW1 1724   5.876   5.490   5.771
  275SOL    HW2 1725   5.991   5.518   5.659
  276SOL     OW 1726   1.011   0.207   4.385
  276SOL    HW1 1727   1.019   0.175   4.291
  276SOL    HW2 1728   0.915   0.200   4.415
  277SOL     OW 1729   3.796   2.799   5.195
  277SOL    HW1 1730   3.728   2.757   5.255
  277SOL    HW2 1731   3.765   2.795   5.100
  278SOL     OW 1732   5.697   4.666   2.634
  278SOL    HW1 1733   5.767   4.646   2.565
  278SOL    HW2 1734   5.607   4.671   2.589
  279SOL     OW 1735   0.382   3.957   3.669
  279SOL    HW1 1736   0.320   3.894   3.715
  279SOL    HW2 1737   0.476   3.933   3.690
  280SOL     OW 1738   4.301   1.948   3.752
  280SOL    HW1 1739   4.231   1.877   3.746
  280SOL    HW2 1740   4.389   1.905   3.777
  281SOL     OW 1741   4.998   5.464   5.089
  281SOL    HW1 1742   5.097   5.472   5.106
  281SOL    HW2 1743   4.956   5.411   5.162
  282SOL     OW 1744   0.492   2.544   0.152
  282SOL    HW1 1745   0.408   2.597   0.162
  282SOL    HW2 1746   0.510   2.526   0.055
  283SOL     OW 1747   5.972   3.945   3.230
  283SOL    HW1 1748   5.919   3.863   3.208
  283SOL    HW2 1749   5.927   3.995   3.304
  284SOL     OW 1750   5.789   6.618   3.149
  284SOL    HW1 1751   5.852   6.562   3.095
  284SOL    HW2 1752   5.794   6.713   3.120
  285SOL     OW 1753   4.289   6.200   5.909
  285SOL    HW1 1754   4.330   6.114   5.937
  285SOL    HW2 1755   4.360   6.266   5.885
  286SOL     OW 1756   2.942   4.671   5.581
  286SOL    HW1 1757   2.913   4.618   5.661
  286SOL    HW2 1758   2.980   4.759   5.611
  287SOL     OW 1759   3.439   6.137   0.586
  287SOL    HW1 1760   3.342   6.129   0.610
  287SOL    HW2 1761   3.446   6.160   0.488
  288SOL     OW 1762   4.593   1.246   0.179
  288SOL    HW1 1763   4.693   1.249   0.169
  288SOL    HW2 1764   4.566   1.296   0.261
  289SOL     OW 1765   5.178   5.029   4.604
  289SOL    HW1 1766   5.093   4.978   4.593
  289SOL    HW2 1767   5.169   5.118   4.560
  290SOL     OW 1768   3.905   0.529   4.973
  290SOL    HW1 1769   3.866   0.522   4.881
  290SOL    HW2 1770   3.892   0.622   5.007
  291SOL     OW 1771   5.625   0.906   4.952
  291SOL    HW1 1772   5.698   0.905   4.884
  291SOL    HW2 1773   5.583   0.816   4.957
  292SOL     OW 1774   3.402   0.650   3.569
  292SOL    HW1 1775   3.397   0.749   3.558
  292SOL    HW2 1776   3.409   0.628   3.666
  293SOL     OW 1777   5.529   0.534   2.608
  293SOL    HW1 1778   5.600   0.528   2.678
  293SOL    HW2 1779   5.531   0.625   2.566
  294SOL     OW 1780   6.607   1.447   6.323
  294SOL    HW1 1781   6.700   1.482   6.326
  294SOL    HW2 1782   6.564   1.457   6.413
  295SOL     OW 1783   0.484   0.203   5.079
  295SOL    HW1 1784   0.538   0.136   5.129
  295SOL    HW2 1785   0.479   0.288   5.132
  296SOL     OW 1786   0.860   1.722   1.592
  296SOL    HW1 1787   0.928   1.745   1.522
  296SOL    HW2 1788   0.768   1.727   1.552
  297SOL     OW 1789   5.186   3.333   3.277
  297SOL    HW1 1790   5.170   3.431   3.290
  297SOL    HW2 1791   5.102   3.283   3.298
  298SOL     OW 1792   4.509   0.341   5.317
  298SOL    HW1 1793   4.448   0.360   5.394
  298SOL    HW2 1794   4.602   0.367   5.342
  299SOL     OW 1795   0.541   1.216   5.756
  299SOL    HW1 1796   0.582   1.149   5.818
  299SOL    HW2 1797   0.476   1.273   5.808
  300SOL     OW 1798   4.527   6.003   3.998
  300SOL    HW1 1799   4.473   6.079   3.963
  300SOL    HW2 1800   4.624   6.021   3.981
  301SOL     OW 1801   0.022   6.087   5.423
  301SOL    HW1 1802   0.056   6.045   5.506
  301SOL    HW2 1803   0.070   6.048   5.344
  302SOL     OW 1804   7.007   6.432   2.124
  302SOL    HW1 1805   7.020   6.445   2.026
  302SOL    HW2 1806   6.914   6.458   2.149
  303SOL     OW 1807   5.378   5.545   2.322
  303SOL    HW1 1808   5.429   5.628   2.343
  303SOL    HW2 1809   5.417   5.468   2.374
  304SOL     OW 1810   1.608   0.150   3.757
  304SOL    HW1 1811   1.640   0.065   3.799
  304SOL    HW2 1812   1.615   0.225   3.822
  305SOL     OW 1813   1.972   1.837   1.397
  305SOL    HW1 1814   2.018   1.890   1.326
  305SOL    HW2 1815   2.031   1.762   1.426
  306SOL     OW 1816   0.617   0.246   2.181
  306SOL    HW1 1817   0.623   0.311   2.106
  306SOL    HW2 1818   0.524   0.245   2.217
  307SOL     OW 1819   3.678   4.073   3.974
  307SOL    HW1 1820   3.754   4.031   3.924
  307SOL    HW2 1821   3.677   4.039   4.068
  308SOL     OW 1822   6.114   1.596   1.968
  308SOL    HW1 1823   6.106   1.616   1.870
  308SOL    HW2 1824   6.170   1.666   2.012
  309SOL     OW 1825   1.366   4.826   0.234
  309SOL    HW1 1826   1.400   4.758   0.169
  309SOL    HW2 1827   1.345   4.781   0.321
  310SOL     OW 1828   4.497   6.486   5.304
  310SOL    HW1 1829   4.527   6.416   5.369
  310SOL    HW2 1830   4.508   6.576   5.346
  311SOL     OW 1831   1.476   6.744   1.995
  311SOL    HW1 1832   1.424   6.798   1.928
  311SOL    HW2 1833   1.548   6.801   2.035
  312SOL     OW 1834   3.452   0.444   4.300
  312SOL    HW1 1835   3.530   0.423   4.241
  312SOL    HW2 1836   3.485   0.491   4.382
  313SOL     OW 1837   3.123   3.056   2.967
  313SOL    HW1 1838   3.033   3.097   2.981
  313SOL    HW2 1839   3.161   3.029   3.056
  314SOL     OW 1840   2.718   5.112   6.252
  314SOL    HW1 1841   2.690   5.147   6.341
  314SOL    HW2 1842   2.792   5.045   6.265
  315SOL     OW 1843   6.378   0.531   4.631
  315SOL    HW1 1844   6.454   0.489   4.681
  315SOL    HW2 1845   6.352   0.617   4.675
  316SOL     OW 1846   4.090   1.465   5.683
  316SOL    HW1 1847   4.136   1.544   5.641
  316SOL    HW2 1848   4.148   1.429   5.756
  317SOL     OW 1849   0.702   2.263   1.177
  317SOL    HW1 1850   0.732   2.198   1.246
  317SOL    HW2 1851   0.624   2.226   1.127
  318SOL     OW 1852   0.804   0.516   3.011
  318SOL    HW1 1853   0.713   0.480   3.029
  318SOL    HW2 1854   0.869   0.441   3.005
  319SOL     OW 1855   1.063   0.615   2.423
  319SOL    HW1 1856   0.977   0.667   2.423
  319SOL    HW2 1857   1.114   0.636   2.506
  320SOL     OW 1858   5.224   1.250   0.028
  320SOL    HW1 1859   5.173   1.178   7.005
  320SOL    HW2 1860   5.261   1.214   0.114
  321SOL     OW 1861   4.499   3.030   1.056
  321SOL    HW1 1862   4.410   3.017   1.102
  321SOL    HW2 1863   4.550   3.101   1.104
  322SOL     OW 1864   3.047   2.573   0.012
  322SOL    HW1 1865   2.952   2.574   0.043
  322SOL    HW2 1866   3.079   2.478   0.007
  323SOL     OW 1867   1.356   3.711   2.119
  323SOL    HW1 1868   1.398   3.673   2.201
  323SOL    HW2 1869   1.419   3.704   2.042
  324SOL     OW 1870   0.039   0.728   3.652
  324SOL    HW1 1871   0.103   0.710   3.577
  324SOL    HW2 1872   0.016   0.642   3.698
  325SOL     OW 1873   6.147   3.586   1.115
  325SOL    HW1 1874   6.209   3.515   1.148
  325SOL    HW2 1875   6.053   3.563   1.141
  326SOL     OW 1876   6.817   5.681   6.895
  326SOL    HW1 1877   6.718   5.686   6.909
  326SOL    HW2 1878   6.838   5.606   6.833
  327SOL     OW 1879   4.083   6.198   6.503
  327SOL    HW1 1880   4.181   6.211   6.488
  327SOL    HW2 1881   4.034   6.217   6.418
  328SOL     OW 1882   1.414   4.920   3.286
  328SOL    HW1 1883   1.327   4.900   3.242
  328SOL    HW2 1884   1.399   4.945   3.382
  329SOL     OW 1885   3.717   2.843   2.053
  329SOL    HW1 1886   3.688   2.755   2.090
  329SOL    HW2 1887   3.712   2.840   1.953
  330SOL     OW 1888   2.586   3.303   6.683
  330SOL    HW1 1889   2.562   3.362   6.760
  330SOL    HW2 1890   2.511   3.302   6.617
  331SOL     OW 1891   5.027   4.800   4.366
  331SOL    HW1 1892   4.933   4.824   4.388
  331SOL    HW2 1893   5.062   4.737   4.436
  332SOL     OW 1894   5.718   1.702   2.673
  332SOL    HW1 1895   5.775   1.621   2.676
  332SOL    HW2 1896   5.677   1.718   2.763
  333SOL     OW 1897   4.034   6.770   3.728
  333SOL    HW1 1898   3.964   6.841   3.719
  333SOL    HW2 1899   4.026   6.705   3.652
  334SOL     OW 1900   3.460   3.540   4.116
  334SOL    HW1 1901   3.457   3.618   4.054
  334SOL    HW2 1902   3.531   3.554   4.185
  335SOL     OW 1903   3.608   0.948   0.759
  335SOL    HW1 1904   3.582   1.037   0.795
  335SOL    HW2 1905   3.587   0.877   0.825
  336SOL     OW 1906   4.030   2.174   4.984
  336SOL    HW1 1907   3.949   2.152   5.038
  336SOL    HW2 1908   4.071   2.258   5.017
  337SOL     OW 1909   0.094   1.015   5.180
  337SOL    HW1 1910   0.006   1.047   5.144
  337SOL    HW2 1911   0.112   0.922   5.146
  338SOL     OW 1912   4.954   1.003   1.826
  338SOL    HW1 1913   4.895   1.033   1.752
  338SOL    HW2 1914   4.898   0.967   1.901
  339SOL     OW 1915   4.304   5.166   6.165
  339SOL    HW1 1916   4.337   5.257   6.188
  339SOL    HW2 1917   4.204   5.164   6.175
  340SOL     OW 1918   4.983   3.258   5.174
  340SOL    HW1 1919   5.044   3.246   5.095
  340SOL    HW2 1920   5.033   3.299   5.249
  341SOL     OW 1921   6.914   0.225   1.880
  341SOL    HW1 1922   6.877   0.310   1.843
  341SOL    HW2 1923   6.930   0.160   1.805
  342SOL     OW 1924   4.616   1.456   1.719
  342SOL    HW1 1925   4.714   1.456   1.737
  342SOL    HW2 1926   4.584   1.361   1.710
  343SOL     OW 1927   5.297   0.155   1.136
  343SOL    HW1 1928   5.298   0.246   1.177
  343SOL    HW2 1929   5.244   0.092   1.193
  344SOL     OW 1930   6.760   3.021   1.706
  344SOL    HW1 1931   6.675   2.975   1.730
  344SOL    HW2 1932   6.745   3.119   1.700
  345SOL     OW 1933   0.159   2.135   4.402
  345SOL    HW1 1934   0.229   2.180   4.456
  345SOL    HW2 1935   0.096   2.204   4.365
  346SOL     OW 1936   1.985   5.921   2.743
  346SOL    HW1 1937   2.031   5.958   2.662
  346SOL    HW2 1938   1.985   5.821   2.739
  347SOL     OW 1939   2.802   4.892   1.397
  347SOL    HW1 1940   2.762   4.804   1.373
  347SOL    HW2 1941   2.776   4.916   1.490
  348SOL     OW 1942   5.299   4.922   1.706
  348SOL    HW1 1943   5.242   4.954   1.781
  348SOL    HW2 1944   5.294   4.987   1.630
  349SOL     OW 1945   5.771   4.775   1.101
  349SOL    HW1 1946   5.781   4.736   1.009
  349SOL    HW2 1947   5.694   4.840   1.100
  350SOL     OW 1948   2.304   1.766   0.644
  350SOL    HW1 1949   2.276   1.788   0.550
  350SOL    HW2 1950   2.223   1.755   0.701
  351SOL     OW 1951   3.724   4.085   1.370
  351SOL    HW1 1952   3.794   4.148   1.335
  351SOL    HW2 1953   3.633   4.118   1.343
  352SOL     OW 1954   4.039   6.586   2.244
  352SOL    HW1 1955   3.964   6.519   2.247
  352SOL    HW2 1956   4.078   6.588   2.152
  353SOL     OW 1957   2.047   6.968   0.429
  353SOL    HW1 1958   2.022   6.980   0.525
  353SOL    HW2 1959   1.995   6.891   0.391
  354SOL     OW 1960   1.784   2.291   0.851
  354SOL    HW1 1961   1.741   2.225   0.788
  354SOL    HW2 1962   1.716   2.359   0.879
  355SOL     OW 1963   0.420   2.968   3.405
  355SOL    HW1 1964   0.321   2.956   3.418
  355SOL    HW2 1965   0.464   2.983   3.493
  356SOL     OW 1966   2.919   0.999   5.531
  356SOL    HW1 1967   2.900   0.905   5.505
  356SOL    HW2 1968   2.962   1.047   5.454
  357SOL     OW 1969   5.924   6.010   4.044
  357SOL    HW1 1970   5.841   6.059   4.018
  357SOL    HW2 1971   5.908   5.958   4.128
  358SOL     OW 1972   3.074   6.037   7.016
  358SOL    HW1 1973   3.047   5.942   7.000
  358SOL    HW2 1974   2.997   6.098   6.996
  359SOL     OW 1975   1.456   1.868   1.828
  359SOL    HW1 1976   1.373   1.871   1.884
  359SOL    HW2 1977   1.442   1.926   1.747
  360SOL     OW 1978   2.108   3.890   3.290
  360SOL    HW1 1979   2.132   3.837   3.371
  360SOL    HW2 1980   2.057   3.972   3.317
  361SOL     OW 1981   0.145   2.078   2.457
  361SOL    HW1 1982   0.168   2.130   2.540
  361SOL    HW2 1983   0.163   1.981   2.472
  362SOL     OW 1984   4.081   3.740   2.413
  362SOL    HW1 1985   4.040   3.752   2.504
  362SOL    HW2 1986   4.043   3.808   2.350
  363SOL     OW 1987   4.537   5.427   0.580
  363SOL    HW1 1988   4.498   5.501   0.525
  363SOL    HW2 1989   4.623   5.396   0.538
  364SOL     OW 1990   1.168   0.493   0.419
  364SOL    HW1 1991   1.201   0.523   0.509
  364SOL    HW2 1992   1.068   0.491   0.420
  365SOL     OW 1993   5.795   0.642   4.048
  365SOL    HW1 1994   5.753   0.670   4.134
  365SOL    HW2 1995   5.893   0.658   4.052
  366SOL     OW 1996   5.180   1.527   0.074
  366SOL    HW1 1997   5.277   1.552   0.069
  366SOL    HW2 1998   5.164   1.442   0.024
  367SOL     OW 1999   5.652   1.019   6.960
  367SOL    HW1 2000   5.645   1.016   0.037
  367SOL    HW2 2001   5.649   1.114   6.929
  368SOL     OW 2002   2.241   1.634   6.483
  368SOL    HW1 2003   2.253   1.733   6.477
  368SOL    HW2 2004   2.144   1.613   6.489
  369SOL     OW 2005   5.558   4.675   0.386
  369SOL    HW1 2006   5.583   4.723   0.469
  369SOL    HW2 2007   5.477   4.718   0.346
  370SOL     OW 2008   2.308   2.565   3.266
  370SOL    HW1 2009   2.236   2.622   3.226
  370SOL    HW2 2010   2.397   2.600   3.240
  371SOL     OW 2011   1.978   5.594   0.042
  371SOL    HW1 2012   2.077   5.587   0.051
  371SOL    HW2 2013   1.946   5.675   0.091
  372SOL     OW 2014   2.124   5.922   6.069
  372SOL    HW1 2015   2.222   5.922   6.086
  372SOL    HW2 2016   2.100   5.841   6.015
  373SOL     OW 2017   6.429   4.591   3.140
  373SOL    HW1 2018   6.467   4.660   3.202
  373SOL    HW2 2019   6.478   4.594   3.053
  374SOL     OW 2020   2.758   2.295   2.389
  374SOL    HW1 2021   2.694   2.218   2.388
  374SOL    HW2 2022   2.813   2.293   2.306
  375SOL     OW 2023   0.628   5.911   4.176
  375SOL    HW1 2024   0.628   5.990   4.237
  375SOL    HW2 2025   0.689   5.929   4.099
  376SOL     OW 2026   4.420   0.280   3.488
  376SOL    HW1 2027   4.485   0.222   3.538
  376SOL    HW2 2028   4.419   0.371   3.530
  377SOL     OW 2029   2.692   2.356   6.233
  377SOL    HW1 2030   2.619   2.355   6.302
  377SOL    HW2 2031   2.672   2.288   6.163
  378SOL     OW 2032   4.036   1.210   2.065
  378SOL    HW1 2033   3.987   1.232   2.149
  378SOL    HW2 2034   4.104   1.140   2.083
  379SOL     OW 2035   3.977   2.912   6.633
  379SOL    HW1 2036   3.974   3.010   6.651
  379SOL    HW2 2037   4.056   2.892   6.575
  380SOL     OW 2038   4.679   1.971   0.460
  380SOL    HW1 2039   4.696   2.055   0.511
  380SOL    HW2 2040   4.696   1.987   0.362
  381SOL     OW 2041   1.944   4.190   2.707
  381SOL    HW1 2042   1.895   4.122   2.653
  381SOL    HW2 2043   2.043   4.177   2.695
  382SOL     OW 2044   6.010   6.966   0.472
  382SOL    HW1 2045   5.996   0.030   0.426
  382SOL    HW2 2046   5.990   6.975   0.569
  383SOL     OW 2047   4.504   3.581   0.402
  383SOL    HW1 2048   4.439   3.532   0.459
  383SOL    HW2 2049   4.498   3.679   0.419
  384SOL     OW 2050   0.591   3.178   5.483
  384SOL    HW1 2051   0.630   3.159   5.393
  384SOL    HW2 2052   0.602   3.275   5.504
  385SOL     OW 2053   4.565   2.156   6.942
  385SOL    HW1 2054   4.489   2.181   6.882
  385SOL    HW2 2055   4.588   2.234   7.001
  386SOL     OW 2056   4.155   6.601   4.928
  386SOL    HW1 2057   4.200   6.582   5.016
  386SOL    HW2 2058   4.136   6.514   4.881
  387SOL     OW 2059   2.834   5.821   4.509
  387SOL    HW1 2060   2.917   5.868   4.481
  387SOL    HW2 2061   2.857   5.729   4.542
  388SOL     OW 2062   1.619   5.055   5.912
  388SOL    HW1 2063   1.555   5.131   5.898
  388SOL    HW2 2064   1.574   4.982   5.962
  389SOL     OW 2065   2.892   3.692   1.378
  389SOL    HW1 2066   2.901   3.758   1.304
  389SOL    HW2 2067   2.800   3.653   1.377
  390SOL     OW 2068   2.721   0.873   4.746
  390SOL    HW1 2069   2.662   0.953   4.756
  390SOL    HW2 2070   2.814   0.896   4.777
  391SOL     OW 2071   1.700   2.201   6.936
  391SOL    HW1 2072   1.700   2.289   6.890
  391SOL    HW2 2073   1.665   2.131   6.875
  392SOL     OW 2074   3.223   5.564   4.770
  392SOL    HW1 2075   3.275   5.624   4.710
  392SOL    HW2 2076   3.242   5.587   4.865
  393SOL     OW 2077   6.175   4.369   5.696
  393SOL    HW1 2078   6.078   4.343   5.698
  393SOL    HW2 2079   6.195   4.426   5.775
  394SOL     OW 2080   1.986   1.376   6.268
  394SOL    HW1 2081   1.972   1.277   6.268
  394SOL    HW2 2082   2.065   1.397   6.326
  395SOL     OW 2083   6.859   2.878   0.744
  395SOL    HW1 2084   6.900   2.804   0.690
  395SOL    HW2 2085   6.802   2.935   0.684
  396SOL     OW 2086   3.438   3.151   5.255
  396SOL    HW1 2087   3.384   3.222   5.302
  396SOL    HW2 2088   3.535   3.164   5.279
  397SOL     OW 2089   4.342   1.395   6.730
  397SOL    HW1 2090   4.415   1.446   6.683
  397SOL    HW2 2091   4.336   1.425   6.825
  398SOL     OW 2092   0.647   4.342   2.284
  398SOL    HW1 2093   0.617   4.284   2.207
  398SOL    HW2 2094   0.734   4.307   2.320
  399SOL     OW 2095   4.749   4.895   1.994
  399SOL    HW1 2096   4.670   4.923   1.940
  399SOL    HW2 2097   4.769   4.798   1.977
  400SOL     OW 2098   2.094   4.587   4.470
  400SOL    HW1 2099   2.131   4.651   4.537
  400SOL    HW2 2100   2.036   4.520   4.516
  401SOL     OW 2101   5.796   1.700   0.734
  401SOL    HW1 2102   5.878   1.661   0.691
  401SOL    HW2 2103   5.769   1.643   0.812
  402SOL     OW 2104   7.021   4.446   0.834
  402SOL    HW1 2105   6.963   4.438   0.915
  402SOL    HW2 2106   6.965   4.435   0.751
  403SOL     OW 2107   4.586   4.781   0.632
  403SOL    HW1 2108   4.556   4.868   0.593
  403SOL    HW2 2109   4.628   4.796   0.721
  404SOL     OW 2110   0.295   6.073   4.765
  404SOL    HW1 2111   0.313   6.052   4.669
  404SOL    HW2 2112   0.382   6.083   4.814
  405SOL     OW 2113   0.943   2.366   1.234
  405SOL    HW1 2114   0.855   2.342   1.194
  405SOL    HW2 2115   1.012   2.375   1.162
  406SOL     OW 2116   1.331   2.643   3.763
  406SOL    HW1 2117   1.410   2.627   3.822
  406SOL    HW2 2118   1.295   2.555   3.731
  407SOL     OW 2119   3.423   2.109   4.389
  407SOL    HW1 2120   3.518   2.133   4.370
  407SOL    HW2 2121   3.402   2.130   4.485
  408SOL     OW 2122   2.606   0.364   4.215
  408SOL    HW1 2123   2.533   0.318   4.165
  408SOL    HW2 2124   2.694   0.344   4.173
  409SOL     OW 2125   6.895   3.578   4.220
  409SOL    HW1 2126   6.947   3.664   4.220
  409SOL    HW2 2127   6.854   3.564   4.310
  410SOL     OW 2128   2.966   6.877   6.262
  410SOL    HW1 2129   3.056   6.851   6.295
  410SOL    HW2 2130   2.971   6.966   6.217
  411SOL     OW 2131   0.645   3.829   4.839
  411SOL    HW1 2132   0.703   3.757   4.802
  411SOL    HW2 2133   0.613   3.803   4.930
  412SOL     OW 2134   4.597   0.016   2.505
  412SOL    HW1 2135   4.694   0.008   2.526
  412SOL    HW2 2136   4.582   0.095   2.445
  413SOL     OW 2137   2.211   0.777   2.642
  413SOL    HW1 2138   2.164   0.733   2.718
  413SOL    HW2 2139   2.308   0.755   2.645
  414SOL     OW 2140   4.852   4.563   0.969
  414SOL    HW1 2141   4.902   4.616   1.037
  414SOL    HW2 2142   4.791   4.624   0.919
  415SOL     OW 2143   3.954   6.780   2.418
  415SOL    HW1 2144   3.996   6.693   2.391
  415SOL    HW2 2145   3.910   6.822   2.339
  416SOL     OW 2146   3.518   5.509   0.125
  416SOL    HW1 2147   3.566   5.425   0.147
  416SOL    HW2 2148   3.578   5.569   0.072
  417SOL     OW 2149   4.847   5.028   1.621
  417SOL    HW1 2150   4.754   5.037   1.658
  417SOL    HW2 2151   4.911   5.011   1.695
  418SOL     OW 2152   6.442   5.298   6.735
  418SOL    HW1 2153   6.417   5.266   6.644
  418SOL    HW2 2154   6.537   5.329   6.735
  419SOL     OW 2155   5.471   6.008   0.603
  419SOL    HW1 2156   5.461   5.917   0.563
  419SOL    HW2 2157   5.381   6.045   0.624
  420SOL     OW 2158   4.979   3.921   7.019
  420SOL    HW1 2159   4.943   3.884   6.933
  420SOL    HW2 2160   5.071   3.957   7.004
  421SOL     OW 2161   1.541   6.645   6.587
  421SOL    HW1 2162   1.518   6.739   6.564
  421SOL    HW2 2163   1.461   6.599   6.624
  422SOL     OW 2164   5.761   4.335   6.696
  422SOL    HW1 2165   5.718   4.418   6.731
  422SOL    HW2 2166   5.771   4.269   6.771
  423SOL     OW 2167   1.114   3.406   6.032
  423SOL    HW1 2168   1.152   3.493   6.001
  423SOL    HW2 2169   1.052   3.370   5.963
  424SOL     OW 2170   2.007   4.082   0.314
  424SOL    HW1 2171   2.074   4.155   0.311
  424SOL    HW2 2172   1.930   4.105   0.254
  425SOL     OW 2173   2.960   6.926   0.190
  425SOL    HW1 2174   3.012   6.880   0.263
  425SOL    HW2 2175   2.909   6.858   0.138
  426SOL     OW 2176   6.564   4.091   6.224
  426SOL    HW1 2177   6.652   4.090   6.271
  426SOL    HW2 2178   6.574   4.054   6.132
  427SOL     OW 2179   4.499   3.153   0.775
  427SOL    HW1 2180   4.581   3.124   0.724
  427SOL    HW2 2181   4.504   3.119   0.869
  428SOL     OW 2182   3.708   1.612   5.984
  428SOL    HW1 2183   3.759   1.623   5.899
  428SOL    HW2 2184   3.610   1.619   5.965
  429SOL     OW 2185   2.958   6.517   0.832
  429SOL    HW1 2186   3.039   6.570   0.857
  429SOL    HW2 2187   2.920   6.551   0.746
  430SOL     OW 2188   2.769   6.792   4.069
  430SOL    HW1 2189   2.774   6.789   4.169
  430SOL    HW2 2190   2.856   6.824   4.032
  431SOL     OW 2191   3.455   1.568   6.789
  431SOL    HW1 2192   3.533   1.613   6.746
  431SOL    HW2 2193   3.449   1.474   6.757
  432SOL     OW 2194   6.974   1.492   1.337
  432SOL    HW1 2195   0.034   1.492   1.392
  432SOL    HW2 2196   6.909   1.425   1.374
  433SOL     OW 2197   2.725   5.990   4.722
  433SOL    HW1 2198   2.765   5.915   4.669
  433SOL    HW2 2199   2.781   6.006   4.803
  434SOL     OW 2200   6.101   3.353   1.443
  434SOL    HW1 2201   6.171   3.386   1.507
  434SOL    HW2 2202   6.135   3.362   1.350
  435SOL     OW 2203   3.618   3.332   0.986
  435SOL    HW1 2204   3.669   3.247   0.992
  435SOL    HW2 2205   3.590   3.347   0.891
  436SOL     OW 2206   2.807   0.673   0.521
  436SOL    HW1 2207   2.828   0.744   0.588
  436SOL    HW2 2208   2.708   0.658   0.518
  437SOL     OW 2209   6.285   0.333   5.236
  437SOL    HW1 2210   6.344   0.293   5.165
  437SOL    HW2 2211   6.290   0.276   5.318
  438SOL     OW 2212   1.857   3.519   1.291
  438SOL    HW1 2213   1.928   3.461   1.329
  438SOL    HW2 2214   1.898   3.586   1.230
  439SOL     OW 2215   6.294   4.133   1.805
  439SOL    HW1 2216   6.214   4.175   1.763
  439SOL    HW2 2217   6.265   4.057   1.863
  440SOL     OW 2218   1.594   3.226   3.011
  440SOL    HW1 2219   1.589   3.319   3.047
  440SOL    HW2 2220   1.528   3.214   2.938
  441SOL     OW 2221   0.818   0.795   3.520
  441SOL    HW1 2222   0.757   0.871   3.543
  441SOL    HW2 2223   0.797   0.762   3.428
  442SOL     OW 2224   0.040   4.657   6.616
  442SOL    HW1 2225   0.002   4.600   6.544
  442SOL    HW2 2226   7.008   4.648   6.699
  443SOL     OW 2227   0.645   4.067   5.519
  443SOL    HW1 2228   0.554   4.110   5.520
  443SOL    HW2 2229   0.714   4.135   5.543
  444SOL     OW 2230   4.782   2.845   6.702
  444SOL    HW1 2231   4.844   2.823   6.627
  444SOL    HW2 2232   4.830   2.903   6.769
  445SOL     OW 2233   1.881   4.582   3.233
  445SOL    HW1 2234   1.974   4.586   3.269
  445SOL    HW2 2235   1.817   4.615   3.303
  446SOL     OW 2236   3.115   4.894   4.152
  446SOL    HW1 2237   3.101   4.821   4.219
  446SOL    HW2 2238   3.148   4.976   4.198
  447SOL     OW 2239   0.035   6.093   0.377
  447SOL    HW1 2240   0.109   6.063   0.317
  447SOL    HW2 2241   6.971   6.057   0.344
  448SOL     OW 2242   4.480   0.715   6.020
  448SOL    HW1 2243   4.453   0.740   5.926
  448SOL    HW2 2244   4.481   0.616   6.029
  449SOL     OW 2245   5.432   0.035   4.264
  449SOL    HW1 2246   5.471   0.035   4.172
  449SOL    HW2 2247   5.503   0.060   4.330
  450SOL     OW 2248   6.539   6.370   3.468
  450SOL    HW1 2249   6.579   6.372   3.559
  450SOL    HW2 2250   6.475   6.294   3.461
  451SOL     OW 2251   6.154   2.481   3.425
  451SOL    HW1 2252   6.094   2.430   3.486
  451SOL    HW2 2253   6.240   2.503   3.472
  452SOL     OW 2254   6.747   5.088   6.189
  452SOL    HW1 2255   6.659   5.099   6.235
  452SOL    HW2 2256   6.753   5.152   6.113
  453SOL     OW 2257   2.852   1.581   5.674
  453SOL    HW1 2258   2.870   1.483   5.668
  453SOL    HW2 2259   2.908   1.621   5.746
  454SOL     OW 2260   0.886   6.563   0.649
  454SOL    HW1 2261   0.865   6.502   0.725
  454SOL    HW2 2262   0.805   6.576   0.592
  455SOL     OW 2263   5.075   0.639   4.900
  455SOL    HW1 2264   4.998   0.650   4.837
  455SOL    HW2 2265   5.121   0.727   4.913
  456SOL     OW 2266   4.256   5.634   6.727
  456SOL    HW1 2267   4.257   5.681   6.639
  456SOL    HW2 2268   4.205   5.548   6.719
  457SOL     OW 2269   0.881   4.532   1.870
  457SOL    HW1 2270   0.958   4.468   1.863
  457SOL    HW2 2271   0.916   4.625   1.879
  458SOL     OW 2272   0.044   6.551   5.610
  458SOL    HW1 2273   0.119   6.555   5.676
  458SOL    HW2 2274   0.066   6.485   5.538
  459SOL     OW 2275   1.851   0.685   3.809
  459SOL    HW1 2276   1.755   0.699   3.785
  459SOL    HW2 2277   1.876   0.747   3.883
  460SOL     OW 2278   6.622   1.770   3.879
  460SOL    HW1 2279   6.692   1.795   3.812
  460SOL    HW2 2280   6.536   1.751   3.832
  461SOL     OW 2281   5.227   5.699   5.562
  461SOL    HW1 2282   5.182   5.680   5.650
  461SOL    HW2 2283   5.183   5.778   5.519
  462SOL     OW 2284   2.872   2.340   6.803
  462SOL    HW1 2285   2.810   2.304   6.734
  462SOL    HW2 2286   2.844   2.308   6.893
  463SOL     OW 2287   0.081   5.979   1.910
  463SOL    HW1 2288   0.039   5.890   1.925
  463SOL    HW2 2289   0.042   6.022   1.828
  464SOL     OW 2290   1.781   1.728   5.769
  464SOL    HW1 2291   1.755   1.692   5.859
  464SOL    HW2 2292   1.881   1.724   5.760
  465SOL     OW 2293   6.968   3.123   5.636
  465SOL    HW1 2294   6.906   3.071   5.695
  465SOL    HW2 2295   7.008   3.198   5.687
  466SOL     OW 2296   2.892   0.365   3.215
  466SOL    HW1 2297   2.898   0.378   3.314
  466SOL    HW2 2298   2.863   0.451   3.172
  467SOL     OW 2299   1.540   1.750   5.106
  467SOL    HW1 2300   1.552   1.771   5.203
  467SOL    HW2 2301   1.490   1.664   5.097
  468SOL     OW 2302   3.278   3.964   2.079
  468SOL    HW1 2303   3.351   3.963   2.148
  468SOL    HW2 2304   3.201   3.908   2.110
  469SOL     OW 2305   2.829   5.587   0.343
  469SOL    HW1 2306   2.919   5.548   0.365
  469SOL    HW2 2307   2.762   5.553   0.409
  470SOL     OW 2308   4.043   0.378   2.886
  470SOL    HW1 2309   4.061   0.314   2.961
  470SOL    HW2 2310   4.129   0.418   2.856
  471SOL     OW 2311   2.786   1.966   4.728
  471SOL    HW1 2312   2.738   1.939   4.644
  471SOL    HW2 2313   2.728   2.028   4.780
  472SOL     OW 2314   4.118   4.290   5.296
  472SOL    HW1 2315   4.053   4.245   5.233
  472SOL    HW2 2316   4.180   4.347   5.243
  473SOL     OW 2317   1.277   4.172   3.988
  473SOL    HW1 2318   1.302   4.085   4.030
  473SOL    HW2 2319   1.345   4.241   4.011
  474SOL     OW 2320   4.651   4.641   4.998
  474SOL    HW1 2321   4.680   4.587   4.918
  474SOL    HW2 2322   4.712   4.720   5.008
  475SOL     OW 2323   1.233   6.685   6.627
  475SOL    HW1 2324   1.197   6.602   6.669
  475SOL    HW2 2325   1.207   6.688   6.530
  476SOL     OW 2326   0.798   5.285   1.811
  476SOL    HW1 2327   0.705   5.317   1.829
  476SOL    HW2 2328   0.859   5.318   1.883
  477SOL     OW 2329   1.798   5.112   3.894
  477SOL    HW1 2330   1.718   5.052   3.891
  477SOL    HW2 2331   1.769   5.208   3.890
  478SOL     OW 2332   1.722   5.630   3.063
  478SOL    HW1 2333   1.685   5.621   3.156
  478SOL    HW2 2334   1.693   5.718   3.025
  479SOL     OW 2335   3.538   1.453   1.630
  479SOL    HW1 2336   3.472   1.449   1.556
  479SOL    HW2 2337   3.493   1.487   1.713
  480SOL     OW 2338   1.685   6.304   2.338
  480SOL    HW1 2339   1.713   6.390   2.380
  480SOL    HW2 2340   1.590   6.285   2.361
  481SOL     OW 2341   2.974   6.462   1.859
  481SOL    HW1 2342   2.916   6.542   1.874
  481SOL    HW2 2343   2.937   6.407   1.785
  482SOL     OW 2344   5.367   5.427   1.111
  482SOL    HW1 2345   5.318   5.361   1.053
  482SOL    HW2 2346   5.311   5.509   1.121
  483SOL     OW 2347   5.905   1.635   1.380
  483SOL    HW1 2348   5.861   1.691   1.451
  483SOL    HW2 2349   5.919   1.691   1.298
  484SOL     OW 2350   6.589   2.637   5.066
  484SOL    HW1 2351   6.670   2.623   5.008
  484SOL    HW2 2352   6.520   2.688   5.014
  485SOL     OW 2353   3.869   5.827   2.218
  485SOL    HW1 2354   3.928   5.795   2.144
  485SOL    HW2 2355   3.919   5.893   2.274
  486SOL     OW 2356   0.312   0.154   6.463
  486SOL    HW1 2357   0.248   0.082   6.437
  486SOL    HW2 2358   0.277   0.203   6.543
  487SOL     OW 2359   6.347   3.069   6.491
  487SOL    HW1 2360   6.284   3.143   6.515
  487SOL    HW2 2361   6.315   2.984   6.534
  488SOL     OW 2362   0.649   3.337   2.165
  488SOL    HW1 2363   0.735   3.379   2.134
  488SOL    HW2 2364   0.587   3.326   2.087
  489SOL     OW 2365   3.488   6.214   5.855
  489SOL    HW1 2366   3.587   6.205   5.852
  489SOL    HW2 2367   3.445   6.124   5.860
  490SOL     OW 2368   5.615   6.052   4.374
  490SOL    HW1 2369   5.566   5.976   4.331
  490SOL    HW2 2370   5.562   6.088   4.450
  491SOL     OW 2371   0.264   2.194   3.327
  491SOL    HW1 2372   0.338   2.235   3.381
  491SOL    HW2 2373   0.199   2.265   3.300
  492SOL     OW 2374   2.047   0.932   4.695
  492SOL    HW1 2375   1.993   0.878   4.760
  492SOL    HW2 2376   2.110   0.872   4.646
  493SOL     OW 2377   6.059   4.182   4.278
  493SOL    HW1 2378   6.155   4.197   4.255
  493SOL    HW2 2379   6.051   4.161   4.376
  494SOL     OW 2380   6.084   1.949   6.880
  494SOL    HW1 2381   5.988   1.920   6.875
  494SOL    HW2 2382   6.136   1.882   6.932
  495SOL     OW 2383   4.262   4.359   0.690
  495SOL    HW1 2384   4.164   4.354   0.670
  495SOL    HW2 2385   4.289   4.454   0.702
  496SOL     OW 2386   6.013   2.756   2.872
  496SOL    HW1 2387   6.032   2.662   2.901
  496SOL    HW2 2388   5.941   2.755   2.802
  497SOL     OW 2389   3.695   6.881   4.432
  497SOL    HW1 2390   3.699   6.981   4.435
  497SOL    HW2 2391   3.740   6.843   4.513
  498SOL     OW 2392   1.138   3.148   2.574
  498SOL    HW1 2393   1.127   3.070   2.511
  498SOL    HW2 2394   1.236   3.168   2.586
  499SOL     OW 2395   3.284   1.232   5.088
  499SOL    HW1 2396   3.224   1.193   5.018
  499SOL    HW2 2397   3.315   1.322   5.059
  500SOL     OW 2398   1.447   4.262   2.254
  500SOL    HW1 2399   1.459   4.166   2.227
  500SOL    HW2 2400   1.381   4.268   2.329
  501SOL     OW 2401   1.485   5.222   6.994
  501SOL    HW1 2402   1.565   5.167   6.972
  501SOL    HW2 2403   1.405   5.162   7.005
  502SOL     OW 2404   3.377   5.411   6.243
  502SOL    HW1 2405   3.393   5.319   6.207
  502SOL    HW2 2406   3.463   5.460   6.250
  503SOL     OW 2407   5.901   5.747   5.214
  503SOL    HW1 2408   5.848   5.667   5.243
  503SOL    HW2 2409   5.948   5.786   5.293
  504SOL     OW 2410   1.975   5.566   4.475
  504SOL    HW1 2411   1.997   5.625   4.397
  504SOL    HW2 2412   1.937   5.480   4.441
  505SOL     OW 2413   3.684   6.377   5.256
  505SOL    HW1 2414   3.782   6.358   5.260
  505SOL    HW2 2415   3.670   6.476   5.247
  506SOL     OW 2416   2.228   3.647   0.015
  506SOL    HW1 2417   2.190   3.735   0.043
  506SOL    HW2 2418   2.326   3.646   0.032
  507SOL     OW 2419   3.721   2.084   4.167
  507SOL    HW1 2420   3.731   1.990   4.200
  507SOL    HW2 2421   3.714   2.146   4.245
  508SOL     OW 2422   6.278   4.183   4.077
  508SOL    HW1 2423   6.363   4.213   4.121
  508SOL    HW2 2424   6.241   4.257   4.021
  509SOL     OW 2425   4.494   2.424   1.237
  509SOL    HW1 2426   4.556   2.443   1.161
  509SOL    HW2 2427   4.402   2.453   1.213
  510SOL     OW 2428   0.831   3.831   4.409
  510SOL    HW1 2429   0.814   3.818   4.507
  510SOL    HW2 2430   0.916   3.881   4.396
  511SOL     OW 2431   0.421   6.420   1.299
  511SOL    HW1 2432   0.463   6.441   1.388
  511SOL    HW2 2433   0.479   6.456   1.226
  512SOL     OW 2434   0.904   3.934   6.562
  512SOL    HW1 2435   0.968   3.967   6.631
  512SOL    HW2 2436   0.946   3.940   6.471
  513SOL     OW 2437   0.594   5.329   4.496
  513SOL    HW1 2438   0.563   5.240   4.529
  513SOL    HW2 2439   0.619   5.322   4.399
  514SOL     OW 2440   6.282   1.923   3.155
  514SOL    HW1 2441   6.232   2.005   3.182
  514SOL    HW2 2442   6.235   1.879   3.078
  515SOL     OW 2443   1.629   5.830   6.992
  515SOL    HW1 2444   1.659   5.784   6.908
  515SOL    HW2 2445   1.546   5.785   0.003
  516SOL     OW 2446   1.268   5.382   2.348
  516SOL    HW1 2447   1.227   5.429   2.269
  516SOL    HW2 2448   1.328   5.309   2.315
  517SOL     OW 2449   4.952   0.643   6.695
  517SOL    HW1 2450   4.884   0.674   6.628
  517SOL    HW2 2451   5.042   0.641   6.652
  518SOL     OW 2452   2.811   1.732   0.774
  518SOL    HW1 2453   2.771   1.821   0.794
  518SOL    HW2 2454   2.738   1.664   0.766
  519SOL     OW 2455   0.824   0.252   0.835
  519SOL    HW1 2456   0.922   0.268   0.822
  519SOL    HW2 2457   0.796   0.171   0.784
  520SOL     OW 2458   6.837   4.282   4.619
  520SOL    HW1 2459   6.881   4.194   4.638
  520SOL    HW2 2460   6.834   4.296   4.520
  521SOL     OW 2461   6.007   0.677   0.830
  521SOL    HW1 2462   5.909   0.693   0.841
  521SOL    HW2 2463   6.036   0.604   0.892
  522SOL     OW 2464   3.485   3.755   5.831
  522SOL    HW1 2465   3.560   3.820   5.821
  522SOL    HW2 2466   3.415   3.794   5.891
  523SOL     OW 2467   6.630   6.995   4.715
  523SOL    HW1 2468   6.552   6.936   4.737
  523SOL    HW2 2469   6.705   6.975   4.777
  524SOL     OW 2470   4.396   1.437   6.068
  524SOL    HW1 2471   4.345   1.412   6.150
  524SOL    HW2 2472   4.493   1.441   6.088
  525SOL     OW 2473   2.787   2.910   6.680
  525SOL    HW1 2474   2.876   2.941   6.713
  525SOL    HW2 2475   2.778   2.812   6.695
  526SOL     OW 2476   4.152   5.564   4.849
  526SOL    HW1 2477   4.238   5.545   4.802
  526SOL    HW2 2478   4.170   5.611   4.935
  527SOL     OW 2479   1.030   1.873   0.112
  527SOL    HW1 2480   1.003   1.903   0.021
  527SOL    HW2 2481   1.127   1.845   0.110
  528SOL     OW 2482   2.321   0.972   5.680
  528SOL    HW1 2483   2.308   0.876   5.704
  528SOL    HW2 2484   2.414   0.986   5.646
  529SOL     OW 2485   6.635   4.240   4.121
  529SOL    HW1 2486   6.582   4.320   4.147
  529SOL    HW2 2487   6.710   4.267   4.061
  530SOL     OW 2488   0.863   2.173   5.056
  530SOL    HW1 2489   0.931   2.101   5.063
  530SOL    HW2 2490   0.776   2.134   5.026
  531SOL     OW 2491   0.061   0.629   0.521
  531SOL    HW1 2492   0.108   0.610   0.435
  531SOL    HW2 2493   6.987   0.610   0.510
  532SOL     OW 2494   2.016   0.165   5.707
  532SOL    HW1 2495   2.044   0.163   5.803
  532SOL    HW2 2496   2.008   0.259   5.676
  533SOL     OW 2497   5.067   0.066   4.850
  533SOL    HW1 2498   5.020   0.152   4.872
  533SOL    HW2 2499   5.142   0.052   4.914
  534SOL     OW 2500   3.391   5.177   2.691
  534SOL    HW1 2501   3.294   5.199   2.697
  534SOL    HW2 2502   3.419   5.172   2.595
  535SOL     OW 2503   6.097   4.387   2.826
  535SOL    HW1 2504   6.097   4.481   2.859
  535SOL    HW2 2505   6.148   4.382   2.740
  536SOL     OW 2506   0.574   6.352   0.821
  536SOL    HW1 2507   0.503   6.415   0.791
  536SOL    HW2 2508   0.540   6.296   0.896
  537SOL     OW 2509   2.099   0.542   3.423
  537SOL    HW1 2510   2.160   0.515   3.498
  537SOL    HW2 2511   2.094   0.642   3.419
  538SOL     OW 2512   1.267   4.676   4.076
  538SOL    HW1 2513   1.245   4.756   4.021
  538SOL    HW2 2514   1.269   4.595   4.018
  539SOL     OW 2515   1.126   5.330   1.230
  539SOL    HW1 2516   1.134   5.428   1.208
  539SOL    HW2 2517   1.034   5.299   1.210
  540SOL     OW 2518   1.241   2.631   1.461
  540SOL    HW1 2519   1.231   2.638   1.362
  540SOL    HW2 2520   1.319   2.687   1.491
  541SOL     OW 2521   3.570   4.902   5.223
  541SOL    HW1 2522   3.487   4.955   5.207
  541SOL    HW2 2523   3.635   4.918   5.149
  542SOL     OW 2524   5.775   6.416   6.824
  542SOL    HW1 2525   5.822   6.328   6.831
  542SOL    HW2 2526   5.822   6.484   6.880
  543SOL     OW 2527   6.568   5.924   0.926
  543SOL    HW1 2528   6.470   5.913   0.909
  543SOL    HW2 2529   6.584   5.931   1.024
  544SOL     OW 2530   1.137   5.909   0.378
  544SOL    HW1 2531   1.131   5.952   0.288
  544SOL    HW2 2532   1.202   5.833   0.376
  545SOL     OW 2533   3.456   1.663   4.033
  545SOL    HW1 2534   3.546   1.689   4.000
  545SOL    HW2 2535   3.414   1.740   4.080
  546SOL     OW 2536   1.615   3.255   0.294
  546SOL    HW1 2537   1.654   3.197   0.224
  546SOL    HW2 2538   1.516   3.265   0.279
  547SOL     OW 2539   2.767   2.298   0.032
  547SOL    HW1 2540   2.714   2.214   0.022
  547SOL    HW2 2541   2.709   2.370   0.072
  548SOL     OW 2542   3.092   3.149   5.290
  548SOL    HW1 2543   3.118   3.069   5.345
  548SOL    HW2 2544   3.093   3.230   5.348
  549SOL     OW 2545   0.915   3.934   1.287
  549SOL    HW1 2546   1.000   3.885   1.268
  549SOL    HW2 2547   0.841   3.896   1.230
  550SOL     OW 2548   6.883   3.255   1.173
  550SOL    HW1 2549   6.860   3.181   1.110
  550SOL    HW2 2550   6.965   3.231   1.225
  551SOL     OW 2551   0.189   1.679   6.888
  551SOL    HW1 2552   0.127   1.704   6.963
  551SOL    HW2 2553   0.212   1.760   6.835
  552SOL     OW 2554   4.767   4.866   0.319
  552SOL    HW1 2555   4.845   4.858   0.257
  552SOL    HW2 2556   4.756   4.780   0.370
  553SOL     OW 2557   1.335   2.397   1.223
  553SOL    HW1 2558   1.337   2.345   1.308
  553SOL    HW2 2559   1.248   2.380   1.176
  554SOL     OW 2560   4.946   5.309   4.868
  554SOL    HW1 2561   4.935   5.384   4.933
  554SOL    HW2 2562   5.019   5.248   4.899
  555SOL     OW 2563   1.702   4.227   4.948
  555SOL    HW1 2564   1.719   4.208   4.852
  555SOL    HW2 2565   1.747   4.157   5.004
  556SOL     OW 2566   5.803   3.532   2.622
  556SOL    HW1 2567   5.741   3.494   2.691
  556SOL    HW2 2568   5.762   3.520   2.531
  557SOL     OW 2569   0.130   5.594   6.404
  557SOL    HW1 2570   0.101   5.509   6.361
  557SOL    HW2 2571   0.053   5.635   6.452
  558SOL     OW 2572   4.449   3.598   5.590
  558SOL    HW1 2573   4.411   3.508   5.569
  558SOL    HW2 2574   4.443   3.657   5.510
  559SOL     OW 2575   5.720   5.846   6.091
  559SOL    HW1 2576   5.711   5.904   6.010
  559SOL    HW2 2577   5.805   5.868   6.139
  560SOL     OW 2578   4.199   6.729   0.106
  560SOL    HW1 2579   4.211   6.631   0.090
  560SOL    HW2 2580   4.278   6.779   0.070
  561SOL     OW 2581   5.591   6.768   1.748
  561SOL    HW1 2582   5.549   6.853   1.780
  561SOL    HW2 2583   5.525   6.693   1.758
  562SOL     OW 2584   6.453   0.841   0.021
  562SOL    HW1 2585   6.363   0.860   0.059
  562SOL    HW2 2586   6.503   0.779   0.082
  563SOL     OW 2587   3.217   0.453   5.067
  563SOL    HW1 2588   3.201   0.536   5.120
  563SOL    HW2 2589   3.305   0.460   5.020
  564SOL     OW 2590   0.530   1.977   6.218
  564SOL    HW1 2591   0.532   2.006   6.123
  564SOL    HW2 2592   0.618   1.935   6.242
  565SOL     OW 2593   4.529   4.359   5.314
  565SOL    HW1 2594   4.528   4.403   5.404
  565SOL    HW2 2595   4.468   4.280   5.315
  566SOL     OW 2596   5.651   4.852   2.128
  566SOL    HW1 2597   5.714   4.776   2.113
  566SOL    HW2 2598   5.678   4.902   2.210
  567SOL     OW 2599   3.913   4.104   4.816
  567SOL    HW1 2600   3.863   4.163   4.879
  567SOL    HW2 2601   3.865   4.100   4.728
  568SOL     OW 2602   1.973   1.244   5.820
  568SOL    HW1 2603   1.935   1.261   5.911
  568SOL    HW2 2604   1.900   1.248   5.751
  569SOL     OW 2605   2.294   3.645   6.592
  569SOL    HW1 2606   2.257   3.617   6.681
  569SOL    HW2 2607   2.267   3.578   6.522
  570SOL     OW 2608   0.147   6.239   0.800
  570SOL    HW1 2609   0.187   6.324   0.766
  570SOL    HW2 2610   0.204   6.202   0.873
  571SOL     OW 2611   3.844   5.431   3.153
  571SOL    HW1 2612   3.831   5.502   3.084
  571SOL    HW2 2613   3.939   5.432   3.185
  572SOL     OW 2614   1.825   3.967   4.750
  572SOL    HW1 2615   1.750   3.933   4.807
  572SOL    HW2 2616   1.799   4.054   4.709
  573SOL     OW 2617   3.467   2.531   0.256
  573SOL    HW1 2618   3.412   2.491   0.330
  573SOL    HW2 2619   3.492   2.625   0.280
  574SOL     OW 2620   2.465   1.461   4.287
  574SOL    HW1 2621   2.419   1.393   4.229
  574SOL    HW2 2622   2.426   1.456   4.379
  575SOL     OW 2623   5.505   2.347   6.563
  575SOL    HW1 2624   5.564   2.305   6.494
  575SOL    HW2 2625   5.537   2.321   6.654
  576SOL     OW 2626   0.873   2.840   2.807
  576SOL    HW1 2627   0.967   2.808   2.810
  576SOL    HW2 2628   0.846   2.853   2.711
  577SOL     OW 2629   3.727   2.129   4.436
  577SOL    HW1 2630   3.677   2.126   4.522
  577SOL    HW2 2631   3.815   2.174   4.451
  578SOL     OW 2632   0.281   3.613   4.394
  578SOL    HW1 2633   0.193   3.624   4.440
  578SOL    HW2 2634   0.267   3.561   4.309
  579SOL     OW 2635   3.850   3.480   0.948
  579SOL    HW1 2636   3.854   3.549   0.876
  579SOL    HW2 2637   3.756   3.470   0.980
  580SOL     OW 2638   0.827   6.467   0.200
  580SOL    HW1 2639   0.761   6.404   0.159
  580SOL    HW2 2640   0.920   6.438   0.178
  581SOL     OW 2641   4.094   3.275   2.499
  581SOL    HW1 2642   4.105   3.372   2.517
  581SOL    HW2 2643   4.083   3.260   2.401
  582SOL     OW 2644   6.898   4.444   1.410
  582SOL    HW1 2645   6.964   4.513   1.438
  582SOL    HW2 2646   6.946   4.360   1.383
  583SOL     OW 2647   2.455   5.994   6.753
  583SOL    HW1 2648   2.417   6.000   6.845
  583SOL    HW2 2649   2.487   6.084   6.725
  584SOL     OW 2650   0.582   5.410   5.031
  584SOL    HW1 2651   0.559   5.495   4.984
  584SOL    HW2 2652   0.635   5.351   4.970
  585SOL     OW 2653   6.024   0.770   5.462
  585SOL    HW1 2654   6.066   0.847   5.413
  585SOL    HW2 2655   6.095   0.714   5.505
  586SOL     OW 2656   2.649   6.118   1.393
  586SOL    HW1 2657   2.702   6.059   1.332
  586SOL    HW2 2658   2.701   6.133   1.477
  587SOL     OW 2659   1.584   3.833   5.602
  587SOL    HW1 2660   1.651   3.759   5.612
  587SOL    HW2 2661   1.628   3.920   5.626
  588SOL     OW 2662   2.086   0.168   1.692
  588SOL    HW1 2663   2.033   0.253   1.697
  588SOL    HW2 2664   2.074   0.117   1.777
  589SOL     OW 2665   4.509   5.134   2.199
  589SOL    HW1 2666   4.580   5.091   2.255
  589SOL    HW2 2667   4.437   5.067   2.179
  590SOL     OW 2668   6.336   2.746   2.012
  590SOL    HW1 2669   6.320   2.678   1.940
  590SOL    HW2 2670   6.434   2.759   2.023
  591SOL     OW 2671   2.707   6.704   2.877
  591SOL    HW1 2672   2.801   6.678   2.899
  591SOL    HW2 2673   2.678   6.776   2.940
  592SOL     OW 2674   5.076   7.014   6.142
  592SOL    HW1 2675   5.076   6.914   6.135
  592SOL    HW2 2676   5.023   0.018   6.222
  593SOL     OW 2677   6.290   1.352   4.648
  593SOL    HW1 2678   6.310   1.373   4.743
  593SOL    HW2 2679   6.350   1.404   4.588
  594SOL     OW 2680   5.341   2.411   1.409
  594SOL    HW1 2681   5.387   2.375   1.491
  594SOL    HW2 2682   5.281   2.340   1.371
  595SOL     OW 2683   4.527   6.787   3.979
  595SOL    HW1 2684   4.440   6.775   3.931
  595SOL    HW2 2685   4.579   6.702   3.976
  596SOL     OW 2686   0.791   3.848   1.677
  596SOL    HW1 2687   0.803   3.751   1.654
  596SOL    HW2 2688   0.880   3.894   1.676
  597SOL     OW 2689   4.301   2.726   5.974
  597SOL    HW1 2690   4.333   2.632   5.965
  597SOL    HW2 2691   4.369   2.788   5.936
  598SOL     OW 2692   3.119   4.046   1.327
  598SOL    HW1 2693   3.050   3.994   1.377
  598SOL    HW2 2694   3.084   4.137   1.307
  599SOL     OW 2695   6.705   6.369   3.699
  599SOL    HW1 2696   6.793   6.351   3.655
  599SOL    HW2 2697   6.716   6.368   3.798
  600SOL     OW 2698   2.832   1.619   1.324
  600SOL    HW1 2699   2.767   1.694   1.314
  600SOL    HW2 2700   2.793   1.549   1.383
  601SOL     OW 2701   2.213   4.934   3.431
  601SOL    HW1 2702   2.284   4.941   3.362
  601SOL    HW2 2703   2.191   5.025   3.466
  602SOL     OW 2704   6.817   0.531   2.020
  602SOL    HW1 2705   6.815   0.437   2.055
  602SOL    HW2 2706   6.828   0.529   1.920
  603SOL     OW 2707   3.833   1.809   3.330
  603SOL    HW1 2708   3.894   1.767   3.396
  603SOL    HW2 2709   3.798   1.895   3.367
  604SOL     OW 2710   1.103   3.698   6.300
  604SOL    HW1 2711   1.040   3.723   6.227
  604SOL    HW2 2712   1.179   3.645   6.261
  605SOL     OW 2713   5.787   0.094   4.744
  605SOL    HW1 2714   5.785   0.189   4.714
  605SOL    HW2 2715   5.816   0.089   4.839
  606SOL     OW 2716   3.796   6.991   2.788
  606SOL    HW1 2717   3.833   0.029   2.858
  606SOL    HW2 2718   3.857   6.913   2.777
  607SOL     OW 2719   4.357   0.686   4.260
  607SOL    HW1 2720   4.344   0.784   4.272
  607SOL    HW2 2721   4.316   0.637   4.337
  608SOL     OW 2722   5.770   2.753   1.473
  608SOL    HW1 2723   5.803   2.793   1.559
  608SOL    HW2 2724   5.767   2.654   1.482
  609SOL     OW 2725   3.050   4.046   4.962
  609SOL    HW1 2726   2.975   4.064   5.026
  609SOL    HW2 2727   3.076   3.950   4.968
  610SOL     OW 2728   5.997   1.809   4.322
  610SOL    HW1 2729   5.935   1.781   4.249
  610SOL    HW2 2730   6.092   1.796   4.292
  611SOL     OW 2731   5.648   6.677   0.437
  611SOL    HW1 2732   5.607   6.586   0.430
  611SOL    HW2 2733   5.616   6.733   0.361
  612SOL     OW 2734   2.244   5.548   5.642
  612SOL    HW1 2735   2.168   5.546   5.706
  612SOL    HW2 2736   2.295   5.634   5.652
  613SOL     OW 2737   3.908   1.348   6.353
  613SOL    HW1 2738   3.959   1.262   6.343
  613SOL    HW2 2739   3.970   1.421   6.381
  614SOL     OW 2740   5.219   3.051   1.149
  614SOL    HW1 2741   5.181   2.961   1.172
  614SOL    HW2 2742   5.313   3.057   1.185
  615SOL     OW 2743   4.949   6.483   0.697
  615SOL    HW1 2744   4.855   6.502   0.669
  615SOL    HW2 2745   5.003   6.457   0.617
  616SOL     OW 2746   4.714   0.453   4.601
  616SOL    HW1 2747   4.756   0.457   4.692
  616SOL    HW2 2748   4.633   0.394   4.605
  617SOL     OW 2749   6.987   6.398   5.025
  617SOL    HW1 2750   7.004   6.310   5.069
  617SOL    HW2 2751   0.029   6.466   5.059
  618SOL     OW 2752   5.424   4.787   0.895
  618SOL    HW1 2753   5.335   4.742   0.891
  618SOL    HW2 2754   5.442   4.816   0.989
  619SOL     OW 2755   2.271   6.151   5.860
  619SOL    HW1 2756   2.212   6.181   5.935
  619SOL    HW2 2757   2.360   6.125   5.896
  620SOL     OW 2758   4.594   2.025   2.426
  620SOL    HW1 2759   4.584   2.040   2.524
  620SOL    HW2 2760   4.692   2.018   2.403
  621SOL     OW 2761   3.350   0.789   6.882
  621SOL    HW1 2762   3.256   0.773   6.851
  621SOL    HW2 2763   3.410   0.720   6.842
  622SOL     OW 2764   0.464   3.600   6.032
  622SOL    HW1 2765   0.416   3.663   5.971
  622SOL    HW2 2766   0.495   3.520   5.980
  623SOL     OW 2767   6.860   0.730   2.867
  623SOL    HW1 2768   6.926   0.723   2.793
  623SOL    HW2 2769   6.834   0.639   2.899
  624SOL     OW 2770   6.103   1.575   6.027
  624SOL    HW1 2771   6.076   1.536   6.115
  624SOL    HW2 2772   6.021   1.601   5.975
  625SOL     OW 2773   3.411   1.159   1.664
  625SOL    HW1 2774   3.419   1.234   1.729
  625SOL    HW2 2775   3.470   1.177   1.585
  626SOL     OW 2776   0.980   6.111   3.494
  626SOL    HW1 2777   0.980   6.165   3.578
  626SOL    HW2 2778   0.888   6.075   3.478
  627SOL     OW 2779   6.726   5.393   6.625
  627SOL    HW1 2780   6.801   5.416   6.687
  627SOL    HW2 2781   6.759   5.327   6.557
  628SOL     OW 2782   3.670   5.059   6.387
  628SOL    HW1 2783   3.693   5.093   6.296
  628SOL    HW2 2784   3.695   4.963   6.394
  629SOL     OW 2785   1.027   6.782   0.136
  629SOL    HW1 2786   1.050   6.775   0.233
  629SOL    HW2 2787   0.929   6.763   0.124
  630SOL     OW 2788   6.630   1.961   1.342
  630SOL    HW1 2789   6.654   1.996   1.433
  630SOL    HW2 2790   6.700   1.988   1.277
  631SOL     OW 2791   2.108   2.973   3.225
  631SOL    HW1 2792   2.073   2.919   3.301
  631SOL    HW2 2793   2.069   3.065   3.228
  632SOL     OW 2794   2.810   4.139   1.181
  632SOL    HW1 2795   2.876   4.205   1.216
  632SOL    HW2 2796   2.810   4.141   1.081
  633SOL     OW 2797   1.450   6.023   0.743
  633SOL    HW1 2798   1.500   6.090   0.688
  633SOL    HW2 2799   1.357   6.013   0.709
  634SOL     OW 2800   2.927   3.269   5.088
  634SOL    HW1 2801   2.931   3.177   5.050
  634SOL    HW2 2802   3.017   3.292   5.126
  635SOL     OW 2803   5.984   6.665   6.558
  635SOL    HW1 2804   5.966   6.723   6.637
  635SOL    HW2 2805   6.083   6.656   6.544
  636SOL     OW 2806   2.434   0.893   4.658
  636SOL    HW1 2807   2.416   0.991   4.658
  636SOL    HW2 2808   2.511   0.873   4.596
  637SOL     OW 2809   0.252   1.541   2.229
  637SOL    HW1 2810   0.267   1.537   2.328
  637SOL    HW2 2811   0.193   1.465   2.201
  638SOL     OW 2812   0.082   3.548   4.747
  638SOL    HW1 2813   0.157   3.594   4.795
  638SOL    HW2 2814   0.092   3.449   4.757
  639SOL     OW 2815   5.940   3.177   1.804
  639SOL    HW1 2816   6.011   3.147   1.740
  639SOL    HW2 2817   5.869   3.107   1.809
  640SOL     OW 2818   6.861   3.327   2.672
  640SOL    HW1 2819   6.881   3.293   2.764
  640SOL    HW2 2820   6.867   3.426   2.671
  641SOL     OW 2821   2.365   5.235   4.497
  641SOL    HW1 2822   2.283   5.225   4.553
  641SOL    HW2 2823   2.378   5.332   4.475
  642SOL     OW 2824   0.728   5.241   4.875
  642SOL    HW1 2825   0.723   5.288   4.787
  642SOL    HW2 2826   0.703   5.145   4.864
  643SOL     OW 2827   4.031   5.468   0.341
  643SOL    HW1 2828   3.971   5.482   0.420
  643SOL    HW2 2829   4.095   5.394   0.360
  644SOL     OW 2830   6.610   6.598   4.581
  644SOL    HW1 2831   6.546   6.573   4.654
  644SOL    HW2 2832   6.573   6.674   4.528
  645SOL     OW 2833   4.409   5.973   2.323
  645SOL    HW1 2834   4.472   5.972   2.401
  645SOL    HW2 2835   4.460   5.963   2.238
  646SOL     OW 2836   3.199   1.880   5.169
  646SOL    HW1 2837   3.253   1.963   5.159
  646SOL    HW2 2838   3.227   1.832   5.252
  647SOL     OW 2839   3.159   2.644   0.348
  647SOL    HW1 2840   3.065   2.627   0.319
  647SOL    HW2 2841   3.164   2.733   0.395
  648SOL     OW 2842   6.127   1.312   3.780
  648SOL    HW1 2843   6.129   1.225   3.830
  648SOL    HW2 2844   6.102   1.386   3.843
  649SOL     OW 2845   2.615   5.573   0.552
  649SOL    HW1 2846   2.548   5.553   0.480
  649SOL    HW2 2847   2.573   5.635   0.619
  650SOL     OW 2848   1.263   3.061   0.716
  650SOL    HW1 2849   1.194   2.988   0.709
  650SOL    HW2 2850   1.349   3.029   0.676
  651SOL     OW 2851   0.453   1.272   3.571
  651SOL    HW1 2852   0.455   1.202   3.642
  651SOL    HW2 2853   0.528   1.337   3.586
  652SOL     OW 2854   3.860   5.561   0.543
  652SOL    HW1 2855   3.770   5.589   0.509
  652SOL    HW2 2856   3.850   5.525   0.636
  653SOL     OW 2857   1.510   6.739   2.454
  653SOL    HW1 2858   1.514   6.706   2.360
  653SOL    HW2 2859   1.577   6.812   2.467
  654SOL     OW 2860   0.938   6.604   5.759
  654SOL    HW1 2861   0.972   6.671   5.693
  654SOL    HW2 2862   0.839   6.597   5.750
  655SOL     OW 2863   0.881   3.287   0.840
  655SOL    HW1 2864   0.805   3.342   0.806
  655SOL    HW2 2865   0.885   3.294   0.939
  656SOL     OW 2866   2.599   6.920   6.519
  656SOL    HW1 2867   2.597   6.919   6.419
  656SOL    HW2 2868   2.575   6.829   6.553
  657SOL     OW 2869   3.826   3.622   3.880
  657SOL    HW1 2870   3.764   3.655   3.809
  657SOL    HW2 2871   3.912   3.593   3.839
  658SOL     OW 2872   1.523   0.885   4.227
  658SOL    HW1 2873   1.492   0.797   4.263
  658SOL    HW2 2874   1.538   0.877   4.129
  659SOL     OW 2875   1.407   5.600   6.243
  659SOL    HW1 2876   1.351   5.672   6.285
  659SOL    HW2 2877   1.503   5.627   6.246
  660SOL     OW 2878   5.852   4.198   2.843
  660SOL    HW1 2879   5.784   4.267   2.818
  660SOL    HW2 2880   5.944   4.234   2.828
  661SOL     OW 2881   4.536   5.235   3.851
  661SOL    HW1 2882   4.525   5.141   3.883
  661SOL    HW2 2883   4.530   5.237   3.751
  662SOL     OW 2884   5.123   3.922   0.408
  662SOL    HW1 2885   5.196   3.868   0.366
  662SOL    HW2 2886   5.129   3.913   0.508
  663SOL     OW 2887   0.224   4.504   6.760
  663SOL    HW1 2888   0.305   4.469   6.713
  663SOL    HW2 2889   0.168   4.557   6.697
  664SOL     OW 2890   1.666   6.794   6.153
  664SOL    HW1 2891   1.695   6.715   6.207
  664SOL    HW2 2892   1.642   6.869   6.215
  665SOL     OW 2893   2.531   4.594   3.052
  665SOL    HW1 2894   2.473   4.670   3.081
  665SOL    HW2 2895   2.556   4.607   2.956
  666SOL     OW 2896   3.172   1.353   6.883
  666SOL    HW1 2897   3.253   1.405   6.855
  666SOL    HW2 2898   3.191   1.255   6.875
  667SOL     OW 2899   1.262   3.153   2.222
  667SOL    HW1 2900   1.196   3.142   2.148
  667SOL    HW2 2901   1.240   3.088   2.295
  668SOL     OW 2902   5.036   0.074   0.952
  668SOL    HW1 2903   5.083   0.059   0.865
  668SOL    HW2 2904   5.068   0.159   0.993
  669SOL     OW 2905   0.289   5.485   2.855
  669SOL    HW1 2906   0.306   5.583   2.840
  669SOL    HW2 2907   0.223   5.474   2.929
  670SOL     OW 2908   4.065   3.741   3.105
  670SOL    HW1 2909   4.017   3.800   3.040
  670SOL    HW2 2910   4.056   3.779   3.197
  671SOL     OW 2911   2.118   0.591   6.361
  671SOL    HW1 2912   2.172   0.600   6.277
  671SOL    HW2 2913   2.177   0.603   6.441
  672SOL     OW 2914   1.456   2.334   2.971
  672SOL    HW1 2915   1.436   2.293   3.060
  672SOL    HW2 2916   1.520   2.410   2.984
  673SOL     OW 2917   4.909   0.442   6.872
  673SOL    HW1 2918   4.931   0.521   6.815
  673SOL    HW2 2919   4.899   0.471   6.967
  674SOL     OW 2920   0.190   2.350   4.592
  674SOL    HW1 2921   0.107   2.366   4.645
  674SOL    HW2 2922   0.211   2.431   4.537
  675SOL     OW 2923   6.366   6.160   3.761
  675SOL    HW1 2924   6.360   6.163   3.860
  675SOL    HW2 2925   6.359   6.253   3.724
  676SOL     OW 2926   2.808   5.494   4.574
  676SOL    HW1 2927   2.824   5.561   4.647
  676SOL    HW2 2928   2.717   5.454   4.586
  677SOL     OW 2929   4.034   6.478   0.358
  677SOL    HW1 2930   4.014   6.575   0.371
  677SOL    HW2 2931   4.091   6.446   0.434
  678SOL     OW 2932   2.254   1.462   5.501
  678SOL    HW1 2933   2.238   1.372   5.461
  678SOL    HW2 2934   2.348   1.468   5.534
  679SOL     OW 2935   6.482   0.405   1.939
  679SOL    HW1 2936   6.554   0.370   1.999
  679SOL    HW2 2937   6.454   0.496   1.969
  680SOL     OW 2938   5.492   4.025   4.635
  680SOL    HW1 2939   5.542   3.957   4.582
  680SOL    HW2 2940   5.413   4.057   4.581
  681SOL     OW 2941   1.008   6.859   1.971
  681SOL    HW1 2942   1.077   6.914   1.925
  681SOL    HW2 2943   1.051   6.809   2.047
  682SOL     OW 2944   7.016   7.004   6.015
  682SOL    HW1 2945   6.961   6.944   6.073
  682SOL    HW2 2946   6.966   0.064   5.996
  683SOL     OW 2947   4.824   1.233   1.294
  683SOL    HW1 2948   4.881   1.222   1.213
  683SOL    HW2 2949   4.773   1.318   1.288
  684SOL     OW 2950   0.086   6.082   6.433
  684SOL    HW1 2951   0.144   6.000   6.442
  684SOL    HW2 2952   0.032   6.093   6.517
  685SOL     OW 2953   6.629   0.898   6.556
  685SOL    HW1 2954   6.688   0.968   6.596
  685SOL    HW2 2955   6.588   0.843   6.628
  686SOL     OW 2956   5.315   5.223   2.461
  686SOL    HW1 2957   5.323   5.183   2.552
  686SOL    HW2 2958   5.404   5.259   2.433
  687SOL     OW 2959   5.544   1.939   5.569
  687SOL    HW1 2960   5.574   2.022   5.522
  687SOL    HW2 2961   5.486   1.885   5.507
  688SOL     OW 2962   6.432   3.498   4.979
  688SOL    HW1 2963   6.342   3.513   4.939
  688SOL    HW2 2964   6.458   3.576   5.035
  689SOL     OW 2965   5.862   4.430   4.354
  689SOL    HW1 2966   5.779   4.375   4.366
  689SOL    HW2 2967   5.932   4.374   4.309
  690SOL     OW 2968   0.131   3.175   4.236
  690SOL    HW1 2969   0.088   3.248   4.182
  690SOL    HW2 2970   0.189   3.120   4.176
  691SOL     OW 2971   0.127   3.109   6.511
  691SOL    HW1 2972   0.051   3.083   6.452
  691SOL    HW2 2973   0.107   3.196   6.556
  692SOL     OW 2974   2.405   0.247   3.302
  692SOL    HW1 2975   2.450   0.162   3.328
  692SOL    HW2 2976   2.309   0.229   3.280
  693SOL     OW 2977   6.475   1.567   2.828
  693SOL    HW1 2978   6.440   1.637   2.890
  693SOL    HW2 2979   6.441   1.477   2.856
  694SOL     OW 2980   1.415   0.367   2.038
  694SOL    HW1 2981   1.483   0.435   2.066
  694SOL    HW2 2982   1.331   0.413   2.009
  695SOL     OW 2983   4.587   5.595   6.694
  695SOL    HW1 2984   4.616   5.567   6.603
  695SOL    HW2 2985   4.488   5.583   6.703
  696SOL     OW 2986   5.166   6.373   2.349
  696SOL    HW1 2987   5.150   6.463   2.388
  696SOL    HW2 2988   5.187   6.382   2.251
  697SOL     OW 2989   1.466   3.793   3.949
  697SOL    HW1 2990   1.552   3.804   4.000
  697SOL    HW2 2991   1.485   3.795   3.851
  698SOL     OW 2992   5.095   5.848   4.197
  698SOL    HW1 2993   5.101   5.749   4.187
  698SOL    HW2 2994   5.107   5.891   4.107
  699SOL     OW 2995   1.122   4.360   6.286
  699SOL    HW1 2996   1.111   4.416   6.368
  699SOL    HW2 2997   1.038   4.363   6.232
  700SOL     OW 2998   1.992   1.579   4.668
  700SOL    HW1 2999   1.897   1.591   4.639
  700SOL    HW2 3000   2.053   1.616   4.598
  701SOL     OW 3001   0.765   4.654   5.508
  701SOL    HW1 3002   0.692   4.586   5.511
  701SOL    HW2 3003   0.781   4.690   5.600
  702SOL     OW 3004   5.438   5.811   5.303
  702SOL    HW1 3005   5.478   5.723   5.279
  702SOL    HW2 3006   5.466   5.837   5.395
  703SOL     OW 3007   4.900   4.306   6.384
  703SOL    HW1 3008   4.847   4.382   6.423
  703SOL    HW2 3009   4.986   4.342   6.346
  704SOL     OW 3010   2.504   0.024   1.689
  704SOL    HW1 3011   2.456   6.968   1.653
  704SOL    HW2 3012   2.451   0.107   1.669
  705SOL     OW 3013   0.354   1.953   3.715
  705SOL    HW1 3014   0.378   1.918   3.806
  705SOL    HW2 3015   0.259   1.984   3.715
  706SOL     OW 3016   4.891   3.013   3.885
  706SOL    HW1 3017   4.935   3.080   3.826
  706SOL    HW2 3018   4.868   3.055   3.972
  707SOL     OW 3019   4.841   2.291   2.431
  707SOL    HW1 3020   4.798   2.312   2.343
  707SOL    HW2 3021   4.915   2.356   2.447
  708SOL     OW 3022   4.023   0.781   2.533
  708SOL    HW1 3023   3.953   0.736   2.588
  708SOL    HW2 3024   4.077   0.712   2.485
  709SOL     OW 3025   0.883   5.598   6.895
  709SOL    HW1 3026   0.970   5.601   6.945
  709SOL    HW2 3027   0.811   5.562   6.955
  710SOL     OW 3028   3.607   3.857   3.049
  710SOL    HW1 3029   3.649   3.947   3.039
  710SOL    HW2 3030   3.508   3.865   3.037
  711SOL     OW 3031   0.736   0.644   5.267
  711SOL    HW1 3032   0.657   0.705   5.273
  711SOL    HW2 3033   0.783   0.659   5.180
  712SOL     OW 3034   0.882   3.665   2.350
  712SOL    HW1 3035   0.971   3.711   2.360
  712SOL    HW2 3036   0.812   3.733   2.326
  713SOL     OW 3037   3.069   3.836   4.416
  713SOL    HW1 3038   3.073   3.835   4.516
  713SOL    HW2 3039   2.993   3.778   4.385
  714SOL     OW 3040   4.940   4.507   5.136
  714SOL    HW1 3041   4.966   4.590   5.085
  714SOL    HW2 3042   4.892   4.533   5.220
  715SOL     OW 3043   6.068   0.268   6.114
  715SOL    HW1 3044   6.130   0.341   6.084
  715SOL    HW2 3045   6.121   0.187   6.141
  716SOL     OW 3046   6.743   5.063   1.351
  716SOL    HW1 3047   6.797   4.979   1.350
  716SOL    HW2 3048   6.652   5.045   1.311
  717SOL     OW 3049   6.352   3.137   6.193
  717SOL    HW1 3050   6.358   3.133   6.292
  717SOL    HW2 3051   6.385   3.226   6.161
  718SOL     OW 3052   2.615   3.086   6.807
  718SOL    HW1 3053   2.604   3.160   6.740
  718SOL    HW2 3054   2.673   3.015   6.769
  719SOL     OW 3055   5.214   5.194   0.392
  719SOL    HW1 3056   5.246   5.145   0.312
  719SOL    HW2 3057   5.137   5.145   0.433
  720SOL     OW 3058   3.455   0.798   6.194
  720SOL    HW1 3059   3.431   0.770   6.287
  720SOL    HW2 3060   3.506   0.885   6.198
  721SOL     OW 3061   1.305   6.564   5.561
  721SOL    HW1 3062   1.274   6.611   5.478
  721SOL    HW2 3063   1.375   6.497   5.537
  722SOL     OW 3064   4.268   6.541   5.186
  722SOL    HW1 3065   4.211   6.486   5.247
  722SOL    HW2 3066   4.364   6.527   5.208
  723SOL     OW 3067   1.577   3.327   1.837
  723SOL    HW1 3068   1.549   3.260   1.768
  723SOL    HW2 3069   1.550   3.418   1.806
  724SOL     OW 3070   6.918   1.244   5.130
  724SOL    HW1 3071   6.851   1.175   5.100
  724SOL    HW2 3072   6.872   1.315   5.184
  725SOL     OW 3073   2.568   5.154   1.919
  725SOL    HW1 3074   2.522   5.240   1.896
  725SOL    HW2 3075   2.533   5.119   2.005
  726SOL     OW 3076   5.083   6.643   5.611
  726SOL    HW1 3077   4.994   6.659   5.569
  726SOL    HW2 3078   5.116   6.551   5.587
  727SOL     OW 3079   2.049   4.281   3.982
  727SOL    HW1 3080   2.125   4.265   4.045
  727SOL    HW2 3081   2.022   4.194   3.940
  728SOL     OW 3082   0.060   3.589   5.677
  728SOL    HW1 3083   0.091   3.600   5.583
  728SOL    HW2 3084   7.011   3.657   5.696
  729SOL     OW 3085   3.339   1.228   0.786
  729SOL    HW1 3086   3.314   1.305   0.845
  729SOL    HW2 3087   3.295   1.238   0.697
  730SOL     OW 3088   5.541   1.224   4.696
  730SOL    HW1 3089   5.493   1.228   4.784
  730SOL    HW2 3090   5.529   1.133   4.656
  731SOL     OW 3091   6.797   2.444   4.261
  731SOL    HW1 3092   6.763   2.420   4.170
  731SOL    HW2 3093   6.816   2.542   4.264
  732SOL     OW 3094   0.118   3.353   3.541
  732SOL    HW1 3095   0.174   3.409   3.480
  732SOL    HW2 3096   0.162   3.346   3.630
  733SOL     OW 3097   4.433   5.137   4.613
  733SOL    HW1 3098   4.366   5.153   4.686
  733SOL    HW2 3099   4.468   5.225   4.580
  734SOL     OW 3100   0.608   5.863   6.715
  734SOL    HW1 3101   0.568   5.897   6.800
  734SOL    HW2 3102   0.634   5.767   6.727
  735SOL     OW 3103   3.031   4.480   6.939
  735SOL    HW1 3104   3.005   4.512   0.006
  735SOL    HW2 3105   3.033   4.557   6.875
  736SOL     OW 3106   5.682   0.593   2.806
  736SOL    HW1 3107   5.745   0.572   2.881
  736SOL    HW2 3108   5.662   0.691   2.807
  737SOL     OW 3109   5.475   3.939   0.481
  737SOL    HW1 3110   5.437   3.941   0.574
  737SOL    HW2 3111   5.454   3.852   0.438
  738SOL     OW 3112   0.750   4.541   2.692
  738SOL    HW1 3113   0.652   4.543   2.709
  738SOL    HW2 3114   0.767   4.544   2.593
  739SOL     OW 3115   4.752   6.398   6.366
  739SOL    HW1 3116   4.687   6.331   6.330
  739SOL    HW2 3117   4.843   6.381   6.327
  740SOL     OW 3118   5.176   0.129   0.261
  740SOL    HW1 3119   5.138   0.152   0.172
  740SOL    HW2 3120   5.207   0.212   0.307
  741SOL     OW 3121   3.167   0.373   3.899
  741SOL    HW1 3122   3.118   0.286   3.889
  741SOL    HW2 3123   3.179   0.394   3.996
  742SOL     OW 3124   1.085   6.699   2.197
  742SOL    HW1 3125   1.123   6.607   2.210
  742SOL    HW2 3126   0.987   6.698   2.216
  743SOL     OW 3127   1.579   3.037   3.905
  743SOL    HW1 3128   1.622   3.077   3.825
  743SOL    HW2 3129   1.508   2.972   3.877
  744SOL     OW 3130   6.721   5.157   0.545
  744SOL    HW1 3131   6.820   5.150   0.557
  744SOL    HW2 3132   6.688   5.240   0.588
  745SOL     OW 3133   1.687   5.722   3.436
  745SOL    HW1 3134   1.715   5.808   3.393
  745SOL    HW2 3135   1.647   5.741   3.526
  746SOL     OW 3136   3.135   0.413   3.618
  746SOL    HW1 3137   3.193   0.477   3.567
  746SOL    HW2 3138   3.152   0.422   3.716
  747SOL     OW 3139   6.677   3.428   0.902
  747SOL    HW1 3140   6.702   3.331   0.907
  747SOL    HW2 3141   6.739   3.476   0.841
  748SOL     OW 3142   3.900   2.962   2.813
  748SOL    HW1 3143   3.953   2.878   2.826
  748SOL    HW2 3144   3.866   2.965   2.719
  749SOL     OW 3145   6.269   2.694   5.169
  749SOL    HW1 3146   6.285   2.682   5.071
  749SOL    HW2 3147   6.283   2.607   5.216
  750SOL     OW 3148   3.402   3.208   1.756
  750SOL    HW1 3149   3.368   3.259   1.678
  750SOL    HW2 3150   3.346   3.126   1.770
  751SOL     OW 3151   5.300   1.384   0.593
  751SOL    HW1 3152   5.346   1.437   0.522
  751SOL    HW2 3153   5.343   1.402   0.682
  752SOL     OW 3154   4.538   0.841   1.720
  752SOL    HW1 3155   4.556   0.751   1.760
  752SOL    HW2 3156   4.439   0.855   1.714
  753SOL     OW 3157   2.988   1.193   3.050
  753SOL    HW1 3158   2.991   1.286   3.088
  753SOL    HW2 3159   3.040   1.131   3.108
  754SOL     OW 3160   5.203   5.632   0.537
  754SOL    HW1 3161   5.192   5.566   0.463
  754SOL    HW2 3162   5.126   5.695   0.538
  755SOL     OW 3163   6.507   5.773   2.932
  755SOL    HW1 3164   6.601   5.770   2.965
  755SOL    HW2 3165   6.463   5.684   2.946
  756SOL     OW 3166   3.507   6.236   4.015
  756SOL    HW1 3167   3.435   6.288   4.060
  756SOL    HW2 3168   3.529   6.279   3.927
  757SOL     OW 3169   6.707   1.337   4.097
  757SOL    HW1 3170   6.706   1.240   4.121
  757SOL    HW2 3171   6.621   1.362   4.053
  758SOL     OW 3172   4.532   2.005   1.285
  758SOL    HW1 3173   4.469   1.981   1.210
  758SOL    HW2 3174   4.623   2.022   1.247
  759SOL     OW 3175   1.809   0.691   1.079
  759SOL    HW1 3176   1.715   0.688   1.046
  759SOL    HW2 3177   1.863   0.751   1.019
  760SOL     OW 3178   4.486   2.316   5.695
  760SOL    HW1 3179   4.583   2.295   5.684
  760SOL    HW2 3180   4.436   2.232   5.716
  761SOL     OW 3181   5.375   1.295   6.666
  761SOL    HW1 3182   5.399   1.374   6.723
  761SOL    HW2 3183   5.453   1.273   6.607
  762SOL     OW 3184   2.003   4.955   4.430
  762SOL    HW1 3185   1.938   4.904   4.373
  762SOL    HW2 3186   2.031   4.897   4.507
  763SOL     OW 3187   5.899   5.484   6.856
  763SOL    HW1 3188   5.890   5.417   6.781
  763SOL    HW2 3189   5.988   5.528   6.850
  764SOL     OW 3190   5.051   1.018   2.577
  764SOL    HW1 3191   5.126   0.961   2.544
  764SOL    HW2 3192   5.078   1.063   2.662
  765SOL     OW 3193   7.009   6.915   3.109
  765SOL    HW1 3194   6.930   6.947   3.057
  765SOL    HW2 3195   0.069   6.930   3.055
  766SOL     OW 3196   0.159   6.570   0.171
  766SOL    HW1 3197   0.079   6.610   0.126
  766SOL    HW2 3198   0.194   6.635   0.239
  767SOL     OW 3199   6.094   6.416   1.396
  767SOL    HW1 3200   6.033   6.338   1.397
  767SOL    HW2 3201   6.139   6.422   1.307
  768SOL     OW 3202   3.253   6.510   3.757
  768SOL    HW1 3203   3.334   6.550   3.798
  768SOL    HW2 3204   3.215   6.441   3.819
  769SOL     OW 3205   3.233   0.873   0.106
  769SOL    HW1 3206   3.152   0.923   0.077
  769SOL    HW2 3207   3.278   0.832   0.027
  770SOL     OW 3208   3.110   4.889   3.881
  770SOL    HW1 3209   3.181   4.948   3.842
  770SOL    HW2 3210   3.124   4.882   3.980
  771SOL     OW 3211   0.725   5.466   4.688
  771SOL    HW1 3212   0.679   5.415   4.615
  771SOL    HW2 3213   0.823   5.470   4.668
  772SOL     OW 3214   6.999   4.760   5.463
  772SOL    HW1 3215   7.023   4.738   5.369
  772SOL    HW2 3216   6.928   4.829   5.464
  773SOL     OW 3217   0.106   3.491   1.971
  773SOL    HW1 3218   0.085   3.393   1.965
  773SOL    HW2 3219   0.030   3.539   2.013
  774SOL     OW 3220   1.430   1.230   1.467
  774SOL    HW1 3221   1.396   1.136   1.468
  774SOL    HW2 3222   1.469   1.250   1.377
  775SOL     OW 3223   1.274   2.582   4.186
  775SOL    HW1 3224   1.274   2.488   4.150
  775SOL    HW2 3225   1.284   2.579   4.285
  776SOL     OW 3226   2.278   0.078   5.589
  776SOL    HW1 3227   2.210   0.150   5.575
  776SOL    HW2 3228   2.253   0.024   5.669
  777SOL     OW 3229   4.712   0.421   0.347
  777SOL    HW1 3230   4.621   0.460   0.336
  777SOL    HW2 3231   4.706   0.332   0.392
  778SOL     OW 3232   4.139   5.675   5.082
  778SOL    HW1 3233   4.222   5.665   5.136
  778SOL    HW2 3234   4.065   5.709   5.140
  779SOL     OW 3235   0.984   0.354   2.922
  779SOL    HW1 3236   1.072   0.403   2.924
  779SOL    HW2 3237   1.001   0.256   2.929
  780SOL     OW 3238   5.185   3.249   4.974
  780SOL    HW1 3239   5.244   3.325   5.003
  780SOL    HW2 3240   5.192   3.238   4.875
  781SOL     OW 3241   0.976   2.528   6.515
  781SOL    HW1 3242   0.884   2.488   6.508
  781SOL    HW2 3243   1.044   2.454   6.514
  782SOL     OW 3244   0.421   4.369   0.304
  782SOL    HW1 3245   0.504   4.320   0.275
  782SOL    HW2 3246   0.437   4.467   0.298
  783SOL     OW 3247   2.263   4.558   0.060
  783SOL    HW1 3248   2.266   4.502   7.001
  783SOL    HW2 3249   2.290   4.503   0.139
  784SOL     OW 3250   4.982   5.364   3.776
  784SOL    HW1 3251   5.081   5.348   3.771
  784SOL    HW2 3252   4.961   5.458   3.749
  785SOL     OW 3253   6.150   2.007   3.916
  785SOL    HW1 3254   6.096   2.030   3.996
  785SOL    HW2 3255   6.090   1.990   3.838
  786SOL     OW 3256   6.265   6.876   0.395
  786SOL    HW1 3257   6.318   6.952   0.433
  786SOL    HW2 3258   6.177   6.870   0.440
  787SOL     OW 3259   4.315   1.103   6.979
  787SOL    HW1 3260   4.227   1.061   6.959
  787SOL    HW2 3261   4.309   1.157   0.039
  788SOL     OW 3262   0.641   4.519   2.988
  788SOL    HW1 3263   0.640   4.540   2.890
  788SOL    HW2 3264   0.592   4.590   3.038
  789SOL     OW 3265   5.699   3.203   1.301
  789SOL    HW1 3266   5.781   3.164   1.341
  789SOL    HW2 3267   5.649   3.256   1.370
  790SOL     OW 3268   3.486   0.248   4.011
  790SOL    HW1 3269   3.550   0.316   4.045
  790SOL    HW2 3270   3.413   0.294   3.960
  791SOL     OW 3271   3.725   1.691   5.059
  791SOL    HW1 3272   3.701   1.616   5.119
  791SOL    HW2 3273   3.643   1.742   5.033
  792SOL     OW 3274   5.095   0.453   3.586
  792SOL    HW1 3275   5.130   0.363   3.561
  792SOL    HW2 3276   5.016   0.443   3.646
  793SOL     OW 3277   0.101   0.114   6.652
  793SOL    HW1 3278   0.076   0.042   6.588
  793SOL    HW2 3279   0.160   0.076   6.724
  794SOL     OW 3280   3.661   5.023   4.758
  794SOL    HW1 3281   3.695   5.117   4.748
  794SOL    HW2 3282   3.569   5.025   4.798
  795SOL     OW 3283   4.927   5.217   6.754
  795SOL    HW1 3284   4.991   5.254   6.686
  795SOL    HW2 3285   4.850   5.280   6.764
  796SOL     OW 3286   0.237   1.684   5.747
  796SOL    HW1 3287   0.183   1.619   5.694
  796SOL    HW2 3288   0.315   1.714   5.693
  797SOL     OW 3289   6.121   2.872   5.299
  797SOL    HW1 3290   6.147   2.795   5.241
  797SOL    HW2 3291   6.203   2.912   5.340
  798SOL     OW 3292   6.489   0.507   4.981
  798SOL    HW1 3293   6.451   0.415   4.972
  798SOL    HW2 3294   6.416   0.571   5.006
  799SOL     OW 3295   6.519   3.420   3.851
  799SOL    HW1 3296   6.464   3.387   3.928
  799SOL    HW2 3297   6.467   3.408   3.766
  800SOL     OW 3298   6.857   1.637   1.766
  800SOL    HW1 3299   6.771   1.677   1.734
  800SOL    HW2 3300   6.855   1.538   1.750
  801SOL     OW 3301   0.421   2.361   3.535
  801SOL    HW1 3302   0.488   2.343   3.607
  801SOL    HW2 3303   0.466   2.406   3.458
  802SOL     OW 3304   6.095   1.450   1.382
  802SOL    HW1 3305   6.023   1.517   1.368
  802SOL    HW2 3306   6.151   1.476   1.460
  803SOL     OW 3307   1.428   0.303   4.834
  803SOL    HW1 3308   1.390   0.217   4.799
  803SOL    HW2 3309   1.505   0.330   4.777
  804SOL     OW 3310   6.488   6.751   0.703
  804SOL    HW1 3311   6.524   6.756   0.796
  804SOL    HW2 3312   6.393   6.722   0.705
  805SOL     OW 3313   1.388   2.983   5.369
  805SOL    HW1 3314   1.395   2.940   5.279
  805SOL    HW2 3315   1.465   3.046   5.382
  806SOL     OW 3316   4.995   0.428   0.707
  806SOL    HW1 3317   4.931   0.477   0.766
  806SOL    HW2 3318   5.035   0.492   0.641
  807SOL     OW 3319   1.294   6.817   2.731
  807SOL    HW1 3320   1.337   6.861   2.652
  807SOL    HW2 3321   1.353   6.828   2.811
  808SOL     OW 3322   6.232   3.822   5.192
  808SOL    HW1 3323   6.133   3.821   5.176
  808SOL    HW2 3324   6.250   3.860   5.283
  809SOL     OW 3325   0.664   5.590   6.070
  809SOL    HW1 3326   0.692   5.508   6.120
  809SOL    HW2 3327   0.573   5.575   6.030
  810SOL     OW 3328   6.477   5.032   6.305
  810SOL    HW1 3329   6.441   5.096   6.238
  810SOL    HW2 3330   6.432   5.047   6.393
  811SOL     OW 3331   4.223   5.356   3.386
  811SOL    HW1 3332   4.164   5.431   3.414
  811SOL    HW2 3333   4.174   5.296   3.324
  812SOL     OW 3334   0.351   0.238   2.265
  812SOL    HW1 3335   0.266   0.222   2.215
  812SOL    HW2 3336   0.340   0.319   2.323
  813SOL     OW 3337   5.682   5.546   2.207
  813SOL    HW1 3338   5.714   5.561   2.301
  813SOL    HW2 3339   5.597   5.493   2.209
  814SOL     OW 3340   5.355   5.515   1.531
  814SOL    HW1 3341   5.387   5.436   1.583
  814SOL    HW2 3342   5.311   5.485   1.447
  815SOL     OW 3343   0.640   1.395   0.297
  815SOL    HW1 3344   0.645   1.474   0.236
  815SOL    HW2 3345   0.548   1.356   0.293
  816SOL     OW 3346   5.632   0.336   1.295
  816SOL    HW1 3347   5.601   0.358   1.203
  816SOL    HW2 3348   5.554   0.334   1.357
  817SOL     OW 3349   0.695   2.097   1.448
  817SOL    HW1 3350   0.669   2.005   1.419
  817SOL    HW2 3351   0.792   2.098   1.474
  818SOL     OW 3352   5.928   1.342   2.193
  818SOL    HW1 3353   6.004   1.394   2.233
  818SOL    HW2 3354   5.952   1.245   2.192
  819SOL     OW 3355   0.329   5.286   2.065
  819SOL    HW1 3356   0.330   5.344   2.147
  819SOL    HW2 3357   0.274   5.205   2.084
  820SOL     OW 3358   1.358   2.891   4.521
  820SOL    HW1 3359   1.414   2.820   4.564
  820SOL    HW2 3360   1.263   2.859   4.513
  821SOL     OW 3361   1.037   3.964   0.268
  821SOL    HW1 3362   1.002   4.047   0.311
  821SOL    HW2 3363   1.076   3.905   0.338
  822SOL     OW 3364   1.347   3.568   4.627
  822SOL    HW1 3365   1.357   3.481   4.676
  822SOL    HW2 3366   1.437   3.600   4.598
  823SOL     OW 3367   3.524   3.664   1.628
  823SOL    HW1 3368   3.444   3.715   1.597
  823SOL    HW2 3369   3.607   3.718   1.611
  824SOL     OW 3370   6.090   2.487   5.938
  824SOL    HW1 3371   6.034   2.440   6.006
  824SOL    HW2 3372   6.033   2.547   5.883
  825SOL     OW 3373   1.218   3.683   1.765
  825SOL    HW1 3374   1.195   3.696   1.669
  825SOL    HW2 3375   1.203   3.768   1.815
  826SOL     OW 3376   1.140   4.099   5.317
  826SOL    HW1 3377   1.203   4.064   5.387
  826SOL    HW2 3378   1.051   4.117   5.358
  827SOL     OW 3379   3.576   5.122   0.631
  827SOL    HW1 3380   3.533   5.067   0.702
  827SOL    HW2 3381   3.672   5.137   0.654
  828SOL     OW 3382   6.530   0.436   5.845
  828SOL    HW1 3383   6.592   0.402   5.915
  828SOL    HW2 3384   6.490   0.523   5.874
  829SOL     OW 3385   3.470   3.050   4.775
  829SOL    HW1 3386   3.375   3.049   4.806
  829SOL    HW2 3387   3.510   2.959   4.789
  830SOL     OW 3388   4.371   3.604   6.198
  830SOL    HW1 3389   4.331   3.559   6.118
  830SOL    HW2 3390   4.377   3.702   6.182
  831SOL     OW 3391   6.007   0.015   4.593
  831SOL    HW1 3392   5.936   0.053   4.653
  831SOL    HW2 3393   6.047   0.088   4.539
  832SOL     OW 3394   2.135   1.954   5.579
  832SOL    HW1 3395   2.217   2.011   5.573
  832SOL    HW2 3396   2.091   1.950   5.489
  833SOL     OW 3397   0.967   0.423   5.433
  833SOL    HW1 3398   0.886   0.378   5.470
  833SOL    HW2 3399   1.045   0.360   5.437
  834SOL     OW 3400   3.586   4.513   6.074
  834SOL    HW1 3401   3.534   4.524   5.990
  834SOL    HW2 3402   3.558   4.583   6.140
  835SOL     OW 3403   4.667   1.162   3.186
  835SOL    HW1 3404   4.580   1.181   3.142
  835SOL    HW2 3405   4.699   1.071   3.159
  836SOL     OW 3406   2.550   0.777   6.756
  836SOL    HW1 3407   2.531   0.741   6.848
  836SOL    HW2 3408   2.627   0.840   6.760
  837SOL     OW 3409   4.212   1.606   4.843
  837SOL    HW1 3410   4.112   1.598   4.841
  837SOL    HW2 3411   4.242   1.627   4.936
  838SOL     OW 3412   0.758   5.674   2.491
  838SOL    HW1 3413   0.767   5.746   2.423
  838SOL    HW2 3414   0.844   5.665   2.542
  839SOL     OW 3415   3.355   1.400   1.858
  839SOL    HW1 3416   3.390   1.412   1.952
  839SOL    HW2 3417   3.257   1.384   1.861
  840SOL     OW 3418   0.723   1.362   5.621
  840SOL    HW1 3419   0.792   1.289   5.624
  840SOL    HW2 3420   0.639   1.330   5.664
  841SOL     OW 3421   0.286   3.312   0.816
  841SOL    HW1 3422   0.316   3.403   0.787
  841SOL    HW2 3423   0.365   3.259   0.846
  842SOL     OW 3424   3.381   5.291   3.691
  842SOL    HW1 3425   3.298   5.331   3.653
  842SOL    HW2 3426   3.412   5.346   3.769
  843SOL     OW 3427   6.977   4.103   2.105
  843SOL    HW1 3428   0.003   4.168   2.048
  843SOL    HW2 3429   6.899   4.149   2.149
  844SOL     OW 3430   5.702   5.173   6.927
  844SOL    HW1 3431   5.795   5.147   6.901
  844SOL    HW2 3432   5.702   5.210   7.020
  845SOL     OW 3433   1.608   5.309   5.062
  845SOL    HW1 3434   1.514   5.276   5.064
  845SOL    HW2 3435   1.641   5.321   5.155
  846SOL     OW 3436   4.644   2.930   6.930
  846SOL    HW1 3437   4.700   3.003   6.969
  846SOL    HW2 3438   4.674   2.912   6.837
  847SOL     OW 3439   5.337   3.955   2.029
  847SOL    HW1 3440   5.349   4.038   1.974
  847SOL    HW2 3441   5.426   3.927   2.066
  848SOL     OW 3442   5.995   0.206   5.138
  848SOL    HW1 3443   6.080   0.218   5.190
  848SOL    HW2 3444   6.004   0.250   5.049
  849SOL     OW 3445   1.141   5.885   3.839
  849SOL    HW1 3446   1.166   5.868   3.935
  849SOL    HW2 3447   1.054   5.841   3.819
  850SOL     OW 3448   4.137   0.331   3.456
  850SOL    HW1 3449   4.223   0.281   3.464
  850SOL    HW2 3450   4.155   0.429   3.463
  851SOL     OW 3451   6.914   0.698   5.439
  851SOL    HW1 3452   6.841   0.764   5.456
  851SOL    HW2 3453   7.001   0.734   5.475
  852SOL     OW 3454   2.857   4.234   5.478
  852SOL    HW1 3455   2.766   4.201   5.501
  852SOL    HW2 3456   2.888   4.298   5.549
  853SOL     OW 3457   1.160   3.818   0.471
  853SOL    HW1 3458   1.199   3.859   0.554
  853SOL    HW2 3459   1.082   3.761   0.496
  854SOL     OW 3460   6.481   4.883   1.297
  854SOL    HW1 3461   6.555   4.833   1.254
  854SOL    HW2 3462   6.419   4.919   1.227
  855SOL     OW 3463   5.378   0.684   0.470
  855SOL    HW1 3464   5.408   0.646   0.382
  855SOL    HW2 3465   5.423   0.772   0.486
  856SOL     OW 3466   1.254   0.583   4.874
  856SOL    HW1 3467   1.205   0.512   4.823
  856SOL    HW2 3468   1.312   0.540   4.943
  857SOL     OW 3469   5.817   3.663   1.402
  857SOL    HW1 3470   5.810   3.582   1.461
  857SOL    HW2 3471   5.728   3.709   1.400
  858SOL     OW 3472   3.742   3.587   1.901
  858SOL    HW1 3473   3.686   3.517   1.945
  858SOL    HW2 3474   3.839   3.567   1.918
  859SOL     OW 3475   6.645   4.339   1.094
  859SOL    HW1 3476   6.613   4.298   1.009
  859SOL    HW2 3477   6.739   4.369   1.083
  860SOL     OW 3478   1.660   4.491   6.950
  860SOL    HW1 3479   1.644   4.399   6.915
  860SOL    HW2 3480   1.751   4.522   6.923
  861SOL     OW 3481   3.413   4.489   5.864
  861SOL    HW1 3482   3.405   4.514   5.767
  861SOL    HW2 3483   3.385   4.394   5.875
  862SOL     OW 3484   4.811   4.098   3.239
  862SOL    HW1 3485   4.783   4.140   3.153
  862SOL    HW2 3486   4.775   4.153   3.315
  863SOL     OW 3487   6.010   2.107   0.750
  863SOL    HW1 3488   6.023   2.187   0.808
  863SOL    HW2 3489   5.964   2.035   0.802
  864SOL     OW 3490   7.016   5.108   2.999
  864SOL    HW1 3491   6.930   5.059   3.012
  864SOL    HW2 3492   0.029   5.089   2.908
  865SOL     OW 3493   2.184   0.858   3.689
  865SOL    HW1 3494   2.152   0.894   3.776
  865SOL    HW2 3495   2.284   0.862   3.685
  866SOL     OW 3496   4.646   1.185   0.824
  866SOL    HW1 3497   4.708   1.252   0.866
  866SOL    HW2 3498   4.663   1.182   0.725
  867SOL     OW 3499   2.704   1.755   6.491
  867SOL    HW1 3500   2.747   1.836   6.530
  867SOL    HW2 3501   2.625   1.730   6.547
  868SOL     OW 3502   5.214   2.005   3.146
  868SOL    HW1 3503   5.170   1.943   3.081
  868SOL    HW2 3504   5.265   2.075   3.095
  869SOL     OW 3505   6.705   4.090   1.244
  869SOL    HW1 3506   6.703   4.188   1.263
  869SOL    HW2 3507   6.640   4.042   1.303
  870SOL     OW 3508   6.678   2.523   0.256
  870SOL    HW1 3509   6.740   2.589   0.213
  870SOL    HW2 3510   6.661   2.447   0.193
  871SOL     OW 3511   5.791   4.136   0.744
  871SOL    HW1 3512   5.783   4.087   0.657
  871SOL    HW2 3513   5.707   4.124   0.796
  872SOL     OW 3514   6.996   2.278   1.866
  872SOL    HW1 3515   7.021   2.291   1.962
  872SOL    HW2 3516   6.900   2.303   1.852
  873SOL     OW 3517   3.285   6.514   4.934
  873SOL    HW1 3518   3.354   6.443   4.920
  873SOL    HW2 3519   3.301   6.588   4.869
  874SOL     OW 3520   0.335   4.183   6.912
  874SOL    HW1 3521   0.249   4.234   6.917
  874SOL    HW2 3522   0.363   4.156   7.005
  875SOL     OW 3523   6.121   5.418   6.287
  875SOL    HW1 3524   6.091   5.325   6.267
  875SOL    HW2 3525   6.065   5.483   6.236
  876SOL     OW 3526   1.472   1.994   0.938
  876SOL    HW1 3527   1.495   1.902   0.905
  876SOL    HW2 3528   1.537   2.021   1.009
  877SOL     OW 3529   4.967   5.652   0.112
  877SOL    HW1 3530   4.892   5.588   0.123
  877SOL    HW2 3531   4.935   5.733   0.063
  878SOL     OW 3532   3.723   2.798   1.001
  878SOL    HW1 3533   3.758   2.790   0.907
  878SOL    HW2 3534   3.646   2.861   1.003
  879SOL     OW 3535   4.648   2.691   2.934
  879SOL    HW1 3536   4.648   2.597   2.970
  879SOL    HW2 3537   4.634   2.755   3.010
  880SOL     OW 3538   4.334   5.408   1.685
  880SOL    HW1 3539   4.407   5.378   1.624
  880SOL    HW2 3540   4.288   5.487   1.646
  881SOL     OW 3541   5.287   4.692   3.257
  881SOL    HW1 3542   5.213   4.674   3.321
  881SOL    HW2 3543   5.275   4.635   3.175
  882SOL     OW 3544   0.501   2.062   4.403
  882SOL    HW1 3545   0.469   2.043   4.310
  882SOL    HW2 3546   0.498   2.161   4.419
  883SOL     OW 3547   3.159   4.782   0.215
  883SOL    HW1 3548   3.119   4.874   0.219
  883SOL    HW2 3549   3.237   4.777   0.277
  884SOL     OW 3550   4.075   4.063   1.786
  884SOL    HW1 3551   4.042   4.041   1.878
  884SOL    HW2 3552   4.000   4.100   1.731
  885SOL     OW 3553   4.693   6.426   5.492
  885SOL    HW1 3554   4.756   6.502   5.506
  885SOL    HW2 3555   4.737   6.356   5.435
  886SOL     OW 3556   4.050   2.114   6.442
  886SOL    HW1 3557   4.028   2.017   6.446
  886SOL    HW2 3558   3.967   2.168   6.459
  887SOL     OW 3559   5.813   5.968   5.082
  887SOL    HW1 3560   5.844   5.879   5.115
  887SOL    HW2 3561   5.722   5.987   5.119
  888SOL     OW 3562   6.324   7.000   3.491
  888SOL    HW1 3563   6.341   6.906   3.462
  888SOL    HW2 3564   6.237   7.004   3.542
  889SOL     OW 3565   0.770   0.155   4.512
  889SOL    HW1 3566   0.772   0.103   4.597
  889SOL    HW2 3567   0.676   0.163   4.479
  890SOL     OW 3568   1.687   4.003   1.886
  890SOL    HW1 3569   1.724   4.094   1.864
  890SOL    HW2 3570   1.755   3.951   1.938
  891SOL     OW 3571   5.545   3.751   6.541
  891SOL    HW1 3572   5.581   3.677   6.484
  891SOL    HW2 3573   5.479   3.805   6.488
  892SOL     OW 3574   2.181   5.600   1.926
  892SOL    HW1 3575   2.184   5.691   1.968
  892SOL    HW2 3576   2.224   5.603   1.836
  893SOL     OW 3577   2.046   0.024   1.931
  893SOL    HW1 3578   1.977   0.055   1.997
  893SOL    HW2 3579   2.100   6.973   1.972
  894SOL     OW 3580   1.365   5.596   4.206
  894SOL    HW1 3581   1.437   5.639   4.261
  894SOL    HW2 3582   1.342   5.507   4.245
  895SOL     OW 3583   2.437   0.638   4.452
  895SOL    HW1 3584   2.438   0.587   4.538
  895SOL    HW2 3585   2.519   0.694   4.446
  896SOL     OW 3586   5.242   6.729   4.027
  896SOL    HW1 3587   5.239   6.661   4.100
  896SOL    HW2 3588   5.276   6.816   4.063
  897SOL     OW 3589   5.167   1.356   6.050
  897SOL    HW1 3590   5.136   1.261   6.053
  897SOL    HW2 3591   5.092   1.414   6.018
  898SOL     OW 3592   5.669   6.805   3.734
  898SOL    HW1 3593   5.570   6.806   3.719
  898SOL    HW2 3594   5.709   6.886   3.692
  899SOL     OW 3595   1.326   4.404   6.927
  899SOL    HW1 3596   1.357   4.474   6.862
  899SOL    HW2 3597   1.228   4.390   6.916
  900SOL     OW 3598   0.568   5.544   3.514
  900SOL    HW1 3599   0.480   5.591   3.525
  900SOL    HW2 3600   0.582   5.483   3.592
  901SOL     OW 3601   5.616   2.069   3.820
  901SOL    HW1 3602   5.570   1.985   3.790
  901SOL    HW2 3603   5.621   2.070   3.920
  902SOL     OW 3604   1.100   6.771   0.404
  902SOL    HW1 3605   1.073   6.695   0.463
  902SOL    HW2 3606   1.197   6.793   0.420
  903SOL     OW 3607   0.689   4.914   6.508
  903SOL    HW1 3608   0.700   4.970   6.590
  903SOL    HW2 3609   0.647   4.969   6.436
  904SOL     OW 3610   2.024   1.106   4.242
  904SOL    HW1 3611   1.944   1.075   4.191
  904SOL    HW2 3612   2.029   1.206   4.239
  905SOL     OW 3613   6.145   2.383   4.357
  905SOL    HW1 3614   6.221   2.398   4.420
  905SOL    HW2 3615   6.152   2.291   4.318
  906SOL     OW 3616   6.290   4.196   5.538
  906SOL    HW1 3617   6.339   4.238   5.462
  906SOL    HW2 3618   6.242   4.267   5.591
  907SOL     OW 3619   0.376   3.259   2.204
  907SOL    HW1 3620   0.467   3.291   2.229
  907SOL    HW2 3621   0.315   3.338   2.194
  908SOL     OW 3622   2.784   1.077   3.794
  908SOL    HW1 3623   2.840   1.006   3.836
  908SOL    HW2 3624   2.843   1.145   3.750
  909SOL     OW 3625   4.101   6.731   1.413
  909SOL    HW1 3626   4.190   6.686   1.425
  909SOL    HW2 3627   4.047   6.680   1.347
  910SOL     OW 3628   1.732   1.495   1.814
  910SOL    HW1 3629   1.753   1.421   1.878
  910SOL    HW2 3630   1.666   1.463   1.746
  911SOL     OW 3631   0.528   3.257   0.914
  911SOL    HW1 3632   0.590   3.294   0.845
  911SOL    HW2 3633   0.558   3.165   0.940
  912SOL     OW 3634   1.547   0.672   6.486
  912SOL    HW1 3635   1.579   0.726   6.564
  912SOL    HW2 3636   1.457   0.635   6.506
  913SOL     OW 3637   2.102   1.442   2.584
  913SOL    HW1 3638   2.034   1.451   2.511
  913SOL    HW2 3639   2.192   1.467   2.548
  914SOL     OW 3640   2.875   6.023   1.911
  914SOL    HW1 3641   2.920   5.935   1.931
  914SOL    HW2 3642   2.776   6.013   1.921
  915SOL     OW 3643   1.934   2.323   0.417
  915SOL    HW1 3644   1.998   2.275   0.357
  915SOL    HW2 3645   1.968   2.318   0.511
  916SOL     OW 3646   1.164   2.966   2.401
  916SOL    HW1 3647   1.075   2.920   2.391
  916SOL    HW2 3648   1.216   2.923   2.475
  917SOL     OW 3649   4.078   1.138   6.329
  917SOL    HW1 3650   4.130   1.122   6.413
  917SOL    HW2 3651   4.079   1.054   6.274
  918SOL     OW 3652   0.326   1.989   4.775
  918SOL    HW1 3653   0.276   1.934   4.708
  918SOL    HW2 3654   0.314   1.949   4.866
  919SOL     OW 3655   1.872   0.395   0.893
  919SOL    HW1 3656   1.801   0.412   0.961
  919SOL    HW2 3657   1.945   0.340   0.934
  920SOL     OW 3658   1.965   1.245   2.969
  920SOL    HW1 3659   2.051   1.195   2.977
  920SOL    HW2 3660   1.981   1.334   2.927
  921SOL     OW 3661   3.829   4.147   0.818
  921SOL    HW1 3662   3.741   4.121   0.858
  921SOL    HW2 3663   3.888   4.066   0.813
  922SOL     OW 3664   2.249   5.667   0.033
  922SOL    HW1 3665   2.293   5.599   6.997
  922SOL    HW2 3666   2.315   5.700   0.099
  923SOL     OW 3667   4.001   1.212   6.858
  923SOL    HW1 3668   3.922   1.271   6.841
  923SOL    HW2 3669   4.078   1.269   6.886
  924SOL     OW 3670   6.202   5.234   2.696
  924SOL    HW1 3671   6.264   5.303   2.658
  924SOL    HW2 3672   6.255   5.160   2.736
  925SOL     OW 3673   6.948   1.745   2.530
  925SOL    HW1 3674   6.869   1.700   2.572
  925SOL    HW2 3675   6.936   1.748   2.431
  926SOL     OW 3676   3.782   5.753   1.268
  926SOL    HW1 3677   3.749   5.673   1.317
  926SOL    HW2 3678   3.795   5.829   1.332
  927SOL     OW 3679   4.530   5.689   4.906
  927SOL    HW1 3680   4.611   5.728   4.862
  927SOL    HW2 3681   4.510   5.738   4.991
  928SOL     OW 3682   0.247   1.693   1.605
  928SOL    HW1 3683   0.296   1.666   1.688
  928SOL    HW2 3684   0.222   1.611   1.554
  929SOL     OW 3685   6.893   2.039   2.035
  929SOL    HW1 3686   6.961   2.102   2.073
  929SOL    HW2 3687   6.940   1.963   1.990
  930SOL     OW 3688   6.002   5.261   2.276
  930SOL    HW1 3689   6.028   5.166   2.260
  930SOL    HW2 3690   6.019   5.315   2.194
  931SOL     OW 3691   1.464   2.852   1.856
  931SOL    HW1 3692   1.531   2.872   1.927
  931SOL    HW2 3693   1.373   2.875   1.888
  932SOL     OW 3694   4.495   5.996   1.535
  932SOL    HW1 3695   4.582   5.953   1.562
  932SOL    HW2 3696   4.514   6.077   1.479
  933SOL     OW 3697   1.280   6.816   3.573
  933SOL    HW1 3698   1.340   6.840   3.497
  933SOL    HW2 3699   1.283   6.889   3.642
  934SOL     OW 3700   3.124   1.336   5.822
  934SOL    HW1 3701   3.041   1.324   5.876
  934SOL    HW2 3702   3.201   1.295   5.870
  935SOL     OW 3703   1.656   3.588   4.560
  935SOL    HW1 3704   1.709   3.520   4.509
  935SOL    HW2 3705   1.696   3.601   4.651
  936SOL     OW 3706   1.194   1.483   1.635
  936SOL    HW1 3707   1.192   1.441   1.545
  936SOL    HW2 3708   1.230   1.576   1.628
  937SOL     OW 3709   5.226   2.136   3.402
  937SOL    HW1 3710   5.164   2.094   3.335
  937SOL    HW2 3711   5.223   2.236   3.391
  938SOL     OW 3712   0.634   1.209   6.713
  938SOL    HW1 3713   0.680   1.237   6.629
  938SOL    HW2 3714   0.577   1.129   6.695
  939SOL     OW 3715   6.184   1.097   5.287
  939SOL    HW1 3716   6.170   1.052   5.375
  939SOL    HW2 3717   6.241   1.179   5.300
  940SOL     OW 3718   0.056   0.410   4.307
  940SOL    HW1 3719   0.132   0.344   4.303
  940SOL    HW2 3720   0.002   0.394   4.389
  941SOL     OW 3721   5.994   2.416   5.378
  941SOL    HW1 3722   5.977   2.453   5.287
  941SOL    HW2 3723   5.997   2.491   5.444
  942SOL     OW 3724   4.719   0.217   5.058
  942SOL    HW1 3725   4.662   0.162   5.118
  942SOL    HW2 3726   4.664   0.253   4.983
  943SOL     OW 3727   5.142   2.342   0.428
  943SOL    HW1 3728   5.143   2.329   0.329
  943SOL    HW2 3729   5.121   2.255   0.472
  944SOL     OW 3730   4.778   4.078   4.281
  944SOL    HW1 3731   4.809   4.172   4.268
  944SOL    HW2 3732   4.789   4.052   4.377
  945SOL     OW 3733   5.565   3.531   6.357
  945SOL    HW1 3734   5.533   3.446   6.399
  945SOL    HW2 3735   5.556   3.524   6.257
  946SOL     OW 3736   5.764   3.836   6.706
  946SOL    HW1 3737   5.686   3.809   6.649
  946SOL    HW2 3738   5.845   3.845   6.648
  947SOL     OW 3739   0.754   2.478   5.644
  947SOL    HW1 3740   0.848   2.455   5.671
  947SOL    HW2 3741   0.752   2.499   5.546
  948SOL     OW 3742   3.617   1.412   0.759
  948SOL    HW1 3743   3.639   1.479   0.688
  948SOL    HW2 3744   3.528   1.371   0.739
  949SOL     OW 3745   5.552   6.296   6.685
  949SOL    HW1 3746   5.573   6.316   6.589
  949SOL    HW2 3747   5.636   6.299   6.739
  950SOL     OW 3748   3.575   5.299   1.009
  950SOL    HW1 3749   3.592   5.289   1.107
  950SOL    HW2 3750   3.480   5.327   0.994
  951SOL     OW 3751   1.050   3.007   3.690
  951SOL    HW1 3752   1.142   3.045   3.679
  951SOL    HW2 3753   1.048   2.946   3.769
  952SOL     OW 3754   4.681   1.456   1.279
  952SOL    HW1 3755   4.603   1.421   1.332
  952SOL    HW2 3756   4.656   1.542   1.235
  953SOL     OW 3757   3.915   6.493   5.919
  953SOL    HW1 3758   3.871   6.405   5.904
  953SOL    HW2 3759   3.921   6.543   5.833
  954SOL     OW 3760   6.563   0.859   1.149
  954SOL    HW1 3761   6.619   0.792   1.197
  954SOL    HW2 3762   6.485   0.814   1.107
  955SOL     OW 3763   0.705   5.973   2.668
  955SOL    HW1 3764   0.685   6.011   2.577
  955SOL    HW2 3765   0.752   6.042   2.723
  956SOL     OW 3766   1.421   2.655   0.690
  956SOL    HW1 3767   1.436   2.557   0.681
  956SOL    HW2 3768   1.481   2.691   0.762
  957SOL     OW 3769   1.911   6.412   4.829
  957SOL    HW1 3770   1.933   6.339   4.765
  957SOL    HW2 3771   1.911   6.376   4.922
  958SOL     OW 3772   4.715   2.673   6.969
  958SOL    HW1 3773   4.686   2.765   6.941
  958SOL    HW2 3774   4.815   2.669   6.967
  959SOL     OW 3775   1.416   3.342   0.946
  959SOL    HW1 3776   1.357   3.406   0.896
  959SOL    HW2 3777   1.487   3.393   0.994
  960SOL     OW 3778   1.606   4.864   5.567
  960SOL    HW1 3779   1.557   4.824   5.490
  960SOL    HW2 3780   1.627   4.793   5.634
  961SOL     OW 3781   3.658   6.749   6.781
  961SOL    HW1 3782   3.677   6.766   6.684
  961SOL    HW2 3783   3.740   6.770   6.835
  962SOL     OW 3784   1.287   6.477   3.149
  962SOL    HW1 3785   1.264   6.561   3.198
  962SOL    HW2 3786   1.331   6.413   3.212
  963SOL     OW 3787   5.725   0.347   1.859
  963SOL    HW1 3788   5.797   0.303   1.912
  963SOL    HW2 3789   5.681   0.280   1.800
  964SOL     OW 3790   5.741   3.452   1.845
  964SOL    HW1 3791   5.804   3.420   1.775
  964SOL    HW2 3792   5.655   3.479   1.803
  965SOL     OW 3793   1.537   1.307   0.149
  965SOL    HW1 3794   1.635   1.307   0.127
  965SOL    HW2 3795   1.523   1.350   0.237
  966SOL     OW 3796   6.457   2.514   2.275
  966SOL    HW1 3797   6.448   2.574   2.354
  966SOL    HW2 3798   6.486   2.567   2.196
  967SOL     OW 3799   1.264   5.957   2.126
  967SOL    HW1 3800   1.201   5.891   2.167
  967SOL    HW2 3801   1.351   5.955   2.176
  968SOL     OW 3802   6.983   4.349   0.540
  968SOL    HW1 3803   6.992   4.262   0.491
  968SOL    HW2 3804   0.047   4.398   0.536
  969SOL     OW 3805   4.059   6.589   6.352
  969SOL    HW1 3806   4.157   6.607   6.360
  969SOL    HW2 3807   4.020   6.577   6.444
  970SOL     OW 3808   5.355   3.241   5.714
  970SOL    HW1 3809   5.349   3.319   5.651
  970SOL    HW2 3810   5.375   3.158   5.663
  971SOL     OW 3811   0.475   3.050   6.889
  971SOL    HW1 3812   0.404   3.120   6.877
  971SOL    HW2 3813   0.563   3.087   6.859
  972SOL     OW 3814   4.740   6.610   0.574
  972SOL    HW1 3815   4.691   6.686   0.617
  972SOL    HW2 3816   4.791   6.644   0.495
  973SOL     OW 3817   6.116   3.086   5.825
  973SOL    HW1 3818   6.028   3.118   5.860
  973SOL    HW2 3819   6.160   3.029   5.895
  974SOL     OW 3820   2.297   0.264   4.668
  974SOL    HW1 3821   2.219   0.206   4.689
  974SOL    HW2 3822   2.310   0.269   4.569
  975SOL     OW 3823   2.836   0.086   5.140
  975SOL    HW1 3824   2.773   0.118   5.069
  975SOL    HW2 3825   2.845   7.010   5.135
  976SOL     OW 3826   0.435   4.282   3.611
  976SOL    HW1 3827   0.467   4.228   3.689
  976SOL    HW2 3828   0.335   4.279   3.607
  977SOL     OW 3829   0.777   2.287   2.043
  977SOL    HW1 3830   0.787   2.273   2.141
  977SOL    HW2 3831   0.736   2.205   2.002
  978SOL     OW 3832   5.847   3.210   4.539
  978SOL    HW1 3833   5.759   3.214   4.587
  978SOL    HW2 3834   5.836   3.160   4.454
  979SOL     OW 3835   5.743   1.334   3.154
  979SOL    HW1 3836   5.749   1.415   3.095
  979SOL    HW2 3837   5.809   1.342   3.228
  980SOL     OW 3838   0.061   0.357   5.315
  980SOL    HW1 3839   0.094   0.450   5.332
  980SOL    HW2 3840   0.022   0.319   5.399
  981SOL     OW 3841   6.319   2.929   6.007
  981SOL    HW1 3842   6.309   3.001   6.076
  981SOL    HW2 3843   6.401   2.946   5.953
  982SOL     OW 3844   1.418   3.844   0.984
  982SOL    HW1 3845   1.454   3.790   0.909
  982SOL    HW2 3846   1.430   3.794   1.070
  983SOL     OW 3847   5.099   1.872   2.937
  983SOL    HW1 3848   5.167   1.800   2.927
  983SOL    HW2 3849   5.010   1.831   2.960
  984SOL     OW 3850   5.056   2.858   5.574
  984SOL    HW1 3851   5.059   2.810   5.486
  984SOL    HW2 3852   5.003   2.942   5.564
  985SOL     OW 3853   1.659   4.742   0.441
  985SOL    HW1 3854   1.700   4.671   0.383
  985SOL    HW2 3855   1.728   4.812   0.460
  986SOL     OW 3856   4.586   4.233   6.919
  986SOL    HW1 3857   4.659   4.168   6.902
  986SOL    HW2 3858   4.572   4.290   6.838
  987SOL     OW 3859   3.945   6.761   2.746
  987SOL    HW1 3860   3.993   6.769   2.660
  987SOL    HW2 3861   4.009   6.736   2.819
  988SOL     OW 3862   3.459   2.804   1.670
  988SOL    HW1 3863   3.406   2.869   1.723
  988SOL    HW2 3864   3.412   2.786   1.584
  989SOL     OW 3865   0.822   0.490   4.546
  989SOL    HW1 3866   0.733   0.446   4.562
  989SOL    HW2 3867   0.843   0.486   4.448
  990SOL     OW 3868   5.283   6.389   2.066
  990SOL    HW1 3869   5.198   6.338   2.055
  990SOL    HW2 3870   5.359   6.325   2.081
  991SOL     OW 3871   5.988   1.864   5.344
  991SOL    HW1 3872   6.014   1.813   5.262
  991SOL    HW2 3873   5.903   1.827   5.381
  992SOL     OW 3874   6.905   2.913   1.305
  992SOL    HW1 3875   6.813   2.950   1.290
  992SOL    HW2 3876   6.935   2.936   1.398
  993SOL     OW 3877   3.757   6.530   4.841
  993SOL    HW1 3878   3.661   6.512   4.865
  993SOL    HW2 3879   3.811   6.539   4.925
  994SOL     OW 3880   3.203   3.247   2.493
  994SOL    HW1 3881   3.150   3.310   2.436
  994SOL    HW2 3882   3.227   3.166   2.441
  995SOL     OW 3883   0.267   1.070   4.871
  995SOL    HW1 3884   0.298   1.038   4.960
  995SOL    HW2 3885   0.167   1.066   4.866
  996SOL     OW 3886   0.824   3.507   0.349
  996SOL    HW1 3887   0.881   3.425   0.354
  996SOL    HW2 3888   0.728   3.480   0.353
  997SOL     OW 3889   0.240   1.868   0.945
  997SOL    HW1 3890   0.217   1.863   0.848
  997SOL    HW2 3891   0.182   1.805   0.996
  998SOL     OW 3892   4.964   6.785   3.315
  998SOL    HW1 3893   5.000   6.739   3.396
  998SOL    HW2 3894   4.961   6.883   3.331
  999SOL     OW 3895   5.979   5.555   1.481
  999SOL    HW1 3896   6.074   5.574   1.504
  999SOL    HW2 3897   5.933   5.641   1.456
 1000SOL     OW 3898   4.572   2.329   4.665
 1000SOL    HW1 3899   4.565   2.375   4.754
 1000SOL    HW2 3900   4.591   2.397   4.594
 1001SOL     OW 3901   4.518   1.190   5.469
 1001SOL    HW1 3902   4.597   1.191   5.407
 1001SOL    HW2 3903   4.450   1.256   5.437
 1002SOL     OW 3904   0.369   1.365   0.231
 1002SOL    HW1 3905   0.312   1.363   0.149
 1002SOL    HW2 3906   0.312   1.351   0.312
 1003SOL     OW 3907   4.479   5.256   2.786
 1003SOL    HW1 3908   4.434   5.179   2.830
 1003SOL    HW2 3909   4.472   5.248   2.687
 1004SOL     OW 3910   5.914   5.704   0.489
 1004SOL    HW1 3911   6.003   5.667   0.463
 1004SOL    HW2 3912   5.847   5.683   0.418
 1005SOL     OW 3913   6.775   5.811   3.695
 1005SOL    HW1 3914   6.735   5.743   3.757
 1005SOL    HW2 3915   6.873   5.816   3.710
 1006SOL     OW 3916   2.273   4.366   6.884
 1006SOL    HW1 3917   2.245   4.309   6.807
 1006SOL    HW2 3918   2.343   4.430   6.854
 1007SOL     OW 3919   1.024   0.766   3.203
 1007SOL    HW1 3920   0.929   0.784   3.177
 1007SOL    HW2 3921   1.077   0.744   3.122
 1008SOL     OW 3922   2.938   2.153   5.063
 1008SOL    HW1 3923   2.970   2.071   5.016
 1008SOL    HW2 3924   3.014   2.217   5.075
 1009SOL     OW 3925   2.819   5.893   5.913
 1009SOL    HW1 3926   2.808   5.866   6.008
 1009SOL    HW2 3927   2.841   5.813   5.858
 1010SOL     OW 3928   5.439   0.140   5.671
 1010SOL    HW1 3929   5.367   0.186   5.722
 1010SOL    HW2 3930   5.406   0.117   5.579
 1011SOL     OW 3931   3.281   5.872   4.142
 1011SOL    HW1 3932   3.365   5.822   4.119
 1011SOL    HW2 3933   3.298   5.929   4.223
 1012SOL     OW 3934   3.506   5.622   0.697
 1012SOL    HW1 3935   3.522   5.720   0.712
 1012SOL    HW2 3936   3.579   5.569   0.741
 1013SOL     OW 3937   0.507   0.786   0.223
 1013SOL    HW1 3938   0.483   0.851   0.295
 1013SOL    HW2 3939   0.435   0.717   0.214
 1014SOL     OW 3940   6.128   6.989   6.160
 1014SOL    HW1 3941   6.032   7.016   6.166
 1014SOL    HW2 3942   6.134   6.890   6.145
 1015SOL     OW 3943   3.171   0.266   4.869
 1015SOL    HW1 3944   3.184   0.317   4.783
 1015SOL    HW2 3945   3.258   0.229   4.900
 1016SOL     OW 3946   4.646   2.498   1.849
 1016SOL    HW1 3947   4.637   2.598   1.848
 1016SOL    HW2 3948   4.738   2.473   1.877
 1017SOL     OW 3949   4.959   0.756   6.150
 1017SOL    HW1 3950   5.055   0.784   6.138
 1017SOL    HW2 3951   4.900   0.837   6.143
 1018SOL     OW 3952   1.589   2.468   1.598
 1018SOL    HW1 3953   1.687   2.449   1.601
 1018SOL    HW2 3954   1.574   2.564   1.574
 1019SOL     OW 3955   6.025   1.585   0.666
 1019SOL    HW1 3956   6.058   1.532   0.588
 1019SOL    HW2 3957   6.103   1.615   0.721
 1020SOL     OW 3958   3.314   2.045   1.662
 1020SOL    HW1 3959   3.382   2.116   1.680
 1020SOL    HW2 3960   3.222   2.082   1.675
 1021SOL     OW 3961   6.444   1.476   0.807
 1021SOL    HW1 3962   6.542   1.496   0.795
 1021SOL    HW2 3963   6.393   1.562   0.811
 1022SOL     OW 3964   3.404   2.696   0.037
 1022SOL    HW1 3965   3.318   2.735   0.003
 1022SOL    HW2 3966   3.385   2.629   0.109
 1023SOL     OW 3967   6.673   0.426   4.381
 1023SOL    HW1 3968   6.707   0.488   4.452
 1023SOL    HW2 3969   6.701   0.333   4.402
 1024SOL     OW 3970   6.543   2.003   4.109
 1024SOL    HW1 3971   6.561   1.974   4.015
 1024SOL    HW2 3972   6.529   2.102   4.112
 1025SOL     OW 3973   3.336   4.330   1.411
 1025SOL    HW1 3974   3.237   4.335   1.422
 1025SOL    HW2 3975   3.380   4.364   1.493
 1026SOL     OW 3976   0.652   2.687   6.304
 1026SOL    HW1 3977   0.633   2.655   6.397
 1026SOL    HW2 3978   0.581   2.652   6.243
 1027SOL     OW 3979   1.949   4.693   1.087
 1027SOL    HW1 3980   1.914   4.709   0.995
 1027SOL    HW2 3981   2.038   4.647   1.081
 1028SOL     OW 3982   7.000   5.158   0.538
 1028SOL    HW1 3983   0.014   5.116   0.455
 1028SOL    HW2 3984   0.046   5.218   0.579
 1029SOL     OW 3985   3.700   0.676   5.510
 1029SOL    HW1 3986   3.682   0.593   5.563
 1029SOL    HW2 3987   3.721   0.751   5.573
 1030SOL     OW 3988   4.005   4.672   5.337
 1030SOL    HW1 3989   3.911   4.667   5.370
 1030SOL    HW2 3990   4.058   4.596   5.376
 1031SOL     OW 3991   2.301   5.297   0.846
 1031SOL    HW1 3992   2.323   5.200   0.836
 1031SOL    HW2 3993   2.306   5.342   0.756
 1032SOL     OW 3994   1.298   1.400   4.735
 1032SOL    HW1 3995   1.248   1.472   4.784
 1032SOL    HW2 3996   1.380   1.377   4.786
 1033SOL     OW 3997   2.389   6.724   2.596
 1033SOL    HW1 3998   2.353   6.685   2.681
 1033SOL    HW2 3999   2.489   6.729   2.602
 1034SOL     OW 4000   1.324   0.384   1.519
 1034SOL    HW1 4001   1.379   0.416   1.442
 1034SOL    HW2 4002   1.375   0.398   1.604
 1035SOL     OW 4003   3.524   1.178   2.788
 1035SOL    HW1 4004   3.509   1.263   2.838
 1035SOL    HW2 4005   3.541   1.104   2.852
 1036SOL     OW 4006   5.022   6.777   0.086
 1036SOL    HW1 4007   5.002   6.696   0.142
 1036SOL    HW2 4008   5.031   6.750   7.014
 1037SOL     OW 4009   3.382   1.760   6.255
 1037SOL    HW1 4010   3.414   1.712   6.174
 1037SOL    HW2 4011   3.372   1.858   6.235
 1038SOL     OW 4012   2.502   1.610   5.244
 1038SOL    HW1 4013   2.511   1.597   5.145
 1038SOL    HW2 4014   2.414   1.655   5.263
 1039SOL     OW 4015   4.358   2.059   3.480
 1039SOL    HW1 4016   4.312   2.147   3.474
 1039SOL    HW2 4017   4.332   2.013   3.565
 1040SOL     OW 4018   5.665   3.866   4.436
 1040SOL    HW1 4019   5.581   3.857   4.383
 1040SOL    HW2 4020   5.743   3.878   4.375
 1041SOL     OW 4021   1.586   6.776   4.370
 1041SOL    HW1 4022   1.610   6.845   4.301
 1041SOL    HW2 4023   1.664   6.715   4.384
 1042SOL     OW 4024   4.560   3.801   0.760
 1042SOL    HW1 4025   4.634   3.866   0.777
 1042SOL    HW2 4026   4.584   3.712   0.801
 1043SOL     OW 4027   3.817   0.669   6.915
 1043SOL    HW1 4028   3.825   0.766   6.891
 1043SOL    HW2 4029   3.825   0.614   6.832
 1044SOL     OW 4030   4.162   3.530   2.560
 1044SOL    HW1 4031   4.261   3.543   2.567
 1044SOL    HW2 4032   4.126   3.589   2.488
 1045SOL     OW 4033   4.125   0.956   3.209
 1045SOL    HW1 4034   4.218   0.922   3.196
 1045SOL    HW2 4035   4.060   0.881   3.192
 1046SOL     OW 4036   3.909   0.621   2.200
 1046SOL    HW1 4037   3.864   0.684   2.264
 1046SOL    HW2 4038   3.852   0.610   2.119
 1047SOL     OW 4039   0.460   5.774   1.687
 1047SOL    HW1 4040   0.434   5.723   1.605
 1047SOL    HW2 4041   0.549   5.742   1.720
 1048SOL     OW 4042   6.438   4.389   5.350
 1048SOL    HW1 4043   6.483   4.433   5.428
 1048SOL    HW2 4044   6.493   4.402   5.268
 1049SOL     OW 4045   0.801   3.343   5.700
 1049SOL    HW1 4046   0.832   3.249   5.686
 1049SOL    HW2 4047   0.834   3.400   5.624
 1050SOL     OW 4048   2.368   0.528   0.685
 1050SOL    HW1 4049   2.320   0.470   0.750
 1050SOL    HW2 4050   2.308   0.602   0.654
 1051SOL     OW 4051   5.117   4.657   2.159
 1051SOL    HW1 4052   5.040   4.637   2.219
 1051SOL    HW2 4053   5.143   4.753   2.169
 1052SOL     OW 4054   3.729   0.305   4.485
 1052SOL    HW1 4055   3.805   0.366   4.462
 1052SOL    HW2 4056   3.701   0.255   4.404
 1053SOL     OW 4057   3.482   4.889   3.468
 1053SOL    HW1 4058   3.499   4.942   3.386
 1053SOL    HW2 4059   3.561   4.895   3.529
 1054SOL     OW 4060   4.449   5.842   5.130
 1054SOL    HW1 4061   4.410   5.804   5.214
 1054SOL    HW2 4062   4.387   5.911   5.094
 1055SOL     OW 4063   3.526   4.992   4.110
 1055SOL    HW1 4064   3.510   5.008   4.207
 1055SOL    HW2 4065   3.451   5.030   4.057
 1056SOL     OW 4066   2.330   6.035   6.239
 1056SOL    HW1 4067   2.417   6.041   6.190
 1056SOL    HW2 4068   2.341   5.977   6.320
 1057SOL     OW 4069   3.864   3.843   1.134
 1057SOL    HW1 4070   3.931   3.782   1.094
 1057SOL    HW2 4071   3.897   3.938   1.129
 1058SOL     OW 4072   3.001   6.846   2.475
 1058SOL    HW1 4073   2.930   6.915   2.462
 1058SOL    HW2 4074   3.060   6.844   2.394
 1059SOL     OW 4075   3.345   0.707   0.281
 1059SOL    HW1 4076   3.366   0.744   0.372
 1059SOL    HW2 4077   3.295   0.776   0.228
 1060SOL     OW 4078   2.887   1.108   4.260
 1060SOL    HW1 4079   2.877   1.032   4.195
 1060SOL    HW2 4080   2.970   1.159   4.238
 1061SOL     OW 4081   2.793   5.928   1.238
 1061SOL    HW1 4082   2.891   5.912   1.246
 1061SOL    HW2 4083   2.756   5.873   1.163
 1062SOL     OW 4084   4.784   4.575   4.462
 1062SOL    HW1 4085   4.785   4.597   4.560
 1062SOL    HW2 4086   4.690   4.576   4.429
 1063SOL     OW 4087   2.697   2.199   5.982
 1063SOL    HW1 4088   2.681   2.267   5.910
 1063SOL    HW2 4089   2.777   2.144   5.959
 1064SOL     OW 4090   0.662   2.809   1.752
 1064SOL    HW1 4091   0.742   2.763   1.713
 1064SOL    HW2 4092   0.585   2.746   1.756
 1065SOL     OW 4093   4.510   5.168   5.593
 1065SOL    HW1 4094   4.486   5.115   5.674
 1065SOL    HW2 4095   4.491   5.265   5.610
 1066SOL     OW 4096   4.555   6.964   3.790
 1066SOL    HW1 4097   4.651   6.946   3.768
 1066SOL    HW2 4098   4.531   6.914   3.873
 1067SOL     OW 4099   2.721   3.428   1.016
 1067SOL    HW1 4100   2.794   3.441   1.082
 1067SOL    HW2 4101   2.701   3.515   0.971
 1068SOL     OW 4102   0.274   4.474   0.878
 1068SOL    HW1 4103   0.317   4.412   0.813
 1068SOL    HW2 4104   0.174   4.473   0.865
 1069SOL     OW 4105   3.861   3.008   2.546
 1069SOL    HW1 4106   3.834   2.998   2.450
 1069SOL    HW2 4107   3.954   3.046   2.551
 1070SOL     OW 4108   2.537   6.728   0.696
 1070SOL    HW1 4109   2.543   6.697   0.791
 1070SOL    HW2 4110   2.444   6.759   0.676
 1071SOL     OW 4111   5.008   5.215   4.019
 1071SOL    HW1 4112   4.932   5.181   4.075
 1071SOL    HW2 4113   4.971   5.271   3.944
 1072SOL     OW 4114   3.598   5.347   3.019
 1072SOL    HW1 4115   3.635   5.333   3.110
 1072SOL    HW2 4116   3.673   5.357   2.953
 1073SOL     OW 4117   2.928   5.772   3.568
 1073SOL    HW1 4118   2.980   5.825   3.500
 1073SOL    HW2 4119   2.959   5.796   3.660
 1074SOL     OW 4120   1.836   5.467   2.849
 1074SOL    HW1 4121   1.795   5.475   2.940
 1074SOL    HW2 4122   1.868   5.373   2.835
 1075SOL     OW 4123   1.101   4.391   2.803
 1075SOL    HW1 4124   1.099   4.349   2.893
 1075SOL    HW2 4125   1.050   4.334   2.738
 1076SOL     OW 4126   6.594   4.164   2.830
 1076SOL    HW1 4127   6.686   4.165   2.790
 1076SOL    HW2 4128   6.597   4.202   2.922
 1077SOL     OW 4129   4.739   0.156   1.791
 1077SOL    HW1 4130   4.769   0.137   1.697
 1077SOL    HW2 4131   4.722   0.070   1.839
 1078SOL     OW 4132   0.322   3.038   1.757
 1078SOL    HW1 4133   0.268   2.989   1.826
 1078SOL    HW2 4134   0.264   3.102   1.708
 1079SOL     OW 4135   2.263   5.205   3.497
 1079SOL    HW1 4136   2.330   5.213   3.571
 1079SOL    HW2 4137   2.187   5.267   3.515
 1080SOL     OW 4138   1.708   5.358   3.977
 1080SOL    HW1 4139   1.797   5.376   4.019
 1080SOL    HW2 4140   1.705   5.402   3.887
 1081SOL     OW 4141   1.633   0.549   0.488
 1081SOL    HW1 4142   1.618   0.512   0.396
 1081SOL    HW2 4143   1.649   0.473   0.551
 1082SOL     OW 4144   2.200   6.840   0.862
 1082SOL    HW1 4145   2.158   6.768   0.918
 1082SOL    HW2 4146   2.132   6.909   0.839
 1083SOL     OW 4147   3.520   2.250   1.698
 1083SOL    HW1 4148   3.497   2.343   1.671
 1083SOL    HW2 4149   3.586   2.252   1.773
 1084SOL     OW 4150   6.792   3.695   0.556
 1084SOL    HW1 4151   6.883   3.733   0.537
 1084SOL    HW2 4152   6.790   3.658   0.649
 1085SOL     OW 4153   1.753   5.177   3.473
 1085SOL    HW1 4154   1.777   5.101   3.412
 1085SOL    HW2 4155   1.771   5.264   3.427
 1086SOL     OW 4156   2.919   5.688   2.674
 1086SOL    HW1 4157   2.945   5.614   2.612
 1086SOL    HW2 4158   2.999   5.741   2.698
 1087SOL     OW 4159   4.034   3.152   4.705
 1087SOL    HW1 4160   3.946   3.143   4.750
 1087SOL    HW2 4161   4.099   3.089   4.745
 1088SOL     OW 4162   0.026   4.502   2.715
 1088SOL    HW1 4163   6.964   4.516   2.666
 1088SOL    HW2 4164   0.060   4.409   2.697
 1089SOL     OW 4165   6.820   6.895   3.391
 1089SOL    HW1 4166   6.917   6.917   3.401
 1089SOL    HW2 4167   6.801   6.809   3.437
 1090SOL     OW 4168   2.076   2.042   6.443
 1090SOL    HW1 4169   2.004   1.998   6.496
 1090SOL    HW2 4170   2.077   2.140   6.464
 1091SOL     OW 4171   1.023   2.453   5.634
 1091SOL    HW1 4172   1.009   2.551   5.618
 1091SOL    HW2 4173   1.029   2.405   5.547
 1092SOL     OW 4174   2.218   4.567   1.093
 1092SOL    HW1 4175   2.294   4.609   1.044
 1092SOL    HW2 4176   2.198   4.477   1.054
 1093SOL     OW 4177   6.986   2.987   1.546
 1093SOL    HW1 4178   6.904   2.965   1.598
 1093SOL    HW2 4179   0.011   3.062   1.591
 1094SOL     OW 4180   0.792   6.702   2.266
 1094SOL    HW1 4181   0.773   6.604   2.262
 1094SOL    HW2 4182   0.709   6.753   2.245
 1095SOL     OW 4183   0.536   3.675   6.320
 1095SOL    HW1 4184   0.508   3.621   6.241
 1095SOL    HW2 4185   0.600   3.622   6.376
 1096SOL     OW 4186   3.785   3.089   1.847
 1096SOL    HW1 4187   3.752   2.998   1.819
 1096SOL    HW2 4188   3.742   3.159   1.790
 1097SOL     OW 4189   2.525   4.646   6.014
 1097SOL    HW1 4190   2.557   4.724   6.067
 1097SOL    HW2 4191   2.432   4.623   6.039
 1098SOL     OW 4192   3.983   0.297   2.630
 1098SOL    HW1 4193   3.974   0.305   2.729
 1098SOL    HW2 4194   3.952   0.382   2.587
 1099SOL     OW 4195   3.564   0.269   2.489
 1099SOL    HW1 4196   3.512   0.198   2.443
 1099SOL    HW2 4197   3.656   0.235   2.511
 1100SOL     OW 4198   6.420   1.226   6.643
 1100SOL    HW1 4199   6.471   1.258   6.563
 1100SOL    HW2 4200   6.483   1.215   6.720
 1101SOL     OW 4201   5.456   3.050   1.292
 1101SOL    HW1 4202   5.494   3.115   1.358
 1101SOL    HW2 4203   5.472   2.956   1.324
 1102SOL     OW 4204   7.003   3.868   4.124
 1102SOL    HW1 4205   0.038   3.896   4.200
 1102SOL    HW2 4206   0.037   3.834   4.049
 1103SOL     OW 4207   0.084   3.359   6.641
 1103SOL    HW1 4208   0.171   3.379   6.686
 1103SOL    HW2 4209   0.008   3.379   6.704
 1104SOL     OW 4210   2.575   5.241   5.951
 1104SOL    HW1 4211   2.504   5.236   5.881
 1104SOL    HW2 4212   2.566   5.325   6.003
 1105SOL     OW 4213   3.970   5.187   0.936
 1105SOL    HW1 4214   3.882   5.172   0.890
 1105SOL    HW2 4215   3.957   5.252   1.011
 1106SOL     OW 4216   1.186   1.181   6.662
 1106SOL    HW1 4217   1.148   1.101   6.708
 1106SOL    HW2 4218   1.197   1.256   6.729
 1107SOL     OW 4219   6.721   0.654   1.241
 1107SOL    HW1 4220   6.791   0.695   1.299
 1107SOL    HW2 4221   6.762   0.584   1.184
 1108SOL     OW 4222   1.642   0.854   6.706
 1108SOL    HW1 4223   1.728   0.864   6.755
 1108SOL    HW2 4224   1.572   0.911   6.750
 1109SOL     OW 4225   4.701   0.813   4.008
 1109SOL    HW1 4226   4.786   0.864   4.019
 1109SOL    HW2 4227   4.687   0.754   4.088
 1110SOL     OW 4228   3.386   2.913   2.911
 1110SOL    HW1 4229   3.290   2.938   2.922
 1110SOL    HW2 4230   3.419   2.945   2.822
 1111SOL     OW 4231   4.459   6.968   0.266
 1111SOL    HW1 4232   4.428   0.040   0.265
 1111SOL    HW2 4233   4.463   6.934   0.172
 1112SOL     OW 4234   0.735   1.351   2.684
 1112SOL    HW1 4235   0.718   1.267   2.735
 1112SOL    HW2 4236   0.827   1.348   2.644
 1113SOL     OW 4237   6.467   3.638   1.316
 1113SOL    HW1 4238   6.392   3.702   1.333
 1113SOL    HW2 4239   6.516   3.666   1.234
 1114SOL     OW 4240   5.765   1.236   5.090
 1114SOL    HW1 4241   5.744   1.187   5.006
 1114SOL    HW2 4242   5.711   1.199   5.165
 1115SOL     OW 4243   2.335   4.736   0.892
 1115SOL    HW1 4244   2.273   4.789   0.950
 1115SOL    HW2 4245   2.415   4.791   0.868
 1116SOL     OW 4246   3.571   6.361   6.670
 1116SOL    HW1 4247   3.634   6.418   6.722
 1116SOL    HW2 4248   3.621   6.312   6.598
 1117SOL     OW 4249   2.402   3.156   1.011
 1117SOL    HW1 4250   2.335   3.230   1.022
 1117SOL    HW2 4251   2.366   3.072   1.050
 1118SOL     OW 4252   1.785   3.187   1.634
 1118SOL    HW1 4253   1.688   3.189   1.610
 1118SOL    HW2 4254   1.822   3.279   1.633
 1119SOL     OW 4255   2.979   3.616   3.216
 1119SOL    HW1 4256   2.941   3.612   3.309
 1119SOL    HW2 4257   3.049   3.687   3.212
 1120SOL     OW 4258   4.437   0.851   3.936
 1120SOL    HW1 4259   4.533   0.828   3.952
 1120SOL    HW2 4260   4.378   0.795   3.993
 1121SOL     OW 4261   5.412   3.165   3.043
 1121SOL    HW1 4262   5.467   3.216   3.109
 1121SOL    HW2 4263   5.454   3.075   3.028
 1122SOL     OW 4264   4.630   5.241   6.390
 1122SOL    HW1 4265   4.637   5.338   6.416
 1122SOL    HW2 4266   4.709   5.217   6.334
 1123SOL     OW 4267   4.028   1.221   1.803
 1123SOL    HW1 4268   3.928   1.220   1.794
 1123SOL    HW2 4269   4.052   1.209   1.899
 1124SOL     OW 4270   1.535   5.208   4.477
 1124SOL    HW1 4271   1.627   5.198   4.515
 1124SOL    HW2 4272   1.540   5.252   4.388
 1125SOL     OW 4273   3.022   3.475   4.904
 1125SOL    HW1 4274   2.972   3.425   4.975
 1125SOL    HW2 4275   3.110   3.431   4.888
 1126SOL     OW 4276   6.468   0.207   2.494
 1126SOL    HW1 4277   6.470   0.307   2.484
 1126SOL    HW2 4278   6.518   0.181   2.577
 1127SOL     OW 4279   1.977   5.809   6.269
 1127SOL    HW1 4280   1.882   5.815   6.298
 1127SOL    HW2 4281   2.012   5.900   6.247
 1128SOL     OW 4282   2.249   2.435   4.346
 1128SOL    HW1 4283   2.287   2.345   4.367
 1128SOL    HW2 4284   2.159   2.424   4.303
 1129SOL     OW 4285   4.472   6.749   6.037
 1129SOL    HW1 4286   4.400   6.715   5.977
 1129SOL    HW2 4287   4.562   6.731   5.995
 1130SOL     OW 4288   0.085   5.529   5.701
 1130SOL    HW1 4289   0.122   5.598   5.639
 1130SOL    HW2 4290   0.118   5.439   5.674
 1131SOL     OW 4291   0.182   5.247   5.696
 1131SOL    HW1 4292   0.233   5.176   5.744
 1131SOL    HW2 4293   0.200   5.239   5.598
 1132SOL     OW 4294   5.677   6.314   5.054
 1132SOL    HW1 4295   5.613   6.256   5.104
 1132SOL    HW2 4296   5.645   6.408   5.056
 1133SOL     OW 4297   6.759   2.789   6.689
 1133SOL    HW1 4298   6.807   2.877   6.680
 1133SOL    HW2 4299   6.694   2.794   6.764
 1134SOL     OW 4300   6.908   2.263   5.851
 1134SOL    HW1 4301   6.815   2.232   5.867
 1134SOL    HW2 4302   6.958   2.266   5.938
 1135SOL     OW 4303   6.446   1.677   4.813
 1135SOL    HW1 4304   6.409   1.752   4.758
 1135SOL    HW2 4305   6.544   1.691   4.826
 1136SOL     OW 4306   3.451   5.310   4.176
 1136SOL    HW1 4307   3.542   5.347   4.195
 1136SOL    HW2 4308   3.459   5.236   4.109
 1137SOL     OW 4309   1.565   0.764   6.217
 1137SOL    HW1 4310   1.570   0.716   6.305
 1137SOL    HW2 4311   1.470   0.787   6.197
 1138SOL     OW 4312   1.143   3.854   5.770
 1138SOL    HW1 4313   1.209   3.886   5.838
 1138SOL    HW2 4314   1.094   3.933   5.731
 1139SOL     OW 4315   0.999   0.060   2.351
 1139SOL    HW1 4316   1.092   0.097   2.344
 1139SOL    HW2 4317   0.935   0.123   2.306
 1140SOL     OW 4318   3.498   2.118   3.359
 1140SOL    HW1 4319   3.505   2.094   3.262
 1140SOL    HW2 4320   3.589   2.112   3.401
 1141SOL     OW 4321   6.598   5.947   5.923
 1141SOL    HW1 4322   6.634   5.856   5.902
 1141SOL    HW2 4323   6.630   6.012   5.855
 1142SOL     OW 4324   6.764   0.582   4.572
 1142SOL    HW1 4325   6.819   0.498   4.578
 1142SOL    HW2 4326   6.714   0.594   4.658
 1143SOL     OW 4327   4.672   1.849   1.475
 1143SOL    HW1 4328   4.611   1.803   1.538
 1143SOL    HW2 4329   4.619   1.900   1.408
 1144SOL     OW 4330   0.694   6.611   5.407
 1144SOL    HW1 4331   0.791   6.621   5.386
 1144SOL    HW2 4332   0.641   6.604   5.323
 1145SOL     OW 4333   1.841   4.642   4.864
 1145SOL    HW1 4334   1.761   4.585   4.880
 1145SOL    HW2 4335   1.845   4.714   4.933
 1146SOL     OW 4336   5.911   1.758   1.101
 1146SOL    HW1 4337   5.885   1.670   1.063
 1146SOL    HW2 4338   6.010   1.770   1.094
 1147SOL     OW 4339   6.548   3.428   1.844
 1147SOL    HW1 4340   6.647   3.421   1.843
 1147SOL    HW2 4341   6.516   3.441   1.938
 1148SOL     OW 4342   5.683   1.010   6.421
 1148SOL    HW1 4343   5.778   1.025   6.451
 1148SOL    HW2 4344   5.665   0.912   6.418
 1149SOL     OW 4345   5.412   2.365   3.158
 1149SOL    HW1 4346   5.426   2.296   3.088
 1149SOL    HW2 4347   5.328   2.416   3.140
 1150SOL     OW 4348   1.228   5.572   5.628
 1150SOL    HW1 4349   1.323   5.540   5.622
 1150SOL    HW2 4350   1.173   5.528   5.557
 1151SOL     OW 4351   2.564   5.132   0.297
 1151SOL    HW1 4352   2.594   5.202   0.232
 1151SOL    HW2 4353   2.558   5.170   0.389
 1152SOL     OW 4354   0.634   0.803   3.991
 1152SOL    HW1 4355   0.619   0.901   3.985
 1152SOL    HW2 4356   0.715   0.785   4.047
 1153SOL     OW 4357   2.599   4.640   2.798
 1153SOL    HW1 4358   2.584   4.658   2.701
 1153SOL    HW2 4359   2.682   4.687   2.828
 1154SOL     OW 4360   1.806   4.089   2.282
 1154SOL    HW1 4361   1.730   4.024   2.297
 1154SOL    HW2 4362   1.819   4.144   2.365
 1155SOL     OW 4363   4.109   7.019   2.401
 1155SOL    HW1 4364   4.050   6.942   2.424
 1155SOL    HW2 4365   4.125   7.020   2.302
 1156SOL     OW 4366   1.789   1.397   4.005
 1156SOL    HW1 4367   1.794   1.473   3.940
 1156SOL    HW2 4368   1.707   1.407   4.061
 1157SOL     OW 4369   1.522   2.733   4.362
 1157SOL    HW1 4370   1.455   2.660   4.372
 1157SOL    HW2 4371   1.480   2.810   4.313
 1158SOL     OW 4372   4.419   5.970   5.959
 1158SOL    HW1 4373   4.432   5.901   5.888
 1158SOL    HW2 4374   4.504   6.021   5.972
 1159SOL     OW 4375   6.220   4.308   2.585
 1159SOL    HW1 4376   6.251   4.322   2.491
 1159SOL    HW2 4377   6.145   4.242   2.585
 1160SOL     OW 4378   2.876   3.040   1.162
 1160SOL    HW1 4379   2.794   3.072   1.115
 1160SOL    HW2 4380   2.948   3.022   1.095
 1161SOL     OW 4381   4.285   0.628   4.015
 1161SOL    HW1 4382   4.309   0.534   3.990
 1161SOL    HW2 4383   4.303   0.643   4.112
 1162SOL     OW 4384   3.459   5.097   1.608
 1162SOL    HW1 4385   3.423   5.149   1.530
 1162SOL    HW2 4386   3.553   5.124   1.625
 1163SOL     OW 4387   5.232   0.109   2.406
 1163SOL    HW1 4388   5.305   0.119   2.473
 1163SOL    HW2 4389   5.264   0.140   2.316
 1164SOL     OW 4390   6.425   3.578   4.645
 1164SOL    HW1 4391   6.505   3.519   4.642
 1164SOL    HW2 4392   6.449   3.669   4.610
 1165SOL     OW 4393   0.920   4.862   2.328
 1165SOL    HW1 4394   1.002   4.805   2.339
 1165SOL    HW2 4395   0.860   4.821   2.259
 1166SOL     OW 4396   3.453   1.979   6.882
 1166SOL    HW1 4397   3.508   2.062   6.877
 1166SOL    HW2 4398   3.432   1.958   6.978
 1167SOL     OW 4399   3.865   1.841   5.253
 1167SOL    HW1 4400   3.779   1.839   5.304
 1167SOL    HW2 4401   3.867   1.764   5.188
 1168SOL     OW 4402   6.063   6.947   3.330
 1168SOL    HW1 4403   6.108   6.942   3.241
 1168SOL    HW2 4404   6.060   6.856   3.371
 1169SOL     OW 4405   1.345   2.865   1.054
 1169SOL    HW1 4406   1.281   2.813   1.109
 1169SOL    HW2 4407   1.301   2.948   1.020
 1170SOL     OW 4408   2.913   0.750   1.028
 1170SOL    HW1 4409   2.950   0.724   0.939
 1170SOL    HW2 4410   2.827   0.799   1.015
 1171SOL     OW 4411   2.876   0.841   0.285
 1171SOL    HW1 4412   2.859   0.768   0.351
 1171SOL    HW2 4413   2.794   0.856   0.230
 1172SOL     OW 4414   3.344   3.540   5.213
 1172SOL    HW1 4415   3.274   3.608   5.236
 1172SOL    HW2 4416   3.336   3.462   5.275
 1173SOL     OW 4417   5.550   6.942   6.114
 1173SOL    HW1 4418   5.639   6.983   6.093
 1173SOL    HW2 4419   5.499   6.928   6.030
 1174SOL     OW 4420   3.510   5.781   6.529
 1174SOL    HW1 4421   3.414   5.807   6.539
 1174SOL    HW2 4422   3.555   5.843   6.465
 1175SOL     OW 4423   0.083   4.990   4.388
 1175SOL    HW1 4424   0.127   4.999   4.477
 1175SOL    HW2 4425   0.139   4.934   4.327
 1176SOL     OW 4426   6.429   2.793   1.385
 1176SOL    HW1 4427   6.370   2.776   1.464
 1176SOL    HW2 4428   6.379   2.772   1.301
 1177SOL     OW 4429   6.122   3.661   6.807
 1177SOL    HW1 4430   6.086   3.708   6.888
 1177SOL    HW2 4431   6.117   3.722   6.728
 1178SOL     OW 4432   5.502   4.401   2.442
 1178SOL    HW1 4433   5.461   4.313   2.416
 1178SOL    HW2 4434   5.600   4.389   2.458
 1179SOL     OW 4435   1.808   5.711   6.010
 1179SOL    HW1 4436   1.858   5.724   5.924
 1179SOL    HW2 4437   1.755   5.626   6.006
 1180SOL     OW 4438   1.890   0.832   4.043
 1180SOL    HW1 4439   1.822   0.905   4.029
 1180SOL    HW2 4440   1.982   0.870   4.034
 1181SOL     OW 4441   1.875   4.515   2.478
 1181SOL    HW1 4442   1.820   4.523   2.561
 1181SOL    HW2 4443   1.941   4.591   2.474
 1182SOL     OW 4444   1.611   4.118   3.952
 1182SOL    HW1 4445   1.614   4.099   4.050
 1182SOL    HW2 4446   1.690   4.075   3.908
 1183SOL     OW 4447   4.099   5.909   1.141
 1183SOL    HW1 4448   4.167   5.947   1.203
 1183SOL    HW2 4449   4.144   5.860   1.066
 1184SOL     OW 4450   3.366   2.973   6.265
 1184SOL    HW1 4451   3.445   2.912   6.266
 1184SOL    HW2 4452   3.370   3.031   6.183
 1185SOL     OW 4453   2.634   1.227   6.597
 1185SOL    HW1 4454   2.648   1.137   6.557
 1185SOL    HW2 4455   2.619   1.218   6.695
 1186SOL     OW 4456   3.556   1.133   5.062
 1186SOL    HW1 4457   3.554   1.229   5.034
 1186SOL    HW2 4458   3.606   1.125   5.148
 1187SOL     OW 4459   1.168   1.916   4.783
 1187SOL    HW1 4460   1.252   1.904   4.730
 1187SOL    HW2 4461   1.148   2.013   4.792
 1188SOL     OW 4462   1.548   0.759   5.084
 1188SOL    HW1 4463   1.633   0.720   5.118
 1188SOL    HW2 4464   1.494   0.688   5.039
 1189SOL     OW 4465   0.247   1.169   1.692
 1189SOL    HW1 4466   0.269   1.247   1.751
 1189SOL    HW2 4467   0.172   1.117   1.733
 1190SOL     OW 4468   4.245   5.435   1.957
 1190SOL    HW1 4469   4.290   5.417   1.870
 1190SOL    HW2 4470   4.285   5.376   2.028
 1191SOL     OW 4471   2.633   4.684   1.383
 1191SOL    HW1 4472   2.641   4.695   1.482
 1191SOL    HW2 4473   2.550   4.632   1.362
 1192SOL     OW 4474   4.119   5.195   2.642
 1192SOL    HW1 4475   4.194   5.174   2.580
 1192SOL    HW2 4476   4.094   5.112   2.692
 1193SOL     OW 4477   3.688   0.120   4.278
 1193SOL    HW1 4478   3.626   0.081   4.210
 1193SOL    HW2 4479   3.783   0.104   4.249
 1194SOL     OW 4480   6.097   1.675   1.694
 1194SOL    HW1 4481   6.011   1.631   1.720
 1194SOL    HW2 4482   6.079   1.745   1.625
 1195SOL     OW 4483   2.981   6.479   0.026
 1195SOL    HW1 4484   2.939   6.569   0.035
 1195SOL    HW2 4485   2.910   6.408   0.029
 1196SOL     OW 4486   1.465   5.352   3.444
 1196SOL    HW1 4487   1.443   5.300   3.361
 1196SOL    HW2 4488   1.478   5.288   3.520
 1197SOL     OW 4489   3.426   4.954   6.950
 1197SOL    HW1 4490   3.526   4.959   6.958
 1197SOL    HW2 4491   3.397   4.858   6.950
 1198SOL     OW 4492   3.311   0.667   2.536
 1198SOL    HW1 4493   3.331   0.760   2.507
 1198SOL    HW2 4494   3.382   0.635   2.598
 1199SOL     OW 4495   3.271   3.676   3.702
 1199SOL    HW1 4496   3.229   3.648   3.616
 1199SOL    HW2 4497   3.283   3.597   3.761
 1200SOL     OW 4498   4.945   3.593   1.269
 1200SOL    HW1 4499   4.863   3.629   1.314
 1200SOL    HW2 4500   4.923   3.563   1.177
 1201SOL     OW 4501   1.493   1.907   4.879
 1201SOL    HW1 4502   1.413   1.951   4.920
 1201SOL    HW2 4503   1.532   1.842   4.945
 1202SOL     OW 4504   6.562   0.348   4.746
 1202SOL    HW1 4505   6.492   0.304   4.802
 1202SOL    HW2 4506   6.647   0.354   4.798
 1203SOL     OW 4507   6.410   6.416   2.512
 1203SOL    HW1 4508   6.342   6.351   2.546
 1203SOL    HW2 4509   6.477   6.368   2.456
 1204SOL     OW 4510   1.300   0.121   0.224
 1204SOL    HW1 4511   1.278   0.068   0.143
 1204SOL    HW2 4512   1.247   0.206   0.224
 1205SOL     OW 4513   0.764   3.060   5.664
 1205SOL    HW1 4514   0.746   2.962   5.676
 1205SOL    HW2 4515   0.679   3.106   5.637
 1206SOL     OW 4516   0.014   1.517   4.471
 1206SOL    HW1 4517   0.007   1.550   4.377
 1206SOL    HW2 4518   6.961   1.457   4.492
 1207SOL     OW 4519   6.042   6.532   6.942
 1207SOL    HW1 4520   6.073   6.606   6.883
 1207SOL    HW2 4521   6.097   6.531   0.003
 1208SOL     OW 4522   3.737   3.636   2.971
 1208SOL    HW1 4523   3.706   3.731   2.961
 1208SOL    HW2 4524   3.688   3.578   2.907
 1209SOL     OW 4525   6.785   4.231   4.884
 1209SOL    HW1 4526   6.818   4.254   4.793
 1209SOL    HW2 4527   6.855   4.252   4.952
 1210SOL     OW 4528   2.523   0.013   2.874
 1210SOL    HW1 4529   2.439   0.059   2.902
 1210SOL    HW2 4530   2.534   0.021   2.775
 1211SOL     OW 4531   1.027   3.249   3.261
 1211SOL    HW1 4532   0.964   3.273   3.187
 1211SOL    HW2 4533   0.979   3.192   3.328
 1212SOL     OW 4534   1.059   4.764   3.589
 1212SOL    HW1 4535   1.138   4.753   3.649
 1212SOL    HW2 4536   1.022   4.857   3.599
 1213SOL     OW 4537   5.999   3.796   5.049
 1213SOL    HW1 4538   5.918   3.778   5.104
 1213SOL    HW2 4539   5.973   3.847   4.967
 1214SOL     OW 4540   1.541   1.726   1.434
 1214SOL    HW1 4541   1.582   1.801   1.486
 1214SOL    HW2 4542   1.448   1.710   1.466
 1215SOL     OW 4543   0.564   5.398   1.922
 1215SOL    HW1 4544   0.490   5.371   1.983
 1215SOL    HW2 4545   0.598   5.489   1.948
 1216SOL     OW 4546   2.395   0.200   1.343
 1216SOL    HW1 4547   2.485   0.177   1.305
 1216SOL    HW2 4548   2.391   0.298   1.361
 1217SOL     OW 4549   2.074   2.720   2.842
 1217SOL    HW1 4550   2.100   2.809   2.803
 1217SOL    HW2 4551   2.067   2.653   2.768
 1218SOL     OW 4552   0.485   3.311   3.553
 1218SOL    HW1 4553   0.451   3.304   3.460
 1218SOL    HW2 4554   0.542   3.231   3.575
 1219SOL     OW 4555   2.914   5.499   3.479
 1219SOL    HW1 4556   2.834   5.439   3.472
 1219SOL    HW2 4557   2.885   5.592   3.501
 1220SOL     OW 4558   6.650   4.681   2.204
 1220SOL    HW1 4559   6.617   4.610   2.266
 1220SOL    HW2 4560   6.580   4.753   2.195
 1221SOL     OW 4561   4.934   4.654   5.849
 1221SOL    HW1 4562   4.942   4.722   5.776
 1221SOL    HW2 4563   5.009   4.667   5.914
 1222SOL     OW 4564   6.365   4.385   1.340
 1222SOL    HW1 4565   6.463   4.382   1.357
 1222SOL    HW2 4566   6.348   4.413   1.246
 1223SOL     OW 4567   0.100   5.011   5.076
 1223SOL    HW1 4568   0.162   4.962   5.138
 1223SOL    HW2 4569   0.025   4.951   5.051
 1224SOL     OW 4570   4.025   4.799   0.889
 1224SOL    HW1 4571   3.984   4.840   0.970
 1224SOL    HW2 4572   4.070   4.870   0.835
 1225SOL     OW 4573   4.141   1.410   6.987
 1225SOL    HW1 4574   4.070   1.397   0.032
 1225SOL    HW2 4575   4.231   1.409   0.008
 1226SOL     OW 4576   5.873   5.829   1.013
 1226SOL    HW1 4577   5.854   5.810   0.917
 1226SOL    HW2 4578   5.789   5.818   1.066
 1227SOL     OW 4579   5.080   4.720   6.843
 1227SOL    HW1 4580   5.032   4.782   6.782
 1227SOL    HW2 4581   5.021   4.642   6.864
 1228SOL     OW 4582   3.679   3.984   4.222
 1228SOL    HW1 4583   3.777   3.972   4.243
 1228SOL    HW2 4584   3.632   4.016   4.304
 1229SOL     OW 4585   2.522   5.405   2.912
 1229SOL    HW1 4586   2.616   5.438   2.905
 1229SOL    HW2 4587   2.460   5.482   2.929
 1230SOL     OW 4588   4.230   4.662   0.994
 1230SOL    HW1 4589   4.166   4.739   1.001
 1230SOL    HW2 4590   4.249   4.642   0.898
 1231SOL     OW 4591   1.944   1.522   0.359
 1231SOL    HW1 4592   1.984   1.434   0.334
 1231SOL    HW2 4593   2.017   1.584   0.388
 1232SOL     OW 4594   2.620   1.819   5.383
 1232SOL    HW1 4595   2.561   1.747   5.348
 1232SOL    HW2 4596   2.658   1.871   5.307
 1233SOL     OW 4597   0.161   5.360   4.666
 1233SOL    HW1 4598   0.208   5.446   4.648
 1233SOL    HW2 4599   0.101   5.370   4.745
 1234SOL     OW 4600   6.225   4.552   6.840
 1234SOL    HW1 4601   6.241   4.473   6.898
 1234SOL    HW2 4602   6.279   4.544   6.756
 1235SOL     OW 4603   6.023   4.765   1.227
 1235SOL    HW1 4604   6.064   4.850   1.193
 1235SOL    HW2 4605   5.932   4.753   1.187
 1236SOL     OW 4606   0.999   1.142   2.758
 1236SOL    HW1 4607   0.977   1.201   2.836
 1236SOL    HW2 4608   1.076   1.082   2.782
 1237SOL     OW 4609   1.168   0.298   4.019
 1237SOL    HW1 4610   1.150   0.383   4.069
 1237SOL    HW2 4611   1.255   0.306   3.970
 1238SOL     OW 4612   0.794   0.505   4.271
 1238SOL    HW1 4613   0.699   0.506   4.239
 1238SOL    HW2 4614   0.849   0.446   4.212
 1239SOL     OW 4615   5.110   4.299   4.192
 1239SOL    HW1 4616   5.113   4.206   4.155
 1239SOL    HW2 4617   5.029   4.309   4.249
 1240SOL     OW 4618   0.361   3.535   0.616
 1240SOL    HW1 4619   0.277   3.488   0.586
 1240SOL    HW2 4620   0.339   3.597   0.691
 1241SOL     OW 4621   3.841   5.472   5.904
 1241SOL    HW1 4622   3.817   5.377   5.924
 1241SOL    HW2 4623   3.765   5.531   5.929
 1242SOL     OW 4624   2.001   5.188   0.450
 1242SOL    HW1 4625   1.961   5.254   0.514
 1242SOL    HW2 4626   2.100   5.182   0.465
 1243SOL     OW 4627   1.404   3.904   3.467
 1243SOL    HW1 4628   1.416   3.996   3.428
 1243SOL    HW2 4629   1.387   3.839   3.393
 1244SOL     OW 4630   6.443   6.799   4.808
 1244SOL    HW1 4631   6.366   6.852   4.772
 1244SOL    HW2 4632   6.411   6.740   4.882
 1245SOL     OW 4633   4.536   6.573   1.171
 1245SOL    HW1 4634   4.570   6.498   1.114
 1245SOL    HW2 4635   4.488   6.639   1.114
 1246SOL     OW 4636   6.007   1.933   1.537
 1246SOL    HW1 4637   5.929   1.933   1.600
 1246SOL    HW2 4638   5.976   1.960   1.446
 1247SOL     OW 4639   5.333   6.999   2.799
 1247SOL    HW1 4640   5.373   7.019   2.889
 1247SOL    HW2 4641   5.266   6.926   2.808
 1248SOL     OW 4642   0.597   6.988   4.749
 1248SOL    HW1 4643   0.499   6.974   4.740
 1248SOL    HW2 4644   0.628   6.952   4.837
 1249SOL     OW 4645   5.826   6.563   0.113
 1249SOL    HW1 4646   5.904   6.558   0.050
 1249SOL    HW2 4647   5.846   6.629   0.185
 1250SOL     OW 4648   0.361   4.566   4.877
 1250SOL    HW1 4649   0.380   4.480   4.829
 1250SOL    HW2 4650   0.262   4.573   4.893
 1251SOL     OW 4651   2.984   0.200   2.609
 1251SOL    HW1 4652   3.079   0.173   2.591
 1251SOL    HW2 4653   2.932   0.121   2.639
 1252SOL     OW 4654   2.524   5.517   6.092
 1252SOL    HW1 4655   2.526   5.595   6.030
 1252SOL    HW2 4656   2.598   5.525   6.159
 1253SOL     OW 4657   2.637   6.158   0.178
 1253SOL    HW1 4658   2.700   6.194   0.247
 1253SOL    HW2 4659   2.547   6.144   0.220
 1254SOL     OW 4660   6.331   1.454   3.667
 1254SOL    HW1 4661   6.262   1.400   3.716
 1254SOL    HW2 4662   6.343   1.416   3.575
 1255SOL     OW 4663   6.104   2.000   5.816
 1255SOL    HW1 4664   6.198   2.031   5.802
 1255SOL    HW2 4665   6.041   2.076   5.804
 1256SOL     OW 4666   0.152   5.950   5.191
 1256SOL    HW1 4667   0.245   5.961   5.156
 1256SOL    HW2 4668   0.109   5.872   5.146
 1257SOL     OW 4669   0.225   6.210   3.345
 1257SOL    HW1 4670   0.228   6.309   3.337
 1257SOL    HW2 4671   0.244   6.168   3.256
 1258SOL     OW 4672   4.318   5.925   6.365
 1258SOL    HW1 4673   4.245   5.901   6.428
 1258SOL    HW2 4674   4.406   5.913   6.409
 1259SOL     OW 4675   5.607   6.562   5.078
 1259SOL    HW1 4676   5.582   6.647   5.032
 1259SOL    HW2 4677   5.624   6.580   5.175
 1260SOL     OW 4678   2.993   1.343   0.605
 1260SOL    HW1 4679   2.938   1.290   0.540
 1260SOL    HW2 4680   3.088   1.315   0.600
 1261SOL     OW 4681   6.823   4.368   4.370
 1261SOL    HW1 4682   6.744   4.429   4.377
 1261SOL    HW2 4683   6.843   4.351   4.274
 1262SOL     OW 4684   3.955   5.607   1.625
 1262SOL    HW1 4685   3.911   5.543   1.688
 1262SOL    HW2 4686   3.887   5.674   1.594
 1263SOL     OW 4687   6.807   1.668   1.204
 1263SOL    HW1 4688   6.873   1.631   1.269
 1263SOL    HW2 4689   6.813   1.768   1.204
 1264SOL     OW 4690   6.537   2.596   4.752
 1264SOL    HW1 4691   6.503   2.505   4.777
 1264SOL    HW2 4692   6.636   2.592   4.737
 1265SOL     OW 4693   6.089   5.607   4.671
 1265SOL    HW1 4694   6.057   5.562   4.755
 1265SOL    HW2 4695   6.036   5.691   4.657
 1266SOL     OW 4696   3.251   0.654   3.814
 1266SOL    HW1 4697   3.213   0.741   3.782
 1266SOL    HW2 4698   3.179   0.585   3.813
 1267SOL     OW 4699   0.269   4.589   2.483
 1267SOL    HW1 4700   0.187   4.634   2.447
 1267SOL    HW2 4701   0.246   4.496   2.513
 1268SOL     OW 4702   5.930   4.575   6.775
 1268SOL    HW1 4703   5.887   4.549   6.862
 1268SOL    HW2 4704   6.026   4.597   6.792
 1269SOL     OW 4705   6.759   4.912   6.755
 1269SOL    HW1 4706   6.828   4.848   6.787
 1269SOL    HW2 4707   6.718   4.878   6.670
 1270SOL     OW 4708   1.478   1.656   4.259
 1270SOL    HW1 4709   1.445   1.693   4.346
 1270SOL    HW2 4710   1.526   1.729   4.208
 1271SOL     OW 4711   5.017   2.516   3.602
 1271SOL    HW1 4712   4.961   2.568   3.538
 1271SOL    HW2 4713   4.992   2.419   3.596
 1272SOL     OW 4714   6.086   6.338   0.382
 1272SOL    HW1 4715   6.156   6.407   0.366
 1272SOL    HW2 4716   6.043   6.354   0.471
 1273SOL     OW 4717   2.478   6.937   5.749
 1273SOL    HW1 4718   2.434   6.874   5.813
 1273SOL    HW2 4719   2.425   6.942   5.664
 1274SOL     OW 4720   5.953   1.983   2.242
 1274SOL    HW1 4721   5.878   2.024   2.191
 1274SOL    HW2 4722   6.034   2.042   2.236
 1275SOL     OW 4723   4.069   1.699   3.775
 1275SOL    HW1 4724   4.087   1.605   3.804
 1275SOL    HW2 4725   4.007   1.743   3.840
 1276SOL     OW 4726   6.358   7.005   2.400
 1276SOL    HW1 4727   6.281   7.021   2.339
 1276SOL    HW2 4728   6.384   0.067   2.445
 1277SOL     OW 4729   1.071   1.461   4.277
 1277SOL    HW1 4730   0.991   1.520   4.285
 1277SOL    HW2 4731   1.131   1.494   4.204
 1278SOL     OW 4732   2.950   1.288   5.608
 1278SOL    HW1 4733   2.997   1.243   5.532
 1278SOL    HW2 4734   3.013   1.297   5.686
 1279SOL     OW 4735   2.102   4.957   0.289
 1279SOL    HW1 4736   2.054   5.034   0.330
 1279SOL    HW2 4737   2.196   4.984   0.267
 1280SOL     OW 4738   1.323   5.926   2.935
 1280SOL    HW1 4739   1.368   5.981   2.865
 1280SOL    HW2 4740   1.351   5.830   2.924
 1281SOL     OW 4741   0.779   0.063   3.998
 1281SOL    HW1 4742   0.875   0.046   4.021
 1281SOL    HW2 4743   0.771   0.091   3.903
 1282SOL     OW 4744   0.972   6.577   2.463
 1282SOL    HW1 4745   0.927   6.637   2.397
 1282SOL    HW2 4746   1.061   6.614   2.487
 1283SOL     OW 4747   5.031   3.907   4.951
 1283SOL    HW1 4748   5.116   3.893   5.000
 1283SOL    HW2 4749   5.024   4.002   4.921
 1284SOL     OW 4750   2.872   1.818   3.314
 1284SOL    HW1 4751   2.806   1.846   3.384
 1284SOL    HW2 4752   2.905   1.726   3.334
 1285SOL     OW 4753   5.968   3.076   5.597
 1285SOL    HW1 4754   5.943   2.984   5.570
 1285SOL    HW2 4755   6.035   3.073   5.671
 1286SOL     OW 4756   6.087   6.217   1.967
 1286SOL    HW1 4757   6.058   6.193   1.874
 1286SOL    HW2 4758   6.128   6.136   2.010
 1287SOL     OW 4759   6.371   4.219   5.866
 1287SOL    HW1 4760   6.442   4.169   5.817
 1287SOL    HW2 4761   6.319   4.276   5.801
 1288SOL     OW 4762   6.488   2.716   3.928
 1288SOL    HW1 4763   6.417   2.769   3.974
 1288SOL    HW2 4764   6.448   2.671   3.848
 1289SOL     OW 4765   0.311   5.090   2.764
 1289SOL    HW1 4766   0.346   5.132   2.848
 1289SOL    HW2 4767   0.224   5.132   2.740
 1290SOL     OW 4768   0.524   0.281   0.971
 1290SOL    HW1 4769   0.469   0.356   0.935
 1290SOL    HW2 4770   0.615   0.314   0.994
 1291SOL     OW 4771   1.638   6.755   0.930
 1291SOL    HW1 4772   1.705   6.734   1.001
 1291SOL    HW2 4773   1.555   6.791   0.971
 1292SOL     OW 4774   0.905   5.834   6.385
 1292SOL    HW1 4775   0.815   5.791   6.393
 1292SOL    HW2 4776   0.916   5.904   6.455
 1293SOL     OW 4777   6.088   2.539   6.279
 1293SOL    HW1 4778   6.019   2.526   6.350
 1293SOL    HW2 4779   6.058   2.611   6.216
 1294SOL     OW 4780   0.526   1.750   3.507
 1294SOL    HW1 4781   0.507   1.847   3.491
 1294SOL    HW2 4782   0.541   1.705   3.419
 1295SOL     OW 4783   5.139   3.560   1.455
 1295SOL    HW1 4784   5.090   3.577   1.370
 1295SOL    HW2 4785   5.142   3.461   1.473
 1296SOL     OW 4786   3.805   2.385   0.469
 1296SOL    HW1 4787   3.747   2.380   0.551
 1296SOL    HW2 4788   3.774   2.460   0.411
 1297SOL     OW 4789   6.663   0.832   6.292
 1297SOL    HW1 4790   6.741   0.770   6.293
 1297SOL    HW2 4791   6.639   0.857   6.386
 1298SOL     OW 4792   6.533   2.305   3.359
 1298SOL    HW1 4793   6.627   2.298   3.328
 1298SOL    HW2 4794   6.477   2.348   3.288
 1299SOL     OW 4795   1.218   3.019   4.006
 1299SOL    HW1 4796   1.283   2.949   4.034
 1299SOL    HW2 4797   1.259   3.077   3.935
 1300SOL     OW 4798   3.990   3.514   1.983
 1300SOL    HW1 4799   4.036   3.603   1.987
 1300SOL    HW2 4800   4.052   3.442   2.014
 1301SOL     OW 4801   1.040   0.985   2.210
 1301SOL    HW1 4802   1.031   1.021   2.303
 1301SOL    HW2 4803   0.965   1.019   2.154
 1302SOL     OW 4804   2.714   5.891   5.398
 1302SOL    HW1 4805   2.705   5.893   5.299
 1302SOL    HW2 4806   2.806   5.860   5.422
 1303SOL     OW 4807   2.808   0.333   1.021
 1303SOL    HW1 4808   2.866   0.332   1.102
 1303SOL    HW2 4809   2.714   0.358   1.048
 1304SOL     OW 4810   3.365   1.149   6.296
 1304SOL    HW1 4811   3.450   1.098   6.283
 1304SOL    HW2 4812   3.348   1.161   6.393
 1305SOL     OW 4813   5.980   5.748   3.898
 1305SOL    HW1 4814   6.040   5.690   3.953
 1305SOL    HW2 4815   5.971   5.837   3.941
 1306SOL     OW 4816   1.278   5.053   4.768
 1306SOL    HW1 4817   1.236   5.051   4.859
 1306SOL    HW2 4818   1.276   5.147   4.733
 1307SOL     OW 4819   0.997   1.655   3.982
 1307SOL    HW1 4820   1.067   1.584   3.988
 1307SOL    HW2 4821   1.041   1.742   3.959
 1308SOL     OW 4822   4.505   6.155   3.222
 1308SOL    HW1 4823   4.511   6.236   3.164
 1308SOL    HW2 4824   4.429   6.166   3.286
 1309SOL     OW 4825   5.515   3.198   4.680
 1309SOL    HW1 4826   5.504   3.240   4.590
 1309SOL    HW2 4827   5.425   3.175   4.717
 1310SOL     OW 4828   5.464   3.889   5.379
 1310SOL    HW1 4829   5.411   3.863   5.460
 1310SOL    HW2 4830   5.494   3.984   5.388
 1311SOL     OW 4831   5.000   5.010   5.182
 1311SOL    HW1 4832   5.055   5.064   5.119
 1311SOL    HW2 4833   4.950   5.071   5.243
 1312SOL     OW 4834   6.294   0.191   1.885
 1312SOL    HW1 4835   6.369   0.250   1.915
 1312SOL    HW2 4836   6.330   0.118   1.828
 1313SOL     OW 4837   3.031   4.901   4.696
 1313SOL    HW1 4838   3.026   4.994   4.733
 1313SOL    HW2 4839   3.048   4.837   4.770
 1314SOL     OW 4840   6.103   1.475   5.687
 1314SOL    HW1 4841   6.084   1.571   5.663
 1314SOL    HW2 4842   6.175   1.472   5.756
 1315SOL     OW 4843   1.835   6.982   3.248
 1315SOL    HW1 4844   1.796   0.050   3.244
 1315SOL    HW2 4845   1.925   6.982   3.205
 1316SOL     OW 4846   3.867   6.376   2.964
 1316SOL    HW1 4847   3.870   6.298   2.902
 1316SOL    HW2 4848   3.821   6.350   3.049
 1317SOL     OW 4849   0.248   3.498   4.134
 1317SOL    HW1 4850   0.338   3.469   4.102
 1317SOL    HW2 4851   0.204   3.555   4.064
 1318SOL     OW 4852   1.164   6.375   1.393
 1318SOL    HW1 4853   1.225   6.333   1.327
 1318SOL    HW2 4854   1.196   6.468   1.414
 1319SOL     OW 4855   6.194   0.691   0.554
 1319SOL    HW1 4856   6.095   0.686   0.543
 1319SOL    HW2 4857   6.238   0.678   0.465
 1320SOL     OW 4858   4.981   5.866   5.089
 1320SOL    HW1 4859   5.047   5.827   5.153
 1320SOL    HW2 4860   4.890   5.867   5.130
 1321SOL     OW 4861   3.277   1.691   6.963
 1321SOL    HW1 4862   3.347   1.658   6.899
 1321SOL    HW2 4863   3.316   1.763   7.020
 1322SOL     OW 4864   5.144   1.923   6.136
 1322SOL    HW1 4865   5.211   1.926   6.061
 1322SOL    HW2 4866   5.052   1.920   6.097
 1323SOL     OW 4867   6.411   1.287   4.132
 1323SOL    HW1 4868   6.326   1.236   4.121
 1323SOL    HW2 4869   6.391   1.384   4.140
 1324SOL     OW 4870   1.335   2.945   0.317
 1324SOL    HW1 4871   1.366   3.016   0.380
 1324SOL    HW2 4872   1.261   2.981   0.261
 1325SOL     OW 4873   4.353   5.384   3.610
 1325SOL    HW1 4874   4.298   5.439   3.672
 1325SOL    HW2 4875   4.307   5.378   3.521
 1326SOL     OW 4876   5.267   4.134   4.509
 1326SOL    HW1 4877   5.196   4.066   4.525
 1326SOL    HW2 4878   5.316   4.112   4.425
 1327SOL     OW 4879   2.920   6.251   4.404
 1327SOL    HW1 4880   2.917   6.161   4.359
 1327SOL    HW2 4881   2.910   6.323   4.335
 1328SOL     OW 4882   2.334   1.546   0.962
 1328SOL    HW1 4883   2.408   1.485   0.932
 1328SOL    HW2 4884   2.374   1.624   1.010
 1329SOL     OW 4885   0.711   6.550   1.934
 1329SOL    HW1 4886   0.687   6.619   2.003
 1329SOL    HW2 4887   0.797   6.575   1.890
 1330SOL     OW 4888   4.663   6.377   1.034
 1330SOL    HW1 4889   4.623   6.286   1.045
 1330SOL    HW2 4890   4.757   6.369   1.000
 1331SOL     OW 4891   0.457   1.829   1.933
 1331SOL    HW1 4892   0.386   1.853   1.999
 1331SOL    HW2 4893   0.530   1.779   1.979
 1332SOL     OW 4894   3.919   1.773   1.433
 1332SOL    HW1 4895   3.862   1.703   1.475
 1332SOL    HW2 4896   3.909   1.859   1.483
 1333SOL     OW 4897   3.936   3.682   4.467
 1333SOL    HW1 4898   3.858   3.649   4.520
 1333SOL    HW2 4899   4.009   3.711   4.530
 1334SOL     OW 4900   0.993   3.700   3.813
 1334SOL    HW1 4901   1.004   3.789   3.770
 1334SOL    HW2 4902   1.083   3.664   3.840
 1335SOL     OW 4903   2.317   5.593   2.974
 1335SOL    HW1 4904   2.240   5.628   2.920
 1335SOL    HW2 4905   2.341   5.660   3.045
 1336SOL     OW 4906   0.364   0.414   5.558
 1336SOL    HW1 4907   0.452   0.462   5.557
 1336SOL    HW2 4908   0.305   0.450   5.486
 1337SOL     OW 4909   3.521   0.362   6.824
 1337SOL    HW1 4910   3.471   0.413   6.894
 1337SOL    HW2 4911   3.550   0.274   6.862
 1338SOL     OW 4912   3.127   5.198   1.282
 1338SOL    HW1 4913   3.203   5.193   1.217
 1338SOL    HW2 4914   3.147   5.267   1.352
 1339SOL     OW 4915   0.100   4.327   6.919
 1339SOL    HW1 4916   0.008   4.332   6.879
 1339SOL    HW2 4917   0.155   4.403   6.885
 1340SOL     OW 4918   1.984   1.097   6.257
 1340SOL    HW1 4919   1.924   1.036   6.205
 1340SOL    HW2 4920   2.072   1.104   6.211
 1341SOL     OW 4921   5.592   2.636   4.196
 1341SOL    HW1 4922   5.541   2.555   4.167
 1341SOL    HW2 4923   5.644   2.672   4.119
 1342SOL     OW 4924   0.529   6.540   1.539
 1342SOL    HW1 4925   0.606   6.479   1.517
 1342SOL    HW2 4926   0.545   6.630   1.500
 1343SOL     OW 4927   2.877   5.501   4.262
 1343SOL    HW1 4928   2.836   5.431   4.203
 1343SOL    HW2 4929   2.855   5.481   4.358
 1344SOL     OW 4930   5.274   1.420   2.815
 1344SOL    HW1 4931   5.186   1.428   2.768
 1344SOL    HW2 4932   5.334   1.359   2.763
 1345SOL     OW 4933   0.795   5.696   2.950
 1345SOL    HW1 4934   0.828   5.602   2.952
 1345SOL    HW2 4935   0.854   5.751   2.891
 1346SOL     OW 4936   0.320   1.454   3.399
 1346SOL    HW1 4937   0.323   1.407   3.488
 1346SOL    HW2 4938   0.412   1.484   3.374
 1347SOL     OW 4939   4.818   0.394   3.736
 1347SOL    HW1 4940   4.760   0.332   3.789
 1347SOL    HW2 4941   4.850   0.468   3.796
 1348SOL     OW 4942   4.369   5.928   4.601
 1348SOL    HW1 4943   4.441   5.980   4.554
 1348SOL    HW2 4944   4.384   5.830   4.585
 1349SOL     OW 4945   4.257   2.262   0.062
 1349SOL    HW1 4946   4.273   2.164   0.064
 1349SOL    HW2 4947   4.159   2.280   0.066
 1350SOL     OW 4948   3.412   0.912   5.055
 1350SOL    HW1 4949   3.455   1.002   5.052
 1350SOL    HW2 4950   3.482   0.842   5.072
 1351SOL     OW 4951   1.908   1.910   4.177
 1351SOL    HW1 4952   1.920   1.969   4.096
 1351SOL    HW2 4953   1.856   1.829   4.151
 1352SOL     OW 4954   0.796   6.358   4.182
 1352SOL    HW1 4955   0.726   6.298   4.142
 1352SOL    HW2 4956   0.804   6.441   4.127
 1353SOL     OW 4957   2.225   2.846   5.499
 1353SOL    HW1 4958   2.282   2.891   5.567
 1353SOL    HW2 4959   2.189   2.915   5.435
 1354SOL     OW 4960   0.125   0.074   0.330
 1354SOL    HW1 4961   0.047   0.037   0.379
 1354SOL    HW2 4962   0.210   0.047   0.375
 1355SOL     OW 4963   3.809   3.098   6.887
 1355SOL    HW1 4964   3.817   3.179   6.828
 1355SOL    HW2 4965   3.713   3.071   6.893
 1356SOL     OW 4966   3.268   2.966   1.802
 1356SOL    HW1 4967   3.307   2.949   1.892
 1356SOL    HW2 4968   3.172   2.939   1.801
 1357SOL     OW 4969   3.063   2.843   5.688
 1357SOL    HW1 4970   2.992   2.842   5.617
 1357SOL    HW2 4971   3.056   2.760   5.743
 1358SOL     OW 4972   1.701   3.748   6.301
 1358SOL    HW1 4973   1.689   3.798   6.386
 1358SOL    HW2 4974   1.677   3.652   6.314
 1359SOL     OW 4975   7.021   1.777   0.053
 1359SOL    HW1 4976   6.939   1.794   7.021
 1359SOL    HW2 4977   6.994   1.753   0.146
 1360SOL     OW 4978   3.195   3.110   4.167
 1360SOL    HW1 4979   3.105   3.153   4.171
 1360SOL    HW2 4980   3.261   3.175   4.127
 1361SOL     OW 4981   0.698   6.204   1.171
 1361SOL    HW1 4982   0.782   6.211   1.118
 1361SOL    HW2 4983   0.707   6.132   1.240
 1362SOL     OW 4984   3.190   2.028   6.863
 1362SOL    HW1 4985   3.286   2.005   6.848
 1362SOL    HW2 4986   3.140   2.021   6.777
 1363SOL     OW 4987   6.660   6.678   1.328
 1363SOL    HW1 4988   6.603   6.727   1.262
 1363SOL    HW2 4989   6.605   6.656   1.409
 1364SOL     OW 4990   0.633   3.404   0.713
 1364SOL    HW1 4991   0.619   3.335   0.642
 1364SOL    HW2 4992   0.597   3.492   0.682
 1365SOL     OW 4993   0.905   3.745   5.674
 1365SOL    HW1 4994   0.890   3.655   5.715
 1365SOL    HW2 4995   0.979   3.791   5.722
 1366SOL     OW 4996   3.662   0.810   1.529
 1366SOL    HW1 4997   3.564   0.831   1.526
 1366SOL    HW2 4998   3.704   0.834   1.442
 1367SOL     OW 4999   1.364   0.058   4.717
 1367SOL    HW1 5000   1.406   0.089   4.632
 1367SOL    HW2 5001   1.269   0.032   4.699
 1368SOL     OW 5002   1.605   6.306   4.901
 1368SOL    HW1 5003   1.675   6.252   4.948
 1368SOL    HW2 5004   1.572   6.378   4.961
 1369SOL     OW 5005   2.558   5.563   3.739
 1369SOL    HW1 5006   2.516   5.481   3.700
 1369SOL    HW2 5007   2.576   5.548   3.836
 1370SOL     OW 5008   6.937   2.751   3.021
 1370SOL    HW1 5009   6.848   2.707   3.007
 1370SOL    HW2 5010   6.946   2.777   3.117
 1371SOL     OW 5011   5.883   2.116   5.379
 1371SOL    HW1 5012   5.946   2.193   5.382
 1371SOL    HW2 5013   5.934   2.031   5.362
 1372SOL     OW 5014   6.023   2.776   1.347
 1372SOL    HW1 5015   5.926   2.782   1.371
 1372SOL    HW2 5016   6.066   2.703   1.400
 1373SOL     OW 5017   6.079   3.514   1.953
 1373SOL    HW1 5018   6.110   3.422   1.979
 1373SOL    HW2 5019   6.136   3.548   1.878
 1374SOL     OW 5020   3.802   3.218   2.073
 1374SOL    HW1 5021   3.781   3.157   1.996
 1374SOL    HW2 5022   3.735   3.292   2.075
 1375SOL     OW 5023   4.876   4.632   4.724
 1375SOL    HW1 5024   4.878   4.711   4.786
 1375SOL    HW2 5025   4.961   4.630   4.670
 1376SOL     OW 5026   3.333   4.007   5.626
 1376SOL    HW1 5027   3.289   4.006   5.715
 1376SOL    HW2 5028   3.428   4.035   5.635
 1377SOL     OW 5029   1.532   1.408   2.917
 1377SOL    HW1 5030   1.557   1.505   2.914
 1377SOL    HW2 5031   1.487   1.383   2.832
 1378SOL     OW 5032   5.048   1.943   4.171
 1378SOL    HW1 5033   4.984   2.021   4.170
 1378SOL    HW2 5034   5.064   1.914   4.265
 1379SOL     OW 5035   4.298   5.597   6.983
 1379SOL    HW1 5036   4.262   5.504   6.989
 1379SOL    HW2 5037   4.276   5.635   6.893
 1380SOL     OW 5038   0.290   6.140   3.579
 1380SOL    HW1 5039   0.387   6.158   3.595
 1380SOL    HW2 5040   0.267   6.166   3.485
 1381SOL     OW 5041   6.442   2.322   5.956
 1381SOL    HW1 5042   6.532   2.279   5.944
 1381SOL    HW2 5043   6.389   2.268   6.022
 1382SOL     OW 5044   4.694   2.335   6.636
 1382SOL    HW1 5045   4.692   2.435   6.624
 1382SOL    HW2 5046   4.609   2.306   6.680
 1383SOL     OW 5047   6.485   0.413   0.581
 1383SOL    HW1 5048   6.468   0.385   0.487
 1383SOL    HW2 5049   6.398   0.435   0.626
 1384SOL     OW 5050   6.215   2.239   1.916
 1384SOL    HW1 5051   6.311   2.241   1.944
 1384SOL    HW2 5052   6.179   2.146   1.926
 1385SOL     OW 5053   0.131   6.077   1.435
 1385SOL    HW1 5054   0.201   6.109   1.500
 1385SOL    HW2 5055   0.140   6.127   1.349
 1386SOL     OW 5056   2.200   5.742   4.182
 1386SOL    HW1 5057   2.140   5.787   4.117
 1386SOL    HW2 5058   2.295   5.772   4.166
 1387SOL     OW 5059   2.245   5.851   2.077
 1387SOL    HW1 5060   2.311   5.822   2.146
 1387SOL    HW2 5061   2.218   5.945   2.094
 1388SOL     OW 5062   6.565   0.472   1.680
 1388SOL    HW1 5063   6.547   0.435   1.771
 1388SOL    HW2 5064   6.504   0.428   1.614
 1389SOL     OW 5065   5.772   0.784   2.202
 1389SOL    HW1 5066   5.865   0.764   2.170
 1389SOL    HW2 5067   5.744   0.716   2.268
 1390SOL     OW 5068   1.312   1.761   4.442
 1390SOL    HW1 5069   1.344   1.811   4.522
 1390SOL    HW2 5070   1.290   1.667   4.468
 1391SOL     OW 5071   0.395   3.216   3.270
 1391SOL    HW1 5072   0.296   3.212   3.281
 1391SOL    HW2 5073   0.434   3.127   3.294
 1392SOL     OW 5074   5.358   4.494   4.292
 1392SOL    HW1 5075   5.269   4.512   4.250
 1392SOL    HW2 5076   5.392   4.578   4.334
 1393SOL     OW 5077   3.257   5.634   6.585
 1393SOL    HW1 5078   3.275   5.621   6.682
 1393SOL    HW2 5079   3.288   5.554   6.533
 1394SOL     OW 5080   1.316   6.106   7.013
 1394SOL    HW1 5081   1.376   6.039   6.969
 1394SOL    HW2 5082   1.353   6.198   6.999
 1395SOL     OW 5083   4.141   4.836   5.993
 1395SOL    HW1 5084   4.060   4.857   6.048
 1395SOL    HW2 5085   4.223   4.872   6.039
 1396SOL     OW 5086   6.041   6.367   3.781
 1396SOL    HW1 5087   6.003   6.459   3.790
 1396SOL    HW2 5088   6.038   6.320   3.869
 1397SOL     OW 5089   5.004   6.240   5.342
 1397SOL    HW1 5090   5.046   6.295   5.415
 1397SOL    HW2 5091   5.066   6.166   5.317
 1398SOL     OW 5092   2.194   0.892   4.255
 1398SOL    HW1 5093   2.156   0.984   4.264
 1398SOL    HW2 5094   2.212   0.854   4.345
 1399SOL     OW 5095   3.153   5.945   2.106
 1399SOL    HW1 5096   3.198   6.009   2.043
 1399SOL    HW2 5097   3.082   5.894   2.056
 1400SOL     OW 5098   1.993   6.862   2.130
 1400SOL    HW1 5099   1.898   6.878   2.156
 1400SOL    HW2 5100   2.027   6.780   2.175
 1401SOL     OW 5101   6.346   1.536   4.184
 1401SOL    HW1 5102   6.420   1.599   4.160
 1401SOL    HW2 5103   6.260   1.586   4.186
 1402SOL     OW 5104   6.191   3.195   0.247
 1402SOL    HW1 5105   6.183   3.246   0.161
 1402SOL    HW2 5106   6.162   3.253   0.323
 1403SOL     OW 5107   3.576   0.469   2.075
 1403SOL    HW1 5108   3.573   0.477   2.175
 1403SOL    HW2 5109   3.519   0.392   2.046
 1404SOL     OW 5110   5.397   1.913   0.247
 1404SOL    HW1 5111   5.457   1.949   0.318
 1404SOL    HW2 5112   5.316   1.873   0.289
 1405SOL     OW 5113   3.288   3.103   1.431
 1405SOL    HW1 5114   3.201   3.148   1.453
 1405SOL    HW2 5115   3.278   3.004   1.443
 1406SOL     OW 5116   1.604   4.475   1.496
 1406SOL    HW1 5117   1.588   4.477   1.595
 1406SOL    HW2 5118   1.596   4.381   1.464
 1407SOL     OW 5119   6.415   2.300   2.801
 1407SOL    HW1 5120   6.440   2.238   2.876
 1407SOL    HW2 5121   6.344   2.362   2.832
 1408SOL     OW 5122   6.272   6.572   6.513
 1408SOL    HW1 5123   6.370   6.562   6.533
 1408SOL    HW2 5124   6.255   6.544   6.418
 1409SOL     OW 5125   0.542   1.536   3.702
 1409SOL    HW1 5126   0.630   1.492   3.717
 1409SOL    HW2 5127   0.555   1.622   3.652
 1410SOL     OW 5128   6.545   2.810   6.905
 1410SOL    HW1 5129   6.483   2.736   6.931
 1410SOL    HW2 5130   6.492   2.894   6.890
 1411SOL     OW 5131   2.173   0.619   1.851
 1411SOL    HW1 5132   2.127   0.551   1.908
 1411SOL    HW2 5133   2.272   0.601   1.852
 1412SOL     OW 5134   1.461   2.859   6.795
 1412SOL    HW1 5135   1.536   2.792   6.795
 1412SOL    HW2 5136   1.451   2.899   6.704
 1413SOL     OW 5137   3.229   6.796   3.632
 1413SOL    HW1 5138   3.267   6.857   3.702
 1413SOL    HW2 5139   3.252   6.701   3.654
 1414SOL     OW 5140   3.205   0.723   1.941
 1414SOL    HW1 5141   3.287   0.679   1.905
 1414SOL    HW2 5142   3.204   0.819   1.913
 1415SOL     OW 5143   4.492   6.269   5.134
 1415SOL    HW1 5144   4.495   6.356   5.184
 1415SOL    HW2 5145   4.514   6.286   5.038
 1416SOL     OW 5146   4.439   5.914   3.062
 1416SOL    HW1 5147   4.482   6.001   3.086
 1416SOL    HW2 5148   4.502   5.839   3.086
 1417SOL     OW 5149   3.170   2.751   6.379
 1417SOL    HW1 5150   3.204   2.665   6.341
 1417SOL    HW2 5151   3.241   2.821   6.369
 1418SOL     OW 5152   3.797   4.075   2.781
 1418SOL    HW1 5153   3.712   4.023   2.774
 1418SOL    HW2 5154   3.809   4.131   2.699
 1419SOL     OW 5155   4.488   6.110   4.449
 1419SOL    HW1 5156   4.541   6.099   4.364
 1419SOL    HW2 5157   4.395   6.138   4.426
 1420SOL     OW 5158   0.353   5.440   1.740
 1420SOL    HW1 5159   0.429   5.427   1.804
 1420SOL    HW2 5160   0.363   5.377   1.664
 1421SOL     OW 5161   3.838   0.980   3.060
 1421SOL    HW1 5162   3.890   0.895   3.065
 1421SOL    HW2 5163   3.871   1.035   2.983
 1422SOL     OW 5164   2.657   6.784   0.311
 1422SOL    HW1 5165   2.660   6.699   0.364
 1422SOL    HW2 5166   2.660   6.862   0.374
 1423SOL     OW 5167   5.106   0.464   2.243
 1423SOL    HW1 5168   5.183   0.437   2.301
 1423SOL    HW2 5169   5.084   0.560   2.260
 1424SOL     OW 5170   7.000   5.009   2.317
 1424SOL    HW1 5171   6.937   5.087   2.318
 1424SOL    HW2 5172   6.966   4.939   2.254
 1425SOL     OW 5173   1.767   6.674   4.616
 1425SOL    HW1 5174   1.800   6.649   4.525
 1425SOL    HW2 5175   1.845   6.686   4.678
 1426SOL     OW 5176   1.731   1.220   5.637
 1426SOL    HW1 5177   1.752   1.186   5.545
 1426SOL    HW2 5178   1.697   1.144   5.693
 1427SOL     OW 5179   6.311   0.710   5.018
 1427SOL    HW1 5180   6.221   0.727   4.978
 1427SOL    HW2 5181   6.331   0.781   5.086
 1428SOL     OW 5182   5.511   1.274   0.293
 1428SOL    HW1 5183   5.520   1.324   0.379
 1428SOL    HW2 5184   5.556   1.324   0.220
 1429SOL     OW 5185   5.478   6.750   6.917
 1429SOL    HW1 5186   5.398   6.693   6.935
 1429SOL    HW2 5187   5.521   6.722   6.831
 1430SOL     OW 5188   1.940   4.125   3.276
 1430SOL    HW1 5189   1.944   4.082   3.186
 1430SOL    HW2 5190   2.006   4.201   3.279
 1431SOL     OW 5191   1.342   0.741   1.211
 1431SOL    HW1 5192   1.246   0.741   1.187
 1431SOL    HW2 5193   1.369   0.832   1.243
 1432SOL     OW 5194   2.628   0.099   1.254
 1432SOL    HW1 5195   2.649   0.024   1.317
 1432SOL    HW2 5196   2.645   0.070   1.160
 1433SOL     OW 5197   4.420   0.353   4.647
 1433SOL    HW1 5198   4.420   0.446   4.611
 1433SOL    HW2 5199   4.435   0.288   4.571
 1434SOL     OW 5200   1.016   0.741   5.053
 1434SOL    HW1 5201   0.959   0.718   4.973
 1434SOL    HW2 5202   1.051   0.834   5.043
 1435SOL     OW 5203   6.887   1.932   3.162
 1435SOL    HW1 5204   6.985   1.949   3.176
 1435SOL    HW2 5205   6.837   1.962   3.243
 1436SOL     OW 5206   4.318   3.915   0.821
 1436SOL    HW1 5207   4.405   3.877   0.790
 1436SOL    HW2 5208   4.324   4.015   0.821
 1437SOL     OW 5209   4.065   1.294   2.402
 1437SOL    HW1 5210   3.973   1.271   2.371
 1437SOL    HW2 5211   4.091   1.383   2.365
 1438SOL     OW 5212   2.546   0.963   1.503
 1438SOL    HW1 5213   2.633   0.969   1.552
 1438SOL    HW2 5214   2.561   0.928   1.411
 1439SOL     OW 5215   0.743   5.807   2.214
 1439SOL    HW1 5216   0.748   5.710   2.191
 1439SOL    HW2 5217   0.657   5.845   2.181
 1440SOL     OW 5218   2.341   2.918   1.759
 1440SOL    HW1 5219   2.320   2.993   1.822
 1440SOL    HW2 5220   2.263   2.857   1.753
 1441SOL     OW 5221   5.134   6.067   0.853
 1441SOL    HW1 5222   5.075   6.072   0.934
 1441SOL    HW2 5223   5.190   5.985   0.857
 1442SOL     OW 5224   5.153   5.347   0.883
 1442SOL    HW1 5225   5.130   5.386   0.794
 1442SOL    HW2 5226   5.210   5.266   0.871
 1443SOL     OW 5227   0.368   2.774   2.734
 1443SOL    HW1 5228   0.416   2.697   2.775
 1443SOL    HW2 5229   0.291   2.740   2.679
 1444SOL     OW 5230   0.576   5.086   6.342
 1444SOL    HW1 5231   0.632   5.156   6.297
 1444SOL    HW2 5232   0.521   5.039   6.274
 1445SOL     OW 5233   1.125   3.581   1.226
 1445SOL    HW1 5234   1.126   3.481   1.236
 1445SOL    HW2 5235   1.166   3.622   1.307
 1446SOL     OW 5236   6.458   6.035   1.193
 1446SOL    HW1 5237   6.518   5.957   1.213
 1446SOL    HW2 5238   6.490   6.115   1.245
 1447SOL     OW 5239   5.752   5.353   4.377
 1447SOL    HW1 5240   5.708   5.400   4.301
 1447SOL    HW2 5241   5.845   5.388   4.388
 1448SOL     OW 5242   0.997   2.717   5.590
 1448SOL    HW1 5243   0.899   2.733   5.602
 1448SOL    HW2 5244   1.034   2.784   5.525
 1449SOL     OW 5245   2.107   3.244   2.842
 1449SOL    HW1 5246   2.126   3.342   2.832
 1449SOL    HW2 5247   2.013   3.231   2.873
 1450SOL     OW 5248   2.953   2.207   4.110
 1450SOL    HW1 5249   3.019   2.178   4.179
 1450SOL    HW2 5250   3.001   2.235   4.027
 1451SOL     OW 5251   3.085   1.388   2.814
 1451SOL    HW1 5252   3.020   1.463   2.826
 1451SOL    HW2 5253   3.035   1.304   2.793
 1452SOL     OW 5254   4.380   2.839   6.635
 1452SOL    HW1 5255   4.380   2.808   6.730
 1452SOL    HW2 5256   4.299   2.803   6.588
 1453SOL     OW 5257   0.145   4.159   5.261
 1453SOL    HW1 5258   0.235   4.203   5.258
 1453SOL    HW2 5259   0.123   4.121   5.172
 1454SOL     OW 5260   3.619   1.810   3.141
 1454SOL    HW1 5261   3.713   1.813   3.174
 1454SOL    HW2 5262   3.591   1.901   3.110
 1455SOL     OW 5263   0.419   5.621   2.083
 1455SOL    HW1 5264   0.324   5.625   2.112
 1455SOL    HW2 5265   0.440   5.702   2.027
 1456SOL     OW 5266   6.595   5.332   4.197
 1456SOL    HW1 5267   6.496   5.330   4.182
 1456SOL    HW2 5268   6.633   5.241   4.183
 1457SOL     OW 5269   1.245   4.979   6.177
 1457SOL    HW1 5270   1.224   5.077   6.175
 1457SOL    HW2 5271   1.344   4.966   6.164
 1458SOL     OW 5272   5.711   5.073   5.357
 1458SOL    HW1 5273   5.640   5.017   5.313
 1458SOL    HW2 5274   5.750   5.136   5.290
 1459SOL     OW 5275   6.059   6.584   5.651
 1459SOL    HW1 5276   6.004   6.524   5.593
 1459SOL    HW2 5277   6.022   6.677   5.648
 1460SOL     OW 5278   1.643   6.526   5.134
 1460SOL    HW1 5279   1.642   6.588   5.056
 1460SOL    HW2 5280   1.565   6.546   5.194
 1461SOL     OW 5281   6.206   2.796   3.791
 1461SOL    HW1 5282   6.244   2.710   3.754
 1461SOL    HW2 5283   6.152   2.841   3.720
 1462SOL     OW 5284   0.271   1.377   1.871
 1462SOL    HW1 5285   0.291   1.345   1.964
 1462SOL    HW2 5286   0.331   1.454   1.849
 1463SOL     OW 5287   2.149   6.166   6.646
 1463SOL    HW1 5288   2.110   6.219   6.571
 1463SOL    HW2 5289   2.243   6.194   6.661
 1464SOL     OW 5290   0.801   4.600   4.055
 1464SOL    HW1 5291   0.733   4.562   3.993
 1464SOL    HW2 5292   0.886   4.616   4.005
 1465SOL     OW 5293   1.197   3.342   4.341
 1465SOL    HW1 5294   1.227   3.276   4.410
 1465SOL    HW2 5295   1.167   3.426   4.386
 1466SOL     OW 5296   5.518   1.342   2.390
 1466SOL    HW1 5297   5.461   1.421   2.415
 1466SOL    HW2 5298   5.538   1.346   2.292
 1467SOL     OW 5299   0.303   0.520   3.764
 1467SOL    HW1 5300   0.323   0.617   3.779
 1467SOL    HW2 5301   0.208   0.509   3.737
 1468SOL     OW 5302   3.149   5.811   2.725
 1468SOL    HW1 5303   3.165   5.909   2.733
 1468SOL    HW2 5304   3.233   5.761   2.744
 1469SOL     OW 5305   5.806   4.100   3.442
 1469SOL    HW1 5306   5.726   4.151   3.475
 1469SOL    HW2 5307   5.888   4.157   3.451
 1470SOL     OW 5308   6.114   1.501   2.380
 1470SOL    HW1 5309   6.047   1.573   2.396
 1470SOL    HW2 5310   6.201   1.541   2.352
 1471SOL     OW 5311   4.584   7.005   0.530
 1471SOL    HW1 5312   4.592   6.927   0.591
 1471SOL    HW2 5313   4.524   6.981   0.453
 1472SOL     OW 5314   1.578   0.441   6.239
 1472SOL    HW1 5315   1.593   0.486   6.151
 1472SOL    HW2 5316   1.665   0.430   6.287
 1473SOL     OW 5317   1.831   5.731   3.705
 1473SOL    HW1 5318   1.866   5.804   3.646
 1473SOL    HW2 5319   1.747   5.763   3.750
 1474SOL     OW 5320   2.989   4.955   1.705
 1474SOL    HW1 5321   3.085   4.965   1.730
 1474SOL    HW2 5322   2.964   4.858   1.708
 1475SOL     OW 5323   6.106   0.223   6.503
 1475SOL    HW1 5324   6.048   0.143   6.490
 1475SOL    HW2 5325   6.049   0.304   6.515
 1476SOL     OW 5326   5.055   0.192   6.977
 1476SOL    HW1 5327   4.986   0.261   6.953
 1476SOL    HW2 5328   5.009   0.110   7.011
 1477SOL     OW 5329   3.436   4.132   1.728
 1477SOL    HW1 5330   3.387   4.215   1.702
 1477SOL    HW2 5331   3.376   4.073   1.782
 1478SOL     OW 5332   4.484   5.078   6.832
 1478SOL    HW1 5333   4.530   5.074   6.921
 1478SOL    HW2 5334   4.553   5.082   6.760
 1479SOL     OW 5335   4.717   3.379   1.464
 1479SOL    HW1 5336   4.724   3.333   1.553
 1479SOL    HW2 5337   4.795   3.355   1.407
 1480SOL     OW 5338   3.025   0.658   4.549
 1480SOL    HW1 5339   2.949   0.599   4.577
 1480SOL    HW2 5340   3.067   0.621   4.466
 1481SOL     OW 5341   4.843   2.668   5.704
 1481SOL    HW1 5342   4.770   2.713   5.651
 1481SOL    HW2 5343   4.930   2.681   5.658
 1482SOL     OW 5344   5.750   1.243   1.216
 1482SOL    HW1 5345   5.677   1.281   1.274
 1482SOL    HW2 5346   5.835   1.240   1.268
 1483SOL     OW 5347   6.316   1.140   0.186
 1483SOL    HW1 5348   6.402   1.167   0.142
 1483SOL    HW2 5349   6.259   1.092   0.121
 1484SOL     OW 5350   3.452   5.273   5.168
 1484SOL    HW1 5351   3.532   5.233   5.212
 1484SOL    HW2 5352   3.445   5.369   5.193
 1485SOL     OW 5353   4.994   3.088   3.231
 1485SOL    HW1 5354   4.931   3.087   3.153
 1485SOL    HW2 5355   4.951   3.043   3.309
 1486SOL     OW 5356   4.661   5.713   3.864
 1486SOL    HW1 5357   4.593   5.734   3.794
 1486SOL    HW2 5358   4.672   5.614   3.872
 1487SOL     OW 5359   6.968   1.122   0.699
 1487SOL    HW1 5360   6.893   1.140   0.762
 1487SOL    HW2 5361   6.977   1.024   0.684
 1488SOL     OW 5362   6.376   2.095   2.629
 1488SOL    HW1 5363   6.313   2.141   2.566
 1488SOL    HW2 5364   6.402   2.158   2.702
 1489SOL     OW 5365   2.996   4.989   0.151
 1489SOL    HW1 5366   3.034   5.074   0.190
 1489SOL    HW2 5367   2.995   4.995   0.052
 1490SOL     OW 5368   5.852   2.697   2.669
 1490SOL    HW1 5369   5.778   2.645   2.628
 1490SOL    HW2 5370   5.938   2.676   2.622
 1491SOL     OW 5371   5.839   2.242   3.539
 1491SOL    HW1 5372   5.795   2.330   3.558
 1491SOL    HW2 5373   5.815   2.212   3.447
 1492SOL     OW 5374   6.866   1.945   2.724
 1492SOL    HW1 5375   6.768   1.953   2.711
 1492SOL    HW2 5376   6.905   1.885   2.654
 1493SOL     OW 5377   5.723   2.099   6.172
 1493SOL    HW1 5378   5.790   2.029   6.149
 1493SOL    HW2 5379   5.692   2.144   6.088
 1494SOL     OW 5380   0.267   4.802   6.596
 1494SOL    HW1 5381   0.266   4.895   6.559
 1494SOL    HW2 5382   0.175   4.763   6.593
 1495SOL     OW 5383   6.733   3.557   4.474
 1495SOL    HW1 5384   6.721   3.534   4.571
 1495SOL    HW2 5385   6.691   3.646   4.456
 1496SOL     OW 5386   6.381   6.490   5.988
 1496SOL    HW1 5387   6.466   6.444   5.962
 1496SOL    HW2 5388   6.389   6.588   5.971
 1497SOL     OW 5389   6.239   2.255   2.431
 1497SOL    HW1 5390   6.198   2.282   2.344
 1497SOL    HW2 5391   6.206   2.316   2.503
 1498SOL     OW 5392   3.388   4.066   0.721
 1498SOL    HW1 5393   3.435   4.080   0.634
 1498SOL    HW2 5394   3.326   3.988   0.712
 1499SOL     OW 5395   0.225   4.439   4.159
 1499SOL    HW1 5396   0.171   4.507   4.110
 1499SOL    HW2 5397   0.178   4.351   4.156
 1500SOL     OW 5398   0.757   5.975   1.919
 1500SOL    HW1 5399   0.763   5.943   2.014
 1500SOL    HW2 5400   0.673   6.028   1.907
 1501SOL     OW 5401   6.669   1.795   0.667
 1501SOL    HW1 5402   6.623   1.843   0.594
 1501SOL    HW2 5403   6.768   1.808   0.659
 1502SOL     OW 5404   6.790   0.128   6.241
 1502SOL    HW1 5405   6.767   0.208   6.185
 1502SOL    HW2 5406   6.717   0.110   6.306
 1503SOL     OW 5407   0.630   4.742   1.746
 1503SOL    HW1 5408   0.586   4.762   1.659
 1503SOL    HW2 5409   0.718   4.790   1.751
 1504SOL     OW 5410   2.146   6.857   2.498
 1504SOL    HW1 5411   2.218   6.831   2.562
 1504SOL    HW2 5412   2.071   6.791   2.502
 1505SOL     OW 5413   6.135   5.354   5.049
 1505SOL    HW1 5414   6.221   5.337   5.097
 1505SOL    HW2 5415   6.155   5.391   4.958
 1506SOL     OW 5416   0.718   1.134   0.476
 1506SOL    HW1 5417   0.629   1.144   0.431
 1506SOL    HW2 5418   0.789   1.122   0.407
 1507SOL     OW 5419   2.635   2.437   3.637
 1507SOL    HW1 5420   2.614   2.505   3.708
 1507SOL    HW2 5421   2.557   2.426   3.577
 1508SOL     OW 5422   2.091   0.877   1.512
 1508SOL    HW1 5423   2.071   0.942   1.587
 1508SOL    HW2 5424   2.069   0.920   1.425
 1509SOL     OW 5425   5.690   0.989   4.225
 1509SOL    HW1 5426   5.732   1.020   4.140
 1509SOL    HW2 5427   5.608   1.043   4.243
 1510SOL     OW 5428   3.622   5.850   5.330
 1510SOL    HW1 5429   3.609   5.945   5.299
 1510SOL    HW2 5430   3.683   5.803   5.267
 1511SOL     OW 5431   2.864   3.639   5.242
 1511SOL    HW1 5432   2.831   3.545   5.245
 1511SOL    HW2 5433   2.789   3.702   5.264
 1512SOL     OW 5434   5.498   6.394   0.997
 1512SOL    HW1 5435   5.485   6.380   1.095
 1512SOL    HW2 5436   5.417   6.361   0.948
 1513SOL     OW 5437   2.386   0.352   5.763
 1513SOL    HW1 5438   2.441   0.270   5.781
 1513SOL    HW2 5439   2.440   0.434   5.783
 1514SOL     OW 5440   3.087   2.793   6.678
 1514SOL    HW1 5441   3.105   2.791   6.580
 1514SOL    HW2 5442   3.005   2.738   6.698
 1515SOL     OW 5443   4.050   0.699   2.916
 1515SOL    HW1 5444   4.127   0.649   2.955
 1515SOL    HW2 5445   4.037   0.672   2.821
 1516SOL     OW 5446   6.406   6.749   5.894
 1516SOL    HW1 5447   6.500   6.783   5.893
 1516SOL    HW2 5448   6.362   6.779   5.979
 1517SOL     OW 5449   3.012   6.244   3.394
 1517SOL    HW1 5450   2.990   6.248   3.296
 1517SOL    HW2 5451   3.012   6.337   3.431
 1518SOL     OW 5452   0.708   3.130   6.446
 1518SOL    HW1 5453   0.662   3.061   6.389
 1518SOL    HW2 5454   0.676   3.221   6.420
 1519SOL     OW 5455   6.998   4.891   0.072
 1519SOL    HW1 5456   6.932   4.960   0.044
 1519SOL    HW2 5457   0.061   4.906   0.024
 1520SOL     OW 5458   0.584   6.207   3.486
 1520SOL    HW1 5459   0.637   6.161   3.415
 1520SOL    HW2 5460   0.558   6.298   3.454
 1521SOL     OW 5461   2.067   5.291   6.272
 1521SOL    HW1 5462   2.136   5.250   6.331
 1521SOL    HW2 5463   2.078   5.390   6.270
 1522SOL     OW 5464   5.921   5.817   4.286
 1522SOL    HW1 5465   5.996   5.751   4.300
 1522SOL    HW2 5466   5.884   5.844   4.374
 1523SOL     OW 5467   3.333   6.391   0.997
 1523SOL    HW1 5468   3.259   6.332   0.966
 1523SOL    HW2 5469   3.321   6.411   1.095
 1524SOL     OW 5470   2.145   1.694   3.885
 1524SOL    HW1 5471   2.116   1.670   3.792
 1524SOL    HW2 5472   2.231   1.649   3.906
 1525SOL     OW 5473   5.306   4.687   6.984
 1525SOL    HW1 5474   5.374   4.668   6.914
 1525SOL    HW2 5475   5.215   4.687   6.944
 1526SOL     OW 5476   1.500   1.551   0.891
 1526SOL    HW1 5477   1.430   1.607   0.936
 1526SOL    HW2 5478   1.526   1.593   0.805
 1527SOL     OW 5479   4.650   1.973   4.275
 1527SOL    HW1 5480   4.642   2.047   4.342
 1527SOL    HW2 5481   4.722   1.996   4.209
 1528SOL     OW 5482   3.261   3.822   2.590
 1528SOL    HW1 5483   3.281   3.812   2.687
 1528SOL    HW2 5484   3.231   3.734   2.553
 1529SOL     OW 5485   4.884   1.915   6.021
 1529SOL    HW1 5486   4.830   1.966   6.088
 1529SOL    HW2 5487   4.834   1.834   5.993
 1530SOL     OW 5488   2.363   6.866   1.100
 1530SOL    HW1 5489   2.303   6.865   1.020
 1530SOL    HW2 5490   2.415   6.952   1.102
 1531SOL     OW 5491   4.680   5.752   4.498
 1531SOL    HW1 5492   4.736   5.711   4.425
 1531SOL    HW2 5493   4.584   5.735   4.479
 1532SOL     OW 5494   3.130   5.859   0.621
 1532SOL    HW1 5495   3.194   5.923   0.663
 1532SOL    HW2 5496   3.065   5.911   0.565
 1533SOL     OW 5497   5.551   5.842   1.136
 1533SOL    HW1 5498   5.467   5.847   1.189
 1533SOL    HW2 5499   5.545   5.765   1.072
 1534SOL     OW 5500   2.774   4.995   6.703
 1534SOL    HW1 5501   2.827   4.926   6.653
 1534SOL    HW2 5502   2.677   4.971   6.701
 1535SOL     OW 5503   5.771   4.436   3.724
 1535SOL    HW1 5504   5.726   4.347   3.722
 1535SOL    HW2 5505   5.726   4.497   3.659
 1536SOL     OW 5506   4.477   3.723   6.977
 1536SOL    HW1 5507   4.513   3.793   0.015
 1536SOL    HW2 5508   4.527   3.726   6.890
 1537SOL     OW 5509   3.131   5.142   2.352
 1537SOL    HW1 5510   3.134   5.225   2.407
 1537SOL    HW2 5511   3.037   5.123   2.325
 1538SOL     OW 5512   2.646   1.519   0.640
 1538SOL    HW1 5513   2.572   1.460   0.672
 1538SOL    HW2 5514   2.708   1.467   0.582
 1539SOL     OW 5515   5.827   3.266   0.705
 1539SOL    HW1 5516   5.914   3.222   0.725
 1539SOL    HW2 5517   5.758   3.238   0.772
 1540SOL     OW 5518   3.739   6.696   3.225
 1540SOL    HW1 5519   3.661   6.711   3.163
 1540SOL    HW2 5520   3.732   6.760   3.301
 1541SOL     OW 5521   4.028   2.697   5.843
 1541SOL    HW1 5522   4.115   2.724   5.884
 1541SOL    HW2 5523   3.957   2.762   5.869
 1542SOL     OW 5524   0.311   5.402   2.572
 1542SOL    HW1 5525   0.341   5.484   2.524
 1542SOL    HW2 5526   0.364   5.391   2.656
 1543SOL     OW 5527   3.086   5.478   0.425
 1543SOL    HW1 5528   3.128   5.466   0.335
 1543SOL    HW2 5529   3.150   5.526   0.486
 1544SOL     OW 5530   3.666   3.232   3.836
 1544SOL    HW1 5531   3.759   3.248   3.804
 1544SOL    HW2 5532   3.668   3.170   3.916
 1545SOL     OW 5533   5.126   5.591   1.763
 1545SOL    HW1 5534   5.148   5.551   1.674
 1545SOL    HW2 5535   5.145   5.525   1.836
 1546SOL     OW 5536   5.706   6.236   5.815
 1546SOL    HW1 5537   5.662   6.295   5.747
 1546SOL    HW2 5538   5.800   6.267   5.830
 1547SOL     OW 5539   2.150   3.199   6.470
 1547SOL    HW1 5540   2.107   3.121   6.426
 1547SOL    HW2 5541   2.114   3.209   6.563
 1548SOL     OW 5542   6.844   2.576   0.995
 1548SOL    HW1 5543   6.822   2.663   0.952
 1548SOL    HW2 5544   6.904   2.593   1.074
 1549SOL     OW 5545   5.202   1.128   4.659
 1549SOL    HW1 5546   5.239   1.037   4.675
 1549SOL    HW2 5547   5.178   1.170   4.747
 1550SOL     OW 5548   3.725   2.936   4.135
 1550SOL    HW1 5549   3.694   2.919   4.041
 1550SOL    HW2 5550   3.651   2.977   4.187
 1551SOL     OW 5551   6.835   5.006   5.462
 1551SOL    HW1 5552   6.792   4.991   5.374
 1551SOL    HW2 5553   6.786   5.077   5.512
 1552SOL     OW 5554   2.072   4.179   1.230
 1552SOL    HW1 5555   2.152   4.183   1.169
 1552SOL    HW2 5556   2.052   4.271   1.263
 1553SOL     OW 5557   2.047   1.953   6.172
 1553SOL    HW1 5558   1.964   1.931   6.119
 1553SOL    HW2 5559   2.022   1.976   6.266
 1554SOL     OW 5560   3.643   1.866   3.764
 1554SOL    HW1 5561   3.671   1.947   3.714
 1554SOL    HW2 5562   3.543   1.860   3.766
 1555SOL     OW 5563   5.882   4.923   5.534
 1555SOL    HW1 5564   5.956   4.973   5.577
 1555SOL    HW2 5565   5.823   4.988   5.484
 1556SOL     OW 5566   2.154   1.053   5.862
 1556SOL    HW1 5567   2.094   1.127   5.834
 1556SOL    HW2 5568   2.201   1.016   5.782
 1557SOL     OW 5569   0.254   2.465   4.872
 1557SOL    HW1 5570   0.202   2.416   4.943
 1557SOL    HW2 5571   0.344   2.424   4.862
 1558SOL     OW 5572   0.310   6.940   4.764
 1558SOL    HW1 5573   0.222   6.959   4.721
 1558SOL    HW2 5574   0.309   6.847   4.802
 1559SOL     OW 5575   1.318   1.662   5.643
 1559SOL    HW1 5576   1.231   1.617   5.661
 1559SOL    HW2 5577   1.386   1.594   5.614
 1560SOL     OW 5578   0.093   0.286   0.047
 1560SOL    HW1 5579   0.141   0.361   0.091
 1560SOL    HW2 5580   0.092   0.300   6.971
 1561SOL     OW 5581   6.050   6.304   2.355
 1561SOL    HW1 5582   6.000   6.217   2.347
 1561SOL    HW2 5583   6.054   6.348   2.265
 1562SOL     OW 5584   6.133   0.683   3.998
 1562SOL    HW1 5585   6.175   0.655   3.912
 1562SOL    HW2 5586   6.187   0.650   4.075
 1563SOL     OW 5587   3.481   6.943   5.767
 1563SOL    HW1 5588   3.535   6.882   5.708
 1563SOL    HW2 5589   3.436   6.890   5.838
 1564SOL     OW 5590   0.808   2.340   3.088
 1564SOL    HW1 5591   0.783   2.405   3.160
 1564SOL    HW2 5592   0.878   2.379   3.029
 1565SOL     OW 5593   6.556   4.019   1.469
 1565SOL    HW1 5594   6.605   4.093   1.514
 1565SOL    HW2 5595   6.517   3.957   1.538
 1566SOL     OW 5596   5.939   4.408   3.126
 1566SOL    HW1 5597   5.926   4.426   3.028
 1566SOL    HW2 5598   5.879   4.332   3.153
 1567SOL     OW 5599   6.457   5.636   5.169
 1567SOL    HW1 5600   6.400   5.677   5.097
 1567SOL    HW2 5601   6.553   5.659   5.152
 1568SOL     OW 5602   0.249   6.802   0.005
 1568SOL    HW1 5603   0.165   6.765   0.044
 1568SOL    HW2 5604   0.238   6.900   7.012
 1569SOL     OW 5605   3.212   6.340   5.221
 1569SOL    HW1 5606   3.152   6.387   5.286
 1569SOL    HW2 5607   3.288   6.400   5.197
 1570SOL     OW 5608   3.047   1.986   1.937
 1570SOL    HW1 5609   3.037   2.008   2.034
 1570SOL    HW2 5610   3.080   2.066   1.888
 1571SOL     OW 5611   0.071   3.801   0.571
 1571SOL    HW1 5612   0.079   3.704   0.594
 1571SOL    HW2 5613   0.122   3.855   0.637
 1572SOL     OW 5614   1.794   5.424   2.540
 1572SOL    HW1 5615   1.695   5.438   2.527
 1572SOL    HW2 5616   1.815   5.423   2.637
 1573SOL     OW 5617   4.408   0.462   0.546
 1573SOL    HW1 5618   4.450   0.371   0.541
 1573SOL    HW2 5619   4.479   0.532   0.539
 1574SOL     OW 5620   5.786   2.370   1.919
 1574SOL    HW1 5621   5.850   2.403   1.850
 1574SOL    HW2 5622   5.713   2.437   1.931
 1575SOL     OW 5623   3.160   2.018   0.243
 1575SOL    HW1 5624   3.076   2.070   0.227
 1575SOL    HW2 5625   3.139   1.937   0.297
 1576SOL     OW 5626   6.201   5.440   3.250
 1576SOL    HW1 5627   6.154   5.436   3.338
 1576SOL    HW2 5628   6.170   5.363   3.193
 1577SOL     OW 5629   1.326   0.445   0.178
 1577SOL    HW1 5630   1.270   0.494   0.111
 1577SOL    HW2 5631   1.280   0.447   0.267
 1578SOL     OW 5632   5.959   5.464   4.877
 1578SOL    HW1 5633   6.001   5.411   4.951
 1578SOL    HW2 5634   5.907   5.403   4.817
 1579SOL     OW 5635   0.213   7.012   2.982
 1579SOL    HW1 5636   0.271   0.019   2.907
 1579SOL    HW2 5637   0.262   6.946   3.038
 1580SOL     OW 5638   3.057   3.696   6.030
 1580SOL    HW1 5639   3.045   3.738   6.120
 1580SOL    HW2 5640   2.976   3.714   5.974
 1581SOL     OW 5641   6.110   3.873   4.643
 1581SOL    HW1 5642   6.110   3.941   4.571
 1581SOL    HW2 5643   6.026   3.818   4.638
 1582SOL     OW 5644   6.082   6.341   5.155
 1582SOL    HW1 5645   6.159   6.379   5.206
 1582SOL    HW2 5646   6.040   6.413   5.099
 1583SOL     OW 5647   2.129   1.848   2.357
 1583SOL    HW1 5648   2.078   1.784   2.299
 1583SOL    HW2 5649   2.171   1.919   2.300
 1584SOL     OW 5650   2.423   0.850   6.317
 1584SOL    HW1 5651   2.493   0.892   6.260
 1584SOL    HW2 5652   2.333   0.863   6.274
 1585SOL     OW 5653   5.873   1.245   5.715
 1585SOL    HW1 5654   5.796   1.294   5.755
 1585SOL    HW2 5655   5.909   1.298   5.638
 1586SOL     OW 5656   3.850   4.054   3.251
 1586SOL    HW1 5657   3.873   3.975   3.308
 1586SOL    HW2 5658   3.791   4.116   3.303
 1587SOL     OW 5659   2.478   6.644   6.510
 1587SOL    HW1 5660   2.485   6.615   6.415
 1587SOL    HW2 5661   2.382   6.657   6.535
 1588SOL     OW 5662   5.869   3.905   1.580
 1588SOL    HW1 5663   5.881   3.810   1.608
 1588SOL    HW2 5664   5.900   3.966   1.652
 1589SOL     OW 5665   5.162   4.477   3.121
 1589SOL    HW1 5666   5.066   4.501   3.114
 1589SOL    HW2 5667   5.183   4.453   3.216
 1590SOL     OW 5668   2.361   7.021   5.344
 1590SOL    HW1 5669   2.286   0.016   5.280
 1590SOL    HW2 5670   2.338   0.035   5.434
 1591SOL     OW 5671   1.095   3.767   0.962
 1591SOL    HW1 5672   1.045   3.689   0.924
 1591SOL    HW2 5673   1.115   3.749   1.058
 1592SOL     OW 5674   3.155   4.083   3.845
 1592SOL    HW1 5675   3.192   4.175   3.835
 1592SOL    HW2 5676   3.112   4.074   3.935
 1593SOL     OW 5677   1.291   5.092   4.429
 1593SOL    HW1 5678   1.256   5.025   4.495
 1593SOL    HW2 5679   1.380   5.126   4.460
 1594SOL     OW 5680   1.205   4.787   3.169
 1594SOL    HW1 5681   1.141   4.739   3.230
 1594SOL    HW2 5682   1.179   4.771   3.074
 1595SOL     OW 5683   6.659   4.942   5.110
 1595SOL    HW1 5684   6.600   4.866   5.085
 1595SOL    HW2 5685   6.613   5.029   5.088
 1596SOL     OW 5686   2.713   5.547   6.928
 1596SOL    HW1 5687   2.777   5.473   6.907
 1596SOL    HW2 5688   2.673   5.581   6.843
 1597SOL     OW 5689   2.114   0.251   0.085
 1597SOL    HW1 5690   2.032   0.293   0.046
 1597SOL    HW2 5691   2.091   0.205   0.170
 1598SOL     OW 5692   6.667   4.908   1.724
 1598SOL    HW1 5693   6.766   4.901   1.721
 1598SOL    HW2 5694   6.639   4.999   1.692
 1599SOL     OW 5695   2.925   4.949   0.454
 1599SOL    HW1 5696   2.897   4.929   0.360
 1599SOL    HW2 5697   2.950   5.046   0.461
 1600SOL     OW 5698   3.019   1.094   5.283
 1600SOL    HW1 5699   3.118   1.106   5.282
 1600SOL    HW2 5700   2.976   1.168   5.231
 1601SOL     OW 5701   1.145   5.034   5.002
 1601SOL    HW1 5702   1.075   5.088   5.047
 1601SOL    HW2 5703   1.231   5.042   5.053
 1602SOL     OW 5704   0.716   3.659   2.086
 1602SOL    HW1 5705   0.692   3.589   2.154
 1602SOL    HW2 5706   0.687   3.749   2.119
 1603SOL     OW 5707   5.534   6.427   0.681
 1603SOL    HW1 5708   5.467   6.426   0.756
 1603SOL    HW2 5709   5.614   6.373   0.707
 1604SOL     OW 5710   0.383   5.570   4.789
 1604SOL    HW1 5711   0.441   5.651   4.792
 1604SOL    HW2 5712   0.373   5.539   4.695
 1605SOL     OW 5713   5.304   6.368   3.259
 1605SOL    HW1 5714   5.284   6.454   3.212
 1605SOL    HW2 5715   5.294   6.292   3.195
 1606SOL     OW 5716   5.498   6.424   5.398
 1606SOL    HW1 5717   5.400   6.444   5.395
 1606SOL    HW2 5718   5.547   6.488   5.339
 1607SOL     OW 5719   4.693   2.837   1.039
 1607SOL    HW1 5720   4.750   2.853   1.120
 1607SOL    HW2 5721   4.616   2.901   1.039
 1608SOL     OW 5722   2.536   0.649   0.467
 1608SOL    HW1 5723   2.575   0.605   0.387
 1608SOL    HW2 5724   2.449   0.605   0.490
 1609SOL     OW 5725   5.453   1.052   5.704
 1609SOL    HW1 5726   5.370   1.108   5.704
 1609SOL    HW2 5727   5.528   1.104   5.745
 1610SOL     OW 5728   5.416   6.423   3.695
 1610SOL    HW1 5729   5.455   6.368   3.770
 1610SOL    HW2 5730   5.377   6.362   3.626
 1611SOL     OW 5731   4.096   2.836   1.668
 1611SOL    HW1 5732   4.021   2.775   1.695
 1611SOL    HW2 5733   4.184   2.795   1.696
 1612SOL     OW 5734   3.763   0.952   4.615
 1612SOL    HW1 5735   3.694   0.890   4.652
 1612SOL    HW2 5736   3.720   1.021   4.558
 1613SOL     OW 5737   2.019   0.023   0.857
 1613SOL    HW1 5738   2.018   0.092   0.785
 1613SOL    HW2 5739   1.929   0.021   0.901
 1614SOL     OW 5740   0.454   2.607   5.946
 1614SOL    HW1 5741   0.421   2.674   5.879
 1614SOL    HW2 5742   0.405   2.620   6.032
 1615SOL     OW 5743   6.111   5.028   5.761
 1615SOL    HW1 5744   6.198   4.996   5.724
 1615SOL    HW2 5745   6.090   4.977   5.845
 1616SOL     OW 5746   2.761   1.842   5.854
 1616SOL    HW1 5747   2.800   1.779   5.787
 1616SOL    HW2 5748   2.676   1.880   5.819
 1617SOL     OW 5749   4.325   0.313   4.316
 1617SOL    HW1 5750   4.308   0.254   4.237
 1617SOL    HW2 5751   4.415   0.292   4.355
 1618SOL     OW 5752   5.967   2.636   1.910
 1618SOL    HW1 5753   6.046   2.681   1.951
 1618SOL    HW2 5754   5.997   2.557   1.857
 1619SOL     OW 5755   1.929   3.056   4.834
 1619SOL    HW1 5756   2.025   3.071   4.856
 1619SOL    HW2 5757   1.912   3.083   4.739
 1620SOL     OW 5758   3.742   5.811   1.561
 1620SOL    HW1 5759   3.749   5.910   1.546
 1620SOL    HW2 5760   3.649   5.789   1.591
 1621SOL     OW 5761   2.090   1.638   2.112
 1621SOL    HW1 5762   2.090   1.587   2.025
 1621SOL    HW2 5763   2.020   1.708   2.109
 1622SOL     OW 5764   1.824   2.440   4.820
 1622SOL    HW1 5765   1.847   2.537   4.823
 1622SOL    HW2 5766   1.889   2.392   4.761
 1623SOL     OW 5767   2.324   1.838   4.920
 1623SOL    HW1 5768   2.319   1.891   4.835
 1623SOL    HW2 5769   2.342   1.899   4.997
 1624SOL     OW 5770   2.102   0.823   0.942
 1624SOL    HW1 5771   2.186   0.769   0.945
 1624SOL    HW2 5772   2.035   0.779   0.882
 1625SOL     OW 5773   0.353   5.677   1.451
 1625SOL    HW1 5774   0.260   5.704   1.475
 1625SOL    HW2 5775   0.352   5.586   1.408
 1626SOL     OW 5776   2.126   2.893   5.846
 1626SOL    HW1 5777   2.060   2.958   5.809
 1626SOL    HW2 5778   2.145   2.916   5.942
 1627SOL     OW 5779   5.243   2.999   3.692
 1627SOL    HW1 5780   5.189   3.037   3.617
 1627SOL    HW2 5781   5.210   2.907   3.713
 1628SOL     OW 5782   3.048   3.291   0.301
 1628SOL    HW1 5783   3.018   3.367   0.243
 1628SOL    HW2 5784   2.969   3.244   0.339
 1629SOL     OW 5785   3.327   1.945   3.131
 1629SOL    HW1 5786   3.269   1.955   3.211
 1629SOL    HW2 5787   3.402   1.882   3.152
 1630SOL     OW 5788   6.665   5.099   4.606
 1630SOL    HW1 5789   6.760   5.128   4.624
 1630SOL    HW2 5790   6.648   5.103   4.508
 1631SOL     OW 5791   0.436   6.260   5.785
 1631SOL    HW1 5792   0.416   6.301   5.696
 1631SOL    HW2 5793   0.534   6.268   5.805
 1632SOL     OW 5794   4.793   0.094   0.325
 1632SOL    HW1 5795   4.863   0.125   0.390
 1632SOL    HW2 5796   4.709   0.074   0.375
 1633SOL     OW 5797   5.749   3.292   3.440
 1633SOL    HW1 5798   5.663   3.313   3.487
 1633SOL    HW2 5799   5.811   3.369   3.448
 1634SOL     OW 5800   3.924   0.755   0.513
 1634SOL    HW1 5801   3.975   0.696   0.574
 1634SOL    HW2 5802   3.826   0.744   0.529
 1635SOL     OW 5803   0.843   4.883   4.210
 1635SOL    HW1 5804   0.804   4.826   4.282
 1635SOL    HW2 5805   0.876   4.825   4.136
 1636SOL     OW 5806   2.461   6.183   0.906
 1636SOL    HW1 5807   2.503   6.257   0.854
 1636SOL    HW2 5808   2.374   6.157   0.862
 1637SOL     OW 5809   0.763   2.541   2.581
 1637SOL    HW1 5810   0.677   2.576   2.618
 1637SOL    HW2 5811   0.744   2.488   2.499
 1638SOL     OW 5812   1.321   2.786   5.657
 1638SOL    HW1 5813   1.356   2.837   5.735
 1638SOL    HW2 5814   1.266   2.846   5.600
 1639SOL     OW 5815   4.647   4.826   2.992
 1639SOL    HW1 5816   4.567   4.770   3.014
 1639SOL    HW2 5817   4.699   4.782   2.919
 1640SOL     OW 5818   5.418   0.559   1.034
 1640SOL    HW1 5819   5.505   0.608   1.030
 1640SOL    HW2 5820   5.366   0.577   0.951
 1641SOL     OW 5821   6.669   3.002   5.583
 1641SOL    HW1 5822   6.747   3.025   5.525
 1641SOL    HW2 5823   6.636   2.911   5.559
 1642SOL     OW 5824   0.566   2.326   1.461
 1642SOL    HW1 5825   0.634   2.253   1.463
 1642SOL    HW2 5826   0.496   2.305   1.392
 1643SOL     OW 5827   3.878   0.910   5.806
 1643SOL    HW1 5828   3.841   0.819   5.824
 1643SOL    HW2 5829   3.976   0.902   5.786
 1644SOL     OW 5830   3.297   1.064   0.309
 1644SOL    HW1 5831   3.390   1.048   0.341
 1644SOL    HW2 5832   3.299   1.107   0.219
 1645SOL     OW 5833   1.811   6.322   5.987
 1645SOL    HW1 5834   1.750   6.297   6.061
 1645SOL    HW2 5835   1.760   6.326   5.901
 1646SOL     OW 5836   1.299   3.944   0.145
 1646SOL    HW1 5837   1.199   3.935   0.151
 1646SOL    HW2 5838   1.340   3.906   0.228
 1647SOL     OW 5839   5.610   2.675   2.935
 1647SOL    HW1 5840   5.597   2.632   2.845
 1647SOL    HW2 5841   5.650   2.609   2.998
 1648SOL     OW 5842   4.208   0.140   2.607
 1648SOL    HW1 5843   4.187   0.116   2.512
 1648SOL    HW2 5844   4.130   0.187   2.648
 1649SOL     OW 5845   2.688   0.154   3.078
 1649SOL    HW1 5846   2.635   0.092   3.020
 1649SOL    HW2 5847   2.782   0.160   3.044
 1650SOL     OW 5848   3.273   6.787   3.962
 1650SOL    HW1 5849   3.333   6.867   3.963
 1650SOL    HW2 5850   3.320   6.710   4.004
 1651SOL     OW 5851   1.654   0.235   1.605
 1651SOL    HW1 5852   1.717   0.307   1.634
 1651SOL    HW2 5853   1.706   0.163   1.558
 1652SOL     OW 5854   2.990   3.062   1.768
 1652SOL    HW1 5855   3.050   3.142   1.763
 1652SOL    HW2 5856   2.919   3.070   1.697
 1653SOL     OW 5857   1.197   4.863   0.808
 1653SOL    HW1 5858   1.268   4.805   0.848
 1653SOL    HW2 5859   1.110   4.813   0.808
 1654SOL     OW 5860   0.507   2.012   3.511
 1654SOL    HW1 5861   0.572   2.079   3.547
 1654SOL    HW2 5862   0.440   1.989   3.581
 1655SOL     OW 5863   4.787   4.486   5.679
 1655SOL    HW1 5864   4.842   4.542   5.741
 1655SOL    HW2 5865   4.779   4.394   5.715
 1656SOL     OW 5866   0.411   4.222   2.702
 1656SOL    HW1 5867   0.401   4.149   2.635
 1656SOL    HW2 5868   0.397   4.185   2.794
 1657SOL     OW 5869   1.357   6.981   5.210
 1657SOL    HW1 5870   1.433   6.999   5.147
 1657SOL    HW2 5871   1.376   7.023   5.299
 1658SOL     OW 5872   6.564   6.594   3.056
 1658SOL    HW1 5873   6.628   6.576   2.981
 1658SOL    HW2 5874   6.499   6.665   3.028
 1659SOL     OW 5875   5.020   2.198   6.191
 1659SOL    HW1 5876   5.064   2.111   6.167
 1659SOL    HW2 5877   5.061   2.235   6.274
 1660SOL     OW 5878   2.478   6.181   3.404
 1660SOL    HW1 5879   2.537   6.160   3.481
 1660SOL    HW2 5880   2.395   6.124   3.409
 1661SOL     OW 5881   3.259   0.059   3.099
 1661SOL    HW1 5882   3.276   0.103   3.011
 1661SOL    HW2 5883   3.297   0.115   3.173
 1662SOL     OW 5884   0.110   0.706   3.014
 1662SOL    HW1 5885   0.141   0.730   2.922
 1662SOL    HW2 5886   0.012   0.691   3.014
 1663SOL     OW 5887   1.817   0.236   3.590
 1663SOL    HW1 5888   1.814   0.309   3.522
 1663SOL    HW2 5889   1.724   0.212   3.618
 1664SOL     OW 5890   2.401   4.750   4.251
 1664SOL    HW1 5891   2.423   4.677   4.316
 1664SOL    HW2 5892   2.481   4.808   4.237
 1665SOL     OW 5893   1.133   0.553   4.143
 1665SOL    HW1 5894   1.134   0.591   4.050
 1665SOL    HW2 5895   1.126   0.628   4.209
 1666SOL     OW 5896   5.226   3.504   6.360
 1666SOL    HW1 5897   5.288   3.449   6.415
 1666SOL    HW2 5898   5.172   3.444   6.301
 1667SOL     OW 5899   6.863   0.805   6.762
 1667SOL    HW1 5900   6.805   0.849   6.830
 1667SOL    HW2 5901   6.899   0.874   6.699
 1668SOL     OW 5902   2.096   0.364   4.923
 1668SOL    HW1 5903   2.169   0.427   4.896
 1668SOL    HW2 5904   2.134   0.291   4.980
 1669SOL     OW 5905   6.096   6.270   6.504
 1669SOL    HW1 5906   6.098   6.172   6.522
 1669SOL    HW2 5907   6.137   6.319   6.581
 1670SOL     OW 5908   6.304   3.455   6.691
 1670SOL    HW1 5909   6.256   3.540   6.714
 1670SOL    HW2 5910   6.388   3.477   6.641
 1671SOL     OW 5911   6.137   4.991   0.374
 1671SOL    HW1 5912   6.186   5.031   0.452
 1671SOL    HW2 5913   6.095   5.064   0.319
 1672SOL     OW 5914   2.035   5.403   2.114
 1672SOL    HW1 5915   2.051   5.496   2.079
 1672SOL    HW2 5916   2.009   5.408   2.210
 1673SOL     OW 5917   6.660   1.970   3.359
 1673SOL    HW1 5918   6.618   1.943   3.272
 1673SOL    HW2 5919   6.617   1.921   3.434
 1674SOL     OW 5920   2.125   5.203   6.961
 1674SOL    HW1 5921   2.068   5.229   0.016
 1674SOL    HW2 5922   2.129   5.103   6.955
 1675SOL     OW 5923   4.792   2.206   0.545
 1675SOL    HW1 5924   4.781   2.287   0.489
 1675SOL    HW2 5925   4.774   2.228   0.641
 1676SOL     OW 5926   2.698   1.311   4.174
 1676SOL    HW1 5927   2.662   1.373   4.244
 1676SOL    HW2 5928   2.762   1.247   4.217
 1677SOL     OW 5929   5.857   0.604   5.644
 1677SOL    HW1 5930   5.896   0.690   5.612
 1677SOL    HW2 5931   5.887   0.529   5.584
 1678SOL     OW 5932   5.043   0.599   1.532
 1678SOL    HW1 5933   5.073   0.515   1.486
 1678SOL    HW2 5934   4.943   0.606   1.526
 1679SOL     OW 5935   5.532   4.384   0.390
 1679SOL    HW1 5936   5.520   4.472   0.343
 1679SOL    HW2 5937   5.630   4.367   0.405
 1680SOL     OW 5938   1.294   2.344   5.086
 1680SOL    HW1 5939   1.233   2.278   5.131
 1680SOL    HW2 5940   1.260   2.437   5.103
 1681SOL     OW 5941   4.724   5.657   0.432
 1681SOL    HW1 5942   4.631   5.623   0.421
 1681SOL    HW2 5943   4.766   5.615   0.513
 1682SOL     OW 5944   6.902   3.719   5.390
 1682SOL    HW1 5945   6.853   3.634   5.373
 1682SOL    HW2 5946   6.957   3.743   5.310
 1683SOL     OW 5947   5.195   5.627   6.183
 1683SOL    HW1 5948   5.148   5.607   6.097
 1683SOL    HW2 5949   5.167   5.718   6.215
 1684SOL     OW 5950   0.015   6.457   4.175
 1684SOL    HW1 5951   0.036   6.387   4.244
 1684SOL    HW2 5952   6.947   6.493   4.191
 1685SOL     OW 5953   1.110   1.160   0.339
 1685SOL    HW1 5954   1.178   1.136   0.269
 1685SOL    HW2 5955   1.058   1.239   0.309
 1686SOL     OW 5956   2.309   5.956   6.532
 1686SOL    HW1 5957   2.374   5.948   6.608
 1686SOL    HW2 5958   2.243   6.027   6.553
 1687SOL     OW 5959   2.608   6.030   1.820
 1687SOL    HW1 5960   2.581   6.060   1.912
 1687SOL    HW2 5961   2.533   6.044   1.757
 1688SOL     OW 5962   0.833   1.470   3.390
 1688SOL    HW1 5963   0.903   1.503   3.327
 1688SOL    HW2 5964   0.853   1.376   3.417
 1689SOL     OW 5965   3.242   1.766   2.429
 1689SOL    HW1 5966   3.236   1.864   2.446
 1689SOL    HW2 5967   3.162   1.720   2.468
 1690SOL     OW 5968   0.934   2.225   0.522
 1690SOL    HW1 5969   0.924   2.152   0.589
 1690SOL    HW2 5970   0.949   2.186   0.432
 1691SOL     OW 5971   4.259   5.019   2.454
 1691SOL    HW1 5972   4.339   5.078   2.471
 1691SOL    HW2 5973   4.202   5.059   2.383
 1692SOL     OW 5974   1.952   6.877   2.869
 1692SOL    HW1 5975   2.031   6.882   2.930
 1692SOL    HW2 5976   1.884   6.814   2.907
 1693SOL     OW 5977   3.208   1.635   3.889
 1693SOL    HW1 5978   3.203   1.719   3.835
 1693SOL    HW2 5979   3.302   1.623   3.923
 1694SOL     OW 5980   5.167   5.735   5.235
 1694SOL    HW1 5981   5.174   5.638   5.212
 1694SOL    HW2 5982   5.257   5.778   5.227
 1695SOL     OW 5983   3.914   1.338   5.998
 1695SOL    HW1 5984   3.992   1.318   5.939
 1695SOL    HW2 5985   3.884   1.253   6.043
 1696SOL     OW 5986   3.503   5.618   2.124
 1696SOL    HW1 5987   3.597   5.595   2.146
 1696SOL    HW2 5988   3.466   5.681   2.193
 1697SOL     OW 5989   1.297   1.405   2.194
 1697SOL    HW1 5990   1.212   1.365   2.227
 1697SOL    HW2 5991   1.345   1.339   2.136
 1698SOL     OW 5992   5.131   2.020   1.101
 1698SOL    HW1 5993   5.085   2.051   1.018
 1698SOL    HW2 5994   5.082   2.055   1.181
 1699SOL     OW 5995   2.961   4.630   0.461
 1699SOL    HW1 5996   3.007   4.543   0.447
 1699SOL    HW2 5997   2.925   4.664   0.374
 1700SOL     OW 5998   6.373   2.419   4.494
 1700SOL    HW1 5999   6.462   2.414   4.448
 1700SOL    HW2 6000   6.381   2.384   4.587
 1701SOL     OW 6001   6.122   2.835   4.889
 1701SOL    HW1 6002   6.118   2.892   4.971
 1701SOL    HW2 6003   6.056   2.869   4.822
 1702SOL     OW 6004   4.710   2.782   1.797
 1702SOL    HW1 6005   4.770   2.788   1.717
 1702SOL    HW2 6006   4.710   2.870   1.845
 1703SOL     OW 6007   1.493   3.805   0.318
 1703SOL    HW1 6008   1.556   3.875   0.352
 1703SOL    HW2 6009   1.496   3.725   0.378
 1704SOL     OW 6010   0.054   0.736   1.863
 1704SOL    HW1 6011   0.031   0.726   1.960
 1704SOL    HW2 6012   0.095   0.826   1.848
 1705SOL     OW 6013   3.873   3.406   2.660
 1705SOL    HW1 6014   3.866   3.430   2.563
 1705SOL    HW2 6015   3.939   3.332   2.671
 1706SOL     OW 6016   2.359   0.774   6.563
 1706SOL    HW1 6017   2.443   0.755   6.615
 1706SOL    HW2 6018   2.383   0.819   6.477
 1707SOL     OW 6019   5.361   1.504   2.537
 1707SOL    HW1 6020   5.413   1.556   2.604
 1707SOL    HW2 6021   5.314   1.567   2.475
 1708SOL     OW 6022   0.287   4.364   1.524
 1708SOL    HW1 6023   0.281   4.415   1.610
 1708SOL    HW2 6024   0.370   4.309   1.524
 1709SOL     OW 6025   2.613   5.276   4.891
 1709SOL    HW1 6026   2.618   5.176   4.895
 1709SOL    HW2 6027   2.551   5.309   4.962
 1710SOL     OW 6028   6.914   5.282   4.205
 1710SOL    HW1 6029   6.983   5.289   4.276
 1710SOL    HW2 6030   6.839   5.223   4.237
 1711SOL     OW 6031   1.766   4.302   5.436
 1711SOL    HW1 6032   1.769   4.202   5.442
 1711SOL    HW2 6033   1.790   4.330   5.343
 1712SOL     OW 6034   2.148   4.902   1.488
 1712SOL    HW1 6035   2.082   4.877   1.417
 1712SOL    HW2 6036   2.104   4.962   1.555
 1713SOL     OW 6037   2.054   3.267   0.736
 1713SOL    HW1 6038   2.144   3.299   0.706
 1713SOL    HW2 6039   2.003   3.231   0.658
 1714SOL     OW 6040   4.009   1.170   1.336
 1714SOL    HW1 6041   4.049   1.089   1.377
 1714SOL    HW2 6042   3.939   1.143   1.270
 1715SOL     OW 6043   0.268   2.789   3.683
 1715SOL    HW1 6044   0.289   2.791   3.781
 1715SOL    HW2 6045   0.196   2.721   3.666
 1716SOL     OW 6046   6.977   0.058   0.099
 1716SOL    HW1 6047   7.021   0.147   0.086
 1716SOL    HW2 6048   0.001   0.008   0.171
 1717SOL     OW 6049   3.109   7.021   7.009
 1717SOL    HW1 6050   3.040   6.977   0.044
 1717SOL    HW2 6051   3.065   0.032   6.926
 1718SOL     OW 6052   1.576   4.460   5.583
 1718SOL    HW1 6053   1.498   4.478   5.523
 1718SOL    HW2 6054   1.644   4.407   5.533
 1719SOL     OW 6055   2.267   3.669   1.430
 1719SOL    HW1 6056   2.302   3.649   1.338
 1719SOL    HW2 6057   2.232   3.762   1.433
 1720SOL     OW 6058   6.696   1.664   2.582
 1720SOL    HW1 6059   6.675   1.671   2.485
 1720SOL    HW2 6060   6.616   1.691   2.636
 1721SOL     OW 6061   1.817   6.284   4.067
 1721SOL    HW1 6062   1.742   6.339   4.030
 1721SOL    HW2 6063   1.796   6.187   4.058
 1722SOL     OW 6064   5.559   0.506   1.622
 1722SOL    HW1 6065   5.577   0.508   1.721
 1722SOL    HW2 6066   5.501   0.427   1.601
 1723SOL     OW 6067   5.679   0.868   2.713
 1723SOL    HW1 6068   5.724   0.957   2.720
 1723SOL    HW2 6069   5.585   0.881   2.681
 1724SOL     OW 6070   5.298   0.469   0.010
 1724SOL    HW1 6071   5.276   0.515   6.947
 1724SOL    HW2 6072   5.362   0.395   7.016
 1725SOL     OW 6073   3.793   5.486   2.068
 1725SOL    HW1 6074   3.859   5.430   2.018
 1725SOL    HW2 6075   3.805   5.473   2.167
 1726SOL     OW 6076   6.911   3.864   4.484
 1726SOL    HW1 6077   6.972   3.787   4.469
 1726SOL    HW2 6078   6.835   3.861   4.419
 1727SOL     OW 6079   2.584   3.374   5.503
 1727SOL    HW1 6080   2.556   3.470   5.502
 1727SOL    HW2 6081   2.677   3.366   5.467
 1728SOL     OW 6082   4.557   4.920   3.489
 1728SOL    HW1 6083   4.487   4.981   3.527
 1728SOL    HW2 6084   4.586   4.954   3.399
 1729SOL     OW 6085   1.882   3.797   2.478
 1729SOL    HW1 6086   1.805   3.766   2.534
 1729SOL    HW2 6087   1.876   3.754   2.388
 1730SOL     OW 6088   5.730   2.140   4.639
 1730SOL    HW1 6089   5.715   2.101   4.730
 1730SOL    HW2 6090   5.784   2.224   4.648
 1731SOL     OW 6091   6.913   6.552   0.621
 1731SOL    HW1 6092   6.996   6.607   0.617
 1731SOL    HW2 6093   6.925   6.478   0.688
 1732SOL     OW 6094   0.803   4.511   0.057
 1732SOL    HW1 6095   0.724   4.572   0.053
 1732SOL    HW2 6096   0.818   4.482   0.152
 1733SOL     OW 6097   0.773   3.625   0.101
 1733SOL    HW1 6098   0.787   3.595   0.195
 1733SOL    HW2 6099   0.861   3.644   0.058
 1734SOL     OW 6100   4.870   3.735   1.646
 1734SOL    HW1 6101   4.822   3.726   1.559
 1734SOL    HW2 6102   4.963   3.698   1.637
 1735SOL     OW 6103   4.896   5.924   0.665
 1735SOL    HW1 6104   4.941   5.874   0.591
 1735SOL    HW2 6105   4.905   5.872   0.750
 1736SOL     OW 6106   2.894   3.703   0.321
 1736SOL    HW1 6107   2.941   3.702   0.409
 1736SOL    HW2 6108   2.863   3.611   0.298
 1737SOL     OW 6109   0.891   5.710   3.494
 1737SOL    HW1 6110   0.976   5.759   3.475
 1737SOL    HW2 6111   0.880   5.636   3.429
 1738SOL     OW 6112   0.962   1.303   1.691
 1738SOL    HW1 6113   1.038   1.368   1.687
 1738SOL    HW2 6114   0.993   1.212   1.664
 1739SOL     OW 6115   4.511   2.521   5.889
 1739SOL    HW1 6116   4.464   2.470   5.817
 1739SOL    HW2 6117   4.605   2.488   5.898
 1740SOL     OW 6118   0.686   1.387   5.170
 1740SOL    HW1 6119   0.765   1.364   5.226
 1740SOL    HW2 6120   0.714   1.393   5.074
 1741SOL     OW 6121   2.374   1.034   2.331
 1741SOL    HW1 6122   2.314   1.021   2.411
 1741SOL    HW2 6123   2.408   1.128   2.331
 1742SOL     OW 6124   6.021   6.661   4.561
 1742SOL    HW1 6125   5.982   6.751   4.575
 1742SOL    HW2 6126   5.985   6.621   4.476
 1743SOL     OW 6127   4.682   1.112   0.554
 1743SOL    HW1 6128   4.606   1.109   0.489
 1743SOL    HW2 6129   4.747   1.039   0.533
 1744SOL     OW 6130   2.851   6.460   1.566
 1744SOL    HW1 6131   2.814   6.389   1.626
 1744SOL    HW2 6132   2.776   6.504   1.517
 1745SOL     OW 6133   6.695   3.188   5.191
 1745SOL    HW1 6134   6.701   3.088   5.199
 1745SOL    HW2 6135   6.774   3.222   5.141
 1746SOL     OW 6136   2.940   1.026   5.811
 1746SOL    HW1 6137   2.918   1.002   5.716
 1746SOL    HW2 6138   2.965   1.122   5.817
 1747SOL     OW 6139   5.233   6.831   5.270
 1747SOL    HW1 6140   5.182   6.786   5.197
 1747SOL    HW2 6141   5.172   6.891   5.321
 1748SOL     OW 6142   5.737   1.283   1.555
 1748SOL    HW1 6143   5.651   1.289   1.504
 1748SOL    HW2 6144   5.805   1.234   1.501
 1749SOL     OW 6145   4.591   0.102   5.725
 1749SOL    HW1 6146   4.508   0.078   5.775
 1749SOL    HW2 6147   4.666   0.117   5.790
 1750SOL     OW 6148   4.791   0.464   4.322
 1750SOL    HW1 6149   4.885   0.478   4.289
 1750SOL    HW2 6150   4.791   0.464   4.422
 1751SOL     OW 6151   2.211   5.296   3.840
 1751SOL    HW1 6152   2.238   5.278   3.934
 1751SOL    HW2 6153   2.151   5.223   3.808
 1752SOL     OW 6154   6.861   1.963   6.371
 1752SOL    HW1 6155   6.876   2.048   6.423
 1752SOL    HW2 6156   6.949   1.930   6.336
 1753SOL     OW 6157   2.770   6.441   2.464
 1753SOL    HW1 6158   2.721   6.493   2.393
 1753SOL    HW2 6159   2.729   6.459   2.553
 1754SOL     OW 6160   3.722   2.787   1.776
 1754SOL    HW1 6161   3.638   2.768   1.725
 1754SOL    HW2 6162   3.790   2.717   1.755
 1755SOL     OW 6163   6.219   4.451   0.215
 1755SOL    HW1 6164   6.190   4.403   0.298
 1755SOL    HW2 6165   6.244   4.545   0.239
 1756SOL     OW 6166   5.680   5.532   4.902
 1756SOL    HW1 6167   5.642   5.440   4.915
 1756SOL    HW2 6168   5.779   5.528   4.914
 1757SOL     OW 6169   3.489   0.939   5.743
 1757SOL    HW1 6170   3.405   0.889   5.723
 1757SOL    HW2 6171   3.520   0.986   5.661
 1758SOL     OW 6172   2.774   1.570   3.473
 1758SOL    HW1 6173   2.806   1.481   3.443
 1758SOL    HW2 6174   2.683   1.587   3.435
 1759SOL     OW 6175   0.328   5.327   6.104
 1759SOL    HW1 6176   0.341   5.404   6.042
 1759SOL    HW2 6177   0.238   5.333   6.147
 1760SOL     OW 6178   5.067   0.027   2.144
 1760SOL    HW1 6179   5.080   6.996   2.061
 1760SOL    HW2 6180   5.152   0.073   2.167
 1761SOL     OW 6181   5.695   2.660   1.763
 1761SOL    HW1 6182   5.643   2.604   1.827
 1761SOL    HW2 6183   5.632   2.713   1.706
 1762SOL     OW 6184   5.481   2.884   0.729
 1762SOL    HW1 6185   5.441   2.833   0.652
 1762SOL    HW2 6186   5.505   2.821   0.802
 1763SOL     OW 6187   2.129   3.311   3.777
 1763SOL    HW1 6188   2.182   3.227   3.787
 1763SOL    HW2 6189   2.115   3.352   3.867
 1764SOL     OW 6190   6.254   3.265   4.231
 1764SOL    HW1 6191   6.247   3.360   4.262
 1764SOL    HW2 6192   6.339   3.225   4.265
 1765SOL     OW 6193   2.040   3.342   6.171
 1765SOL    HW1 6194   1.997   3.268   6.119
 1765SOL    HW2 6195   2.036   3.427   6.118
 1766SOL     OW 6196   6.005   3.647   5.627
 1766SOL    HW1 6197   5.981   3.622   5.533
 1766SOL    HW2 6198   6.104   3.637   5.640
 1767SOL     OW 6199   6.728   4.450   1.688
 1767SOL    HW1 6200   6.700   4.489   1.776
 1767SOL    HW2 6201   6.705   4.353   1.687
 1768SOL     OW 6202   6.320   6.643   3.781
 1768SOL    HW1 6203   6.330   6.549   3.748
 1768SOL    HW2 6204   6.347   6.647   3.877
 1769SOL     OW 6205   5.121   0.940   3.647
 1769SOL    HW1 6206   5.069   0.971   3.567
 1769SOL    HW2 6207   5.207   0.991   3.653
 1770SOL     OW 6208   3.050   5.487   5.214
 1770SOL    HW1 6209   3.083   5.410   5.268
 1770SOL    HW2 6210   2.981   5.538   5.267
 1771SOL     OW 6211   4.627   6.921   6.796
 1771SOL    HW1 6212   4.724   6.900   6.791
 1771SOL    HW2 6213   4.576   6.838   6.819
 1772SOL     OW 6214   3.660   6.070   3.231
 1772SOL    HW1 6215   3.618   6.153   3.194
 1772SOL    HW2 6216   3.591   5.998   3.239
 1773SOL     OW 6217   0.761   6.727   0.170
 1773SOL    HW1 6218   0.795   6.753   0.260
 1773SOL    HW2 6219   0.776   6.629   0.156
 1774SOL     OW 6220   3.151   4.856   2.311
 1774SOL    HW1 6221   3.144   4.955   2.322
 1774SOL    HW2 6222   3.119   4.830   2.220
 1775SOL     OW 6223   0.772   4.130   1.414
 1775SOL    HW1 6224   0.817   4.043   1.392
 1775SOL    HW2 6225   0.839   4.204   1.410
 1776SOL     OW 6226   2.734   6.357   5.874
 1776SOL    HW1 6227   2.776   6.293   5.938
 1776SOL    HW2 6228   2.678   6.307   5.808
 1777SOL     OW 6229   3.356   6.217   0.320
 1777SOL    HW1 6230   3.262   6.190   0.336
 1777SOL    HW2 6231   3.359   6.299   0.263
 1778SOL     OW 6232   6.941   3.404   5.874
 1778SOL    HW1 6233   6.948   3.464   5.954
 1778SOL    HW2 6234   7.004   3.435   5.803
 1779SOL     OW 6235   3.821   0.603   5.799
 1779SOL    HW1 6236   3.847   0.561   5.886
 1779SOL    HW2 6237   3.758   0.543   5.751
 1780SOL     OW 6238   3.314   3.463   6.757
 1780SOL    HW1 6239   3.293   3.403   6.834
 1780SOL    HW2 6240   3.414   3.472   6.748
 1781SOL     OW 6241   3.451   5.417   3.920
 1781SOL    HW1 6242   3.537   5.467   3.919
 1781SOL    HW2 6243   3.423   5.399   4.015
 1782SOL     OW 6244   3.270   1.627   4.494
 1782SOL    HW1 6245   3.187   1.598   4.446
 1782SOL    HW2 6246   3.317   1.696   4.440
 1783SOL     OW 6247   1.549   6.055   6.835
 1783SOL    HW1 6248   1.605   6.134   6.812
 1783SOL    HW2 6249   1.590   6.006   6.912
 1784SOL     OW 6250   3.279   0.127   6.146
 1784SOL    HW1 6251   3.217   0.161   6.075
 1784SOL    HW2 6252   3.366   0.101   6.104
 1785SOL     OW 6253   7.002   4.927   1.757
 1785SOL    HW1 6254   0.025   4.907   1.670
 1785SOL    HW2 6255   6.976   5.024   1.759
 1786SOL     OW 6256   4.061   2.134   1.309
 1786SOL    HW1 6257   4.056   2.043   1.266
 1786SOL    HW2 6258   4.125   2.131   1.386
 1787SOL     OW 6259   3.882   1.135   5.649
 1787SOL    HW1 6260   3.855   1.220   5.694
 1787SOL    HW2 6261   3.897   1.065   5.718
 1788SOL     OW 6262   1.439   4.641   6.172
 1788SOL    HW1 6263   1.429   4.584   6.092
 1788SOL    HW2 6264   1.381   4.607   6.246
 1789SOL     OW 6265   5.701   0.204   0.414
 1789SOL    HW1 6266   5.693   0.197   0.513
 1789SOL    HW2 6267   5.655   0.127   0.371
 1790SOL     OW 6268   3.146   6.484   2.803
 1790SOL    HW1 6269   3.214   6.426   2.758
 1790SOL    HW2 6270   3.169   6.580   2.788
 1791SOL     OW 6271   0.314   6.456   2.795
 1791SOL    HW1 6272   0.258   6.400   2.857
 1791SOL    HW2 6273   0.255   6.511   2.737
 1792SOL     OW 6274   0.988   4.457   4.672
 1792SOL    HW1 6275   0.994   4.483   4.575
 1792SOL    HW2 6276   0.897   4.480   4.707
 1793SOL     OW 6277   0.203   1.004   3.354
 1793SOL    HW1 6278   0.215   1.066   3.431
 1793SOL    HW2 6279   0.207   0.909   3.386
 1794SOL     OW 6280   4.561   5.982   6.539
 1794SOL    HW1 6281   4.640   6.030   6.501
 1794SOL    HW2 6282   4.592   5.924   6.615
 1795SOL     OW 6283   0.916   2.789   6.985
 1795SOL    HW1 6284   0.825   2.781   6.945
 1795SOL    HW2 6285   0.932   2.712   0.023
 1796SOL     OW 6286   3.880   0.710   6.365
 1796SOL    HW1 6287   3.808   0.730   6.431
 1796SOL    HW2 6288   3.881   0.611   6.347
 1797SOL     OW 6289   0.749   0.630   0.842
 1797SOL    HW1 6290   0.687   0.636   0.763
 1797SOL    HW2 6291   0.732   0.707   0.903
 1798SOL     OW 6292   5.598   1.712   2.929
 1798SOL    HW1 6293   5.499   1.697   2.934
 1798SOL    HW2 6294   5.642   1.668   3.007
 1799SOL     OW 6295   2.106   2.063   0.106
 1799SOL    HW1 6296   2.060   1.976   0.123
 1799SOL    HW2 6297   2.168   2.053   0.029
 1800SOL     OW 6298   3.557   4.879   2.584
 1800SOL    HW1 6299   3.461   4.858   2.601
 1800SOL    HW2 6300   3.566   4.923   2.494
 1801SOL     OW 6301   5.511   6.696   0.923
 1801SOL    HW1 6302   5.600   6.712   0.965
 1801SOL    HW2 6303   5.487   6.599   0.931
 1802SOL     OW 6304   5.894   4.846   3.549
 1802SOL    HW1 6305   5.818   4.906   3.524
 1802SOL    HW2 6306   5.930   4.803   3.466
 1803SOL     OW 6307   5.634   5.595   1.350
 1803SOL    HW1 6308   5.586   5.616   1.265
 1803SOL    HW2 6309   5.569   5.555   1.415
 1804SOL     OW 6310   3.401   3.210   6.044
 1804SOL    HW1 6311   3.353   3.293   6.072
 1804SOL    HW2 6312   3.345   3.160   5.978
 1805SOL     OW 6313   5.601   2.945   5.990
 1805SOL    HW1 6314   5.521   2.897   5.956
 1805SOL    HW2 6315   5.578   2.993   6.075
 1806SOL     OW 6316   6.671   0.717   0.710
 1806SOL    HW1 6317   6.694   0.621   0.724
 1806SOL    HW2 6318   6.613   0.748   0.785
 1807SOL     OW 6319   6.353   2.068   5.811
 1807SOL    HW1 6320   6.386   2.082   5.904
 1807SOL    HW2 6321   6.397   1.987   5.772
 1808SOL     OW 6322   1.967   4.669   4.234
 1808SOL    HW1 6323   2.019   4.663   4.319
 1808SOL    HW2 6324   2.007   4.740   4.176
 1809SOL     OW 6325   3.805   0.455   6.293
 1809SOL    HW1 6326   3.710   0.477   6.312
 1809SOL    HW2 6327   3.812   0.359   6.266
 1810SOL     OW 6328   3.629   5.867   2.766
 1810SOL    HW1 6329   3.530   5.854   2.760
 1810SOL    HW2 6330   3.657   5.863   2.863
 1811SOL     OW 6331   5.968   5.775   2.439
 1811SOL    HW1 6332   6.034   5.744   2.508
 1811SOL    HW2 6333   5.888   5.715   2.441
 1812SOL     OW 6334   4.427   5.062   6.381
 1812SOL    HW1 6335   4.509   5.113   6.406
 1812SOL    HW2 6336   4.387   5.102   6.299
 1813SOL     OW 6337   6.762   5.494   5.352
 1813SOL    HW1 6338   6.803   5.490   5.443
 1813SOL    HW2 6339   6.718   5.583   5.339
 1814SOL     OW 6340   5.145   6.797   2.756
 1814SOL    HW1 6341   5.133   6.825   2.660
 1814SOL    HW2 6342   5.163   6.698   2.759
 1815SOL     OW 6343   0.302   1.248   2.365
 1815SOL    HW1 6344   0.366   1.174   2.383
 1815SOL    HW2 6345   0.326   1.327   2.422
 1816SOL     OW 6346   1.122   4.624   0.388
 1816SOL    HW1 6347   1.158   4.626   0.295
 1816SOL    HW2 6348   1.197   4.610   0.453
 1817SOL     OW 6349   1.130   5.715   1.887
 1817SOL    HW1 6350   1.102   5.778   1.815
 1817SOL    HW2 6351   1.226   5.731   1.910
 1818SOL     OW 6352   1.288   1.327   3.085
 1818SOL    HW1 6353   1.290   1.241   3.135
 1818SOL    HW2 6354   1.380   1.350   3.054
 1819SOL     OW 6355   0.848   3.954   2.115
 1819SOL    HW1 6356   0.923   3.893   2.088
 1819SOL    HW2 6357   0.845   4.033   2.054
 1820SOL     OW 6358   5.942   0.367   2.644
 1820SOL    HW1 6359   5.921   0.296   2.577
 1820SOL    HW2 6360   5.900   0.342   2.732
 1821SOL     OW 6361   1.814   1.545   3.768
 1821SOL    HW1 6362   1.881   1.607   3.726
 1821SOL    HW2 6363   1.789   1.474   3.703
 1822SOL     OW 6364   3.362   3.567   1.892
 1822SOL    HW1 6365   3.430   3.499   1.918
 1822SOL    HW2 6366   3.406   3.641   1.841
 1823SOL     OW 6367   4.397   0.298   2.416
 1823SOL    HW1 6368   4.425   0.297   2.512
 1823SOL    HW2 6369   4.339   0.219   2.397
 1824SOL     OW 6370   5.093   2.192   1.604
 1824SOL    HW1 6371   5.015   2.254   1.595
 1824SOL    HW2 6372   5.067   2.115   1.662
 1825SOL     OW 6373   1.094   1.056   1.625
 1825SOL    HW1 6374   1.178   1.037   1.676
 1825SOL    HW2 6375   1.116   1.079   1.531
 1826SOL     OW 6376   2.999   5.931   6.130
 1826SOL    HW1 6377   2.947   5.970   6.206
 1826SOL    HW2 6378   2.997   5.832   6.135
 1827SOL     OW 6379   6.162   7.003   1.592
 1827SOL    HW1 6380   6.087   6.962   1.644
 1827SOL    HW2 6381   6.241   7.017   1.651
 1828SOL     OW 6382   1.719   2.489   6.958
 1828SOL    HW1 6383   1.735   2.583   6.927
 1828SOL    HW2 6384   1.693   2.490   0.031
 1829SOL     OW 6385   6.131   5.157   2.014
 1829SOL    HW1 6386   6.105   5.253   2.022
 1829SOL    HW2 6387   6.051   5.103   1.988
 1830SOL     OW 6388   5.511   5.966   3.783
 1830SOL    HW1 6389   5.521   6.059   3.818
 1830SOL    HW2 6390   5.479   5.906   3.855
 1831SOL     OW 6391   5.326   0.667   3.577
 1831SOL    HW1 6392   5.254   0.598   3.575
 1831SOL    HW2 6393   5.296   0.748   3.527
 1832SOL     OW 6394   4.937   2.456   0.210
 1832SOL    HW1 6395   4.868   2.418   0.271
 1832SOL    HW2 6396   4.904   2.454   0.115
 1833SOL     OW 6397   5.615   1.930   5.828
 1833SOL    HW1 6398   5.649   1.839   5.851
 1833SOL    HW2 6399   5.592   1.934   5.730
 1834SOL     OW 6400   2.605   4.235   0.757
 1834SOL    HW1 6401   2.564   4.324   0.777
 1834SOL    HW2 6402   2.599   4.217   0.658
 1835SOL     OW 6403   0.962   4.751   6.953
 1835SOL    HW1 6404   1.060   4.761   6.941
 1835SOL    HW2 6405   0.941   4.658   6.985
 1836SOL     OW 6406   0.701   6.002   0.535
 1836SOL    HW1 6407   0.607   6.017   0.502
 1836SOL    HW2 6408   0.757   6.081   0.511
 1837SOL     OW 6409   0.938   2.409   4.890
 1837SOL    HW1 6410   0.906   2.331   4.943
 1837SOL    HW2 6411   0.914   2.397   4.794
 1838SOL     OW 6412   0.781   2.511   4.479
 1838SOL    HW1 6413   0.728   2.442   4.430
 1838SOL    HW2 6414   0.720   2.577   4.522
 1839SOL     OW 6415   0.216   1.510   6.284
 1839SOL    HW1 6416   0.150   1.436   6.267
 1839SOL    HW2 6417   0.302   1.471   6.317
 1840SOL     OW 6418   1.369   5.341   0.672
 1840SOL    HW1 6419   1.290   5.353   0.612
 1840SOL    HW2 6420   1.352   5.265   0.735
 1841SOL     OW 6421   1.314   3.174   2.901
 1841SOL    HW1 6422   1.356   3.094   2.944
 1841SOL    HW2 6423   1.218   3.154   2.882
 1842SOL     OW 6424   0.719   5.133   6.674
 1842SOL    HW1 6425   0.620   5.129   6.687
 1842SOL    HW2 6426   0.754   5.222   6.703
 1843SOL     OW 6427   4.005   2.002   4.798
 1843SOL    HW1 6428   4.024   2.077   4.861
 1843SOL    HW2 6429   3.907   2.001   4.776
 1844SOL     OW 6430   5.533   3.374   3.608
 1844SOL    HW1 6431   5.513   3.357   3.705
 1844SOL    HW2 6432   5.516   3.470   3.587
 1845SOL     OW 6433   4.219   6.853   0.791
 1845SOL    HW1 6434   4.197   6.835   0.696
 1845SOL    HW2 6435   4.186   6.943   0.817
 1846SOL     OW 6436   3.430   1.370   5.542
 1846SOL    HW1 6437   3.506   1.427   5.512
 1846SOL    HW2 6438   3.392   1.407   5.627
 1847SOL     OW 6439   1.920   6.757   0.280
 1847SOL    HW1 6440   1.904   6.669   0.235
 1847SOL    HW2 6441   1.870   6.829   0.230
 1848SOL     OW 6442   2.560   0.005   2.601
 1848SOL    HW1 6443   2.489   0.057   2.552
 1848SOL    HW2 6444   2.566   6.937   2.563
 1849SOL     OW 6445   3.053   0.903   6.662
 1849SOL    HW1 6446   3.067   0.819   6.714
 1849SOL    HW2 6447   3.034   0.881   6.566
 1850SOL     OW 6448   5.214   1.565   1.682
 1850SOL    HW1 6449   5.304   1.532   1.711
 1850SOL    HW2 6450   5.192   1.527   1.593
 1851SOL     OW 6451   6.372   3.691   2.766
 1851SOL    HW1 6452   6.314   3.761   2.808
 1851SOL    HW2 6453   6.337   3.600   2.789
 1852SOL     OW 6454   5.016   2.772   6.168
 1852SOL    HW1 6455   4.984   2.679   6.150
 1852SOL    HW2 6456   5.072   2.772   6.251
 1853SOL     OW 6457   1.045   4.407   0.716
 1853SOL    HW1 6458   1.115   4.383   0.650
 1853SOL    HW2 6459   0.984   4.329   0.730
 1854SOL     OW 6460   2.542   5.793   4.095
 1854SOL    HW1 6461   2.472   5.804   4.024
 1854SOL    HW2 6462   2.588   5.704   4.083
 1855SOL     OW 6463   5.682   4.319   1.659
 1855SOL    HW1 6464   5.747   4.250   1.692
 1855SOL    HW2 6465   5.730   4.406   1.648
 1856SOL     OW 6466   5.004   3.238   6.823
 1856SOL    HW1 6467   4.904   3.240   6.820
 1856SOL    HW2 6468   5.040   3.317   6.774
 1857SOL     OW 6469   5.067   1.476   3.527
 1857SOL    HW1 6470   4.986   1.422   3.550
 1857SOL    HW2 6471   5.073   1.486   3.427
 1858SOL     OW 6472   5.582   3.283   3.207
 1858SOL    HW1 6473   5.628   3.247   3.125
 1858SOL    HW2 6474   5.651   3.317   3.271
 1859SOL     OW 6475   5.711   1.209   2.830
 1859SOL    HW1 6476   5.727   1.173   2.922
 1859SOL    HW2 6477   5.771   1.287   2.814
 1860SOL     OW 6478   4.098   2.045   5.383
 1860SOL    HW1 6479   4.050   1.962   5.355
 1860SOL    HW2 6480   4.196   2.033   5.368
 1861SOL     OW 6481   5.642   6.225   2.551
 1861SOL    HW1 6482   5.680   6.304   2.600
 1861SOL    HW2 6483   5.549   6.246   2.521
 1862SOL     OW 6484   1.980   1.390   0.685
 1862SOL    HW1 6485   2.064   1.337   0.670
 1862SOL    HW2 6486   1.904   1.345   0.638
 1863SOL     OW 6487   2.129   2.740   1.484
 1863SOL    HW1 6488   2.093   2.677   1.416
 1863SOL    HW2 6489   2.210   2.787   1.448
 1864SOL     OW 6490   0.996   6.763   3.184
 1864SOL    HW1 6491   0.932   6.829   3.221
 1864SOL    HW2 6492   0.994   6.679   3.239
 1865SOL     OW 6493   5.115   2.330   6.763
 1865SOL    HW1 6494   5.037   2.382   6.730
 1865SOL    HW2 6495   5.084   2.243   6.801
 1866SOL     OW 6496   5.135   5.686   2.265
 1866SOL    HW1 6497   5.053   5.639   2.233
 1866SOL    HW2 6498   5.207   5.619   2.282
 1867SOL     OW 6499   0.918   4.769   6.530
 1867SOL    HW1 6500   0.835   4.817   6.501
 1867SOL    HW2 6501   0.968   4.826   6.596
 1868SOL     OW 6502   6.605   4.158   5.737
 1868SOL    HW1 6503   6.588   4.148   5.639
 1868SOL    HW2 6504   6.676   4.227   5.752
 1869SOL     OW 6505   5.997   1.452   4.656
 1869SOL    HW1 6506   5.962   1.542   4.627
 1869SOL    HW2 6507   6.086   1.436   4.614
 1870SOL     OW 6508   2.309   4.292   4.553
 1870SOL    HW1 6509   2.336   4.373   4.605
 1870SOL    HW2 6510   2.302   4.214   4.615
 1871SOL     OW 6511   1.684   0.340   0.710
 1871SOL    HW1 6512   1.766   0.354   0.766
 1871SOL    HW2 6513   1.642   0.252   0.735
 1872SOL     OW 6514   2.363   4.939   0.195
 1872SOL    HW1 6515   2.374   4.937   0.095
 1872SOL    HW2 6516   2.442   4.984   0.236
 1873SOL     OW 6517   5.447   0.946   0.592
 1873SOL    HW1 6518   5.452   0.925   0.689
 1873SOL    HW2 6519   5.359   0.988   0.571
 1874SOL     OW 6520   1.408   3.955   2.612
 1874SOL    HW1 6521   1.325   3.943   2.558
 1874SOL    HW2 6522   1.407   4.045   2.656
 1875SOL     OW 6523   1.371   0.401   1.029
 1875SOL    HW1 6524   1.288   0.376   1.078
 1875SOL    HW2 6525   1.451   0.388   1.088
 1876SOL     OW 6526   2.319   6.731   4.224
 1876SOL    HW1 6527   2.381   6.772   4.292
 1876SOL    HW2 6528   2.334   6.775   4.135
 1877SOL     OW 6529   0.374   0.339   3.563
 1877SOL    HW1 6530   0.340   0.399   3.635
 1877SOL    HW2 6531   0.403   0.252   3.603
 1878SOL     OW 6532   5.986   2.685   5.469
 1878SOL    HW1 6533   5.892   2.676   5.435
 1878SOL    HW2 6534   6.027   2.768   5.432
 1879SOL     OW 6535   1.897   4.796   5.786
 1879SOL    HW1 6536   1.929   4.731   5.717
 1879SOL    HW2 6537   1.813   4.761   5.828
 1880SOL     OW 6538   6.110   0.368   4.875
 1880SOL    HW1 6539   6.128   0.420   4.791
 1880SOL    HW2 6540   6.042   0.417   4.930
 1881SOL     OW 6541   0.310   2.703   6.944
 1881SOL    HW1 6542   0.281   2.754   6.863
 1881SOL    HW2 6543   0.361   2.765   7.005
 1882SOL     OW 6544   1.348   6.345   6.751
 1882SOL    HW1 6545   1.253   6.374   6.750
 1882SOL    HW2 6546   1.373   6.308   6.661
 1883SOL     OW 6547   0.487   2.090   4.134
 1883SOL    HW1 6548   0.430   2.101   4.053
 1883SOL    HW2 6549   0.522   1.997   4.138
 1884SOL     OW 6550   0.379   2.469   0.822
 1884SOL    HW1 6551   0.293   2.503   0.784
 1884SOL    HW2 6552   0.434   2.547   0.852
 1885SOL     OW 6553   2.211   0.791   4.517
 1885SOL    HW1 6554   2.247   0.718   4.459
 1885SOL    HW2 6555   2.275   0.808   4.593
 1886SOL     OW 6556   0.964   6.520   3.331
 1886SOL    HW1 6557   0.951   6.561   3.421
 1886SOL    HW2 6558   1.035   6.450   3.336
 1887SOL     OW 6559   3.035   6.258   6.243
 1887SOL    HW1 6560   2.999   6.214   6.325
 1887SOL    HW2 6561   3.126   6.221   6.222
 1888SOL     OW 6562   2.691   0.879   3.293
 1888SOL    HW1 6563   2.704   0.905   3.197
 1888SOL    HW2 6564   2.681   0.962   3.349
 1889SOL     OW 6565   0.486   3.505   2.397
 1889SOL    HW1 6566   0.586   3.516   2.398
 1889SOL    HW2 6567   0.460   3.426   2.452
 1890SOL     OW 6568   1.061   6.018   4.813
 1890SOL    HW1 6569   1.118   5.966   4.749
 1890SOL    HW2 6570   1.118   6.083   4.863
 1891SOL     OW 6571   3.199   3.397   3.436
 1891SOL    HW1 6572   3.165   3.443   3.354
 1891SOL    HW2 6573   3.299   3.395   3.434
 1892SOL     OW 6574   1.195   0.336   2.621
 1892SOL    HW1 6575   1.167   0.300   2.532
 1892SOL    HW2 6576   1.121   0.394   2.657
 1893SOL     OW 6577   4.117   3.543   4.319
 1893SOL    HW1 6578   4.044   3.592   4.367
 1893SOL    HW2 6579   4.167   3.607   4.261
 1894SOL     OW 6580   3.251   3.577   4.495
 1894SOL    HW1 6581   3.334   3.523   4.505
 1894SOL    HW2 6582   3.271   3.659   4.442
 1895SOL     OW 6583   1.670   6.111   0.127
 1895SOL    HW1 6584   1.593   6.138   0.071
 1895SOL    HW2 6585   1.666   6.159   0.215
 1896SOL     OW 6586   6.218   2.394   1.351
 1896SOL    HW1 6587   6.276   2.432   1.279
 1896SOL    HW2 6588   6.267   2.320   1.397
 1897SOL     OW 6589   1.099   4.537   4.419
 1897SOL    HW1 6590   1.057   4.593   4.347
 1897SOL    HW2 6591   1.184   4.580   4.449
 1898SOL     OW 6592   1.454   6.089   2.764
 1898SOL    HW1 6593   1.506   6.030   2.702
 1898SOL    HW2 6594   1.485   6.184   2.753
 1899SOL     OW 6595   0.184   1.272   2.126
 1899SOL    HW1 6596   0.200   1.268   2.225
 1899SOL    HW2 6597   0.137   1.189   2.097
 1900SOL     OW 6598   2.613   7.006   6.905
 1900SOL    HW1 6599   2.526   0.012   6.865
 1900SOL    HW2 6600   2.596   6.964   6.994
 1901SOL     OW 6601   2.772   3.598   1.818
 1901SOL    HW1 6602   2.810   3.649   1.741
 1901SOL    HW2 6603   2.833   3.606   1.897
 1902SOL     OW 6604   1.281   6.648   5.275
 1902SOL    HW1 6605   1.326   6.666   5.188
 1902SOL    HW2 6606   1.192   6.607   5.258
 1903SOL     OW 6607   1.269   2.306   4.184
 1903SOL    HW1 6608   1.282   2.236   4.114
 1903SOL    HW2 6609   1.172   2.311   4.208
 1904SOL     OW 6610   5.806   6.270   2.130
 1904SOL    HW1 6611   5.826   6.198   2.063
 1904SOL    HW2 6612   5.815   6.359   2.087
 1905SOL     OW 6613   0.563   1.835   4.171
 1905SOL    HW1 6614   0.568   1.792   4.261
 1905SOL    HW2 6615   0.542   1.765   4.102
 1906SOL     OW 6616   0.924   6.303   4.740
 1906SOL    HW1 6617   1.004   6.346   4.699
 1906SOL    HW2 6618   0.920   6.207   4.713
 1907SOL     OW 6619   4.824   3.305   0.390
 1907SOL    HW1 6620   4.810   3.403   0.375
 1907SOL    HW2 6621   4.909   3.277   0.347
 1908SOL     OW 6622   3.821   1.092   1.561
 1908SOL    HW1 6623   3.898   1.036   1.530
 1908SOL    HW2 6624   3.742   1.075   1.503
 1909SOL     OW 6625   6.234   5.350   4.786
 1909SOL    HW1 6626   6.154   5.295   4.765
 1909SOL    HW2 6627   6.249   5.417   4.712
 1910SOL     OW 6628   0.437   5.964   5.813
 1910SOL    HW1 6629   0.406   5.944   5.906
 1910SOL    HW2 6630   0.450   6.062   5.802
 1911SOL     OW 6631   6.256   5.862   4.118
 1911SOL    HW1 6632   6.263   5.928   4.043
 1911SOL    HW2 6633   6.290   5.903   4.202
 1912SOL     OW 6634   3.772   5.000   1.982
 1912SOL    HW1 6635   3.707   5.074   2.002
 1912SOL    HW2 6636   3.721   4.916   1.965
 1913SOL     OW 6637   3.256   4.295   6.994
 1913SOL    HW1 6638   3.198   4.229   0.019
 1913SOL    HW2 6639   3.212   4.385   6.995
 1914SOL     OW 6640   3.527   4.309   6.958
 1914SOL    HW1 6641   3.429   4.296   6.952
 1914SOL    HW2 6642   3.566   4.243   7.022
 1915SOL     OW 6643   3.374   2.907   6.650
 1915SOL    HW1 6644   3.323   2.821   6.657
 1915SOL    HW2 6645   3.310   2.984   6.644
 1916SOL     OW 6646   4.475   0.643   2.669
 1916SOL    HW1 6647   4.551   0.601   2.620
 1916SOL    HW2 6648   4.414   0.689   2.604
 1917SOL     OW 6649   1.978   4.468   1.293
 1917SOL    HW1 6650   2.018   4.554   1.261
 1917SOL    HW2 6651   1.957   4.475   1.390
 1918SOL     OW 6652   5.493   2.070   3.442
 1918SOL    HW1 6653   5.514   2.082   3.539
 1918SOL    HW2 6654   5.399   2.098   3.424
 1919SOL     OW 6655   6.333   2.145   6.127
 1919SOL    HW1 6656   6.386   2.081   6.183
 1919SOL    HW2 6657   6.276   2.202   6.186
 1920SOL     OW 6658   4.663   2.974   0.628
 1920SOL    HW1 6659   4.648   2.929   0.540
 1920SOL    HW2 6660   4.742   2.932   0.673
 1921SOL     OW 6661   2.302   2.231   0.474
 1921SOL    HW1 6662   2.398   2.206   0.485
 1921SOL    HW2 6663   2.280   2.307   0.535
 1922SOL     OW 6664   3.110   3.048   3.888
 1922SOL    HW1 6665   3.087   3.028   3.983
 1922SOL    HW2 6666   3.050   3.119   3.853
 1923SOL     OW 6667   3.424   0.600   4.544
 1923SOL    HW1 6668   3.392   0.643   4.628
 1923SOL    HW2 6669   3.470   0.667   4.486
 1924SOL     OW 6670   5.302   1.134   0.859
 1924SOL    HW1 6671   5.339   1.054   0.906
 1924SOL    HW2 6672   5.373   1.203   0.850
 1925SOL     OW 6673   1.198   3.920   1.258
 1925SOL    HW1 6674   1.263   3.852   1.225
 1925SOL    HW2 6675   1.238   4.011   1.251
 1926SOL     OW 6676   4.069   0.635   1.813
 1926SOL    HW1 6677   3.971   0.620   1.830
 1926SOL    HW2 6678   4.114   0.547   1.799
 1927SOL     OW 6679   2.214   5.179   1.344
 1927SOL    HW1 6680   2.213   5.104   1.410
 1927SOL    HW2 6681   2.294   5.169   1.284
 1928SOL     OW 6682   6.805   4.532   2.566
 1928SOL    HW1 6683   6.832   4.451   2.513
 1928SOL    HW2 6684   6.714   4.562   2.537
 1929SOL     OW 6685   3.295   6.621   3.408
 1929SOL    HW1 6686   3.382   6.585   3.376
 1929SOL    HW2 6687   3.311   6.699   3.469
 1930SOL     OW 6688   3.774   3.316   0.337
 1930SOL    HW1 6689   3.774   3.351   0.243
 1930SOL    HW2 6690   3.854   3.258   0.351
 1931SOL     OW 6691   6.929   2.707   3.949
 1931SOL    HW1 6692   7.022   2.672   3.964
 1931SOL    HW2 6693   6.892   2.738   4.036
 1932SOL     OW 6694   4.815   1.781   2.483
 1932SOL    HW1 6695   4.716   1.778   2.472
 1932SOL    HW2 6696   4.851   1.863   2.439
 1933SOL     OW 6697   1.433   0.962   1.337
 1933SOL    HW1 6698   1.526   0.963   1.374
 1933SOL    HW2 6699   1.422   1.037   1.273
 1934SOL     OW 6700   6.984   1.093   7.007
 1934SOL    HW1 6701   6.935   1.007   7.021
 1934SOL    HW2 6702   6.977   1.121   6.912
 1935SOL     OW 6703   6.080   4.976   3.221
 1935SOL    HW1 6704   6.041   4.992   3.130
 1935SOL    HW2 6705   6.043   4.891   3.258
 1936SOL     OW 6706   4.715   3.444   5.961
 1936SOL    HW1 6707   4.642   3.379   5.942
 1936SOL    HW2 6708   4.803   3.403   5.937
 1937SOL     OW 6709   6.363   5.090   6.557
 1937SOL    HW1 6710   6.264   5.103   6.563
 1937SOL    HW2 6711   6.396   5.041   6.638
 1938SOL     OW 6712   6.731   2.795   0.060
 1938SOL    HW1 6713   6.678   2.807   7.000
 1938SOL    HW2 6714   6.673   2.812   0.139
 1939SOL     OW 6715   0.316   0.741   4.204
 1939SOL    HW1 6716   0.265   0.703   4.280
 1939SOL    HW2 6717   0.404   0.775   4.236
 1940SOL     OW 6718   0.339   5.040   0.679
 1940SOL    HW1 6719   0.306   5.133   0.693
 1940SOL    HW2 6720   0.431   5.043   0.640
 1941SOL     OW 6721   5.450   1.599   4.828
 1941SOL    HW1 6722   5.539   1.612   4.870
 1941SOL    HW2 6723   5.388   1.673   4.855
 1942SOL     OW 6724   0.398   4.869   1.635
 1942SOL    HW1 6725   0.368   4.939   1.701
 1942SOL    HW2 6726   0.318   4.836   1.585
 1943SOL     OW 6727   0.522   3.032   3.659
 1943SOL    HW1 6728   0.609   3.060   3.699
 1943SOL    HW2 6729   0.464   2.992   3.730
 1944SOL     OW 6730   0.861   3.447   3.630
 1944SOL    HW1 6731   0.927   3.375   3.653
 1944SOL    HW2 6732   0.899   3.535   3.656
 1945SOL     OW 6733   5.241   1.356   1.500
 1945SOL    HW1 6734   5.208   1.295   1.572
 1945SOL    HW2 6735   5.204   1.328   1.412
 1946SOL     OW 6736   6.073   5.374   0.785
 1946SOL    HW1 6737   6.135   5.338   0.716
 1946SOL    HW2 6738   6.070   5.474   0.779
 1947SOL     OW 6739   5.995   5.053   2.642
 1947SOL    HW1 6740   6.070   5.118   2.660
 1947SOL    HW2 6741   5.916   5.078   2.698
 1948SOL     OW 6742   5.313   3.239   3.497
 1948SOL    HW1 6743   5.399   3.283   3.520
 1948SOL    HW2 6744   5.289   3.261   3.402
 1949SOL     OW 6745   3.230   4.253   6.614
 1949SOL    HW1 6746   3.225   4.154   6.629
 1949SOL    HW2 6747   3.264   4.297   6.697
 1950SOL     OW 6748   3.917   3.980   3.597
 1950SOL    HW1 6749   4.002   4.007   3.551
 1950SOL    HW2 6750   3.876   3.902   3.548
 1951SOL     OW 6751   6.270   5.306   5.760
 1951SOL    HW1 6752   6.178   5.268   5.751
 1951SOL    HW2 6753   6.317   5.300   5.671
 1952SOL     OW 6754   5.511   4.427   6.947
 1952SOL    HW1 6755   5.604   4.417   6.983
 1952SOL    HW2 6756   5.485   4.524   6.947
 1953SOL     OW 6757   0.881   0.989   0.251
 1953SOL    HW1 6758   0.972   1.004   0.289
 1953SOL    HW2 6759   0.871   1.040   0.165
 1954SOL     OW 6760   3.625   6.689   2.082
 1954SOL    HW1 6761   3.671   6.667   1.996
 1954SOL    HW2 6762   3.606   6.605   2.133
 1955SOL     OW 6763   6.697   2.426   4.010
 1955SOL    HW1 6764   6.738   2.418   3.919
 1955SOL    HW2 6765   6.602   2.456   4.002
 1956SOL     OW 6766   5.121   1.035   1.498
 1956SOL    HW1 6767   5.033   1.071   1.531
 1956SOL    HW2 6768   5.128   0.939   1.523
 1957SOL     OW 6769   6.608   2.302   4.389
 1957SOL    HW1 6770   6.649   2.271   4.475
 1957SOL    HW2 6771   6.668   2.369   4.346
 1958SOL     OW 6772   3.948   1.586   0.452
 1958SOL    HW1 6773   3.964   1.644   0.532
 1958SOL    HW2 6774   3.946   1.642   0.370
 1959SOL     OW 6775   1.134   1.857   5.561
 1959SOL    HW1 6776   1.218   1.821   5.602
 1959SOL    HW2 6777   1.156   1.932   5.498
 1960SOL     OW 6778   5.344   4.112   3.190
 1960SOL    HW1 6779   5.357   4.103   3.289
 1960SOL    HW2 6780   5.247   4.100   3.169
 1961SOL     OW 6781   0.691   3.690   4.234
 1961SOL    HW1 6782   0.744   3.745   4.299
 1961SOL    HW2 6783   0.752   3.653   4.164
 1962SOL     OW 6784   0.554   0.286   1.797
 1962SOL    HW1 6785   0.512   0.350   1.860
 1962SOL    HW2 6786   0.643   0.257   1.833
 1963SOL     OW 6787   0.921   3.101   6.955
 1963SOL    HW1 6788   0.932   3.005   6.931
 1963SOL    HW2 6789   0.926   3.157   6.872
 1964SOL     OW 6790   5.683   3.466   0.398
 1964SOL    HW1 6791   5.621   3.464   0.320
 1964SOL    HW2 6792   5.637   3.429   0.479
 1965SOL     OW 6793   6.196   4.651   3.603
 1965SOL    HW1 6794   6.210   4.566   3.553
 1965SOL    HW2 6795   6.105   4.651   3.645
 1966SOL     OW 6796   1.081   4.534   6.507
 1966SOL    HW1 6797   1.040   4.625   6.495
 1966SOL    HW2 6798   1.026   4.481   6.571
 1967SOL     OW 6799   6.635   3.333   4.919
 1967SOL    HW1 6800   6.562   3.401   4.920
 1967SOL    HW2 6801   6.605   3.251   4.969
 1968SOL     OW 6802   2.319   1.414   5.948
 1968SOL    HW1 6803   2.229   1.422   5.905
 1968SOL    HW2 6804   2.329   1.486   6.017
 1969SOL     OW 6805   1.111   5.976   1.127
 1969SOL    HW1 6806   1.076   5.945   1.038
 1969SOL    HW2 6807   1.188   5.917   1.154
 1970SOL     OW 6808   5.508   4.516   4.074
 1970SOL    HW1 6809   5.470   4.500   4.165
 1970SOL    HW2 6810   5.497   4.612   4.049
 1971SOL     OW 6811   1.687   4.462   4.507
 1971SOL    HW1 6812   1.776   4.417   4.517
 1971SOL    HW2 6813   1.660   4.503   4.594
 1972SOL     OW 6814   6.296   2.019   2.260
 1972SOL    HW1 6815   6.363   1.983   2.325
 1972SOL    HW2 6816   6.267   2.110   2.288
 1973SOL     OW 6817   3.347   2.044   1.222
 1973SOL    HW1 6818   3.374   1.985   1.147
 1973SOL    HW2 6819   3.349   2.139   1.192
 1974SOL     OW 6820   2.703   6.868   4.919
 1974SOL    HW1 6821   2.689   6.918   4.833
 1974SOL    HW2 6822   2.634   6.897   4.986
 1975SOL     OW 6823   2.012   2.940   2.571
 1975SOL    HW1 6824   2.039   2.854   2.526
 1975SOL    HW2 6825   1.933   2.978   2.525
 1976SOL     OW 6826   1.415   0.975   5.169
 1976SOL    HW1 6827   1.463   0.889   5.149
 1976SOL    HW2 6828   1.344   0.991   5.101
 1977SOL     OW 6829   1.658   3.617   6.823
 1977SOL    HW1 6830   1.596   3.629   6.900
 1977SOL    HW2 6831   1.608   3.578   6.746
 1978SOL     OW 6832   2.954   0.242   1.996
 1978SOL    HW1 6833   2.955   0.171   1.926
 1978SOL    HW2 6834   3.036   0.299   1.987
 1979SOL     OW 6835   5.624   4.641   6.600
 1979SOL    HW1 6836   5.679   4.576   6.548
 1979SOL    HW2 6837   5.539   4.659   6.551
 1980SOL     OW 6838   4.044   0.065   0.766
 1980SOL    HW1 6839   3.966   0.003   0.760
 1980SOL    HW2 6840   4.079   0.083   0.674
 1981SOL     OW 6841   3.826   1.811   2.401
 1981SOL    HW1 6842   3.808   1.714   2.392
 1981SOL    HW2 6843   3.772   1.862   2.334
 1982SOL     OW 6844   1.634   3.247   6.032
 1982SOL    HW1 6845   1.641   3.167   5.972
 1982SOL    HW2 6846   1.541   3.254   6.067
 1983SOL     OW 6847   6.228   1.347   1.977
 1983SOL    HW1 6848   6.178   1.288   1.913
 1983SOL    HW2 6849   6.180   1.434   1.987
 1984SOL     OW 6850   4.806   3.941   6.129
 1984SOL    HW1 6851   4.853   3.994   6.200
 1984SOL    HW2 6852   4.791   3.848   6.162
 1985SOL     OW 6853   6.212   4.683   4.149
 1985SOL    HW1 6854   6.174   4.612   4.090
 1985SOL    HW2 6855   6.154   4.695   4.229
 1986SOL     OW 6856   2.872   3.390   2.112
 1986SOL    HW1 6857   2.775   3.399   2.088
 1986SOL    HW2 6858   2.923   3.467   2.073
 1987SOL     OW 6859   2.541   0.813   1.968
 1987SOL    HW1 6860   2.538   0.852   1.876
 1987SOL    HW2 6861   2.469   0.853   2.024
 1988SOL     OW 6862   0.622   1.818   2.164
 1988SOL    HW1 6863   0.707   1.790   2.208
 1988SOL    HW2 6864   0.550   1.828   2.233
 1989SOL     OW 6865   2.749   5.945   5.131
 1989SOL    HW1 6866   2.727   6.014   5.062
 1989SOL    HW2 6867   2.820   5.979   5.192
 1990SOL     OW 6868   4.033   0.101   0.109
 1990SOL    HW1 6869   4.023   0.197   0.137
 1990SOL    HW2 6870   4.058   0.098   0.012
 1991SOL     OW 6871   2.447   5.357   1.766
 1991SOL    HW1 6872   2.493   5.323   1.684
 1991SOL    HW2 6873   2.436   5.456   1.760
 1992SOL     OW 6874   0.964   6.395   2.813
 1992SOL    HW1 6875   0.972   6.494   2.799
 1992SOL    HW2 6876   0.993   6.373   2.906
 1993SOL     OW 6877   1.875   1.717   2.882
 1993SOL    HW1 6878   1.913   1.795   2.833
 1993SOL    HW2 6879   1.812   1.667   2.822
 1994SOL     OW 6880   3.965   3.172   1.271
 1994SOL    HW1 6881   4.000   3.078   1.274
 1994SOL    HW2 6882   3.985   3.217   1.358
 1995SOL     OW 6883   5.588   1.756   4.245
 1995SOL    HW1 6884   5.681   1.769   4.210
 1995SOL    HW2 6885   5.522   1.789   4.177
 1996SOL     OW 6886   5.098   0.594   0.510
 1996SOL    HW1 6887   5.044   0.662   0.461
 1996SOL    HW2 6888   5.192   0.625   0.517
 1997SOL     OW 6889   3.717   1.365   3.885
 1997SOL    HW1 6890   3.693   1.441   3.825
 1997SOL    HW2 6891   3.746   1.287   3.829
 1998SOL     OW 6892   2.893   4.042   1.486
 1998SOL    HW1 6893   2.811   4.050   1.429
 1998SOL    HW2 6894   2.921   4.133   1.516
 1999SOL     OW 6895   0.588   6.673   6.763
 1999SOL    HW1 6896   0.488   6.672   6.774
 1999SOL    HW2 6897   0.611   6.656   6.667
 2000SOL     OW 6898   4.387   4.405   6.258
 2000SOL    HW1 6899   4.384   4.325   6.198
 2000SOL    HW2 6900   4.321   4.473   6.227
 2001SOL     OW 6901   1.501   2.342   0.636
 2001SOL    HW1 6902   1.554   2.262   0.662
 2001SOL    HW2 6903   1.403   2.322   0.643
 2002SOL     OW 6904   6.358   5.456   0.855
 2002SOL    HW1 6905   6.286   5.509   0.811
 2002SOL    HW2 6906   6.425   5.517   0.896
 2003SOL     OW 6907   5.717   5.639   1.705
 2003SOL    HW1 6908   5.660   5.562   1.677
 2003SOL    HW2 6909   5.784   5.608   1.773
 2004SOL     OW 6910   4.159   0.209   3.099
 2004SOL    HW1 6911   4.249   0.247   3.122
 2004SOL    HW2 6912   4.109   0.192   3.184
 2005SOL     OW 6913   1.331   6.931   0.402
 2005SOL    HW1 6914   1.330   7.011   0.341
 2005SOL    HW2 6915   1.422   6.890   0.401
 2006SOL     OW 6916   5.936   6.817   2.401
 2006SOL    HW1 6917   5.941   6.801   2.500
 2006SOL    HW2 6918   6.029   6.820   2.364
 2007SOL     OW 6919   5.666   4.988   6.070
 2007SOL    HW1 6920   5.628   4.897   6.056
 2007SOL    HW2 6921   5.611   5.055   6.021
 2008SOL     OW 6922   1.772   3.395   2.732
 2008SOL    HW1 6923   1.855   3.413   2.679
 2008SOL    HW2 6924   1.780   3.305   2.776
 2009SOL     OW 6925   6.382   0.058   2.795
 2009SOL    HW1 6926   6.306   0.111   2.832
 2009SOL    HW2 6927   6.347   7.018   2.725
 2010SOL     OW 6928   0.205   1.945   1.733
 2010SOL    HW1 6929   0.126   1.906   1.781
 2010SOL    HW2 6930   0.232   1.882   1.660
 2011SOL     OW 6931   1.021   6.932   5.104
 2011SOL    HW1 6932   1.036   6.858   5.039
 2011SOL    HW2 6933   1.109   6.970   5.132
 2012SOL     OW 6934   0.632   2.889   0.823
 2012SOL    HW1 6935   0.728   2.917   0.810
 2012SOL    HW2 6936   0.572   2.953   0.775
 2013SOL     OW 6937   0.508   2.428   2.153
 2013SOL    HW1 6938   0.507   2.405   2.055
 2013SOL    HW2 6939   0.499   2.527   2.164
 2014SOL     OW 6940   3.742   1.595   4.060
 2014SOL    HW1 6941   3.776   1.539   4.136
 2014SOL    HW2 6942   3.746   1.542   3.976
 2015SOL     OW 6943   3.870   6.332   2.296
 2015SOL    HW1 6944   3.835   6.364   2.384
 2015SOL    HW2 6945   3.811   6.259   2.262
 2016SOL     OW 6946   1.804   0.672   5.209
 2016SOL    HW1 6947   1.836   0.581   5.184
 2016SOL    HW2 6948   1.882   0.729   5.232
 2017SOL     OW 6949   3.158   6.238   3.932
 2017SOL    HW1 6950   3.185   6.148   3.899
 2017SOL    HW2 6951   3.065   6.233   3.969
 2018SOL     OW 6952   0.509   0.449   4.460
 2018SOL    HW1 6953   0.548   0.531   4.501
 2018SOL    HW2 6954   0.505   0.459   4.361
 2019SOL     OW 6955   6.725   5.148   6.923
 2019SOL    HW1 6956   6.667   5.120   6.999
 2019SOL    HW2 6957   6.716   5.082   6.848
 2020SOL     OW 6958   1.823   6.602   0.758
 2020SOL    HW1 6959   1.758   6.609   0.834
 2020SOL    HW2 6960   1.878   6.519   0.769
 2021SOL     OW 6961   0.141   5.826   4.463
 2021SOL    HW1 6962   0.066   5.888   4.441
 2021SOL    HW2 6963   0.149   5.756   4.392
 2022SOL     OW 6964   1.489   3.605   4.325
 2022SOL    HW1 6965   1.527   3.567   4.240
 2022SOL    HW2 6966   1.562   3.621   4.391
 2023SOL     OW 6967   6.705   5.953   6.751
 2023SOL    HW1 6968   6.673   6.033   6.700
 2023SOL    HW2 6969   6.658   5.949   6.839
 2024SOL     OW 6970   6.992   5.499   3.839
 2024SOL    HW1 6971   6.937   5.485   3.757
 2024SOL    HW2 6972   7.008   5.411   3.884
 2025SOL     OW 6973   1.777   6.090   4.507
 2025SOL    HW1 6974   1.837   6.095   4.588
 2025SOL    HW2 6975   1.817   6.027   4.440
 2026SOL     OW 6976   1.230   6.900   5.479
 2026SOL    HW1 6977   1.317   6.947   5.496
 2026SOL    HW2 6978   1.240   6.839   5.400
 2027SOL     OW 6979   6.799   5.940   2.610
 2027SOL    HW1 6980   6.807   5.969   2.514
 2027SOL    HW2 6981   6.708   5.904   2.626
 2028SOL     OW 6982   2.789   5.696   4.978
 2028SOL    HW1 6983   2.697   5.723   4.950
 2028SOL    HW2 6984   2.833   5.772   5.026
 2029SOL     OW 6985   6.038   2.638   6.851
 2029SOL    HW1 6986   6.059   2.692   6.933
 2029SOL    HW2 6987   6.068   2.544   6.866
 2030SOL     OW 6988   2.344   6.620   2.856
 2030SOL    HW1 6989   2.306   6.530   2.878
 2030SOL    HW2 6990   2.385   6.660   2.939
 2031SOL     OW 6991   0.429   6.075   5.379
 2031SOL    HW1 6992   0.353   6.141   5.373
 2031SOL    HW2 6993   0.496   6.108   5.446
 2032SOL     OW 6994   2.228   3.009   6.132
 2032SOL    HW1 6995   2.284   3.092   6.145
 2032SOL    HW2 6996   2.286   2.934   6.101
 2033SOL     OW 6997   2.207   1.308   1.068
 2033SOL    HW1 6998   2.177   1.249   0.993
 2033SOL    HW2 6999   2.264   1.382   1.031
 2034SOL     OW 7000   0.478   4.782   4.983
 2034SOL    HW1 7001   0.414   4.858   4.975
 2034SOL    HW2 7002   0.432   4.697   4.961
 2035SOL     OW 7003   5.624   5.706   3.044
 2035SOL    HW1 7004   5.589   5.626   3.093
 2035SOL    HW2 7005   5.558   5.734   2.973
 2036SOL     OW 7006   0.162   4.278   6.459
 2036SOL    HW1 7007   0.208   4.355   6.414
 2036SOL    HW2 7008   0.074   4.308   6.495
 2037SOL     OW 7009   1.188   2.759   6.695
 2037SOL    HW1 7010   1.275   2.766   6.743
 2037SOL    HW2 7011   1.172   2.841   6.641
 2038SOL     OW 7012   1.055   1.257   6.089
 2038SOL    HW1 7013   1.136   1.215   6.130
 2038SOL    HW2 7014   1.043   1.224   5.996
 2039SOL     OW 7015   5.682   5.886   3.379
 2039SOL    HW1 7016   5.721   5.907   3.468
 2039SOL    HW2 7017   5.735   5.931   3.307
 2040SOL     OW 7018   2.558   2.163   0.465
 2040SOL    HW1 7019   2.576   2.081   0.411
 2040SOL    HW2 7020   2.620   2.236   0.437
 2041SOL     OW 7021   2.536   6.591   6.900
 2041SOL    HW1 7022   2.606   6.644   6.851
 2041SOL    HW2 7023   2.554   6.594   6.998
 2042SOL     OW 7024   6.412   0.084   5.958
 2042SOL    HW1 7025   6.388   0.160   6.018
 2042SOL    HW2 7026   6.446   0.007   6.012
 2043SOL     OW 7027   0.609   4.190   0.255
 2043SOL    HW1 7028   0.685   4.210   0.193
 2043SOL    HW2 7029   0.562   4.107   0.224
 2044SOL     OW 7030   4.248   0.413   1.798
 2044SOL    HW1 7031   4.223   0.382   1.706
 2044SOL    HW2 7032   4.315   0.486   1.792
 2045SOL     OW 7033   2.049   5.670   3.853
 2045SOL    HW1 7034   2.125   5.660   3.788
 2045SOL    HW2 7035   1.965   5.692   3.804
 2046SOL     OW 7036   0.719   2.805   5.688
 2046SOL    HW1 7037   0.712   2.757   5.776
 2046SOL    HW2 7038   0.647   2.774   5.627
 2047SOL     OW 7039   6.490   6.739   1.848
 2047SOL    HW1 7040   6.493   6.754   1.947
 2047SOL    HW2 7041   6.401   6.702   1.822
 2048SOL     OW 7042   2.178   0.666   4.090
 2048SOL    HW1 7043   2.230   0.717   4.021
 2048SOL    HW2 7044   2.172   0.721   4.173
 2049SOL     OW 7045   4.595   2.873   5.189
 2049SOL    HW1 7046   4.510   2.916   5.220
 2049SOL    HW2 7047   4.673   2.928   5.219
 2050SOL     OW 7048   0.707   0.848   3.141
 2050SOL    HW1 7049   0.734   0.840   3.046
 2050SOL    HW2 7050   0.614   0.813   3.153
 2051SOL     OW 7051   3.089   6.712   6.835
 2051SOL    HW1 7052   3.133   6.712   6.924
 2051SOL    HW2 7053   3.037   6.626   6.823
 2052SOL     OW 7054   0.527   3.725   1.015
 2052SOL    HW1 7055   0.440   3.728   0.967
 2052SOL    HW2 7056   0.537   3.638   1.063
 2053SOL     OW 7057   6.074   4.822   2.516
 2053SOL    HW1 7058   6.006   4.765   2.470
 2053SOL    HW2 7059   6.027   4.893   2.569
 2054SOL     OW 7060   3.026   3.930   2.861
 2054SOL    HW1 7061   2.992   3.858   2.802
 2054SOL    HW2 7062   3.039   3.894   2.954
 2055SOL     OW 7063   4.001   2.662   5.569
 2055SOL    HW1 7064   4.017   2.663   5.667
 2055SOL    HW2 7065   4.087   2.680   5.521
 2056SOL     OW 7066   2.834   4.652   1.667
 2056SOL    HW1 7067   2.846   4.654   1.766
 2056SOL    HW2 7068   2.880   4.571   1.630
 2057SOL     OW 7069   5.612   2.947   4.051
 2057SOL    HW1 7070   5.649   2.868   4.001
 2057SOL    HW2 7071   5.537   2.987   3.999
 2058SOL     OW 7072   5.724   0.008   3.610
 2058SOL    HW1 7073   5.781   0.056   3.544
 2058SOL    HW2 7074   5.631   7.023   3.574
 2059SOL     OW 7075   2.320   2.111   5.422
 2059SOL    HW1 7076   2.364   2.043   5.363
 2059SOL    HW2 7077   2.383   2.138   5.495
 2060SOL     OW 7078   1.763   2.327   6.643
 2060SOL    HW1 7079   1.665   2.335   6.657
 2060SOL    HW2 7080   1.786   2.347   6.548
 2061SOL     OW 7081   2.020   1.932   3.757
 2061SOL    HW1 7082   2.093   1.999   3.772
 2061SOL    HW2 7083   2.051   1.841   3.787
 2062SOL     OW 7084   5.837   4.989   4.478
 2062SOL    HW1 7085   5.884   5.021   4.395
 2062SOL    HW2 7086   5.747   4.953   4.454
 2063SOL     OW 7087   1.348   2.025   4.035
 2063SOL    HW1 7088   1.265   1.994   4.082
 2063SOL    HW2 7089   1.429   1.986   4.079
 2064SOL     OW 7090   0.561   4.053   4.551
 2064SOL    HW1 7091   0.552   3.991   4.472
 2064SOL    HW2 7092   0.658   4.065   4.573
 2065SOL     OW 7093   4.021   3.544   5.725
 2065SOL    HW1 7094   4.069   3.456   5.719
 2065SOL    HW2 7095   3.924   3.527   5.740
 2066SOL     OW 7096   1.414   2.573   4.912
 2066SOL    HW1 7097   1.499   2.611   4.948
 2066SOL    HW2 7098   1.386   2.494   4.967
 2067SOL     OW 7099   6.554   4.498   2.391
 2067SOL    HW1 7100   6.563   4.400   2.410
 2067SOL    HW2 7101   6.459   4.518   2.368
 2068SOL     OW 7102   3.950   6.180   4.300
 2068SOL    HW1 7103   3.954   6.159   4.202
 2068SOL    HW2 7104   3.903   6.267   4.314
 2069SOL     OW 7105   6.370   1.001   3.748
 2069SOL    HW1 7106   6.459   0.972   3.784
 2069SOL    HW2 7107   6.317   1.044   3.822
 2070SOL     OW 7108   1.180   4.821   1.612
 2070SOL    HW1 7109   1.245   4.747   1.597
 2070SOL    HW2 7110   1.180   4.883   1.533
 2071SOL     OW 7111   6.807   2.544   4.925
 2071SOL    HW1 7112   6.875   2.596   4.977
 2071SOL    HW2 7113   6.852   2.471   4.874
 2072SOL     OW 7114   5.706   3.721   5.123
 2072SOL    HW1 7115   5.631   3.775   5.160
 2072SOL    HW2 7116   5.686   3.696   5.028
 2073SOL     OW 7117   3.316   5.372   6.548
 2073SOL    HW1 7118   3.344   5.311   6.474
 2073SOL    HW2 7119   3.361   5.342   6.633
 2074SOL     OW 7120   3.173   4.490   5.497
 2074SOL    HW1 7121   3.081   4.527   5.481
 2074SOL    HW2 7122   3.225   4.553   5.554
 2075SOL     OW 7123   5.438   2.285   1.652
 2075SOL    HW1 7124   5.441   2.347   1.730
 2075SOL    HW2 7125   5.382   2.205   1.674
 2076SOL     OW 7126   6.809   6.433   3.946
 2076SOL    HW1 7127   6.907   6.450   3.961
 2076SOL    HW2 7128   6.756   6.489   4.009
 2077SOL     OW 7129   6.687   4.536   0.850
 2077SOL    HW1 7130   6.723   4.484   0.773
 2077SOL    HW2 7131   6.744   4.617   0.865
 2078SOL     OW 7132   1.004   2.793   6.446
 2078SOL    HW1 7133   0.955   2.848   6.514
 2078SOL    HW2 7134   0.988   2.696   6.464
 2079SOL     OW 7135   5.461   1.261   2.724
 2079SOL    HW1 7136   5.544   1.245   2.778
 2079SOL    HW2 7137   5.475   1.226   2.631
 2080SOL     OW 7138   2.481   3.517   6.255
 2080SOL    HW1 7139   2.403   3.468   6.293
 2080SOL    HW2 7140   2.486   3.499   6.156
 2081SOL     OW 7141   0.288   6.064   2.534
 2081SOL    HW1 7142   0.363   6.010   2.573
 2081SOL    HW2 7143   0.315   6.160   2.530
 2082SOL     OW 7144   0.111   5.753   3.919
 2082SOL    HW1 7145   0.072   5.673   3.875
 2082SOL    HW2 7146   0.095   5.834   3.862
 2083SOL     OW 7147   0.387   5.750   4.246
 2083SOL    HW1 7148   0.322   5.778   4.176
 2083SOL    HW2 7149   0.472   5.802   4.237
 2084SOL     OW 7150   6.600   2.633   1.238
 2084SOL    HW1 7151   6.695   2.653   1.263
 2084SOL    HW2 7152   6.538   2.681   1.301
 2085SOL     OW 7153   6.167   5.615   0.456
 2085SOL    HW1 7154   6.192   5.521   0.431
 2085SOL    HW2 7155   6.230   5.679   0.412
 2086SOL     OW 7156   5.880   0.101   6.205
 2086SOL    HW1 7157   5.876   0.093   6.305
 2086SOL    HW2 7158   5.909   0.193   6.180
 2087SOL     OW 7159   4.873   1.657   6.798
 2087SOL    HW1 7160   4.836   1.600   6.871
 2087SOL    HW2 7161   4.894   1.600   6.718
 2088SOL     OW 7162   0.301   4.353   5.985
 2088SOL    HW1 7163   0.202   4.364   5.997
 2088SOL    HW2 7164   0.325   4.256   5.991
 2089SOL     OW 7165   2.671   4.448   6.148
 2089SOL    HW1 7166   2.728   4.484   6.222
 2089SOL    HW2 7167   2.631   4.524   6.097
 2090SOL     OW 7168   4.988   2.608   6.950
 2090SOL    HW1 7169   4.972   2.510   6.945
 2090SOL    HW2 7170   5.051   2.636   6.878
 2091SOL     OW 7171   5.161   6.386   1.075
 2091SOL    HW1 7172   5.084   6.330   1.044
 2091SOL    HW2 7173   5.201   6.433   0.996
 2092SOL     OW 7174   3.565   3.358   1.939
 2092SOL    HW1 7175   3.537   3.318   1.852
 2092SOL    HW2 7176   3.504   3.325   2.011
 2093SOL     OW 7177   4.609   0.264   0.547
 2093SOL    HW1 7178   4.596   0.165   0.538
 2093SOL    HW2 7179   4.644   0.284   0.638
 2094SOL     OW 7180   5.350   2.112   1.221
 2094SOL    HW1 7181   5.272   2.085   1.166
 2094SOL    HW2 7182   5.424   2.144   1.161
 2095SOL     OW 7183   5.163   4.993   4.228
 2095SOL    HW1 7184   5.151   4.985   4.129
 2095SOL    HW2 7185   5.115   4.918   4.273
 2096SOL     OW 7186   4.510   6.925   2.736
 2096SOL    HW1 7187   4.410   6.929   2.732
 2096SOL    HW2 7188   4.548   6.969   2.655
 2097SOL     OW 7189   1.067   6.059   5.615
 2097SOL    HW1 7190   1.023   6.037   5.528
 2097SOL    HW2 7191   1.003   6.041   5.690
 2098SOL     OW 7192   2.208   6.991   3.514
 2098SOL    HW1 7193   2.185   6.912   3.457
 2098SOL    HW2 7194   2.245   6.960   3.601
 2099SOL     OW 7195   4.428   1.472   7.013
 2099SOL    HW1 7196   4.467   1.563   0.006
 2099SOL    HW2 7197   4.499   1.403   0.004
 2100SOL     OW 7198   4.867   0.763   0.163
 2100SOL    HW1 7199   4.888   0.667   0.147
 2100SOL    HW2 7200   4.947   0.819   0.143
 2101SOL     OW 7201   1.902   0.432   2.481
 2101SOL    HW1 7202   1.917   0.334   2.494
 2101SOL    HW2 7203   1.873   0.450   2.387
 2102SOL     OW 7204   3.725   2.486   1.700
 2102SOL    HW1 7205   3.638   2.523   1.668
 2102SOL    HW2 7206   3.709   2.418   1.771
 2103SOL     OW 7207   1.539   0.127   0.791
 2103SOL    HW1 7208   1.564   0.106   0.885
 2103SOL    HW2 7209   1.440   0.142   0.785
 2104SOL     OW 7210   1.676   4.073   2.565
 2104SOL    HW1 7211   1.581   4.049   2.588
 2104SOL    HW2 7212   1.678   4.165   2.526
 2105SOL     OW 7213   5.250   7.000   5.019
 2105SOL    HW1 7214   5.317   0.019   4.958
 2105SOL    HW2 7215   5.273   6.904   5.033
 2106SOL     OW 7216   3.513   2.222   1.360
 2106SOL    HW1 7217   3.607   2.209   1.392
 2106SOL    HW2 7218   3.455   2.149   1.396
 2107SOL     OW 7219   4.857   4.271   4.612
 2107SOL    HW1 7220   4.796   4.315   4.678
 2107SOL    HW2 7221   4.832   4.174   4.603
 2108SOL     OW 7222   4.444   0.005   4.910
 2108SOL    HW1 7223   4.539   0.003   4.941
 2108SOL    HW2 7224   4.439   6.999   4.815
 2109SOL     OW 7225   2.583   5.738   1.778
 2109SOL    HW1 7226   2.553   5.834   1.781
 2109SOL    HW2 7227   2.673   5.733   1.735
 2110SOL     OW 7228   3.549   5.806   6.783
 2110SOL    HW1 7229   3.534   5.792   6.685
 2110SOL    HW2 7230   3.543   5.718   6.830
 2111SOL     OW 7231   0.953   2.589   6.784
 2111SOL    HW1 7232   0.969   2.683   6.813
 2111SOL    HW2 7233   0.970   2.581   6.686
 2112SOL     OW 7234   0.963   0.291   6.631
 2112SOL    HW1 7235   1.028   0.280   6.706
 2112SOL    HW2 7236   0.919   0.203   6.611
 2113SOL     OW 7237   6.724   1.802   4.846
 2113SOL    HW1 7238   6.687   1.785   4.937
 2113SOL    HW2 7239   6.799   1.868   4.852
 2114SOL     OW 7240   2.591   1.005   5.283
 2114SOL    HW1 7241   2.565   0.945   5.208
 2114SOL    HW2 7242   2.563   1.099   5.262
 2115SOL     OW 7243   0.158   6.661   3.454
 2115SOL    HW1 7244   0.115   6.740   3.410
 2115SOL    HW2 7245   0.148   6.669   3.553
 2116SOL     OW 7246   2.095   1.287   6.676
 2116SOL    HW1 7247   2.186   1.275   6.638
 2116SOL    HW2 7248   2.084   1.382   6.706
 2117SOL     OW 7249   6.181   2.528   2.475
 2117SOL    HW1 7250   6.162   2.598   2.407
 2117SOL    HW2 7251   6.271   2.546   2.516
 2118SOL     OW 7252   0.274   3.095   2.483
 2118SOL    HW1 7253   0.239   3.122   2.393
 2118SOL    HW2 7254   0.201   3.048   2.533
 2119SOL     OW 7255   0.993   3.311   0.369
 2119SOL    HW1 7256   1.069   3.299   0.432
 2119SOL    HW2 7257   0.941   3.226   0.363
 2120SOL     OW 7258   5.561   2.042   0.410
 2120SOL    HW1 7259   5.602   1.961   0.451
 2120SOL    HW2 7260   5.539   2.108   0.481
 2121SOL     OW 7261   2.630   6.615   1.436
 2121SOL    HW1 7262   2.636   6.696   1.494
 2121SOL    HW2 7263   2.543   6.568   1.453
 2122SOL     OW 7264   6.641   0.640   4.801
 2122SOL    HW1 7265   6.609   0.735   4.802
 2122SOL    HW2 7266   6.590   0.587   4.868
 2123SOL     OW 7267   1.051   4.646   3.342
 2123SOL    HW1 7268   1.047   4.703   3.424
 2123SOL    HW2 7269   0.959   4.630   3.308
 2124SOL     OW 7270   4.785   3.232   6.381
 2124SOL    HW1 7271   4.731   3.316   6.369
 2124SOL    HW2 7272   4.751   3.161   6.319
 2125SOL     OW 7273   0.939   5.818   4.573
 2125SOL    HW1 7274   1.007   5.815   4.499
 2125SOL    HW2 7275   0.948   5.736   4.630
 2126SOL     OW 7276   2.916   4.468   0.754
 2126SOL    HW1 7277   2.913   4.529   0.675
 2126SOL    HW2 7278   2.982   4.502   0.820
 2127SOL     OW 7279   1.100   3.568   4.464
 2127SOL    HW1 7280   1.183   3.591   4.516
 2127SOL    HW2 7281   1.020   3.581   4.523
 2128SOL     OW 7282   4.963   3.297   1.663
 2128SOL    HW1 7283   4.985   3.336   1.752
 2128SOL    HW2 7284   4.877   3.246   1.669
 2129SOL     OW 7285   5.566   4.054   3.800
 2129SOL    HW1 7286   5.527   4.072   3.890
 2129SOL    HW2 7287   5.532   4.122   3.735
 2130SOL     OW 7288   2.174   0.681   2.191
 2130SOL    HW1 7289   2.094   0.735   2.165
 2130SOL    HW2 7290   2.162   0.645   2.283
 2131SOL     OW 7291   5.996   0.577   6.730
 2131SOL    HW1 7292   5.983   0.504   6.797
 2131SOL    HW2 7293   5.925   0.646   6.742
 2132SOL     OW 7294   2.376   2.749   0.399
 2132SOL    HW1 7295   2.314   2.716   0.470
 2132SOL    HW2 7296   2.322   2.785   0.322
 2133SOL     OW 7297   4.184   2.398   1.757
 2133SOL    HW1 7298   4.188   2.314   1.811
 2133SOL    HW2 7299   4.271   2.411   1.709
 2134SOL     OW 7300   2.162   6.953   5.803
 2134SOL    HW1 7301   2.146   6.859   5.834
 2134SOL    HW2 7302   2.133   7.017   5.875
 2135SOL     OW 7303   0.984   5.981   4.290
 2135SOL    HW1 7304   0.967   6.041   4.211
 2135SOL    HW2 7305   0.964   6.031   4.374
 2136SOL     OW 7306   1.100   5.041   3.349
 2136SOL    HW1 7307   1.019   5.072   3.398
 2136SOL    HW2 7308   1.075   4.973   3.281
 2137SOL     OW 7309   0.121   0.213   4.693
 2137SOL    HW1 7310   0.210   0.226   4.736
 2137SOL    HW2 7311   0.057   0.173   4.758
 2138SOL     OW 7312   1.314   2.417   6.282
 2138SOL    HW1 7313   1.305   2.469   6.366
 2138SOL    HW2 7314   1.237   2.436   6.221
 2139SOL     OW 7315   2.897   6.776   4.625
 2139SOL    HW1 7316   2.954   6.844   4.672
 2139SOL    HW2 7317   2.915   6.686   4.665
 2140SOL     OW 7318   1.548   5.747   3.683
 2140SOL    HW1 7319   1.518   5.654   3.706
 2140SOL    HW2 7320   1.470   5.798   3.647
 2141SOL     OW 7321   6.640   1.807   6.428
 2141SOL    HW1 7322   6.656   1.721   6.381
 2141SOL    HW2 7323   6.721   1.866   6.418
 2142SOL     OW 7324   3.871   1.104   3.717
 2142SOL    HW1 7325   3.943   1.127   3.652
 2142SOL    HW2 7326   3.783   1.103   3.670
 2143SOL     OW 7327   2.979   5.835   0.293
 2143SOL    HW1 7328   3.075   5.816   0.274
 2143SOL    HW2 7329   2.933   5.751   0.321
 2144SOL     OW 7330   1.362   1.073   1.787
 2144SOL    HW1 7331   1.454   1.049   1.756
 2144SOL    HW2 7332   1.351   1.172   1.789
 2145SOL     OW 7333   2.798   5.546   2.962
 2145SOL    HW1 7334   2.805   5.499   3.050
 2145SOL    HW2 7335   2.888   5.547   2.919
 2146SOL     OW 7336   3.055   2.537   0.788
 2146SOL    HW1 7337   3.003   2.582   0.860
 2146SOL    HW2 7338   3.013   2.449   0.766
 2147SOL     OW 7339   0.204   0.605   4.696
 2147SOL    HW1 7340   0.143   0.684   4.699
 2147SOL    HW2 7341   0.158   0.527   4.740
 2148SOL     OW 7342   6.084   3.698   4.252
 2148SOL    HW1 7343   6.114   3.608   4.222
 2148SOL    HW2 7344   6.163   3.760   4.257
 2149SOL     OW 7345   3.140   0.393   3.096
 2149SOL    HW1 7346   3.210   0.340   3.144
 2149SOL    HW2 7347   3.052   0.383   3.142
 2150SOL     OW 7348   5.064   0.071   3.095
 2150SOL    HW1 7349   5.031   7.023   3.033
 2150SOL    HW2 7350   5.045   0.161   3.056
 2151SOL     OW 7351   4.671   4.729   6.402
 2151SOL    HW1 7352   4.583   4.770   6.428
 2151SOL    HW2 7353   4.658   4.630   6.388
 2152SOL     OW 7354   0.082   6.752   2.336
 2152SOL    HW1 7355   0.156   6.819   2.327
 2152SOL    HW2 7356   0.007   6.777   2.274
 2153SOL     OW 7357   4.604   1.808   3.620
 2153SOL    HW1 7358   4.557   1.728   3.657
 2153SOL    HW2 7359   4.605   1.803   3.520
 2154SOL     OW 7360   3.448   6.545   5.185
 2154SOL    HW1 7361   3.507   6.467   5.204
 2154SOL    HW2 7362   3.403   6.533   5.096
 2155SOL     OW 7363   5.858   3.442   0.182
 2155SOL    HW1 7364   5.795   3.426   0.106
 2155SOL    HW2 7365   5.807   3.455   0.267
 2156SOL     OW 7366   6.757   0.220   2.367
 2156SOL    HW1 7367   6.763   0.121   2.375
 2156SOL    HW2 7368   6.693   0.256   2.435
 2157SOL     OW 7369   5.781   1.070   3.996
 2157SOL    HW1 7370   5.816   1.164   3.994
 2157SOL    HW2 7371   5.849   1.008   3.957
 2158SOL     OW 7372   4.608   0.215   3.841
 2158SOL    HW1 7373   4.590   0.117   3.848
 2158SOL    HW2 7374   4.617   0.254   3.932
 2159SOL     OW 7375   2.830   0.335   5.544
 2159SOL    HW1 7376   2.811   0.286   5.458
 2159SOL    HW2 7377   2.790   0.284   5.620
 2160SOL     OW 7378   2.657   3.180   1.062
 2160SOL    HW1 7379   2.560   3.170   1.041
 2160SOL    HW2 7380   2.688   3.270   1.033
 2161SOL     OW 7381   5.020   2.793   3.800
 2161SOL    HW1 7382   4.958   2.778   3.723
 2161SOL    HW2 7383   4.997   2.880   3.844
 2162SOL     OW 7384   2.558   1.479   1.775
 2162SOL    HW1 7385   2.518   1.393   1.747
 2162SOL    HW2 7386   2.515   1.510   1.860
 2163SOL     OW 7387   3.011   1.795   1.139
 2163SOL    HW1 7388   3.087   1.730   1.142
 2163SOL    HW2 7389   2.925   1.745   1.145
 2164SOL     OW 7390   6.975   0.778   1.332
 2164SOL    HW1 7391   6.992   0.728   1.416
 2164SOL    HW2 7392   7.019   0.868   1.336
 2165SOL     OW 7393   2.964   0.072   1.791
 2165SOL    HW1 7394   3.044   0.012   1.791
 2165SOL    HW2 7395   2.972   0.139   1.718
 2166SOL     OW 7396   5.362   2.142   5.280
 2166SOL    HW1 7397   5.410   2.215   5.331
 2166SOL    HW2 7398   5.427   2.097   5.219
 2167SOL     OW 7399   3.194   1.045   0.922
 2167SOL    HW1 7400   3.167   0.960   0.877
 2167SOL    HW2 7401   3.247   1.101   0.859
 2168SOL     OW 7402   6.011   6.358   4.486
 2168SOL    HW1 7403   6.033   6.370   4.583
 2168SOL    HW2 7404   5.973   6.267   4.472
 2169SOL     OW 7405   5.421   1.282   5.989
 2169SOL    HW1 7406   5.449   1.210   6.052
 2169SOL    HW2 7407   5.335   1.322   6.020
 2170SOL     OW 7408   5.130   4.628   4.200
 2170SOL    HW1 7409   5.081   4.690   4.261
 2170SOL    HW2 7410   5.200   4.679   4.150
 2171SOL     OW 7411   0.070   3.807   0.301
 2171SOL    HW1 7412   7.005   3.840   0.269
 2171SOL    HW2 7413   0.075   3.815   0.400
 2172SOL     OW 7414   2.756   0.636   2.062
 2172SOL    HW1 7415   2.738   0.547   2.020
 2172SOL    HW2 7416   2.696   0.705   2.022
 2173SOL     OW 7417   4.512   2.468   4.884
 2173SOL    HW1 7418   4.536   2.544   4.944
 2173SOL    HW2 7419   4.413   2.467   4.869
 2174SOL     OW 7420   1.102   5.482   4.386
 2174SOL    HW1 7421   1.175   5.416   4.367
 2174SOL    HW2 7422   1.140   5.574   4.394
 2175SOL     OW 7423   1.644   6.262   5.721
 2175SOL    HW1 7424   1.685   6.170   5.724
 2175SOL    HW2 7425   1.577   6.271   5.794
 2176SOL     OW 7426   2.002   2.270   2.623
 2176SOL    HW1 7427   2.095   2.242   2.648
 2176SOL    HW2 7428   2.007   2.344   2.556
 2177SOL     OW 7429   1.240   1.897   1.204
 2177SOL    HW1 7430   1.307   1.948   1.260
 2177SOL    HW2 7431   1.196   1.828   1.261
 2178SOL     OW 7432   6.411   6.340   0.593
 2178SOL    HW1 7433   6.377   6.401   0.521
 2178SOL    HW2 7434   6.469   6.270   0.552
 2179SOL     OW 7435   1.840   4.227   3.685
 2179SOL    HW1 7436   1.818   4.238   3.588
 2179SOL    HW2 7437   1.805   4.138   3.716
 2180SOL     OW 7438   3.409   2.520   1.697
 2180SOL    HW1 7439   3.419   2.614   1.730
 2180SOL    HW2 7440   3.312   2.500   1.685
 2181SOL     OW 7441   3.664   6.840   1.376
 2181SOL    HW1 7442   3.685   6.929   1.417
 2181SOL    HW2 7443   3.687   6.843   1.279
 2182SOL     OW 7444   4.819   2.812   0.800
 2182SOL    HW1 7445   4.760   2.832   0.879
 2182SOL    HW2 7446   4.833   2.714   0.794
 2183SOL     OW 7447   3.609   2.233   1.114
 2183SOL    HW1 7448   3.708   2.249   1.124
 2183SOL    HW2 7449   3.570   2.212   1.204
 2184SOL     OW 7450   5.404   3.360   6.488
 2184SOL    HW1 7451   5.482   3.346   6.549
 2184SOL    HW2 7452   5.337   3.286   6.503
 2185SOL     OW 7453   6.735   6.975   2.345
 2185SOL    HW1 7454   6.797   6.924   2.285
 2185SOL    HW2 7455   6.665   6.914   2.382
 2186SOL     OW 7456   0.554   4.143   3.353
 2186SOL    HW1 7457   0.530   4.074   3.285
 2186SOL    HW2 7458   0.471   4.191   3.383
 2187SOL     OW 7459   6.589   1.449   0.287
 2187SOL    HW1 7460   6.539   1.362   0.290
 2187SOL    HW2 7461   6.636   1.463   0.374
 2188SOL     OW 7462   4.963   1.643   3.922
 2188SOL    HW1 7463   4.889   1.584   3.955
 2188SOL    HW2 7464   4.941   1.678   3.831
 2189SOL     OW 7465   3.321   0.133   0.140
 2189SOL    HW1 7466   3.385   0.188   0.087
 2189SOL    HW2 7467   3.234   0.126   0.092
 2190SOL     OW 7468   5.168   3.199   0.881
 2190SOL    HW1 7469   5.129   3.157   0.799
 2190SOL    HW2 7470   5.166   3.132   0.956
 2191SOL     OW 7471   2.974   1.290   0.055
 2191SOL    HW1 7472   3.035   1.308   7.001
 2191SOL    HW2 7473   2.889   1.342   0.043
 2192SOL     OW 7474   4.309   5.635   2.373
 2192SOL    HW1 7475   4.297   5.687   2.288
 2192SOL    HW2 7476   4.396   5.587   2.371
 2193SOL     OW 7477   6.789   6.115   4.418
 2193SOL    HW1 7478   6.792   6.188   4.350
 2193SOL    HW2 7479   6.880   6.077   4.432
 2194SOL     OW 7480   2.744   6.830   1.623
 2194SOL    HW1 7481   2.842   6.845   1.610
 2194SOL    HW2 7482   2.704   6.908   1.672
 2195SOL     OW 7483   0.627   4.398   1.942
 2195SOL    HW1 7484   0.709   4.453   1.955
 2195SOL    HW2 7485   0.652   4.303   1.927
 2196SOL     OW 7486   4.458   3.824   0.523
 2196SOL    HW1 7487   4.527   3.875   0.471
 2196SOL    HW2 7488   4.492   3.806   0.615
 2197SOL     OW 7489   4.194   3.435   0.215
 2197SOL    HW1 7490   4.293   3.422   0.218
 2197SOL    HW2 7491   4.156   3.378   0.142
 2198SOL     OW 7492   6.808   4.440   0.256
 2198SOL    HW1 7493   6.810   4.483   0.346
 2198SOL    HW2 7494   6.832   4.508   0.186
 2199SOL     OW 7495   4.109   1.203   3.053
 2199SOL    HW1 7496   4.110   1.120   3.109
 2199SOL    HW2 7497   4.081   1.281   3.109
 2200SOL     OW 7498   3.065   6.815   4.220
 2200SOL    HW1 7499   3.105   6.726   4.201
 2200SOL    HW2 7500   3.074   6.874   4.140
 2201SOL     OW 7501   4.673   4.438   4.104
 2201SOL    HW1 7502   4.633   4.432   4.195
 2201SOL    HW2 7503   4.751   4.501   4.105
 2202SOL     OW 7504   4.604   5.277   3.595
 2202SOL    HW1 7505   4.515   5.323   3.592
 2202SOL    HW2 7506   4.663   5.313   3.523
 2203SOL     OW 7507   3.094   2.052   2.664
 2203SOL    HW1 7508   3.171   2.059   2.600
 2203SOL    HW2 7509   3.130   2.046   2.757
 2204SOL     OW 7510   2.777   1.981   0.780
 2204SOL    HW1 7511   2.811   2.046   0.847
 2204SOL    HW2 7512   2.804   2.010   0.688
 2205SOL     OW 7513   3.305   1.018   2.463
 2205SOL    HW1 7514   3.295   0.964   2.546
 2205SOL    HW2 7515   3.365   1.097   2.481
 2206SOL     OW 7516   1.900   3.614   0.556
 2206SOL    HW1 7517   1.912   3.677   0.479
 2206SOL    HW2 7518   1.842   3.538   0.527
 2207SOL     OW 7519   6.444   4.740   5.065
 2207SOL    HW1 7520   6.463   4.692   4.980
 2207SOL    HW2 7521   6.420   4.674   5.136
 2208SOL     OW 7522   6.704   5.458   1.855
 2208SOL    HW1 7523   6.787   5.511   1.870
 2208SOL    HW2 7524   6.719   5.392   1.782
 2209SOL     OW 7525   7.014   6.376   1.645
 2209SOL    HW1 7526   0.048   6.387   1.563
 2209SOL    HW2 7527   6.936   6.437   1.639
 2210SOL     OW 7528   1.801   4.989   4.163
 2210SOL    HW1 7529   1.889   4.945   4.145
 2210SOL    HW2 7530   1.788   5.064   4.099
 2211SOL     OW 7531   0.219   1.856   5.038
 2211SOL    HW1 7532   0.227   1.776   5.098
 2211SOL    HW2 7533   0.159   1.834   4.961
 2212SOL     OW 7534   2.755   6.799   5.868
 2212SOL    HW1 7535   2.780   6.720   5.924
 2212SOL    HW2 7536   2.656   6.800   5.853
 2213SOL     OW 7537   4.951   0.264   2.928
 2213SOL    HW1 7538   5.041   0.256   2.886
 2213SOL    HW2 7539   4.881   0.264   2.857
 2214SOL     OW 7540   3.832   0.175   5.222
 2214SOL    HW1 7541   3.741   0.167   5.262
 2214SOL    HW2 7542   3.881   0.089   5.235
 2215SOL     OW 7543   5.772   2.281   5.158
 2215SOL    HW1 7544   5.702   2.300   5.089
 2215SOL    HW2 7545   5.728   2.258   5.245
 2216SOL     OW 7546   3.363   1.650   2.769
 2216SOL    HW1 7547   3.420   1.697   2.702
 2216SOL    HW2 7548   3.373   1.551   2.757
 2217SOL     OW 7549   3.788   0.553   1.639
 2217SOL    HW1 7550   3.733   0.618   1.587
 2217SOL    HW2 7551   3.869   0.527   1.586
 2218SOL     OW 7552   0.720   0.452   2.539
 2218SOL    HW1 7553   0.733   0.525   2.472
 2218SOL    HW2 7554   0.639   0.472   2.595
 2219SOL     OW 7555   2.699   2.054   3.233
 2219SOL    HW1 7556   2.747   2.142   3.228
 2219SOL    HW2 7557   2.766   1.980   3.231
 2220SOL     OW 7558   1.124   0.433   1.976
 2220SOL    HW1 7559   1.077   0.486   1.906
 2220SOL    HW2 7560   1.127   0.337   1.949
 2221SOL     OW 7561   0.527   0.123   5.679
 2221SOL    HW1 7562   0.523   0.214   5.720
 2221SOL    HW2 7563   0.592   0.124   5.603
 2222SOL     OW 7564   6.461   4.876   3.809
 2222SOL    HW1 7565   6.449   4.967   3.770
 2222SOL    HW2 7566   6.457   4.881   3.908
 2223SOL     OW 7567   6.797   6.375   1.340
 2223SOL    HW1 7568   6.827   6.459   1.384
 2223SOL    HW2 7569   6.875   6.328   1.298
 2224SOL     OW 7570   0.755   5.468   0.517
 2224SOL    HW1 7571   0.759   5.450   0.419
 2224SOL    HW2 7572   0.783   5.386   0.567
 2225SOL     OW 7573   0.481   3.775   0.346
 2225SOL    HW1 7574   0.471   3.684   0.386
 2225SOL    HW2 7575   0.485   3.768   0.246
 2226SOL     OW 7576   3.859   3.486   2.385
 2226SOL    HW1 7577   3.886   3.430   2.306
 2226SOL    HW2 7578   3.881   3.581   2.366
 2227SOL     OW 7579   0.812   2.192   4.220
 2227SOL    HW1 7580   0.783   2.162   4.311
 2227SOL    HW2 7581   0.852   2.115   4.171
 2228SOL     OW 7582   2.715   4.861   3.875
 2228SOL    HW1 7583   2.707   4.777   3.929
 2228SOL    HW2 7584   2.710   4.840   3.778
 2229SOL     OW 7585   6.331   6.350   3.033
 2229SOL    HW1 7586   6.282   6.416   3.090
 2229SOL    HW2 7587   6.425   6.382   3.017
 2230SOL     OW 7588   1.981   5.530   2.379
 2230SOL    HW1 7589   2.064   5.537   2.435
 2230SOL    HW2 7590   1.905   5.499   2.437
 2231SOL     OW 7591   2.335   5.669   1.157
 2231SOL    HW1 7592   2.260   5.648   1.221
 2231SOL    HW2 7593   2.400   5.593   1.157
 2232SOL     OW 7594   5.443   2.237   3.693
 2232SOL    HW1 7595   5.512   2.195   3.752
 2232SOL    HW2 7596   5.378   2.167   3.663
 2233SOL     OW 7597   3.368   1.416   0.044
 2233SOL    HW1 7598   3.356   1.318   0.030
 2233SOL    HW2 7599   3.280   1.462   0.037
 2234SOL     OW 7600   3.836   2.596   1.272
 2234SOL    HW1 7601   3.743   2.628   1.289
 2234SOL    HW2 7602   3.890   2.669   1.231
 2235SOL     OW 7603   1.978   1.809   2.578
 2235SOL    HW1 7604   2.049   1.821   2.509
 2235SOL    HW2 7605   1.928   1.724   2.559
 2236SOL     OW 7606   1.042   4.646   5.393
 2236SOL    HW1 7607   0.947   4.664   5.418
 2236SOL    HW2 7608   1.100   4.649   5.475
 2237SOL     OW 7609   6.788   2.809   4.502
 2237SOL    HW1 7610   6.696   2.833   4.470
 2237SOL    HW2 7611   6.800   2.841   4.596
 2238SOL     OW 7612   5.324   6.478   0.182
 2238SOL    HW1 7613   5.356   6.413   0.251
 2238SOL    HW2 7614   5.397   6.544   0.163
 2239SOL     OW 7615   5.999   5.839   1.985
 2239SOL    HW1 7616   6.065   5.816   1.913
 2239SOL    HW2 7617   6.018   5.782   2.066
 2240SOL     OW 7618   5.931   3.655   1.688
 2240SOL    HW1 7619   6.028   3.652   1.715
 2240SOL    HW2 7620   5.902   3.564   1.658
 2241SOL     OW 7621   1.405   0.371   3.942
 2241SOL    HW1 7622   1.482   0.390   3.882
 2241SOL    HW2 7623   1.426   0.404   4.034
 2242SOL     OW 7624   2.994   1.507   3.136
 2242SOL    HW1 7625   2.953   1.541   3.052
 2242SOL    HW2 7626   3.091   1.491   3.122
 2243SOL     OW 7627   2.433   0.079   4.850
 2243SOL    HW1 7628   2.367   0.025   4.903
 2243SOL    HW2 7629   2.386   0.154   4.805
 2244SOL     OW 7630   4.132   0.839   5.153
 2244SOL    HW1 7631   4.116   0.844   5.251
 2244SOL    HW2 7632   4.163   0.747   5.128
 2245SOL     OW 7633   0.303   2.213   2.274
 2245SOL    HW1 7634   0.362   2.273   2.328
 2245SOL    HW2 7635   0.244   2.160   2.335
 2246SOL     OW 7636   0.633   4.395   5.554
 2246SOL    HW1 7637   0.716   4.342   5.538
 2246SOL    HW2 7638   0.599   4.429   5.466
 2247SOL     OW 7639   1.702   1.225   4.566
 2247SOL    HW1 7640   1.706   1.155   4.495
 2247SOL    HW2 7641   1.632   1.292   4.543
 2248SOL     OW 7642   5.576   4.186   5.815
 2248SOL    HW1 7643   5.624   4.257   5.867
 2248SOL    HW2 7644   5.637   4.146   5.747
 2249SOL     OW 7645   4.712   6.062   5.508
 2249SOL    HW1 7646   4.716   6.133   5.437
 2249SOL    HW2 7647   4.786   5.997   5.494
 2250SOL     OW 7648   4.585   5.062   1.732
 2250SOL    HW1 7649   4.514   5.092   1.670
 2250SOL    HW2 7650   4.547   4.995   1.797
 2251SOL     OW 7651   0.659   0.889   5.994
 2251SOL    HW1 7652   0.699   0.905   6.084
 2251SOL    HW2 7653   0.717   0.930   5.923
 2252SOL     OW 7654   3.545   0.934   6.739
 2252SOL    HW1 7655   3.474   0.971   6.679
 2252SOL    HW2 7656   3.504   0.907   6.826
 2253SOL     OW 7657   0.793   4.222   6.985
 2253SOL    HW1 7658   0.731   4.163   6.932
 2253SOL    HW2 7659   0.780   4.317   6.957
 2254SOL     OW 7660   1.987   5.048   6.547
 2254SOL    HW1 7661   2.084   5.055   6.526
 2254SOL    HW2 7662   1.937   5.118   6.496
 2255SOL     OW 7663   6.543   3.547   6.529
 2255SOL    HW1 7664   6.629   3.542   6.477
 2255SOL    HW2 7665   6.539   3.634   6.578
 2256SOL     OW 7666   2.585   4.766   1.639
 2256SOL    HW1 7667   2.598   4.863   1.661
 2256SOL    HW2 7668   2.668   4.715   1.661
 2257SOL     OW 7669   1.304   4.157   5.071
 2257SOL    HW1 7670   1.256   4.080   5.111
 2257SOL    HW2 7671   1.309   4.145   4.972
 2258SOL     OW 7672   2.075   5.505   4.895
 2258SOL    HW1 7673   2.035   5.417   4.866
 2258SOL    HW2 7674   2.049   5.576   4.830
 2259SOL     OW 7675   6.196   2.277   6.335
 2259SOL    HW1 7676   6.126   2.216   6.372
 2259SOL    HW2 7677   6.158   2.369   6.324
 2260SOL     OW 7678   4.237   3.177   0.704
 2260SOL    HW1 7679   4.331   3.149   0.725
 2260SOL    HW2 7680   4.202   3.235   0.777
 2261SOL     OW 7681   2.302   6.022   5.246
 2261SOL    HW1 7682   2.298   5.943   5.307
 2261SOL    HW2 7683   2.351   6.097   5.292
 2262SOL     OW 7684   3.429   1.608   3.041
 2262SOL    HW1 7685   3.410   1.632   2.946
 2262SOL    HW2 7686   3.507   1.661   3.074
 2263SOL     OW 7687   0.903   4.289   6.103
 2263SOL    HW1 7688   0.875   4.240   6.021
 2263SOL    HW2 7689   0.823   4.323   6.152
 2264SOL     OW 7690   3.832   3.762   3.475
 2264SOL    HW1 7691   3.914   3.710   3.501
 2264SOL    HW2 7692   3.797   3.727   3.388
 2265SOL     OW 7693   0.840   6.508   3.697
 2265SOL    HW1 7694   0.913   6.568   3.665
 2265SOL    HW2 7695   0.875   6.415   3.708
 2266SOL     OW 7696   7.016   0.597   5.930
 2266SOL    HW1 7697   7.002   0.675   5.869
 2266SOL    HW2 7698   0.015   0.516   5.875
 2267SOL     OW 7699   5.503   1.763   5.331
 2267SOL    HW1 7700   5.421   1.752   5.388
 2267SOL    HW2 7701   5.548   1.674   5.321
 2268SOL     OW 7702   6.875   5.760   0.142
 2268SOL    HW1 7703   6.806   5.766   0.214
 2268SOL    HW2 7704   6.834   5.720   0.060
 2269SOL     OW 7705   0.393   6.880   2.817
 2269SOL    HW1 7706   0.377   6.811   2.747
 2269SOL    HW2 7707   0.387   6.838   2.908
 2270SOL     OW 7708   3.623   3.155   3.306
 2270SOL    HW1 7709   3.548   3.179   3.368
 2270SOL    HW2 7710   3.593   3.083   3.244
 2271SOL     OW 7711   1.474   4.643   3.118
 2271SOL    HW1 7712   1.476   4.615   3.023
 2271SOL    HW2 7713   1.386   4.686   3.139
 2272SOL     OW 7714   5.383   0.815   5.616
 2272SOL    HW1 7715   5.414   0.895   5.667
 2272SOL    HW2 7716   5.324   0.758   5.675
 2273SOL     OW 7717   0.610   1.279   2.247
 2273SOL    HW1 7718   0.560   1.356   2.208
 2273SOL    HW2 7719   0.552   1.231   2.313
 2274SOL     OW 7720   0.797   4.185   3.798
 2274SOL    HW1 7721   0.781   4.156   3.703
 2274SOL    HW2 7722   0.886   4.152   3.828
 2275SOL     OW 7723   5.100   6.162   3.619
 2275SOL    HW1 7724   5.086   6.240   3.679
 2275SOL    HW2 7725   5.186   6.173   3.568
 2276SOL     OW 7726   3.395   5.815   2.285
 2276SOL    HW1 7727   3.404   5.819   2.385
 2276SOL    HW2 7728   3.302   5.843   2.259
 2277SOL     OW 7729   3.517   2.930   2.301
 2277SOL    HW1 7730   3.477   2.910   2.391
 2277SOL    HW2 7731   3.606   2.974   2.313
 2278SOL     OW 7732   4.034   5.632   1.252
 2278SOL    HW1 7733   4.097   5.699   1.213
 2278SOL    HW2 7734   3.940   5.667   1.248
 2279SOL     OW 7735   5.755   4.026   5.703
 2279SOL    HW1 7736   5.817   3.969   5.756
 2279SOL    HW2 7737   5.726   3.977   5.621
 2280SOL     OW 7738   5.727   0.094   5.968
 2280SOL    HW1 7739   5.739   0.181   5.920
 2280SOL    HW2 7740   5.781   0.093   6.052
 2281SOL     OW 7741   1.999   1.275   0.246
 2281SOL    HW1 7742   2.002   1.209   0.321
 2281SOL    HW2 7743   2.026   1.230   0.160
 2282SOL     OW 7744   4.157   5.970   2.672
 2282SOL    HW1 7745   4.156   6.065   2.639
 2282SOL    HW2 7746   4.074   5.952   2.725
 2283SOL     OW 7747   0.846   3.155   1.379
 2283SOL    HW1 7748   0.878   3.062   1.398
 2283SOL    HW2 7749   0.910   3.221   1.419
 2284SOL     OW 7750   2.467   2.155   1.498
 2284SOL    HW1 7751   2.525   2.119   1.571
 2284SOL    HW2 7752   2.474   2.255   1.498
 2285SOL     OW 7753   1.419   3.224   6.593
 2285SOL    HW1 7754   1.329   3.190   6.566
 2285SOL    HW2 7755   1.489   3.186   6.532
 2286SOL     OW 7756   6.469   7.007   4.103
 2286SOL    HW1 7757   6.392   6.975   4.048
 2286SOL    HW2 7758   6.522   0.051   4.051
 2287SOL     OW 7759   2.516   1.820   0.832
 2287SOL    HW1 7760   2.436   1.810   0.774
 2287SOL    HW2 7761   2.575   1.893   0.796
 2288SOL     OW 7762   2.465   5.887   4.605
 2288SOL    HW1 7763   2.515   5.903   4.520
 2288SOL    HW2 7764   2.512   5.931   4.681
 2289SOL     OW 7765   4.117   0.414   0.013
 2289SOL    HW1 7766   4.131   0.507   0.047
 2289SOL    HW2 7767   4.035   0.375   0.055
 2290SOL     OW 7768   3.500   3.448   4.516
 2290SOL    HW1 7769   3.479   3.352   4.532
 2290SOL    HW2 7770   3.563   3.457   4.439
 2291SOL     OW 7771   2.591   2.474   0.144
 2291SOL    HW1 7772   2.494   2.497   0.135
 2291SOL    HW2 7773   2.605   2.419   0.225
 2292SOL     OW 7774   4.673   2.176   3.223
 2292SOL    HW1 7775   4.714   2.161   3.313
 2292SOL    HW2 7776   4.746   2.182   3.155
 2293SOL     OW 7777   0.824   0.926   6.523
 2293SOL    HW1 7778   0.761   0.894   6.594
 2293SOL    HW2 7779   0.888   0.992   6.563
 2294SOL     OW 7780   6.151   2.004   5.064
 2294SOL    HW1 7781   6.201   1.964   5.142
 2294SOL    HW2 7782   6.150   1.938   4.989
 2295SOL     OW 7783   5.356   6.199   0.340
 2295SOL    HW1 7784   5.345   6.191   0.439
 2295SOL    HW2 7785   5.267   6.188   0.295
 2296SOL     OW 7786   3.653   5.388   4.909
 2296SOL    HW1 7787   3.606   5.454   4.966
 2296SOL    HW2 7788   3.592   5.356   4.837
 2297SOL     OW 7789   5.992   2.932   6.245
 2297SOL    HW1 7790   6.022   2.905   6.337
 2297SOL    HW2 7791   5.936   2.859   6.205
 2298SOL     OW 7792   2.556   3.646   5.427
 2298SOL    HW1 7793   2.517   3.660   5.518
 2298SOL    HW2 7794   2.592   3.732   5.392
 2299SOL     OW 7795   5.977   3.611   4.502
 2299SOL    HW1 7796   6.016   3.643   4.415
 2299SOL    HW2 7797   6.051   3.577   4.561
 2300SOL     OW 7798   5.399   0.162   2.604
 2300SOL    HW1 7799   5.488   0.209   2.602
 2300SOL    HW2 7800   5.399   0.093   2.676
 2301SOL     OW 7801   3.822   3.451   5.307
 2301SOL    HW1 7802   3.864   3.363   5.284
 2301SOL    HW2 7803   3.754   3.437   5.378
 2302SOL     OW 7804   6.650   3.879   5.750
 2302SOL    HW1 7805   6.676   3.964   5.703
 2302SOL    HW2 7806   6.611   3.901   5.839
 2303SOL     OW 7807   2.652   1.895   6.815
 2303SOL    HW1 7808   2.565   1.911   6.767
 2303SOL    HW2 7809   2.724   1.947   6.769
 2304SOL     OW 7810   6.109   6.972   2.193
 2304SOL    HW1 7811   6.070   0.035   2.160
 2304SOL    HW2 7812   6.150   6.923   2.117
 2305SOL     OW 7813   3.033   6.905   5.354
 2305SOL    HW1 7814   2.964   6.898   5.282
 2305SOL    HW2 7815   3.122   6.880   5.316
 2306SOL     OW 7816   0.698   4.366   4.700
 2306SOL    HW1 7817   0.670   4.462   4.707
 2306SOL    HW2 7818   0.644   4.321   4.629
 2307SOL     OW 7819   6.244   3.829   4.861
 2307SOL    HW1 7820   6.214   3.859   4.770
 2307SOL    HW2 7821   6.198   3.743   4.884
 2308SOL     OW 7822   0.710   5.735   1.753
 2308SOL    HW1 7823   0.769   5.658   1.779
 2308SOL    HW2 7824   0.747   5.820   1.789
 2309SOL     OW 7825   2.343   0.518   5.032
 2309SOL    HW1 7826   2.364   0.610   4.999
 2309SOL    HW2 7827   2.427   0.472   5.061
 2310SOL     OW 7828   4.172   6.438   0.118
 2310SOL    HW1 7829   4.123   6.464   0.201
 2310SOL    HW2 7830   4.187   6.339   0.118
 2311SOL     OW 7831   2.440   5.735   0.733
 2311SOL    HW1 7832   2.469   5.827   0.760
 2311SOL    HW2 7833   2.343   5.722   0.755
 2312SOL     OW 7834   2.847   4.813   2.769
 2312SOL    HW1 7835   2.882   4.739   2.713
 2312SOL    HW2 7836   2.924   4.861   2.813
 2313SOL     OW 7837   4.423   5.069   1.514
 2313SOL    HW1 7838   4.331   5.095   1.545
 2313SOL    HW2 7839   4.421   5.056   1.415
 2314SOL     OW 7840   2.383   4.464   3.238
 2314SOL    HW1 7841   2.433   4.490   3.155
 2314SOL    HW2 7842   2.449   4.450   3.312
 2315SOL     OW 7843   4.810   2.140   6.525
 2315SOL    HW1 7844   4.747   2.210   6.558
 2315SOL    HW2 7845   4.816   2.067   6.592
 2316SOL     OW 7846   4.893   3.326   1.968
 2316SOL    HW1 7847   4.925   3.266   2.041
 2316SOL    HW2 7848   4.798   3.306   1.947
 2317SOL     OW 7849   0.776   5.960   3.949
 2317SOL    HW1 7850   0.841   5.885   3.944
 2317SOL    HW2 7851   0.701   5.945   3.884
 2318SOL     OW 7852   0.271   1.764   3.260
 2318SOL    HW1 7853   0.232   1.736   3.348
 2318SOL    HW2 7854   0.229   1.851   3.231
 2319SOL     OW 7855   1.498   4.889   1.623
 2319SOL    HW1 7856   1.515   4.835   1.541
 2319SOL    HW2 7857   1.446   4.971   1.599
 2320SOL     OW 7858   6.282   4.722   4.507
 2320SOL    HW1 7859   6.311   4.626   4.506
 2320SOL    HW2 7860   6.193   4.729   4.552
 2321SOL     OW 7861   3.802   5.005   4.005
 2321SOL    HW1 7862   3.824   5.096   3.969
 2321SOL    HW2 7863   3.714   5.008   4.052
 2322SOL     OW 7864   2.675   0.797   4.491
 2322SOL    HW1 7865   2.705   0.806   4.586
 2322SOL    HW2 7866   2.749   0.760   4.436
 2323SOL     OW 7867   4.999   3.568   1.952
 2323SOL    HW1 7868   5.028   3.583   1.857
 2323SOL    HW2 7869   4.955   3.478   1.959
 2324SOL     OW 7870   0.349   5.325   3.931
 2324SOL    HW1 7871   0.271   5.367   3.975
 2324SOL    HW2 7872   0.403   5.273   3.998
 2325SOL     OW 7873   6.984   2.415   0.207
 2325SOL    HW1 7874   6.996   2.502   0.159
 2325SOL    HW2 7875   0.049   2.377   0.232
 2326SOL     OW 7876   0.395   4.309   0.693
 2326SOL    HW1 7877   0.485   4.344   0.667
 2326SOL    HW2 7878   0.334   4.310   0.614
 2327SOL     OW 7879   4.871   1.312   3.545
 2327SOL    HW1 7880   4.785   1.338   3.501
 2327SOL    HW2 7881   4.852   1.267   3.632
 2328SOL     OW 7882   6.442   5.091   3.623
 2328SOL    HW1 7883   6.494   5.105   3.539
 2328SOL    HW2 7884   6.345   5.107   3.605
 2329SOL     OW 7885   1.003   6.047   3.008
 2329SOL    HW1 7886   0.992   5.968   2.948
 2329SOL    HW2 7887   0.970   6.024   3.100
 2330SOL     OW 7888   1.189   4.494   0.136
 2330SOL    HW1 7889   1.141   4.476   0.050
 2330SOL    HW2 7890   1.284   4.520   0.116
 2331SOL     OW 7891   0.696   4.715   5.131
 2331SOL    HW1 7892   0.735   4.790   5.185
 2331SOL    HW2 7893   0.609   4.744   5.091
 2332SOL     OW 7894   6.200   3.312   5.601
 2332SOL    HW1 7895   6.228   3.402   5.566
 2332SOL    HW2 7896   6.214   3.309   5.700
 2333SOL     OW 7897   2.536   4.768   3.342
 2333SOL    HW1 7898   2.630   4.764   3.375
 2333SOL    HW2 7899   2.476   4.720   3.406
 2334SOL     OW 7900   2.480   0.828   5.983
 2334SOL    HW1 7901   2.392   0.844   5.939
 2334SOL    HW2 7902   2.510   0.911   6.030
 2335SOL     OW 7903   4.877   4.604   4.051
 2335SOL    HW1 7904   4.975   4.620   4.065
 2335SOL    HW2 7905   4.826   4.685   4.081
 2336SOL     OW 7906   4.200   2.470   5.729
 2336SOL    HW1 7907   4.140   2.390   5.729
 2336SOL    HW2 7908   4.155   2.545   5.776
 2337SOL     OW 7909   5.703   0.361   4.683
 2337SOL    HW1 7910   5.625   0.397   4.632
 2337SOL    HW2 7911   5.759   0.437   4.715
 2338SOL     OW 7912   1.256   6.932   0.066
 2338SOL    HW1 7913   1.172   6.906   0.114
 2338SOL    HW2 7914   1.329   6.868   0.090
 2339SOL     OW 7915   4.119   4.941   6.823
 2339SOL    HW1 7916   4.146   4.942   6.919
 2339SOL    HW2 7917   4.053   5.014   6.806
 2340SOL     OW 7918   3.494   5.325   4.665
 2340SOL    HW1 7919   3.548   5.300   4.585
 2340SOL    HW2 7920   3.413   5.376   4.638
 2341SOL     OW 7921   6.453   4.903   6.750
 2341SOL    HW1 7922   6.513   4.823   6.755
 2341SOL    HW2 7923   6.419   4.924   6.842
 2342SOL     OW 7924   6.831   1.299   5.719
 2342SOL    HW1 7925   6.924   1.269   5.740
 2342SOL    HW2 7926   6.774   1.289   5.800
 2343SOL     OW 7927   1.254   6.268   0.340
 2343SOL    HW1 7928   1.308   6.185   0.349
 2343SOL    HW2 7929   1.224   6.299   0.430
 2344SOL     OW 7930   2.662   0.824   2.916
 2344SOL    HW1 7931   2.676   0.856   2.823
 2344SOL    HW2 7932   2.568   0.794   2.927
 2345SOL     OW 7933   1.130   1.917   1.983
 2345SOL    HW1 7934   1.050   1.875   1.941
 2345SOL    HW2 7935   1.158   1.863   2.062
 2346SOL     OW 7936   4.853   2.982   5.217
 2346SOL    HW1 7937   4.907   3.066   5.223
 2346SOL    HW2 7938   4.866   2.940   5.127
 2347SOL     OW 7939   1.840   3.834   0.729
 2347SOL    HW1 7940   1.885   3.759   0.681
 2347SOL    HW2 7941   1.787   3.889   0.663
 2348SOL     OW 7942   2.404   6.956   1.441
 2348SOL    HW1 7943   2.322   6.904   1.418
 2348SOL    HW2 7944   2.392   0.028   1.412
 2349SOL     OW 7945   5.440   3.581   6.803
 2349SOL    HW1 7946   5.520   3.628   6.841
 2349SOL    HW2 7947   5.401   3.635   6.729
 2350SOL     OW 7948   1.974   6.126   4.695
 2350SOL    HW1 7949   1.981   6.081   4.784
 2350SOL    HW2 7950   2.066   6.141   4.658
 2351SOL     OW 7951   1.473   4.776   2.687
 2351SOL    HW1 7952   1.496   4.837   2.611
 2351SOL    HW2 7953   1.449   4.830   2.767
 2352SOL     OW 7954   5.493   5.578   0.557
 2352SOL    HW1 7955   5.490   5.478   0.559
 2352SOL    HW2 7956   5.400   5.615   0.559
 2353SOL     OW 7957   2.577   3.052   6.029
 2353SOL    HW1 7958   2.653   2.986   6.028
 2353SOL    HW2 7959   2.606   3.135   5.982
 2354SOL     OW 7960   4.292   1.762   2.418
 2354SOL    HW1 7961   4.235   1.830   2.465
 2354SOL    HW2 7962   4.255   1.745   2.327
 2355SOL     OW 7963   0.712   1.543   1.764
 2355SOL    HW1 7964   0.792   1.586   1.723
 2355SOL    HW2 7965   0.711   1.561   1.862
 2356SOL     OW 7966   3.088   5.291   4.030
 2356SOL    HW1 7967   3.015   5.295   3.962
 2356SOL    HW2 7968   3.140   5.376   4.028
 2357SOL     OW 7969   0.809   4.932   0.676
 2357SOL    HW1 7970   0.857   4.880   0.606
 2357SOL    HW2 7971   0.846   4.909   0.766
 2358SOL     OW 7972   2.886   0.736   5.456
 2358SOL    HW1 7973   2.913   0.643   5.479
 2358SOL    HW2 7974   2.881   0.747   5.357
 2359SOL     OW 7975   2.512   2.025   5.866
 2359SOL    HW1 7976   2.471   1.945   5.912
 2359SOL    HW2 7977   2.563   2.079   5.932
 2360SOL     OW 7978   3.169   4.882   0.577
 2360SOL    HW1 7979   3.207   4.974   0.587
 2360SOL    HW2 7980   3.075   4.889   0.543
 2361SOL     OW 7981   3.370   5.367   1.432
 2361SOL    HW1 7982   3.275   5.390   1.453
 2361SOL    HW2 7983   3.404   5.426   1.360
 2362SOL     OW 7984   2.963   5.234   4.503
 2362SOL    HW1 7985   2.925   5.325   4.523
 2362SOL    HW2 7986   2.905   5.164   4.544
 2363SOL     OW 7987   2.312   4.127   1.101
 2363SOL    HW1 7988   2.288   4.038   1.140
 2363SOL    HW2 7989   2.353   4.114   1.011
 2364SOL     OW 7990   4.608   1.155   2.537
 2364SOL    HW1 7991   4.557   1.235   2.568
 2364SOL    HW2 7992   4.548   1.095   2.484
 2365SOL     OW 7993   5.707   4.407   2.747
 2365SOL    HW1 7994   5.678   4.453   2.831
 2365SOL    HW2 7995   5.729   4.476   2.678
 2366SOL     OW 7996   2.828   5.159   5.178
 2366SOL    HW1 7997   2.849   5.239   5.123
 2366SOL    HW2 7998   2.770   5.097   5.126
 2367SOL     OW 7999   6.112   5.146   5.372
 2367SOL    HW1 8000   6.200   5.163   5.329
 2367SOL    HW2 8001   6.083   5.052   5.354
 2368SOL     OW 8002   5.287   0.509   4.808
 2368SOL    HW1 8003   5.213   0.565   4.843
 2368SOL    HW2 8004   5.340   0.471   4.884
 2369SOL     OW 8005   3.847   1.686   4.463
 2369SOL    HW1 8006   3.776   1.616   4.461
 2369SOL    HW2 8007   3.936   1.643   4.478
 2370SOL     OW 8008   4.791   1.845   1.819
 2370SOL    HW1 8009   4.700   1.870   1.787
 2370SOL    HW2 8010   4.784   1.793   1.904
 2371SOL     OW 8011   1.455   6.913   1.779
 2371SOL    HW1 8012   1.496   6.989   1.830
 2371SOL    HW2 8013   1.526   6.849   1.751
 2372SOL     OW 8014   6.916   7.017   5.518
 2372SOL    HW1 8015   6.847   6.973   5.459
 2372SOL    HW2 8016   6.945   6.953   5.589
 2373SOL     OW 8017   5.910   4.302   5.704
 2373SOL    HW1 8018   5.837   4.369   5.686
 2373SOL    HW2 8019   5.874   4.210   5.693
 2374SOL     OW 8020   0.098   6.409   2.412
 2374SOL    HW1 8021   0.036   6.375   2.484
 2374SOL    HW2 8022   0.045   6.430   2.330
 2375SOL     OW 8023   1.651   0.043   4.222
 2375SOL    HW1 8024   1.683   0.018   4.131
 2375SOL    HW2 8025   1.708   0.116   4.259
 2376SOL     OW 8026   4.973   2.728   3.393
 2376SOL    HW1 8027   4.936   2.775   3.474
 2376SOL    HW2 8028   5.073   2.733   3.395
 2377SOL     OW 8029   4.256   3.840   5.751
 2377SOL    HW1 8030   4.167   3.886   5.756
 2377SOL    HW2 8031   4.259   3.783   5.669
 2378SOL     OW 8032   0.313   0.434   0.887
 2378SOL    HW1 8033   0.370   0.485   0.823
 2378SOL    HW2 8034   0.261   0.497   0.944
 2379SOL     OW 8035   0.529   4.886   2.666
 2379SOL    HW1 8036   0.542   4.832   2.750
 2379SOL    HW2 8037   0.514   4.825   2.589
 2380SOL     OW 8038   4.050   5.361   6.491
 2380SOL    HW1 8039   4.079   5.277   6.537
 2380SOL    HW2 8040   4.037   5.433   6.558
 2381SOL     OW 8041   2.114   3.674   4.126
 2381SOL    HW1 8042   2.158   3.762   4.142
 2381SOL    HW2 8043   2.027   3.670   4.175
 2382SOL     OW 8044   6.881   5.380   3.094
 2382SOL    HW1 8045   6.978   5.382   3.069
 2382SOL    HW2 8046   6.860   5.457   3.153
 2383SOL     OW 8047   4.991   4.018   5.922
 2383SOL    HW1 8048   4.950   4.011   6.013
 2383SOL    HW2 8049   4.942   3.958   5.859
 2384SOL     OW 8050   0.668   2.661   3.042
 2384SOL    HW1 8051   0.766   2.680   3.037
 2384SOL    HW2 8052   0.631   2.701   3.126
 2385SOL     OW 8053   0.409   1.067   0.078
 2385SOL    HW1 8054   0.478   1.023   0.022
 2385SOL    HW2 8055   0.414   1.167   0.066
 2386SOL     OW 8056   6.399   5.380   5.190
 2386SOL    HW1 8057   6.420   5.476   5.210
 2386SOL    HW2 8058   6.430   5.358   5.097
 2387SOL     OW 8059   0.522   0.926   3.535
 2387SOL    HW1 8060   0.489   0.831   3.533
 2387SOL    HW2 8061   0.514   0.962   3.628
 2388SOL     OW 8062   0.850   3.589   5.107
 2388SOL    HW1 8063   0.817   3.499   5.076
 2388SOL    HW2 8064   0.773   3.650   5.123
 2389SOL     OW 8065   3.681   5.858   3.022
 2389SOL    HW1 8066   3.771   5.817   3.037
 2389SOL    HW2 8067   3.624   5.843   3.103
 2390SOL     OW 8068   5.240   2.557   6.073
 2390SOL    HW1 8069   5.177   2.554   6.151
 2390SOL    HW2 8070   5.213   2.488   6.005
 2391SOL     OW 8071   2.782   4.004   6.938
 2391SOL    HW1 8072   2.820   4.095   6.921
 2391SOL    HW2 8073   2.769   3.991   0.013
 2392SOL     OW 8074   3.956   4.918   6.171
 2392SOL    HW1 8075   3.976   4.844   6.236
 2392SOL    HW2 8076   3.969   5.006   6.215
 2393SOL     OW 8077   3.816   4.278   0.296
 2393SOL    HW1 8078   3.824   4.273   0.196
 2393SOL    HW2 8079   3.771   4.195   0.330
 2394SOL     OW 8080   6.427   1.716   3.699
 2394SOL    HW1 8081   6.498   1.706   3.630
 2394SOL    HW2 8082   6.361   1.642   3.690
 2395SOL     OW 8083   1.590   2.552   3.810
 2395SOL    HW1 8084   1.646   2.576   3.889
 2395SOL    HW2 8085   1.580   2.453   3.806
 2396SOL     OW 8086   6.823   0.220   6.653
 2396SOL    HW1 8087   6.844   0.303   6.704
 2396SOL    HW2 8088   6.899   0.156   6.660
 2397SOL     OW 8089   2.288   4.404   5.291
 2397SOL    HW1 8090   2.289   4.477   5.360
 2397SOL    HW2 8091   2.382   4.380   5.267
 2398SOL     OW 8092   4.184   5.981   5.055
 2398SOL    HW1 8093   4.154   5.918   4.984
 2398SOL    HW2 8094   4.105   6.015   5.106
 2399SOL     OW 8095   2.833   1.041   2.471
 2399SOL    HW1 8096   2.762   1.029   2.401
 2399SOL    HW2 8097   2.922   1.053   2.427
 2400SOL     OW 8098   1.367   2.667   0.277
 2400SOL    HW1 8099   1.334   2.759   0.300
 2400SOL    HW2 8100   1.289   2.606   0.262
 2401SOL     OW 8101   1.636   6.281   0.320
 2401SOL    HW1 8102   1.660   6.310   0.412
 2401SOL    HW2 8103   1.590   6.356   0.272
 2402SOL     OW 8104   0.675   4.057   1.866
 2402SOL    HW1 8105   0.758   4.113   1.862
 2402SOL    HW2 8106   0.692   3.971   1.819
 2403SOL     OW 8107   3.260   3.930   5.356
 2403SOL    HW1 8108   3.261   4.011   5.298
 2403SOL    HW2 8109   3.293   3.954   5.447
 2404SOL     OW 8110   6.289   1.538   1.553
 2404SOL    HW1 8111   6.375   1.587   1.540
 2404SOL    HW2 8112   6.234   1.583   1.623
 2405SOL     OW 8113   1.995   3.008   0.829
 2405SOL    HW1 8114   2.052   3.089   0.832
 2405SOL    HW2 8115   2.039   2.934   0.880
 2406SOL     OW 8116   3.935   5.421   4.801
 2406SOL    HW1 8117   3.871   5.389   4.871
 2406SOL    HW2 8118   3.997   5.489   4.842
 2407SOL     OW 8119   2.234   1.914   4.021
 2407SOL    HW1 8120   2.218   1.855   3.942
 2407SOL    HW2 8121   2.256   1.858   4.101
 2408SOL     OW 8122   3.840   0.219   6.170
 2408SOL    HW1 8123   3.871   0.273   6.092
 2408SOL    HW2 8124   3.897   0.138   6.180
 2409SOL     OW 8125   0.725   3.138   6.721
 2409SOL    HW1 8126   0.671   3.142   6.637
 2409SOL    HW2 8127   0.780   3.221   6.729
 2410SOL     OW 8128   0.035   3.642   4.493
 2410SOL    HW1 8129   0.005   3.552   4.461
 2410SOL    HW2 8130   0.047   3.639   4.593
 2411SOL     OW 8131   2.760   1.455   0.082
 2411SOL    HW1 8132   2.703   1.488   0.007
 2411SOL    HW2 8133   2.704   1.400   0.145
 2412SOL     OW 8134   3.368   2.538   6.343
 2412SOL    HW1 8135   3.424   2.613   6.377
 2412SOL    HW2 8136   3.411   2.450   6.365
 2413SOL     OW 8137   6.995   3.785   6.750
 2413SOL    HW1 8138   0.019   3.862   6.793
 2413SOL    HW2 8139   6.939   3.739   6.818
 2414SOL     OW 8140   0.303   1.322   5.436
 2414SOL    HW1 8141   0.266   1.357   5.350
 2414SOL    HW2 8142   0.400   1.347   5.444
 2415SOL     OW 8143   3.443   4.384   6.373
 2415SOL    HW1 8144   3.501   4.425   6.302
 2415SOL    HW2 8145   3.500   4.336   6.439
 2416SOL     OW 8146   6.962   3.051   3.621
 2416SOL    HW1 8147   6.930   3.096   3.538
 2416SOL    HW2 8148   6.929   2.956   3.622
 2417SOL     OW 8149   3.423   2.492   1.322
 2417SOL    HW1 8150   3.356   2.502   1.395
 2417SOL    HW2 8151   3.477   2.410   1.337
 2418SOL     OW 8152   5.311   4.267   6.878
 2418SOL    HW1 8153   5.373   4.336   6.915
 2418SOL    HW2 8154   5.337   4.246   6.784
 2419SOL     OW 8155   3.344   1.174   3.218
 2419SOL    HW1 8156   3.433   1.195   3.258
 2419SOL    HW2 8157   3.319   1.244   3.152
 2420SOL     OW 8158   1.645   3.726   2.560
 2420SOL    HW1 8159   1.595   3.646   2.525
 2420SOL    HW2 8160   1.604   3.756   2.646
 2421SOL     OW 8161   2.838   6.592   3.275
 2421SOL    HW1 8162   2.862   6.548   3.361
 2421SOL    HW2 8163   2.817   6.688   3.290
 2422SOL     OW 8164   3.651   5.984   0.130
 2422SOL    HW1 8165   3.687   5.932   0.207
 2422SOL    HW2 8166   3.726   6.012   0.070
 2423SOL     OW 8167   3.060   4.870   4.433
 2423SOL    HW1 8168   3.059   4.881   4.532
 2423SOL    HW2 8169   3.088   4.957   4.390
 2424SOL     OW 8170   4.828   6.668   6.660
 2424SOL    HW1 8171   4.857   6.750   6.710
 2424SOL    HW2 8172   4.755   6.691   6.597
 2425SOL     OW 8173   3.926   5.459   5.248
 2425SOL    HW1 8174   3.897   5.394   5.179
 2425SOL    HW2 8175   3.848   5.485   5.305
 2426SOL     OW 8176   3.026   2.426   5.366
 2426SOL    HW1 8177   3.102   2.412   5.303
 2426SOL    HW2 8178   2.976   2.509   5.340
 2427SOL     OW 8179   4.279   1.641   0.533
 2427SOL    HW1 8180   4.214   1.708   0.569
 2427SOL    HW2 8181   4.275   1.558   0.588
 2428SOL     OW 8182   1.565   1.475   3.286
 2428SOL    HW1 8183   1.484   1.522   3.251
 2428SOL    HW2 8184   1.646   1.504   3.234
 2429SOL     OW 8185   5.681   6.080   1.126
 2429SOL    HW1 8186   5.773   6.060   1.161
 2429SOL    HW2 8187   5.623   6.000   1.137
 2430SOL     OW 8188   6.384   0.508   6.389
 2430SOL    HW1 8189   6.350   0.415   6.384
 2430SOL    HW2 8190   6.325   0.563   6.449
 2431SOL     OW 8191   1.902   2.848   1.919
 2431SOL    HW1 8192   1.966   2.798   1.862
 2431SOL    HW2 8193   1.935   2.850   2.013
 2432SOL     OW 8194   2.720   6.158   2.323
 2432SOL    HW1 8195   2.803   6.194   2.278
 2432SOL    HW2 8196   2.706   6.206   2.410
 2433SOL     OW 8197   0.203   3.998   4.749
 2433SOL    HW1 8198   0.232   3.934   4.678
 2433SOL    HW2 8199   0.283   4.045   4.787
 2434SOL     OW 8200   4.695   1.367   3.361
 2434SOL    HW1 8201   4.731   1.454   3.327
 2434SOL    HW2 8202   4.711   1.295   3.294
 2435SOL     OW 8203   6.203   6.734   6.811
 2435SOL    HW1 8204   6.276   6.771   6.869
 2435SOL    HW2 8205   6.204   6.780   6.723
 2436SOL     OW 8206   6.904   3.131   0.354
 2436SOL    HW1 8207   6.876   3.168   0.443
 2436SOL    HW2 8208   6.824   3.123   0.295
 2437SOL     OW 8209   0.600   4.187   0.836
 2437SOL    HW1 8210   0.511   4.222   0.805
 2437SOL    HW2 8211   0.586   4.117   0.905
 2438SOL     OW 8212   3.305   1.499   5.005
 2438SOL    HW1 8213   3.372   1.531   4.939
 2438SOL    HW2 8214   3.340   1.512   5.098
 2439SOL     OW 8215   0.149   5.548   0.567
 2439SOL    HW1 8216   0.052   5.557   0.546
 2439SOL    HW2 8217   0.173   5.451   0.573
 2440SOL     OW 8218   6.532   1.696   5.502
 2440SOL    HW1 8219   6.584   1.611   5.498
 2440SOL    HW2 8220   6.595   1.773   5.510
 2441SOL     OW 8221   6.280   1.098   0.442
 2441SOL    HW1 8222   6.188   1.061   0.458
 2441SOL    HW2 8223   6.302   1.092   0.345
 2442SOL     OW 8224   5.361   2.929   2.298
 2442SOL    HW1 8225   5.324   3.016   2.331
 2442SOL    HW2 8226   5.311   2.901   2.216
 2443SOL     OW 8227   0.327   3.026   1.332
 2443SOL    HW1 8228   0.345   3.123   1.345
 2443SOL    HW2 8229   0.411   2.974   1.349
 2444SOL     OW 8230   3.338   5.563   3.462
 2444SOL    HW1 8231   3.280   5.521   3.531
 2444SOL    HW2 8232   3.312   5.659   3.450
 2445SOL     OW 8233   0.942   2.419   0.721
 2445SOL    HW1 8234   0.921   2.340   0.662
 2445SOL    HW2 8235   1.024   2.465   0.686
 2446SOL     OW 8236   0.012   5.723   2.037
 2446SOL    HW1 8237   0.098   5.707   1.988
 2446SOL    HW2 8238   0.017   5.683   2.128
 2447SOL     OW 8239   1.670   7.000   0.613
 2447SOL    HW1 8240   1.619   7.012   0.527
 2447SOL    HW2 8241   1.641   0.046   0.679
 2448SOL     OW 8242   5.523   1.012   3.960
 2448SOL    HW1 8243   5.522   0.914   3.939
 2448SOL    HW2 8244   5.613   1.037   3.995
 2449SOL     OW 8245   1.606   4.233   0.991
 2449SOL    HW1 8246   1.524   4.290   0.994
 2449SOL    HW2 8247   1.684   4.284   1.028
 2450SOL     OW 8248   0.824   6.229   5.465
 2450SOL    HW1 8249   0.839   6.249   5.562
 2450SOL    HW2 8250   0.748   6.164   5.456
 2451SOL     OW 8251   2.198   6.494   6.076
 2451SOL    HW1 8252   2.190   6.396   6.090
 2451SOL    HW2 8253   2.293   6.523   6.091
 2452SOL     OW 8254   2.158   1.699   4.500
 2452SOL    HW1 8255   2.257   1.693   4.510
 2452SOL    HW2 8256   2.132   1.794   4.480
 2453SOL     OW 8257   1.440   1.991   5.881
 2453SOL    HW1 8258   1.380   2.018   5.957
 2453SOL    HW2 8259   1.466   1.895   5.891
 2454SOL     OW 8260   3.262   6.002   1.034
 2454SOL    HW1 8261   3.360   5.996   1.015
 2454SOL    HW2 8262   3.242   6.089   1.079
 2455SOL     OW 8263   4.222   1.862   0.707
 2455SOL    HW1 8264   4.205   1.950   0.662
 2455SOL    HW2 8265   4.142   1.838   0.763
 2456SOL     OW 8266   0.585   3.848   6.554
 2456SOL    HW1 8267   0.671   3.856   6.605
 2456SOL    HW2 8268   0.604   3.812   6.463
 2457SOL     OW 8269   4.457   1.706   5.744
 2457SOL    HW1 8270   4.472   1.794   5.790
 2457SOL    HW2 8271   4.463   1.718   5.645
 2458SOL     OW 8272   0.736   0.207   2.419
 2458SOL    HW1 8273   0.743   0.288   2.477
 2458SOL    HW2 8274   0.697   0.233   2.330
 2459SOL     OW 8275   1.970   6.958   1.340
 2459SOL    HW1 8276   2.002   0.029   1.341
 2459SOL    HW2 8277   2.046   6.897   1.322
 2460SOL     OW 8278   0.811   0.793   4.228
 2460SOL    HW1 8279   0.886   0.728   4.241
 2460SOL    HW2 8280   0.821   0.868   4.294
 2461SOL     OW 8281   3.441   1.407   4.081
 2461SOL    HW1 8282   3.463   1.505   4.074
 2461SOL    HW2 8283   3.408   1.374   3.993
 2462SOL     OW 8284   0.711   5.807   1.029
 2462SOL    HW1 8285   0.642   5.821   1.099
 2462SOL    HW2 8286   0.683   5.852   0.944
 2463SOL     OW 8287   6.532   7.022   1.025
 2463SOL    HW1 8288   6.607   6.956   1.015
 2463SOL    HW2 8289   6.493   7.015   1.116
 2464SOL     OW 8290   0.690   2.979   4.557
 2464SOL    HW1 8291   0.696   3.011   4.651
 2464SOL    HW2 8292   0.781   2.961   4.521
 2465SOL     OW 8293   6.164   0.943   0.065
 2465SOL    HW1 8294   6.148   0.857   0.112
 2465SOL    HW2 8295   6.081   0.971   0.016
 2466SOL     OW 8296   0.830   2.250   1.746
 2466SOL    HW1 8297   0.856   2.163   1.788
 2466SOL    HW2 8298   0.875   2.259   1.657
 2467SOL     OW 8299   5.242   3.146   4.704
 2467SOL    HW1 8300   5.170   3.214   4.692
 2467SOL    HW2 8301   5.211   3.059   4.666
 2468SOL     OW 8302   3.560   0.106   5.299
 2468SOL    HW1 8303   3.544   0.028   5.239
 2468SOL    HW2 8304   3.519   0.089   5.388
 2469SOL     OW 8305   3.324   2.036   6.154
 2469SOL    HW1 8306   3.381   2.117   6.168
 2469SOL    HW2 8307   3.233   2.064   6.124
 2470SOL     OW 8308   2.191   5.719   6.481
 2470SOL    HW1 8309   2.110   5.739   6.427
 2470SOL    HW2 8310   2.238   5.805   6.505
 2471SOL     OW 8311   2.910   5.463   2.155
 2471SOL    HW1 8312   2.925   5.432   2.061
 2471SOL    HW2 8313   2.828   5.519   2.158
 2472SOL     OW 8314   4.912   1.223   3.055
 2472SOL    HW1 8315   4.998   1.257   3.092
 2472SOL    HW2 8316   4.846   1.213   3.128
 2473SOL     OW 8317   0.373   3.710   3.803
 2473SOL    HW1 8318   0.390   3.673   3.712
 2473SOL    HW2 8319   0.427   3.660   3.870
 2474SOL     OW 8320   1.311   6.556   1.598
 2474SOL    HW1 8321   1.290   6.553   1.696
 2474SOL    HW2 8322   1.260   6.631   1.555
 2475SOL     OW 8323   5.177   1.823   0.576
 2475SOL    HW1 8324   5.264   1.869   0.592
 2475SOL    HW2 8325   5.164   1.810   0.478
 2476SOL     OW 8326   4.153   0.063   0.504
 2476SOL    HW1 8327   4.226   0.105   0.450
 2476SOL    HW2 8328   4.065   0.080   0.459
 2477SOL     OW 8329   3.880   0.279   3.712
 2477SOL    HW1 8330   3.826   0.212   3.661
 2477SOL    HW2 8331   3.828   0.365   3.719
 2478SOL     OW 8332   3.698   0.080   5.006
 2478SOL    HW1 8333   3.730   0.152   5.067
 2478SOL    HW2 8334   3.771   0.056   4.942
 2479SOL     OW 8335   5.350   3.292   1.116
 2479SOL    HW1 8336   5.382   3.251   1.031
 2479SOL    HW2 8337   5.268   3.244   1.148
 2480SOL     OW 8338   3.779   2.179   1.467
 2480SOL    HW1 8339   3.844   2.201   1.395
 2480SOL    HW2 8340   3.808   2.223   1.552
 2481SOL     OW 8341   3.263   0.100   2.095
 2481SOL    HW1 8342   3.213   0.095   2.181
 2481SOL    HW2 8343   3.343   0.039   2.099
 2482SOL     OW 8344   6.441   3.070   0.472
 2482SOL    HW1 8345   6.380   3.043   0.397
 2482SOL    HW2 8346   6.413   3.160   0.507
 2483SOL     OW 8347   2.003   2.434   0.870
 2483SOL    HW1 8348   1.926   2.370   0.872
 2483SOL    HW2 8349   2.052   2.424   0.783
 2484SOL     OW 8350   4.326   0.254   0.034
 2484SOL    HW1 8351   4.402   0.304   7.015
 2484SOL    HW2 8352   4.240   0.302   0.017
 2485SOL     OW 8353   0.338   2.314   6.094
 2485SOL    HW1 8354   0.286   2.399   6.094
 2485SOL    HW2 8355   0.391   2.307   6.010
 2486SOL     OW 8356   6.989   5.514   3.509
 2486SOL    HW1 8357   7.012   5.575   3.433
 2486SOL    HW2 8358   6.904   5.465   3.488
 2487SOL     OW 8359   4.206   6.186   0.156
 2487SOL    HW1 8360   4.182   6.161   0.250
 2487SOL    HW2 8361   4.209   6.103   0.100
 2488SOL     OW 8362   6.913   4.055   0.478
 2488SOL    HW1 8363   6.834   4.101   0.518
 2488SOL    HW2 8364   6.964   4.008   0.550
 2489SOL     OW 8365   6.339   5.206   4.137
 2489SOL    HW1 8366   6.256   5.204   4.081
 2489SOL    HW2 8367   6.392   5.123   4.122
 2490SOL     OW 8368   2.620   5.809   3.284
 2490SOL    HW1 8369   2.651   5.781   3.375
 2490SOL    HW2 8370   2.682   5.880   3.249
 2491SOL     OW 8371   3.707   4.504   1.617
 2491SOL    HW1 8372   3.676   4.466   1.704
 2491SOL    HW2 8373   3.776   4.444   1.577
 2492SOL     OW 8374   6.523   5.389   1.574
 2492SOL    HW1 8375   6.587   5.316   1.597
 2492SOL    HW2 8376   6.429   5.358   1.590
 2493SOL     OW 8377   5.257   6.669   0.978
 2493SOL    HW1 8378   5.342   6.693   0.931
 2493SOL    HW2 8379   5.181   6.674   0.914
 2494SOL     OW 8380   6.635   3.345   1.176
 2494SOL    HW1 8381   6.638   3.424   1.114
 2494SOL    HW2 8382   6.723   3.297   1.173
 2495SOL     OW 8383   0.531   3.879   1.616
 2495SOL    HW1 8384   0.627   3.884   1.644
 2495SOL    HW2 8385   0.478   3.948   1.666
 2496SOL     OW 8386   5.537   4.701   6.868
 2496SOL    HW1 8387   5.552   4.684   6.770
 2496SOL    HW2 8388   5.595   4.776   6.898
 2497SOL     OW 8389   0.303   6.921   2.337
 2497SOL    HW1 8390   0.354   6.907   2.422
 2497SOL    HW2 8391   0.365   6.918   2.259
 2498SOL     OW 8392   1.922   3.250   5.042
 2498SOL    HW1 8393   1.898   3.198   4.960
 2498SOL    HW2 8394   1.842   3.258   5.101
 2499SOL     OW 8395   6.969   3.641   2.125
 2499SOL    HW1 8396   6.920   3.599   2.200
 2499SOL    HW2 8397   7.007   3.729   2.154
 2500SOL     OW 8398   4.078   3.240   1.531
 2500SOL    HW1 8399   4.097   3.164   1.594
 2500SOL    HW2 8400   4.047   3.320   1.583
 2501SOL     OW 8401   6.306   5.605   6.128
 2501SOL    HW1 8402   6.272   5.556   6.208
 2501SOL    HW2 8403   6.263   5.569   6.046
 2502SOL     OW 8404   2.097   6.427   4.502
 2502SOL    HW1 8405   2.170   6.366   4.532
 2502SOL    HW2 8406   2.011   6.376   4.497
 2503SOL     OW 8407   2.894   6.959   5.682
 2503SOL    HW1 8408   2.861   6.920   5.768
 2503SOL    HW2 8409   2.832   6.935   5.608
 2504SOL     OW 8410   3.865   7.008   3.802
 2504SOL    HW1 8411   3.917   0.064   3.772
 2504SOL    HW2 8412   3.833   7.023   3.896
 2505SOL     OW 8413   0.142   4.045   3.899
 2505SOL    HW1 8414   0.055   4.067   3.855
 2505SOL    HW2 8415   0.134   4.060   3.998
 2506SOL     OW 8416   5.503   5.317   6.315
 2506SOL    HW1 8417   5.564   5.360   6.249
 2506SOL    HW2 8418   5.447   5.388   6.358
 2507SOL     OW 8419   0.018   3.136   2.339
 2507SOL    HW1 8420   0.051   3.226   2.369
 2507SOL    HW2 8421   6.975   3.101   2.405
 2508SOL     OW 8422   5.945   1.013   4.327
 2508SOL    HW1 8423   5.848   1.017   4.305
 2508SOL    HW2 8424   5.958   1.023   4.425
 2509SOL     OW 8425   0.192   3.258   5.809
 2509SOL    HW1 8426   0.256   3.292   5.741
 2509SOL    HW2 8427   0.194   3.317   5.890
 2510SOL     OW 8428   2.995   3.885   2.456
 2510SOL    HW1 8429   3.079   3.852   2.498
 2510SOL    HW2 8430   2.918   3.866   2.518
 2511SOL     OW 8431   2.311   0.477   4.239
 2511SOL    HW1 8432   2.360   0.527   4.311
 2511SOL    HW2 8433   2.250   0.540   4.191
 2512SOL     OW 8434   4.220   4.886   3.865
 2512SOL    HW1 8435   4.304   4.940   3.869
 2512SOL    HW2 8436   4.209   4.847   3.773
 2513SOL     OW 8437   2.036   5.523   5.835
 2513SOL    HW1 8438   2.041   5.517   5.935
 2513SOL    HW2 8439   1.970   5.593   5.809
 2514SOL     OW 8440   1.345   1.628   3.218
 2514SOL    HW1 8441   1.298   1.658   3.301
 2514SOL    HW2 8442   1.298   1.664   3.137
 2515SOL     OW 8443   0.616   1.718   1.493
 2515SOL    HW1 8444   0.601   1.762   1.404
 2515SOL    HW2 8445   0.575   1.775   1.565
 2516SOL     OW 8446   5.867   2.393   4.664
 2516SOL    HW1 8447   5.914   2.459   4.723
 2516SOL    HW2 8448   5.865   2.428   4.570
 2517SOL     OW 8449   1.031   1.104   3.931
 2517SOL    HW1 8450   1.095   1.029   3.952
 2517SOL    HW2 8451   1.046   1.134   3.837
 2518SOL     OW 8452   2.363   4.630   1.335
 2518SOL    HW1 8453   2.302   4.692   1.385
 2518SOL    HW2 8454   2.319   4.601   1.250
 2519SOL     OW 8455   1.333   1.490   0.608
 2519SOL    HW1 8456   1.253   1.443   0.645
 2519SOL    HW2 8457   1.340   1.470   0.510
 2520SOL     OW 8458   2.383   2.210   0.820
 2520SOL    HW1 8459   2.291   2.172   0.812
 2520SOL    HW2 8460   2.440   2.173   0.746
 2521SOL     OW 8461   5.192   0.879   4.920
 2521SOL    HW1 8462   5.252   0.881   4.839
 2521SOL    HW2 8463   5.242   0.915   4.999
 2522SOL     OW 8464   1.331   1.822   6.912
 2522SOL    HW1 8465   1.379   1.882   6.976
 2522SOL    HW2 8466   1.331   1.864   6.821
 2523SOL     OW 8467   1.396   5.523   6.517
 2523SOL    HW1 8468   1.390   5.544   6.419
 2523SOL    HW2 8469   1.491   5.506   6.541
 2524SOL     OW 8470   1.302   0.697   4.506
 2524SOL    HW1 8471   1.386   0.729   4.550
 2524SOL    HW2 8472   1.255   0.633   4.566
 2525SOL     OW 8473   6.442   2.642   5.750
 2525SOL    HW1 8474   6.416   2.719   5.690
 2525SOL    HW2 8475   6.453   2.675   5.843
 2526SOL     OW 8476   1.779   7.021   0.983
 2526SOL    HW1 8477   1.751   6.930   0.952
 2526SOL    HW2 8478   1.701   0.042   1.028
 2527SOL     OW 8479   4.368   5.091   5.932
 2527SOL    HW1 8480   4.381   4.993   5.919
 2527SOL    HW2 8481   4.353   5.110   6.029
 2528SOL     OW 8482   4.732   5.701   6.206
 2528SOL    HW1 8483   4.635   5.722   6.219
 2528SOL    HW2 8484   4.772   5.766   6.142
 2529SOL     OW 8485   0.500   6.533   6.467
 2529SOL    HW1 8486   0.513   6.444   6.511
 2529SOL    HW2 8487   0.581   6.556   6.413
 2530SOL     OW 8488   2.620   5.745   6.669
 2530SOL    HW1 8489   2.597   5.803   6.747
 2530SOL    HW2 8490   2.580   5.654   6.682
 2531SOL     OW 8491   6.716   5.540   6.360
 2531SOL    HW1 8492   6.673   5.554   6.449
 2531SOL    HW2 8493   6.773   5.619   6.337
 2532SOL     OW 8494   5.461   6.318   1.650
 2532SOL    HW1 8495   5.450   6.379   1.572
 2532SOL    HW2 8496   5.476   6.225   1.619
 2533SOL     OW 8497   4.635   0.653   4.205
 2533SOL    HW1 8498   4.661   0.573   4.259
 2533SOL    HW2 8499   4.537   0.670   4.214
 2534SOL     OW 8500   4.042   1.313   2.826
 2534SOL    HW1 8501   4.094   1.285   2.907
 2534SOL    HW2 8502   4.099   1.371   2.768
 2535SOL     OW 8503   3.822   2.562   6.404
 2535SOL    HW1 8504   3.898   2.529   6.460
 2535SOL    HW2 8505   3.810   2.660   6.418
 2536SOL     OW 8506   1.606   0.945   1.050
 2536SOL    HW1 8507   1.595   0.849   1.025
 2536SOL    HW2 8508   1.519   0.993   1.036
 2537SOL     OW 8509   3.896   0.465   6.024
 2537SOL    HW1 8510   3.828   0.489   6.093
 2537SOL    HW2 8511   3.988   0.481   6.061
 2538SOL     OW 8512   6.252   3.292   3.813
 2538SOL    HW1 8513   6.260   3.204   3.860
 2538SOL    HW2 8514   6.297   3.287   3.724
 2539SOL     OW 8515   4.941   2.620   5.305
 2539SOL    HW1 8516   5.030   2.579   5.324
 2539SOL    HW2 8517   4.954   2.710   5.263
 2540SOL     OW 8518   2.674   1.537   1.537
 2540SOL    HW1 8519   2.643   1.520   1.631
 2540SOL    HW2 8520   2.608   1.497   1.473
 2541SOL     OW 8521   3.450   6.755   4.375
 2541SOL    HW1 8522   3.534   6.806   4.393
 2541SOL    HW2 8523   3.469   6.657   4.375
 2542SOL     OW 8524   2.030   5.569   6.122
 2542SOL    HW1 8525   2.123   5.547   6.154
 2542SOL    HW2 8526   1.987   5.632   6.186
 2543SOL     OW 8527   0.746   1.108   3.950
 2543SOL    HW1 8528   0.829   1.054   3.933
 2543SOL    HW2 8529   0.760   1.166   4.030
 2544SOL     OW 8530   1.069   5.099   6.814
 2544SOL    HW1 8531   1.048   5.195   6.794
 2544SOL    HW2 8532   1.140   5.067   6.751
 2545SOL     OW 8533   3.024   5.813   3.823
 2545SOL    HW1 8534   3.063   5.724   3.846
 2545SOL    HW2 8535   2.964   5.843   3.897
 2546SOL     OW 8536   6.731   1.375   1.413
 2546SOL    HW1 8537   6.664   1.371   1.487
 2546SOL    HW2 8538   6.684   1.379   1.325
 2547SOL     OW 8539   1.046   3.553   5.289
 2547SOL    HW1 8540   0.988   3.576   5.211
 2547SOL    HW2 8541   1.038   3.624   5.359
 2548SOL     OW 8542   0.876   0.030   4.771
 2548SOL    HW1 8543   0.801   0.003   4.831
 2548SOL    HW2 8544   0.933   0.098   4.817
 2549SOL     OW 8545   6.276   3.027   2.068
 2549SOL    HW1 8546   6.277   2.934   2.030
 2549SOL    HW2 8547   6.292   3.023   2.166
 2550SOL     OW 8548   5.941   5.618   0.160
 2550SOL    HW1 8549   5.851   5.603   0.202
 2550SOL    HW2 8550   5.955   5.716   0.147
 2551SOL     OW 8551   1.057   4.376   6.938
 2551SOL    HW1 8552   1.002   4.324   7.004
 2551SOL    HW2 8553   1.000   4.399   6.859
 2552SOL     OW 8554   1.997   5.286   3.559
 2552SOL    HW1 8555   1.945   5.222   3.502
 2552SOL    HW2 8556   2.003   5.374   3.512
 2553SOL     OW 8557   4.165   3.733   6.638
 2553SOL    HW1 8558   4.135   3.784   6.718
 2553SOL    HW2 8559   4.145   3.785   6.555
 2554SOL     OW 8560   1.669   1.495   0.366
 2554SOL    HW1 8561   1.645   1.419   0.426
 2554SOL    HW2 8562   1.765   1.486   0.337
 2555SOL     OW 8563   6.173   0.707   6.925
 2555SOL    HW1 8564   6.184   0.657   6.839
 2555SOL    HW2 8565   6.213   0.798   6.915
 2556SOL     OW 8566   3.679   5.041   0.935
 2556SOL    HW1 8567   3.610   4.970   0.949
 2556SOL    HW2 8568   3.643   5.129   0.964
 2557SOL     OW 8569   2.135   4.544   6.655
 2557SOL    HW1 8570   2.065   4.521   6.722
 2557SOL    HW2 8571   2.107   4.509   6.565
 2558SOL     OW 8572   4.076   0.611   5.687
 2558SOL    HW1 8573   4.075   0.593   5.589
 2558SOL    HW2 8574   3.983   0.607   5.723
 2559SOL     OW 8575   0.330   5.147   4.715
 2559SOL    HW1 8576   0.423   5.142   4.679
 2559SOL    HW2 8577   0.285   5.230   4.681
 2560SOL     OW 8578   6.252   1.482   6.965
 2560SOL    HW1 8579   6.156   1.455   6.967
 2560SOL    HW2 8580   6.299   1.446   0.022
 2561SOL     OW 8581   2.848   5.375   5.022
 2561SOL    HW1 8582   2.853   5.465   5.066
 2561SOL    HW2 8583   2.757   5.363   4.981
 2562SOL     OW 8584   2.615   3.933   6.717
 2562SOL    HW1 8585   2.580   3.863   6.656
 2562SOL    HW2 8586   2.700   3.902   6.759
 2563SOL     OW 8587   2.089   1.101   0.933
 2563SOL    HW1 8588   2.118   1.007   0.949
 2563SOL    HW2 8589   1.993   1.110   0.959
 2564SOL     OW 8590   1.916   6.502   1.946
 2564SOL    HW1 8591   1.831   6.454   1.964
 2564SOL    HW2 8592   1.896   6.593   1.911
 2565SOL     OW 8593   1.242   0.805   1.550
 2565SOL    HW1 8594   1.293   0.891   1.556
 2565SOL    HW2 8595   1.271   0.744   1.624
 2566SOL     OW 8596   2.229   6.801   6.115
 2566SOL    HW1 8597   2.141   6.807   6.069
 2566SOL    HW2 8598   2.232   6.866   6.190
 2567SOL     OW 8599   0.698   0.425   0.606
 2567SOL    HW1 8600   0.758   0.395   0.681
 2567SOL    HW2 8601   0.753   0.437   0.523
 2568SOL     OW 8602   5.472   3.906   0.125
 2568SOL    HW1 8603   5.418   3.868   0.049
 2568SOL    HW2 8604   5.447   4.002   0.139
 2569SOL     OW 8605   2.897   0.667   2.729
 2569SOL    HW1 8606   2.956   0.718   2.793
 2569SOL    HW2 8607   2.809   0.714   2.722
 2570SOL     OW 8608   5.307   2.830   6.024
 2570SOL    HW1 8609   5.237   2.891   6.062
 2570SOL    HW2 8610   5.285   2.736   6.049
 2571SOL     OW 8611   0.844   4.139   4.593
 2571SOL    HW1 8612   0.879   4.175   4.680
 2571SOL    HW2 8613   0.848   4.039   4.595
 2572SOL     OW 8614   1.222   4.850   3.859
 2572SOL    HW1 8615   1.311   4.820   3.824
 2572SOL    HW2 8616   1.202   4.942   3.826
 2573SOL     OW 8617   1.279   0.178   0.744
 2573SOL    HW1 8618   1.209   0.235   0.787
 2573SOL    HW2 8619   1.235   0.102   0.696
 2574SOL     OW 8620   5.853   3.513   0.590
 2574SOL    HW1 8621   5.847   3.419   0.623
 2574SOL    HW2 8622   5.789   3.527   0.515
 2575SOL     OW 8623   0.354   5.951   6.084
 2575SOL    HW1 8624   0.443   5.921   6.119
 2575SOL    HW2 8625   0.282   5.892   6.122
 2576SOL     OW 8626   4.058   5.657   4.272
 2576SOL    HW1 8627   4.109   5.584   4.318
 2576SOL    HW2 8628   4.051   5.736   4.333
 2577SOL     OW 8629   2.297   4.226   2.197
 2577SOL    HW1 8630   2.376   4.234   2.258
 2577SOL    HW2 8631   2.226   4.291   2.224
 2578SOL     OW 8632   4.175   2.028   2.856
 2578SOL    HW1 8633   4.170   2.102   2.923
 2578SOL    HW2 8634   4.101   2.039   2.789
 2579SOL     OW 8635   0.722   6.432   3.236
 2579SOL    HW1 8636   0.811   6.470   3.263
 2579SOL    HW2 8637   0.690   6.478   3.154
 2580SOL     OW 8638   2.262   2.094   6.113
 2580SOL    HW1 8639   2.176   2.050   6.138
 2580SOL    HW2 8640   2.338   2.042   6.150
 2581SOL     OW 8641   3.236   0.767   5.783
 2581SOL    HW1 8642   3.180   0.847   5.805
 2581SOL    HW2 8643   3.224   0.743   5.687
 2582SOL     OW 8644   6.537   3.250   1.651
 2582SOL    HW1 8645   6.593   3.299   1.584
 2582SOL    HW2 8646   6.554   3.288   1.742
 2583SOL     OW 8647   5.743   0.400   0.969
 2583SOL    HW1 8648   5.751   0.371   0.874
 2583SOL    HW2 8649   5.693   0.487   0.974
 2584SOL     OW 8650   3.793   4.444   6.247
 2584SOL    HW1 8651   3.743   4.495   6.176
 2584SOL    HW2 8652   3.859   4.383   6.203
 2585SOL     OW 8653   3.340   4.626   6.627
 2585SOL    HW1 8654   3.296   4.567   6.559
 2585SOL    HW2 8655   3.422   4.581   6.662
 2586SOL     OW 8656   2.823   0.734   3.902
 2586SOL    HW1 8657   2.750   0.735   3.970
 2586SOL    HW2 8658   2.794   0.681   3.823
 2587SOL     OW 8659   6.797   0.806   4.115
 2587SOL    HW1 8660   6.850   0.740   4.062
 2587SOL    HW2 8661   6.780   0.770   4.207
 2588SOL     OW 8662   4.586   0.804   6.337
 2588SOL    HW1 8663   4.584   0.903   6.321
 2588SOL    HW2 8664   4.640   0.760   6.265
 2589SOL     OW 8665   2.323   6.628   0.220
 2589SOL    HW1 8666   2.328   6.619   0.320
 2589SOL    HW2 8667   2.336   6.723   0.194
 2590SOL     OW 8668   2.831   5.972   0.490
 2590SOL    HW1 8669   2.816   6.057   0.440
 2590SOL    HW2 8670   2.863   5.901   0.427
 2591SOL     OW 8671   5.878   5.222   3.520
 2591SOL    HW1 8672   5.859   5.147   3.458
 2591SOL    HW2 8673   5.954   5.277   3.485
 2592SOL     OW 8674   2.647   4.387   1.047
 2592SOL    HW1 8675   2.695   4.475   1.055
 2592SOL    HW2 8676   2.713   4.312   1.056
 2593SOL     OW 8677   3.585   4.087   0.898
 2593SOL    HW1 8678   3.552   4.115   0.988
 2593SOL    HW2 8679   3.507   4.066   0.839
 2594SOL     OW 8680   2.132   3.306   4.558
 2594SOL    HW1 8681   2.124   3.207   4.547
 2594SOL    HW2 8682   2.228   3.330   4.574
 2595SOL     OW 8683   2.401   1.550   2.848
 2595SOL    HW1 8684   2.311   1.519   2.818
 2595SOL    HW2 8685   2.466   1.542   2.773
 2596SOL     OW 8686   1.051   1.595   0.415
 2596SOL    HW1 8687   1.138   1.585   0.367
 2596SOL    HW2 8688   0.983   1.634   0.353
 2597SOL     OW 8689   6.375   6.819   0.151
 2597SOL    HW1 8690   6.337   6.837   0.242
 2597SOL    HW2 8691   6.321   6.870   0.083
 2598SOL     OW 8692   5.455   2.330   2.428
 2598SOL    HW1 8693   5.449   2.394   2.504
 2598SOL    HW2 8694   5.470   2.380   2.343
 2599SOL     OW 8695   2.823   5.737   2.238
 2599SOL    HW1 8696   2.905   5.751   2.293
 2599SOL    HW2 8697   2.746   5.785   2.281
 2600SOL     OW 8698   5.742   3.663   4.108
 2600SOL    HW1 8699   5.805   3.682   4.183
 2600SOL    HW2 8700   5.777   3.703   4.024
 2601SOL     OW 8701   6.653   1.368   3.731
 2601SOL    HW1 8702   6.722   1.438   3.716
 2601SOL    HW2 8703   6.562   1.405   3.709
 2602SOL     OW 8704   0.881   4.580   2.447
 2602SOL    HW1 8705   0.827   4.628   2.377
 2602SOL    HW2 8706   0.973   4.619   2.450
 2603SOL     OW 8707   2.706   6.429   2.763
 2603SOL    HW1 8708   2.637   6.377   2.812
 2603SOL    HW2 8709   2.727   6.513   2.814
 2604SOL     OW 8710   4.637   2.631   3.585
 2604SOL    HW1 8711   4.600   2.591   3.669
 2604SOL    HW2 8712   4.614   2.572   3.507
 2605SOL     OW 8713   1.614   3.715   1.964
 2605SOL    HW1 8714   1.591   3.775   1.887
 2605SOL    HW2 8715   1.693   3.659   1.938
 2606SOL     OW 8716   4.831   3.984   1.214
 2606SOL    HW1 8717   4.789   4.030   1.136
 2606SOL    HW2 8718   4.903   4.042   1.252
 2607SOL     OW 8719   2.538   2.439   1.470
 2607SOL    HW1 8720   2.495   2.451   1.380
 2607SOL    HW2 8721   2.637   2.441   1.460
 2608SOL     OW 8722   3.103   4.910   5.630
 2608SOL    HW1 8723   3.137   4.887   5.721
 2608SOL    HW2 8724   3.093   5.009   5.622
 2609SOL     OW 8725   0.726   2.525   0.585
 2609SOL    HW1 8726   0.695   2.447   0.530
 2609SOL    HW2 8727   0.796   2.494   0.650
 2610SOL     OW 8728   1.718   3.623   4.822
 2610SOL    HW1 8729   1.813   3.652   4.835
 2610SOL    HW2 8730   1.701   3.540   4.875
 2611SOL     OW 8731   4.840   0.054   5.920
 2611SOL    HW1 8732   4.822   0.005   6.006
 2611SOL    HW2 8733   4.873   7.012   5.852
 2612SOL     OW 8734   6.465   6.902   6.723
 2612SOL    HW1 8735   6.484   6.997   6.698
 2612SOL    HW2 8736   6.461   6.847   6.640
 2613SOL     OW 8737   1.113   6.514   6.816
 2613SOL    HW1 8738   1.016   6.527   6.837
 2613SOL    HW2 8739   1.167   6.523   6.899
 2614SOL     OW 8740   6.097   2.168   7.023
 2614SOL    HW1 8741   6.120   2.137   0.092
 2614SOL    HW2 8742   6.096   2.090   6.961
 2615SOL     OW 8743   0.392   3.289   6.608
 2615SOL    HW1 8744   0.475   3.321   6.655
 2615SOL    HW2 8745   0.417   3.226   6.535
 2616SOL     OW 8746   1.463   0.833   5.481
 2616SOL    HW1 8747   1.531   0.904   5.465
 2616SOL    HW2 8748   1.499   0.745   5.451
 2617SOL     OW 8749   4.989   0.304   1.516
 2617SOL    HW1 8750   4.965   0.313   1.419
 2617SOL    HW2 8751   4.911   0.334   1.572
 2618SOL     OW 8752   1.223   6.725   6.123
 2618SOL    HW1 8753   1.313   6.705   6.083
 2618SOL    HW2 8754   1.206   6.823   6.117
 2619SOL     OW 8755   4.683   0.908   2.952
 2619SOL    HW1 8756   4.726   0.961   2.878
 2619SOL    HW2 8757   4.710   0.812   2.945
 2620SOL     OW 8758   6.219   2.028   1.673
 2620SOL    HW1 8759   6.195   1.989   1.762
 2620SOL    HW2 8760   6.143   2.016   1.610
 2621SOL     OW 8761   1.954   6.245   1.479
 2621SOL    HW1 8762   2.049   6.255   1.508
 2621SOL    HW2 8763   1.908   6.334   1.485
 2622SOL     OW 8764   2.480   3.975   6.989
 2622SOL    HW1 8765   2.485   3.985   6.890
 2622SOL    HW2 8766   2.469   4.066   0.007
 2623SOL     OW 8767   0.059   0.076   3.626
 2623SOL    HW1 8768   0.051   0.027   3.539
 2623SOL    HW2 8769   7.023   0.156   3.625
 2624SOL     OW 8770   0.939   1.309   5.355
 2624SOL    HW1 8771   1.004   1.292   5.281
 2624SOL    HW2 8772   0.974   1.381   5.414
 2625SOL     OW 8773   2.548   5.322   6.337
 2625SOL    HW1 8774   2.503   5.342   6.250
 2625SOL    HW2 8775   2.481   5.287   6.403
 2626SOL     OW 8776   6.528   6.771   6.949
 2626SOL    HW1 8777   6.475   6.790   0.008
 2626SOL    HW2 8778   6.490   6.823   6.872
 2627SOL     OW 8779   2.076   0.520   5.866
 2627SOL    HW1 8780   2.117   0.430   5.883
 2627SOL    HW2 8781   2.023   0.548   5.945
 2628SOL     OW 8782   0.129   4.589   1.407
 2628SOL    HW1 8783   0.182   4.510   1.438
 2628SOL    HW2 8784   0.155   4.613   1.314
 2629SOL     OW 8785   3.278   4.103   2.551
 2629SOL    HW1 8786   3.282   4.005   2.571
 2629SOL    HW2 8787   3.186   4.127   2.520
 2630SOL     OW 8788   3.660   0.423   4.105
 2630SOL    HW1 8789   3.688   0.517   4.125
 2630SOL    HW2 8790   3.740   0.370   4.078
 2631SOL     OW 8791   5.509   6.802   0.159
 2631SOL    HW1 8792   5.421   6.829   0.199
 2631SOL    HW2 8793   5.497   6.785   0.061
 2632SOL     OW 8794   5.909   5.012   1.952
 2632SOL    HW1 8795   5.923   4.930   2.007
 2632SOL    HW2 8796   5.836   4.995   1.885
 2633SOL     OW 8797   0.220   3.392   6.065
 2633SOL    HW1 8798   0.282   3.458   6.023
 2633SOL    HW2 8799   0.225   3.400   6.165
 2634SOL     OW 8800   1.009   1.531   5.515
 2634SOL    HW1 8801   1.034   1.542   5.611
 2634SOL    HW2 8802   0.956   1.610   5.485
 2635SOL     OW 8803   4.309   5.058   3.524
 2635SOL    HW1 8804   4.287   5.117   3.601
 2635SOL    HW2 8805   4.278   5.101   3.439
 2636SOL     OW 8806   3.367   6.673   6.169
 2636SOL    HW1 8807   3.367   6.707   6.263
 2636SOL    HW2 8808   3.274   6.675   6.133
 2637SOL     OW 8809   0.440   0.693   3.050
 2637SOL    HW1 8810   0.342   0.703   3.067
 2637SOL    HW2 8811   0.469   0.759   2.981
 2638SOL     OW 8812   0.747   6.899   4.522
 2638SOL    HW1 8813   0.690   6.931   4.598
 2638SOL    HW2 8814   0.718   6.944   4.438
 2639SOL     OW 8815   4.559   4.928   4.791
 2639SOL    HW1 8816   4.529   5.021   4.767
 2639SOL    HW2 8817   4.492   4.886   4.851
 2640SOL     OW 8818   2.512   1.010   3.808
 2640SOL    HW1 8819   2.448   1.084   3.785
 2640SOL    HW2 8820   2.605   1.046   3.809
 2641SOL     OW 8821   5.147   1.833   0.300
 2641SOL    HW1 8822   5.083   1.756   0.309
 2641SOL    HW2 8823   5.105   1.905   0.245
 2642SOL     OW 8824   0.128   0.175   2.652
 2642SOL    HW1 8825   0.058   0.151   2.584
 2642SOL    HW2 8826   0.219   0.171   2.610
 2643SOL     OW 8827   1.341   4.660   4.529
 2643SOL    HW1 8828   1.287   4.739   4.559
 2643SOL    HW2 8829   1.402   4.631   4.603
 2644SOL     OW 8830   5.508   5.566   4.690
 2644SOL    HW1 8831   5.562   5.546   4.771
 2644SOL    HW2 8832   5.501   5.484   4.633
 2645SOL     OW 8833   4.961   5.944   3.166
 2645SOL    HW1 8834   5.002   6.010   3.103
 2645SOL    HW2 8835   4.875   5.981   3.202
 2646SOL     OW 8836   0.715   2.397   6.470
 2646SOL    HW1 8837   0.654   2.364   6.398
 2646SOL    HW2 8838   0.668   2.466   6.525
 2647SOL     OW 8839   4.856   6.729   2.684
 2647SOL    HW1 8840   4.877   6.826   2.674
 2647SOL    HW2 8841   4.799   6.715   2.765
 2648SOL     OW 8842   1.176   6.979   6.117
 2648SOL    HW1 8843   1.268   7.020   6.118
 2648SOL    HW2 8844   1.108   0.027   6.101
 2649SOL     OW 8845   5.281   1.642   3.202
 2649SOL    HW1 8846   5.217   1.690   3.262
 2649SOL    HW2 8847   5.234   1.617   3.117
 2650SOL     OW 8848   2.226   6.878   3.792
 2650SOL    HW1 8849   2.244   6.780   3.792
 2650SOL    HW2 8850   2.130   6.895   3.770
 2651SOL     OW 8851   4.084   1.786   4.229
 2651SOL    HW1 8852   3.993   1.823   4.250
 2651SOL    HW2 8853   4.100   1.794   4.130
 2652SOL     OW 8854   5.501   4.173   5.410
 2652SOL    HW1 8855   5.531   4.231   5.333
 2652SOL    HW2 8856   5.403   4.187   5.425
 2653SOL     OW 8857   2.129   6.440   6.957
 2653SOL    HW1 8858   2.189   6.361   6.944
 2653SOL    HW2 8859   2.105   6.447   0.031
 2654SOL     OW 8860   0.186   1.238   0.765
 2654SOL    HW1 8861   0.194   1.261   0.862
 2654SOL    HW2 8862   0.091   1.216   0.744
 2655SOL     OW 8863   5.603   6.340   3.049
 2655SOL    HW1 8864   5.616   6.385   2.960
 2655SOL    HW2 8865   5.683   6.284   3.070
 2656SOL     OW 8866   4.812   5.935   3.897
 2656SOL    HW1 8867   4.857   5.949   3.809
 2656SOL    HW2 8868   4.753   5.854   3.891
 2657SOL     OW 8869   1.180   3.284   6.819
 2657SOL    HW1 8870   1.160   3.203   6.763
 2657SOL    HW2 8871   1.248   3.260   6.888
 2658SOL     OW 8872   3.716   4.988   7.019
 2658SOL    HW1 8873   3.742   4.907   0.047
 2658SOL    HW2 8874   3.780   5.063   0.015
 2659SOL     OW 8875   0.212   2.167   5.409
 2659SOL    HW1 8876   0.259   2.112   5.477
 2659SOL    HW2 8877   0.237   2.263   5.420
 2660SOL     OW 8878   0.213   1.314   1.055
 2660SOL    HW1 8879   0.229   1.403   1.099
 2660SOL    HW2 8880   0.279   1.248   1.089
 2661SOL     OW 8881   1.761   1.397   1.345
 2661SOL    HW1 8882   1.700   1.469   1.311
 2661SOL    HW2 8883   1.822   1.368   1.271
 2662SOL     OW 8884   2.594   2.090   2.316
 2662SOL    HW1 8885   2.660   2.025   2.353
 2662SOL    HW2 8886   2.607   2.098   2.218
 2663SOL     OW 8887   3.636   6.944   0.805
 2663SOL    HW1 8888   3.640   6.882   0.883
 2663SOL    HW2 8889   3.568   7.015   0.822
 2664SOL     OW 8890   4.968   3.554   5.365
 2664SOL    HW1 8891   5.034   3.494   5.410
 2664SOL    HW2 8892   4.878   3.543   5.407
 2665SOL     OW 8893   1.673   3.168   3.683
 2665SOL    HW1 8894   1.626   3.124   3.607
 2665SOL    HW2 8895   1.650   3.266   3.684
 2666SOL     OW 8896   2.213   4.377   1.903
 2666SOL    HW1 8897   2.154   4.349   1.827
 2666SOL    HW2 8898   2.294   4.319   1.905
 2667SOL     OW 8899   6.484   2.813   5.469
 2667SOL    HW1 8900   6.474   2.714   5.460
 2667SOL    HW2 8901   6.394   2.854   5.484
 2668SOL     OW 8902   6.271   0.577   3.401
 2668SOL    HW1 8903   6.360   0.610   3.368
 2668SOL    HW2 8904   6.281   0.485   3.439
 2669SOL     OW 8905   2.693   0.923   1.012
 2669SOL    HW1 8906   2.710   1.014   1.049
 2669SOL    HW2 8907   2.601   0.920   0.971
 2670SOL     OW 8908   0.291   0.051   6.836
 2670SOL    HW1 8909   0.367   0.014   6.783
 2670SOL    HW2 8910   0.322   0.131   6.888
 2671SOL     OW 8911   5.300   4.555   6.109
 2671SOL    HW1 8912   5.222   4.618   6.105
 2671SOL    HW2 8913   5.372   4.587   6.048
 2672SOL     OW 8914   2.539   1.145   2.030
 2672SOL    HW1 8915   2.544   1.074   2.101
 2672SOL    HW2 8916   2.460   1.128   1.972
 2673SOL     OW 8917   3.805   0.107   2.509
 2673SOL    HW1 8918   3.871   0.181   2.521
 2673SOL    HW2 8919   3.814   0.043   2.586
 2674SOL     OW 8920   6.908   6.016   3.103
 2674SOL    HW1 8921   6.880   6.111   3.117
 2674SOL    HW2 8922   6.866   5.959   3.174
 2675SOL     OW 8923   4.933   1.023   4.889
 2675SOL    HW1 8924   4.909   1.080   4.811
 2675SOL    HW2 8925   5.032   1.015   4.896
 2676SOL     OW 8926   4.102   3.812   4.015
 2676SOL    HW1 8927   4.140   3.897   4.052
 2676SOL    HW2 8928   4.029   3.834   3.950
 2677SOL     OW 8929   1.560   5.786   0.741
 2677SOL    HW1 8930   1.507   5.871   0.741
 2677SOL    HW2 8931   1.498   5.708   0.742
 2678SOL     OW 8932   3.451   2.058   2.792
 2678SOL    HW1 8933   3.469   1.963   2.766
 2678SOL    HW2 8934   3.375   2.060   2.858
 2679SOL     OW 8935   1.507   3.575   2.317
 2679SOL    HW1 8936   1.563   3.516   2.257
 2679SOL    HW2 8937   1.512   3.541   2.411
 2680SOL     OW 8938   5.365   2.837   6.956
 2680SOL    HW1 8939   5.422   2.906   7.001
 2680SOL    HW2 8940   5.424   2.766   6.918
 2681SOL     OW 8941   1.945   2.366   3.674
 2681SOL    HW1 8942   1.889   2.294   3.716
 2681SOL    HW2 8943   2.041   2.339   3.679
 2682SOL     OW 8944   3.737   3.850   1.834
 2682SOL    HW1 8945   3.652   3.891   1.866
 2682SOL    HW2 8946   3.744   3.756   1.869
 2683SOL     OW 8947   2.188   3.937   1.431
 2683SOL    HW1 8948   2.099   3.896   1.454
 2683SOL    HW2 8949   2.174   4.030   1.397
 2684SOL     OW 8950   6.555   0.601   3.918
 2684SOL    HW1 8951   6.598   0.683   3.957
 2684SOL    HW2 8952   6.466   0.588   3.961
 2685SOL     OW 8953   0.975   6.357   5.677
 2685SOL    HW1 8954   1.022   6.360   5.589
 2685SOL    HW2 8955   0.956   6.450   5.708
 2686SOL     OW 8956   1.766   0.796   5.623
 2686SOL    HW1 8957   1.856   0.753   5.628
 2686SOL    HW2 8958   1.765   0.860   5.545
 2687SOL     OW 8959   4.248   1.499   1.486
 2687SOL    HW1 8960   4.226   1.595   1.502
 2687SOL    HW2 8961   4.347   1.490   1.473
 2688SOL     OW 8962   4.260   2.696   0.279
 2688SOL    HW1 8963   4.204   2.719   0.200
 2688SOL    HW2 8964   4.202   2.659   0.352
 2689SOL     OW 8965   0.479   4.030   2.928
 2689SOL    HW1 8966   0.490   3.963   3.002
 2689SOL    HW2 8967   0.510   4.120   2.960
 2690SOL     OW 8968   5.291   1.069   5.434
 2690SOL    HW1 8969   5.297   0.981   5.481
 2690SOL    HW2 8970   5.240   1.134   5.492
 2691SOL     OW 8971   0.442   3.585   5.045
 2691SOL    HW1 8972   0.394   3.645   5.108
 2691SOL    HW2 8973   0.491   3.515   5.097
 2692SOL     OW 8974   2.664   5.522   1.949
 2692SOL    HW1 8975   2.709   5.481   1.870
 2692SOL    HW2 8976   2.632   5.614   1.926
 2693SOL     OW 8977   1.126   5.364   2.855
 2693SOL    HW1 8978   1.142   5.330   2.762
 2693SOL    HW2 8979   1.109   5.287   2.916
 2694SOL     OW 8980   2.544   0.290   2.209
 2694SOL    HW1 8981   2.504   0.375   2.245
 2694SOL    HW2 8982   2.482   0.250   2.142
 2695SOL     OW 8983   6.877   4.739   3.699
 2695SOL    HW1 8984   6.920   4.808   3.757
 2695SOL    HW2 8985   6.923   4.651   3.712
 2696SOL     OW 8986   4.415   4.629   6.846
 2696SOL    HW1 8987   4.486   4.634   6.916
 2696SOL    HW2 8988   4.405   4.718   6.802
 2697SOL     OW 8989   3.555   2.001   0.561
 2697SOL    HW1 8990   3.482   1.954   0.609
 2697SOL    HW2 8991   3.574   1.955   0.475
 2698SOL     OW 8992   1.415   5.550   5.905
 2698SOL    HW1 8993   1.437   5.559   5.808
 2698SOL    HW2 8994   1.497   5.521   5.955
 2699SOL     OW 8995   2.863   6.787   2.124
 2699SOL    HW1 8996   2.776   6.786   2.174
 2699SOL    HW2 8997   2.904   6.696   2.126
 2700SOL     OW 8998   4.232   2.007   1.730
 2700SOL    HW1 8999   4.144   1.960   1.729
 2700SOL    HW2 9000   4.234   2.071   1.807
 2701SOL     OW 9001   5.269   3.977   5.095
 2701SOL    HW1 9002   5.338   3.912   5.064
 2701SOL    HW2 9003   5.313   4.063   5.120
 2702SOL     OW 9004   2.682   1.164   4.835
 2702SOL    HW1 9005   2.672   1.219   4.752
 2702SOL    HW2 9006   2.671   1.222   4.916
 2703SOL     OW 9007   2.293   6.351   2.906
 2703SOL    HW1 9008   2.216   6.288   2.900
 2703SOL    HW2 9009   2.378   6.302   2.887
 2704SOL     OW 9010   4.355   0.535   3.550
 2704SOL    HW1 9011   4.429   0.550   3.485
 2704SOL    HW2 9012   4.342   0.618   3.605
 2705SOL     OW 9013   1.652   0.355   5.181
 2705SOL    HW1 9014   1.664   0.260   5.212
 2705SOL    HW2 9015   1.739   0.392   5.151
 2706SOL     OW 9016   6.867   4.343   4.004
 2706SOL    HW1 9017   6.945   4.301   3.957
 2706SOL    HW2 9018   6.834   4.421   3.951
 2707SOL     OW 9019   4.467   1.211   3.420
 2707SOL    HW1 9020   4.555   1.260   3.421
 2707SOL    HW2 9021   4.399   1.267   3.373
 2708SOL     OW 9022   4.993   3.355   5.925
 2708SOL    HW1 9023   5.033   3.428   5.870
 2708SOL    HW2 9024   5.062   3.284   5.941
 2709SOL     OW 9025   4.787   1.788   5.613
 2709SOL    HW1 9026   4.781   1.700   5.566
 2709SOL    HW2 9027   4.741   1.858   5.558
 2710SOL     OW 9028   0.999   2.618   4.066
 2710SOL    HW1 9029   0.973   2.707   4.105
 2710SOL    HW2 9030   1.058   2.632   3.987
 2711SOL     OW 9031   4.128   0.748   2.066
 2711SOL    HW1 9032   4.052   0.728   2.129
 2711SOL    HW2 9033   4.108   0.709   1.976
 2712SOL     OW 9034   5.549   6.129   2.012
 2712SOL    HW1 9035   5.586   6.153   2.102
 2712SOL    HW2 9036   5.616   6.072   1.963
 2713SOL     OW 9037   3.818   4.899   5.509
 2713SOL    HW1 9038   3.815   4.828   5.438
 2713SOL    HW2 9039   3.885   4.969   5.484
 2714SOL     OW 9040   3.175   4.515   6.043
 2714SOL    HW1 9041   3.103   4.460   6.001
 2714SOL    HW2 9042   3.219   4.570   5.973
 2715SOL     OW 9043   4.538   6.663   6.860
 2715SOL    HW1 9044   4.473   6.588   6.877
 2715SOL    HW2 9045   4.617   6.653   6.920
 2716SOL     OW 9046   4.362   0.440   2.826
 2716SOL    HW1 9047   4.392   0.502   2.753
 2716SOL    HW2 9048   4.348   0.491   2.911
 2717SOL     OW 9049   0.947   1.923   2.297
 2717SOL    HW1 9050   0.944   1.853   2.225
 2717SOL    HW2 9051   1.027   1.908   2.355
 2718SOL     OW 9052   6.296   1.414   5.916
 2718SOL    HW1 9053   6.236   1.452   5.987
 2718SOL    HW2 9054   6.391   1.420   5.946
 2719SOL     OW 9055   1.561   4.722   3.805
 2719SOL    HW1 9056   1.576   4.624   3.822
 2719SOL    HW2 9057   1.555   4.738   3.707
 2720SOL     OW 9058   1.677   5.608   6.299
 2720SOL    HW1 9059   1.707   5.699   6.328
 2720SOL    HW2 9060   1.721   5.585   6.212
 2721SOL     OW 9061   2.334   6.767   1.819
 2721SOL    HW1 9062   2.293   6.839   1.875
 2721SOL    HW2 9063   2.422   6.741   1.858
 2722SOL     OW 9064   3.721   4.671   6.651
 2722SOL    HW1 9065   3.666   4.588   6.653
 2722SOL    HW2 9066   3.814   4.651   6.681
 2723SOL     OW 9067   4.208   5.888   6.123
 2723SOL    HW1 9068   4.240   5.905   6.217
 2723SOL    HW2 9069   4.262   5.944   6.060
 2724SOL     OW 9070   6.558   5.640   1.431
 2724SOL    HW1 9071   6.609   5.679   1.508
 2724SOL    HW2 9072   6.522   5.550   1.458
 2725SOL     OW 9073   5.913   4.356   3.483
 2725SOL    HW1 9074   5.870   4.378   3.571
 2725SOL    HW2 9075   5.915   4.438   3.426
 2726SOL     OW 9076   6.299   1.835   2.719
 2726SOL    HW1 9077   6.312   1.923   2.673
 2726SOL    HW2 9078   6.201   1.814   2.722
 2727SOL     OW 9079   1.702   5.471   3.352
 2727SOL    HW1 9080   1.630   5.420   3.399
 2727SOL    HW2 9081   1.694   5.568   3.373
 2728SOL     OW 9082   4.770   5.880   6.005
 2728SOL    HW1 9083   4.775   5.813   5.931
 2728SOL    HW2 9084   4.737   5.967   5.970
 2729SOL     OW 9085   6.005   0.463   0.173
 2729SOL    HW1 9086   6.086   0.442   0.119
 2729SOL    HW2 9087   5.954   0.537   0.129
 2730SOL     OW 9088   1.304   5.817   2.485
 2730SOL    HW1 9089   1.323   5.792   2.390
 2730SOL    HW2 9090   1.214   5.860   2.490
 2731SOL     OW 9091   3.206   4.077   4.722
 2731SOL    HW1 9092   3.126   4.065   4.780
 2731SOL    HW2 9093   3.278   4.123   4.774
 2732SOL     OW 9094   5.204   0.798   1.585
 2732SOL    HW1 9095   5.158   0.710   1.573
 2732SOL    HW2 9096   5.226   0.811   1.682
 2733SOL     OW 9097   0.689   6.514   0.431
 2733SOL    HW1 9098   0.740   6.511   0.345
 2733SOL    HW2 9099   0.628   6.594   0.431
 2734SOL     OW 9100   3.817   6.400   2.541
 2734SOL    HW1 9101   3.766   6.329   2.590
 2734SOL    HW2 9102   3.817   6.484   2.594
 2735SOL     OW 9103   0.945   1.693   2.082
 2735SOL    HW1 9104   0.943   1.598   2.050
 2735SOL    HW2 9105   0.892   1.750   2.019
 2736SOL     OW 9106   5.794   3.963   2.727
 2736SOL    HW1 9107   5.707   3.966   2.677
 2736SOL    HW2 9108   5.819   4.056   2.755
 2737SOL     OW 9109   3.185   0.688   5.521
 2737SOL    HW1 9110   3.138   0.600   5.531
 2737SOL    HW2 9111   3.215   0.699   5.426
 2738SOL     OW 9112   4.907   5.550   1.101
 2738SOL    HW1 9113   4.874   5.571   1.192
 2738SOL    HW2 9114   4.921   5.451   1.093
 2739SOL     OW 9115   6.738   5.723   1.626
 2739SOL    HW1 9116   6.687   5.791   1.678
 2739SOL    HW2 9117   6.796   5.670   1.689
 2740SOL     OW 9118   0.255   5.052   3.418
 2740SOL    HW1 9119   0.185   5.122   3.434
 2740SOL    HW2 9120   0.216   4.962   3.435
 2741SOL     OW 9121   0.987   6.587   6.051
 2741SOL    HW1 9122   1.079   6.624   6.061
 2741SOL    HW2 9123   0.957   6.595   5.956
 2742SOL     OW 9124   3.292   5.625   3.143
 2742SOL    HW1 9125   3.198   5.647   3.170
 2742SOL    HW2 9126   3.291   5.561   3.066
 2743SOL     OW 9127   4.747   1.900   2.726
 2743SOL    HW1 9128   4.781   1.993   2.711
 2743SOL    HW2 9129   4.749   1.850   2.640
 2744SOL     OW 9130   3.568   4.091   2.464
 2744SOL    HW1 9131   3.657   4.082   2.507
 2744SOL    HW2 9132   3.497   4.091   2.534
 2745SOL     OW 9133   0.618   5.768   0.348
 2745SOL    HW1 9134   0.556   5.726   0.282
 2745SOL    HW2 9135   0.567   5.790   0.432
 2746SOL     OW 9136   1.759   1.077   3.726
 2746SOL    HW1 9137   1.717   1.060   3.637
 2746SOL    HW2 9138   1.855   1.103   3.714
 2747SOL     OW 9139   4.103   4.625   0.623
 2747SOL    HW1 9140   4.082   4.532   0.651
 2747SOL    HW2 9141   4.045   4.652   0.547
 2748SOL     OW 9142   3.783   0.297   0.600
 2748SOL    HW1 9143   3.822   0.274   0.690
 2748SOL    HW2 9144   3.819   0.233   0.532
 2749SOL     OW 9145   3.251   1.463   0.903
 2749SOL    HW1 9146   3.300   1.498   0.983
 2749SOL    HW2 9147   3.160   1.504   0.899
 2750SOL     OW 9148   3.020   5.980   3.389
 2750SOL    HW1 9149   3.046   6.073   3.415
 2750SOL    HW2 9150   2.942   5.983   3.327
 2751SOL     OW 9151   6.252   4.555   1.101
 2751SOL    HW1 9152   6.209   4.630   1.151
 2751SOL    HW2 9153   6.343   4.584   1.069
 2752SOL     OW 9154   3.811   5.713   6.534
 2752SOL    HW1 9155   3.716   5.691   6.555
 2752SOL    HW2 9156   3.817   5.806   6.496
 2753SOL     OW 9157   5.031   5.937   5.506
 2753SOL    HW1 9158   5.049   6.006   5.576
 2753SOL    HW2 9159   5.083   5.960   5.424
 2754SOL     OW 9160   1.403   0.301   5.964
 2754SOL    HW1 9161   1.305   0.312   5.979
 2754SOL    HW2 9162   1.444   0.390   5.946
 2755SOL     OW 9163   3.700   0.142   2.233
 2755SOL    HW1 9164   3.751   0.112   2.313
 2755SOL    HW2 9165   3.607   0.105   2.236
 2756SOL     OW 9166   4.375   6.247   0.446
 2756SOL    HW1 9167   4.310   6.323   0.458
 2756SOL    HW2 9168   4.348   6.192   0.367
 2757SOL     OW 9169   0.802   5.233   0.672
 2757SOL    HW1 9170   0.786   5.140   0.639
 2757SOL    HW2 9171   0.774   5.240   0.768
 2758SOL     OW 9172   5.061   0.953   5.266
 2758SOL    HW1 9173   5.155   0.931   5.240
 2758SOL    HW2 9174   5.041   0.913   5.356
 2759SOL     OW 9175   4.779   4.848   4.118
 2759SOL    HW1 9176   4.686   4.837   4.153
 2759SOL    HW2 9177   4.802   4.946   4.114
 2760SOL     OW 9178   1.376   6.714   3.803
 2760SOL    HW1 9179   1.320   6.728   3.722
 2760SOL    HW2 9180   1.470   6.693   3.776
 2761SOL     OW 9181   2.241   4.989   4.287
 2761SOL    HW1 9182   2.168   4.976   4.353
 2761SOL    HW2 9183   2.287   4.901   4.270
 2762SOL     OW 9184   2.064   0.734   5.249
 2762SOL    HW1 9185   2.043   0.654   5.306
 2762SOL    HW2 9186   2.163   0.748   5.247
 2763SOL     OW 9187   4.718   1.064   2.177
 2763SOL    HW1 9188   4.789   1.075   2.247
 2763SOL    HW2 9189   4.635   1.112   2.206
 2764SOL     OW 9190   6.282   0.847   1.430
 2764SOL    HW1 9191   6.358   0.800   1.475
 2764SOL    HW2 9192   6.260   0.801   1.344
 2765SOL     OW 9193   5.092   2.018   2.716
 2765SOL    HW1 9194   5.009   2.064   2.684
 2765SOL    HW2 9195   5.072   1.968   2.800
 2766SOL     OW 9196   6.014   0.082   2.541
 2766SOL    HW1 9197   6.026   7.022   2.594
 2766SOL    HW2 9198   5.932   0.073   2.483
 2767SOL     OW 9199   6.079   4.465   6.135
 2767SOL    HW1 9200   6.114   4.385   6.182
 2767SOL    HW2 9201   6.032   4.524   6.200
 2768SOL     OW 9202   5.979   1.655   6.706
 2768SOL    HW1 9203   5.923   1.679   6.785
 2768SOL    HW2 9204   6.064   1.611   6.736
 2769SOL     OW 9205   0.898   4.380   1.404
 2769SOL    HW1 9206   0.975   4.436   1.374
 2769SOL    HW2 9207   0.816   4.404   1.351
 2770SOL     OW 9208   6.176   6.002   2.116
 2770SOL    HW1 9209   6.250   5.940   2.144
 2770SOL    HW2 9210   6.108   5.951   2.064
 2771SOL     OW 9211   4.971   1.203   1.090
 2771SOL    HW1 9212   5.002   1.108   1.093
 2771SOL    HW2 9213   5.029   1.255   1.028
 2772SOL     OW 9214   3.567   2.388   6.652
 2772SOL    HW1 9215   3.471   2.399   6.626
 2772SOL    HW2 9216   3.594   2.462   6.714
 2773SOL     OW 9217   3.264   4.733   0.819
 2773SOL    HW1 9218   3.181   4.778   0.851
 2773SOL    HW2 9219   3.276   4.753   0.722
 2774SOL     OW 9220   5.558   3.111   2.038
 2774SOL    HW1 9221   5.647   3.152   2.018
 2774SOL    HW2 9222   5.540   3.116   2.136
 2775SOL     OW 9223   6.679   0.072   1.868
 2775SOL    HW1 9224   6.710   0.103   1.778
 2775SOL    HW2 9225   6.704   0.140   1.937
 2776SOL     OW 9226   3.133   6.440   6.442
 2776SOL    HW1 9227   3.204   6.385   6.486
 2776SOL    HW2 9228   3.096   6.390   6.365
 2777SOL     OW 9229   2.489   2.053   3.943
 2777SOL    HW1 9230   2.528   1.981   3.885
 2777SOL    HW2 9231   2.394   2.032   3.963
 2778SOL     OW 9232   2.439   2.629   4.501
 2778SOL    HW1 9233   2.356   2.579   4.527
 2778SOL    HW2 9234   2.513   2.565   4.483
 2779SOL     OW 9235   6.245   1.711   0.815
 2779SOL    HW1 9236   6.287   1.801   0.811
 2779SOL    HW2 9237   6.211   1.693   0.907
 2780SOL     OW 9238   3.412   6.055   6.938
 2780SOL    HW1 9239   3.454   6.027   0.000
 2780SOL    HW2 9240   3.325   6.007   6.925
 2781SOL     OW 9241   4.859   4.532   6.927
 2781SOL    HW1 9242   4.778   4.577   6.963
 2781SOL    HW2 9243   4.882   4.454   6.985
 2782SOL     OW 9244   2.885   1.277   5.943
 2782SOL    HW1 9245   2.858   1.373   5.953
 2782SOL    HW2 9246   2.897   1.237   6.034
 2783SOL     OW 9247   0.410   4.178   5.610
 2783SOL    HW1 9248   0.342   4.109   5.636
 2783SOL    HW2 9249   0.364   4.265   5.593
 2784SOL     OW 9250   2.369   2.304   1.807
 2784SOL    HW1 9251   2.456   2.265   1.776
 2784SOL    HW2 9252   2.361   2.397   1.771
 2785SOL     OW 9253   5.952   1.218   1.424
 2785SOL    HW1 9254   6.009   1.138   1.441
 2785SOL    HW2 9255   6.010   1.300   1.427
 2786SOL     OW 9256   3.124   0.403   0.248
 2786SOL    HW1 9257   3.203   0.384   0.307
 2786SOL    HW2 9258   3.068   0.320   0.240
 2787SOL     OW 9259   1.603   3.560   5.943
 2787SOL    HW1 9260   1.616   3.486   6.009
 2787SOL    HW2 9261   1.690   3.583   5.901
 2788SOL     OW 9262   0.209   3.605   6.819
 2788SOL    HW1 9263   0.132   3.666   6.800
 2788SOL    HW2 9264   0.282   3.623   6.753
 2789SOL     OW 9265   0.068   2.747   4.315
 2789SOL    HW1 9266   0.047   2.838   4.352
 2789SOL    HW2 9267   7.008   2.706   4.279
 2790SOL     OW 9268   3.222   6.063   4.365
 2790SOL    HW1 9269   3.315   6.091   4.390
 2790SOL    HW2 9270   3.181   6.011   4.441
 2791SOL     OW 9271   2.157   3.174   2.575
 2791SOL    HW1 9272   2.116   3.088   2.547
 2791SOL    HW2 9273   2.143   3.187   2.673
 2792SOL     OW 9274   1.046   1.981   5.102
 2792SOL    HW1 9275   1.145   1.985   5.115
 2792SOL    HW2 9276   1.020   1.886   5.082
 2793SOL     OW 9277   4.952   0.957   3.977
 2793SOL    HW1 9278   5.016   0.913   3.914
 2793SOL    HW2 9279   5.002   1.016   4.040
 2794SOL     OW 9280   0.720   1.333   1.571
 2794SOL    HW1 9281   0.685   1.415   1.617
 2794SOL    HW2 9282   0.815   1.318   1.598
 2795SOL     OW 9283   1.747   4.154   1.541
 2795SOL    HW1 9284   1.840   4.140   1.507
 2795SOL    HW2 9285   1.750   4.195   1.632
 2796SOL     OW 9286   5.667   4.120   2.051
 2796SOL    HW1 9287   5.638   4.044   2.109
 2796SOL    HW2 9288   5.650   4.098   1.955
 2797SOL     OW 9289   4.541   4.572   4.747
 2797SOL    HW1 9290   4.512   4.642   4.682
 2797SOL    HW2 9291   4.471   4.562   4.818
 2798SOL     OW 9292   1.807   3.505   3.360
 2798SOL    HW1 9293   1.806   3.416   3.406
 2798SOL    HW2 9294   1.875   3.504   3.287
 2799SOL     OW 9295   6.248   5.554   5.856
 2799SOL    HW1 9296   6.267   5.465   5.814
 2799SOL    HW2 9297   6.180   5.603   5.801
 2800SOL     OW 9298   2.674   2.024   0.027
 2800SOL    HW1 9299   2.665   1.968   6.968
 2800SOL    HW2 9300   2.763   2.007   0.069
 2801SOL     OW 9301   4.304   5.666   2.639
 2801SOL    HW1 9302   4.287   5.670   2.541
 2801SOL    HW2 9303   4.338   5.755   2.671
 2802SOL     OW 9304   6.184   0.509   6.038
 2802SOL    HW1 9305   6.252   0.564   5.990
 2802SOL    HW2 9306   6.093   0.547   6.022
 2803SOL     OW 9307   2.346   5.789   5.727
 2803SOL    HW1 9308   2.255   5.828   5.740
 2803SOL    HW2 9309   2.387   5.827   5.645
 2804SOL     OW 9310   0.280   4.840   2.118
 2804SOL    HW1 9311   0.362   4.841   2.062
 2804SOL    HW2 9312   0.240   4.748   2.118
 2805SOL     OW 9313   5.080   3.714   6.491
 2805SOL    HW1 9314   5.144   3.655   6.442
 2805SOL    HW2 9315   4.986   3.692   6.464
 2806SOL     OW 9316   6.617   5.440   2.726
 2806SOL    HW1 9317   6.529   5.464   2.767
 2806SOL    HW2 9318   6.644   5.349   2.758
 2807SOL     OW 9319   4.299   4.652   4.035
 2807SOL    HW1 9320   4.262   4.578   4.091
 2807SOL    HW2 9321   4.224   4.706   3.997
 2808SOL     OW 9322   4.427   5.783   4.101
 2808SOL    HW1 9323   4.471   5.867   4.069
 2808SOL    HW2 9324   4.328   5.795   4.101
 2809SOL     OW 9325   5.182   2.957   0.307
 2809SOL    HW1 9326   5.158   2.899   0.386
 2809SOL    HW2 9327   5.130   2.927   0.227
 2810SOL     OW 9328   1.527   0.544   5.975
 2810SOL    HW1 9329   1.464   0.621   5.981
 2810SOL    HW2 9330   1.582   0.551   5.892
 2811SOL     OW 9331   7.004   1.006   3.977
 2811SOL    HW1 9332   7.004   0.912   4.010
 2811SOL    HW2 9333   7.001   1.006   3.877
 2812SOL     OW 9334   4.971   3.834   2.448
 2812SOL    HW1 9335   5.014   3.862   2.362
 2812SOL    HW2 9336   4.919   3.750   2.433
 2813SOL     OW 9337   6.255   1.778   5.929
 2813SOL    HW1 9338   6.209   1.847   5.874
 2813SOL    HW2 9339   6.188   1.709   5.959
 2814SOL     OW 9340   4.992   4.381   4.863
 2814SOL    HW1 9341   4.976   4.457   4.800
 2814SOL    HW2 9342   4.972   4.411   4.956
 2815SOL     OW 9343   6.772   1.483   4.708
 2815SOL    HW1 9344   6.715   1.473   4.789
 2815SOL    HW2 9345   6.868   1.471   4.732
 2816SOL     OW 9346   5.958   6.440   3.025
 2816SOL    HW1 9347   5.923   6.358   3.071
 2816SOL    HW2 9348   5.976   6.419   2.929
 2817SOL     OW 9349   1.307   1.697   1.003
 2817SOL    HW1 9350   1.219   1.676   0.962
 2817SOL    HW2 9351   1.295   1.766   1.075
 2818SOL     OW 9352   0.735   3.511   6.465
 2818SOL    HW1 9353   0.825   3.512   6.422
 2818SOL    HW2 9354   0.672   3.457   6.409
 2819SOL     OW 9355   5.988   3.427   0.882
 2819SOL    HW1 9356   5.892   3.443   0.859
 2819SOL    HW2 9357   6.020   3.499   0.942
 2820SOL     OW 9358   5.504   2.477   3.823
 2820SOL    HW1 9359   5.442   2.547   3.787
 2820SOL    HW2 9360   5.493   2.392   3.772
 2821SOL     OW 9361   1.498   3.520   4.027
 2821SOL    HW1 9362   1.483   3.607   3.980
 2821SOL    HW2 9363   1.462   3.445   3.972
 2822SOL     OW 9364   2.617   1.946   0.321
 2822SOL    HW1 9365   2.639   1.910   0.230
 2822SOL    HW2 9366   2.613   1.871   0.387
 2823SOL     OW 9367   2.281   6.614   3.785
 2823SOL    HW1 9368   2.300   6.519   3.810
 2823SOL    HW2 9369   2.215   6.616   3.710
 2824SOL     OW 9370   3.025   2.153   5.346
 2824SOL    HW1 9371   3.021   2.252   5.354
 2824SOL    HW2 9372   3.047   2.127   5.252
 2825SOL     OW 9373   6.293   5.939   0.950
 2825SOL    HW1 9374   6.208   5.989   0.963
 2825SOL    HW2 9375   6.349   5.944   1.032
 2826SOL     OW 9376   4.700   2.526   4.178
 2826SOL    HW1 9377   4.625   2.528   4.112
 2826SOL    HW2 9378   4.760   2.604   4.162
 2827SOL     OW 9379   6.182   0.910   6.421
 2827SOL    HW1 9380   6.268   0.937   6.377
 2827SOL    HW2 9381   6.128   0.991   6.442
 2828SOL     OW 9382   3.767   2.030   7.013
 2828SOL    HW1 9383   3.724   2.109   6.968
 2828SOL    HW2 9384   3.770   2.045   0.088
 2829SOL     OW 9385   2.636   0.288   6.718
 2829SOL    HW1 9386   2.636   0.281   6.818
 2829SOL    HW2 9387   2.713   0.345   6.689
 2830SOL     OW 9388   3.272   4.014   6.698
 2830SOL    HW1 9389   3.300   3.951   6.625
 2830SOL    HW2 9390   3.194   3.975   6.747
 2831SOL     OW 9391   6.624   5.880   4.091
 2831SOL    HW1 9392   6.703   5.932   4.058
 2831SOL    HW2 9393   6.569   5.851   4.013
 2832SOL     OW 9394   0.386   0.962   1.804
 2832SOL    HW1 9395   0.359   1.039   1.746
 2832SOL    HW2 9396   0.421   0.998   1.891
 2833SOL     OW 9397   6.482   3.062   2.610
 2833SOL    HW1 9398   6.413   3.014   2.664
 2833SOL    HW2 9399   6.555   3.095   2.670
 2834SOL     OW 9400   4.143   0.891   5.713
 2834SOL    HW1 9401   4.163   0.966   5.650
 2834SOL    HW2 9402   4.116   0.810   5.661
 2835SOL     OW 9403   0.502   6.466   3.399
 2835SOL    HW1 9404   0.418   6.451   3.347
 2835SOL    HW2 9405   0.581   6.466   3.337
 2836SOL     OW 9406   6.341   0.797   0.744
 2836SOL    HW1 9407   6.424   0.825   0.695
 2836SOL    HW2 9408   6.279   0.749   0.682
 2837SOL     OW 9409   6.526   3.091   3.467
 2837SOL    HW1 9410   6.568   3.067   3.554
 2837SOL    HW2 9411   6.526   3.011   3.407
 2838SOL     OW 9412   1.680   4.451   3.816
 2838SOL    HW1 9413   1.594   4.414   3.781
 2838SOL    HW2 9414   1.673   4.463   3.915
 2839SOL     OW 9415   5.120   2.508   0.988
 2839SOL    HW1 9416   5.060   2.539   1.062
 2839SOL    HW2 9417   5.148   2.414   1.005
 2840SOL     OW 9418   6.469   2.935   5.159
 2840SOL    HW1 9419   6.541   2.898   5.218
 2840SOL    HW2 9420   6.400   2.865   5.144
 2841SOL     OW 9421   0.362   6.391   1.742
 2841SOL    HW1 9422   0.388   6.421   1.834
 2841SOL    HW2 9423   0.434   6.416   1.678
 2842SOL     OW 9424   6.152   3.109   2.693
 2842SOL    HW1 9425   6.081   3.116   2.623
 2842SOL    HW2 9426   6.115   3.064   2.774
 2843SOL     OW 9427   4.474   1.422   4.422
 2843SOL    HW1 9428   4.473   1.500   4.484
 2843SOL    HW2 9429   4.442   1.340   4.469
 2844SOL     OW 9430   0.204   4.020   5.697
 2844SOL    HW1 9431   0.183   4.009   5.794
 2844SOL    HW2 9432   0.120   4.014   5.644
 2845SOL     OW 9433   6.784   4.419   6.139
 2845SOL    HW1 9434   6.773   4.333   6.089
 2845SOL    HW2 9435   6.737   4.492   6.089
 2846SOL     OW 9436   4.699   0.873   5.946
 2846SOL    HW1 9437   4.632   0.807   5.982
 2846SOL    HW2 9438   4.652   0.958   5.922
 2847SOL     OW 9439   4.786   4.487   3.823
 2847SOL    HW1 9440   4.824   4.537   3.901
 2847SOL    HW2 9441   4.711   4.539   3.783
 2848SOL     OW 9442   1.872   6.399   5.569
 2848SOL    HW1 9443   1.787   6.359   5.604
 2848SOL    HW2 9444   1.905   6.345   5.492
 2849SOL     OW 9445   2.213   3.149   1.548
 2849SOL    HW1 9446   2.193   3.183   1.639
 2849SOL    HW2 9447   2.311   3.128   1.541
 2850SOL     OW 9448   3.565   0.974   0.360
 2850SOL    HW1 9449   3.510   0.917   0.421
 2850SOL    HW2 9450   3.622   1.036   0.414
 2851SOL     OW 9451   2.381   5.049   6.111
 2851SOL    HW1 9452   2.305   5.026   6.050
 2851SOL    HW2 9453   2.448   5.105   6.061
 2852SOL     OW 9454   0.345   2.944   6.140
 2852SOL    HW1 9455   0.337   2.849   6.170
 2852SOL    HW2 9456   0.267   2.966   6.081
 2853SOL     OW 9457   3.624   2.690   1.381
 2853SOL    HW1 9458   3.543   2.632   1.372
 2853SOL    HW2 9459   3.606   2.764   1.446
 2854SOL     OW 9460   1.057   0.916   3.473
 2854SOL    HW1 9461   0.972   0.881   3.513
 2854SOL    HW2 9462   1.062   0.888   3.377
 2855SOL     OW 9463   2.971   0.836   5.159
 2855SOL    HW1 9464   3.004   0.893   5.234
 2855SOL    HW2 9465   2.921   0.893   5.094
 2856SOL     OW 9466   2.242   1.678   5.308
 2856SOL    HW1 9467   2.230   1.603   5.373
 2856SOL    HW2 9468   2.154   1.700   5.267
 2857SOL     OW 9469   3.713   3.664   3.244
 2857SOL    HW1 9470   3.677   3.713   3.165
 2857SOL    HW2 9471   3.717   3.566   3.224
 2858SOL     OW 9472   5.417   2.200   2.941
 2858SOL    HW1 9473   5.473   2.119   2.923
 2858SOL    HW2 9474   5.367   2.224   2.858
 2859SOL     OW 9475   5.228   6.438   0.584
 2859SOL    HW1 9476   5.165   6.427   0.507
 2859SOL    HW2 9477   5.322   6.446   0.550
 2860SOL     OW 9478   4.110   1.917   1.099
 2860SOL    HW1 9479   4.028   1.860   1.099
 2860SOL    HW2 9480   4.088   2.008   1.063
 2861SOL     OW 9481   3.737   5.222   6.185
 2861SOL    HW1 9482   3.748   5.195   6.089
 2861SOL    HW2 9483   3.687   5.309   6.190
 2862SOL     OW 9484   6.185   0.152   4.422
 2862SOL    HW1 9485   6.104   0.193   4.379
 2862SOL    HW2 9486   6.259   0.219   4.423
 2863SOL     OW 9487   6.814   1.887   6.928
 2863SOL    HW1 9488   6.873   1.909   6.850
 2863SOL    HW2 9489   6.725   1.857   6.894
 2864SOL     OW 9490   3.281   1.542   0.408
 2864SOL    HW1 9491   3.225   1.571   0.330
 2864SOL    HW2 9492   3.360   1.603   0.416
 2865SOL     OW 9493   4.437   4.944   5.191
 2865SOL    HW1 9494   4.392   4.907   5.109
 2865SOL    HW2 9495   4.508   5.009   5.164
 2866SOL     OW 9496   6.882   6.903   6.340
 2866SOL    HW1 9497   6.849   6.983   6.291
 2866SOL    HW2 9498   6.885   6.824   6.277
 2867SOL     OW 9499   6.666   4.028   3.274
 2867SOL    HW1 9500   6.740   3.960   3.280
 2867SOL    HW2 9501   6.655   4.072   3.363
 2868SOL     OW 9502   1.220   4.687   5.014
 2868SOL    HW1 9503   1.221   4.590   5.037
 2868SOL    HW2 9504   1.314   4.718   4.999
 2869SOL     OW 9505   5.817   0.512   2.356
 2869SOL    HW1 9506   5.835   0.566   2.439
 2869SOL    HW2 9507   5.889   0.443   2.346
 2870SOL     OW 9508   4.975   1.950   2.121
 2870SOL    HW1 9509   4.967   2.025   2.056
 2870SOL    HW2 9510   4.894   1.892   2.116
 2871SOL     OW 9511   1.915   1.582   6.082
 2871SOL    HW1 9512   1.996   1.616   6.035
 2871SOL    HW2 9513   1.941   1.509   6.146
 2872SOL     OW 9514   2.086   6.140   3.679
 2872SOL    HW1 9515   2.046   6.049   3.690
 2872SOL    HW2 9516   2.027   6.208   3.721
 2873SOL     OW 9517   6.934   5.589   1.801
 2873SOL    HW1 9518   6.986   5.632   1.874
 2873SOL    HW2 9519   6.994   5.531   1.746
 2874SOL     OW 9520   5.895   1.482   2.662
 2874SOL    HW1 9521   5.877   1.435   2.575
 2874SOL    HW2 9522   5.993   1.498   2.672
 2875SOL     OW 9523   2.770   5.063   0.992
 2875SOL    HW1 9524   2.794   4.969   0.969
 2875SOL    HW2 9525   2.785   5.078   1.089
 2876SOL     OW 9526   6.921   1.761   2.220
 2876SOL    HW1 9527   7.018   1.748   2.198
 2876SOL    HW2 9528   6.891   1.851   2.189
 2877SOL     OW 9529   2.232   3.504   5.860
 2877SOL    HW1 9530   2.172   3.526   5.937
 2877SOL    HW2 9531   2.208   3.561   5.782
 2878SOL     OW 9532   3.408   5.001   0.191
 2878SOL    HW1 9533   3.450   4.922   0.235
 2878SOL    HW2 9534   3.409   4.989   0.092
 2879SOL     OW 9535   4.453   5.012   0.218
 2879SOL    HW1 9536   4.422   5.086   0.278
 2879SOL    HW2 9537   4.465   4.928   0.271
 2880SOL     OW 9538   1.187   6.998   1.775
 2880SOL    HW1 9539   1.279   6.957   1.773
 2880SOL    HW2 9540   1.180   0.042   1.703
 2881SOL     OW 9541   0.600   0.042   6.819
 2881SOL    HW1 9542   0.617   6.989   6.881
 2881SOL    HW2 9543   0.665   0.039   6.743
 2882SOL     OW 9544   6.807   3.078   3.861
 2882SOL    HW1 9545   6.857   3.069   3.774
 2882SOL    HW2 9546   6.787   3.174   3.878
 2883SOL     OW 9547   5.022   6.129   2.700
 2883SOL    HW1 9548   4.992   6.221   2.675
 2883SOL    HW2 9549   4.992   6.064   2.629
 2884SOL     OW 9550   1.630   5.888   2.988
 2884SOL    HW1 9551   1.531   5.895   2.976
 2884SOL    HW2 9552   1.675   5.902   2.900
 2885SOL     OW 9553   0.398   2.530   3.790
 2885SOL    HW1 9554   0.308   2.574   3.788
 2885SOL    HW2 9555   0.460   2.578   3.729
 2886SOL     OW 9556   2.484   3.020   6.283
 2886SOL    HW1 9557   2.547   2.966   6.339
 2886SOL    HW2 9558   2.520   3.026   6.190
 2887SOL     OW 9559   2.645   1.375   5.019
 2887SOL    HW1 9560   2.589   1.344   5.095
 2887SOL    HW2 9561   2.610   1.463   4.985
 2888SOL     OW 9562   0.219   4.945   6.946
 2888SOL    HW1 9563   0.262   4.909   6.863
 2888SOL    HW2 9564   0.173   5.031   6.925
 2889SOL     OW 9565   0.439   6.887   1.128
 2889SOL    HW1 9566   0.342   6.866   1.112
 2889SOL    HW2 9567   0.471   6.950   1.057
 2890SOL     OW 9568   2.857   6.964   0.630
 2890SOL    HW1 9569   2.865   6.960   0.729
 2890SOL    HW2 9570   2.915   0.014   0.595
 2891SOL     OW 9571   2.830   4.809   4.348
 2891SOL    HW1 9572   2.794   4.754   4.423
 2891SOL    HW2 9573   2.928   4.824   4.362
 2892SOL     OW 9574   4.538   4.404   5.593
 2892SOL    HW1 9575   4.558   4.306   5.598
 2892SOL    HW2 9576   4.617   4.456   5.626
 2893SOL     OW 9577   3.165   0.640   6.042
 2893SOL    HW1 9578   3.156   0.667   5.947
 2893SOL    HW2 9579   3.170   0.540   6.048
 2894SOL     OW 9580   3.365   2.641   1.087
 2894SOL    HW1 9581   3.404   2.575   1.152
 2894SOL    HW2 9582   3.346   2.594   1.001
 2895SOL     OW 9583   3.294   3.322   6.987
 2895SOL    HW1 9584   3.237   3.359   0.038
 2895SOL    HW2 9585   3.350   3.247   7.022
 2896SOL     OW 9586   2.516   5.508   0.909
 2896SOL    HW1 9587   2.469   5.591   0.879
 2896SOL    HW2 9588   2.469   5.428   0.871
 2897SOL     OW 9589   1.785   6.708   3.939
 2897SOL    HW1 9590   1.756   6.612   3.930
 2897SOL    HW2 9591   1.833   6.721   4.025
 2898SOL     OW 9592   2.573   5.261   2.651
 2898SOL    HW1 9593   2.600   5.167   2.674
 2898SOL    HW2 9594   2.505   5.293   2.716
 2899SOL     OW 9595   6.553   1.164   0.451
 2899SOL    HW1 9596   6.469   1.113   0.432
 2899SOL    HW2 9597   6.554   1.194   0.546
 2900SOL     OW 9598   2.804   5.848   6.512
 2900SOL    HW1 9599   2.729   5.806   6.563
 2900SOL    HW2 9600   2.844   5.781   6.450
 2901SOL     OW 9601   2.720   0.351   1.406
 2901SOL    HW1 9602   2.696   0.256   1.422
 2901SOL    HW2 9603   2.801   0.355   1.347
 2902SOL     OW 9604   5.527   5.271   1.384
 2902SOL    HW1 9605   5.624   5.290   1.395
 2902SOL    HW2 9606   5.513   5.211   1.305
 2903SOL     OW 9607   2.801   2.413   1.699
 2903SOL    HW1 9608   2.724   2.477   1.699
 2903SOL    HW2 9609   2.836   2.402   1.792
 2904SOL     OW 9610   1.917   3.052   4.550
 2904SOL    HW1 9611   1.930   2.957   4.522
 2904SOL    HW2 9612   1.828   3.084   4.518
 2905SOL     OW 9613   1.373   1.995   1.599
 2905SOL    HW1 9614   1.362   2.070   1.664
 2905SOL    HW2 9615   1.414   2.029   1.514
 2906SOL     OW 9616   5.214   5.935   2.288
 2906SOL    HW1 9617   5.199   5.837   2.303
 2906SOL    HW2 9618   5.129   5.977   2.256
 2907SOL     OW 9619   6.388   0.405   4.355
 2907SOL    HW1 9620   6.483   0.386   4.378
 2907SOL    HW2 9621   6.353   0.477   4.415
 2908SOL     OW 9622   4.165   6.362   4.775
 2908SOL    HW1 9623   4.069   6.334   4.767
 2908SOL    HW2 9624   4.223   6.281   4.776
 2909SOL     OW 9625   1.349   5.896   5.445
 2909SOL    HW1 9626   1.382   5.911   5.538
 2909SOL    HW2 9627   1.274   5.830   5.446
 2910SOL     OW 9628   5.117   6.415   5.061
 2910SOL    HW1 9629   5.115   6.338   4.997
 2910SOL    HW2 9630   5.024   6.437   5.089
 2911SOL     OW 9631   2.114   4.170   3.620
 2911SOL    HW1 9632   2.182   4.244   3.618
 2911SOL    HW2 9633   2.023   4.209   3.631
 2912SOL     OW 9634   2.955   5.201   0.573
 2912SOL    HW1 9635   2.953   5.174   0.669
 2912SOL    HW2 9636   3.013   5.281   0.563
 2913SOL     OW 9637   1.322   3.427   2.947
 2913SOL    HW1 9638   1.321   3.327   2.937
 2913SOL    HW2 9639   1.229   3.462   2.939
 2914SOL     OW 9640   5.004   4.784   5.601
 2914SOL    HW1 9641   5.088   4.831   5.630
 2914SOL    HW2 9642   4.950   4.845   5.543
 2915SOL     OW 9643   4.082   1.317   4.314
 2915SOL    HW1 9644   4.109   1.230   4.356
 2915SOL    HW2 9645   4.161   1.379   4.312
 2916SOL     OW 9646   4.384   5.721   4.380
 2916SOL    HW1 9647   4.428   5.746   4.294
 2916SOL    HW2 9648   4.356   5.625   4.377
 2917SOL     OW 9649   4.287   0.883   2.570
 2917SOL    HW1 9650   4.193   0.863   2.598
 2917SOL    HW2 9651   4.289   0.906   2.473
 2918SOL     OW 9652   0.437   3.302   4.008
 2918SOL    HW1 9653   0.524   3.294   4.057
 2918SOL    HW2 9654   0.367   3.252   4.057
 2919SOL     OW 9655   6.397   6.170   0.166
 2919SOL    HW1 9656   6.320   6.105   0.162
 2919SOL    HW2 9657   6.374   6.252   0.114
 2920SOL     OW 9658   4.322   2.391   2.838
 2920SOL    HW1 9659   4.242   2.350   2.881
 2920SOL    HW2 9660   4.365   2.455   2.902
 2921SOL     OW 9661   0.239   6.900   1.416
 2921SOL    HW1 9662   0.215   6.852   1.501
 2921SOL    HW2 9663   0.329   6.870   1.385
 2922SOL     OW 9664   4.165   6.376   5.361
 2922SOL    HW1 9665   4.229   6.305   5.334
 2922SOL    HW2 9666   4.170   6.391   5.460
 2923SOL     OW 9667   0.270   4.144   0.341
 2923SOL    HW1 9668   0.333   4.221   0.331
 2923SOL    HW2 9669   0.179   4.171   0.310
 2924SOL     OW 9670   6.154   0.187   5.472
 2924SOL    HW1 9671   6.197   0.243   5.542
 2924SOL    HW2 9672   6.154   0.091   5.501
 2925SOL     OW 9673   5.882   3.614   1.161
 2925SOL    HW1 9674   5.870   3.702   1.116
 2925SOL    HW2 9675   5.853   3.621   1.256
 2926SOL     OW 9676   7.016   1.437   3.503
 2926SOL    HW1 9677   0.015   1.499   3.428
 2926SOL    HW2 9678   7.008   1.489   3.588
 2927SOL     OW 9679   0.694   3.044   2.325
 2927SOL    HW1 9680   0.613   3.018   2.272
 2927SOL    HW2 9681   0.706   3.144   2.320
 2928SOL     OW 9682   5.549   6.288   1.253
 2928SOL    HW1 9683   5.606   6.341   1.316
 2928SOL    HW2 9684   5.608   6.237   1.190
 2929SOL     OW 9685   1.179   0.393   5.643
 2929SOL    HW1 9686   1.261   0.449   5.650
 2929SOL    HW2 9687   1.204   0.298   5.626
 2930SOL     OW 9688   3.481   6.492   4.559
 2930SOL    HW1 9689   3.545   6.458   4.627
 2930SOL    HW2 9690   3.387   6.474   4.590
 2931SOL     OW 9691   3.645   5.311   6.855
 2931SOL    HW1 9692   3.739   5.286   6.878
 2931SOL    HW2 9693   3.609   5.246   6.787
 2932SOL     OW 9694   1.079   4.342   1.943
 2932SOL    HW1 9695   1.162   4.386   1.908
 2932SOL    HW2 9696   1.084   4.335   2.042
 2933SOL     OW 9697   4.831   1.599   3.271
 2933SOL    HW1 9698   4.882   1.619   3.188
 2933SOL    HW2 9699   4.744   1.647   3.270
 2934SOL     OW 9700   2.128   0.906   0.277
 2934SOL    HW1 9701   2.116   0.867   0.186
 2934SOL    HW2 9702   2.225   0.908   0.300
 2935SOL     OW 9703   6.793   2.015   1.109
 2935SOL    HW1 9704   6.765   1.962   1.028
 2935SOL    HW2 9705   6.893   2.010   1.118
 2936SOL     OW 9706   3.546   5.936   1.001
 2936SOL    HW1 9707   3.569   5.892   0.914
 2936SOL    HW2 9708   3.626   5.987   1.034
 2937SOL     OW 9709   2.497   4.451   0.231
 2937SOL    HW1 9710   2.523   4.547   0.237
 2937SOL    HW2 9711   2.505   4.409   0.321
 2938SOL     OW 9712   5.199   4.770   5.234
 2938SOL    HW1 9713   5.133   4.845   5.242
 2938SOL    HW2 9714   5.179   4.700   5.302
 2939SOL     OW 9715   0.162   6.663   6.096
 2939SOL    HW1 9716   0.153   6.603   6.017
 2939SOL    HW2 9717   0.242   6.722   6.084
 2940SOL     OW 9718   4.505   0.520   5.122
 2940SOL    HW1 9719   4.409   0.546   5.120
 2940SOL    HW2 9720   4.519   0.450   5.192
 2941SOL     OW 9721   3.299   1.540   5.733
 2941SOL    HW1 9722   3.282   1.611   5.665
 2941SOL    HW2 9723   3.213   1.495   5.758
 2942SOL     OW 9724   3.472   6.173   4.408
 2942SOL    HW1 9725   3.531   6.123   4.344
 2942SOL    HW2 9726   3.454   6.265   4.373
 2943SOL     OW 9727   5.402   3.857   2.725
 2943SOL    HW1 9728   5.380   3.903   2.811
 2943SOL    HW2 9729   5.337   3.885   2.655
 2944SOL     OW 9730   4.135   6.169   6.806
 2944SOL    HW1 9731   4.101   6.093   6.862
 2944SOL    HW2 9732   4.124   6.146   6.709
 2945SOL     OW 9733   3.017   3.896   3.163
 2945SOL    HW1 9734   2.922   3.896   3.133
 2945SOL    HW2 9735   3.024   3.937   3.254
 2946SOL     OW 9736   0.028   5.587   5.977
 2946SOL    HW1 9737   0.078   5.633   6.050
 2946SOL    HW2 9738   0.081   5.592   5.892
 2947SOL     OW 9739   0.074   5.058   0.299
 2947SOL    HW1 9740   0.067   4.964   0.265
 2947SOL    HW2 9741   0.132   5.111   0.238
 2948SOL     OW 9742   5.794   4.342   5.150
 2948SOL    HW1 9743   5.790   4.243   5.159
 2948SOL    HW2 9744   5.709   4.376   5.110
 2949SOL     OW 9745   0.992   6.144   0.756
 2949SOL    HW1 9746   0.943   6.196   0.686
 2949SOL    HW2 9747   0.950   6.160   0.845
 2950SOL     OW 9748   5.153   3.569   4.591
 2950SOL    HW1 9749   5.228   3.583   4.526
 2950SOL    HW2 9750   5.068   3.606   4.553
 2951SOL     OW 9751   6.129   1.053   1.121
 2951SOL    HW1 9752   6.052   1.103   1.160
 2951SOL    HW2 9753   6.098   1.000   1.042
 2952SOL     OW 9754   1.499   4.024   2.126
 2952SOL    HW1 9755   1.531   3.974   2.207
 2952SOL    HW2 9756   1.567   4.017   2.054
 2953SOL     OW 9757   5.511   0.772   2.425
 2953SOL    HW1 9758   5.563   0.853   2.398
 2953SOL    HW2 9759   5.520   0.702   2.354
 2954SOL     OW 9760   5.958   6.174   1.722
 2954SOL    HW1 9761   5.873   6.138   1.685
 2954SOL    HW2 9762   6.036   6.134   1.672
 2955SOL     OW 9763   6.410   2.776   0.569
 2955SOL    HW1 9764   6.442   2.870   0.578
 2955SOL    HW2 9765   6.352   2.753   0.647
 2956SOL     OW 9766   6.574   5.147   2.666
 2956SOL    HW1 9767   6.526   5.216   2.613
 2956SOL    HW2 9768   6.508   5.093   2.719
 2957SOL     OW 9769   0.765   4.755   1.358
 2957SOL    HW1 9770   0.829   4.795   1.292
 2957SOL    HW2 9771   0.794   4.779   1.451
 2958SOL     OW 9772   3.487   5.148   6.684
 2958SOL    HW1 9773   3.448   5.151   6.592
 2958SOL    HW2 9774   3.521   5.056   6.704
 2959SOL     OW 9775   4.284   5.902   0.155
 2959SOL    HW1 9776   4.275   5.830   0.224
 2959SOL    HW2 9777   4.380   5.924   0.143
 2960SOL     OW 9778   2.699   1.615   6.818
 2960SOL    HW1 9779   2.623   1.623   6.754
 2960SOL    HW2 9780   2.729   1.707   6.846
 2961SOL     OW 9781   5.282   2.135   4.491
 2961SOL    HW1 9782   5.340   2.212   4.465
 2961SOL    HW2 9783   5.333   2.049   4.479
 2962SOL     OW 9784   3.768   1.030   3.316
 2962SOL    HW1 9785   3.846   1.063   3.368
 2962SOL    HW2 9786   3.791   1.027   3.219
 2963SOL     OW 9787   1.948   3.255   5.359
 2963SOL    HW1 9788   2.018   3.288   5.422
 2963SOL    HW2 9789   1.890   3.332   5.331
 2964SOL     OW 9790   2.861   6.222   0.334
 2964SOL    HW1 9791   2.836   6.264   0.421
 2964SOL    HW2 9792   2.960   6.226   0.322
 2965SOL     OW 9793   0.487   2.399   5.633
 2965SOL    HW1 9794   0.569   2.454   5.646
 2965SOL    HW2 9795   0.468   2.347   5.716
 2966SOL     OW 9796   4.755   4.259   3.449
 2966SOL    HW1 9797   4.775   4.263   3.547
 2966SOL    HW2 9798   4.744   4.351   3.413
 2967SOL     OW 9799   5.872   2.422   4.010
 2967SOL    HW1 9800   5.832   2.363   3.939
 2967SOL    HW2 9801   5.855   2.382   4.100
 2968SOL     OW 9802   6.701   4.080   3.541
 2968SOL    HW1 9803   6.631   4.125   3.597
 2968SOL    HW2 9804   6.770   4.147   3.513
 2969SOL     OW 9805   4.680   1.087   4.235
 2969SOL    HW1 9806   4.698   1.002   4.284
 2969SOL    HW2 9807   4.594   1.079   4.185
 2970SOL     OW 9808   0.979   4.932   6.285
 2970SOL    HW1 9809   0.961   4.990   6.365
 2970SOL    HW2 9810   1.070   4.954   6.248
 2971SOL     OW 9811   5.115   3.586   3.269
 2971SOL    HW1 9812   5.049   3.615   3.199
 2971SOL    HW2 9813   5.189   3.652   3.275
 2972SOL     OW 9814   1.295   3.991   5.988
 2972SOL    HW1 9815   1.285   4.067   6.054
 2972SOL    HW2 9816   1.375   3.937   6.012
 2973SOL     OW 9817   5.606   0.205   4.455
 2973SOL    HW1 9818   5.629   0.198   4.552
 2973SOL    HW2 9819   5.633   0.296   4.421
 2974SOL     OW 9820   0.265   4.229   2.136
 2974SOL    HW1 9821   0.220   4.252   2.050
 2974SOL    HW2 9822   0.293   4.313   2.183
 2975SOL     OW 9823   0.298   1.611   4.158
 2975SOL    HW1 9824   0.278   1.533   4.218
 2975SOL    HW2 9825   0.215   1.637   4.109
 2976SOL     OW 9826   2.875   5.998   1.616
 2976SOL    HW1 9827   2.871   6.015   1.714
 2976SOL    HW2 9828   2.820   5.917   1.594
 2977SOL     OW 9829   3.755   6.044   4.453
 2977SOL    HW1 9830   3.837   6.082   4.410
 2977SOL    HW2 9831   3.775   5.952   4.488
 2978SOL     OW 9832   3.386   6.441   0.118
 2978SOL    HW1 9833   3.357   6.528   0.080
 2978SOL    HW2 9834   3.413   6.379   0.044
 2979SOL     OW 9835   3.124   1.270   3.446
 2979SOL    HW1 9836   3.144   1.187   3.394
 2979SOL    HW2 9837   3.027   1.293   3.438
 2980SOL     OW 9838   6.834   6.135   3.852
 2980SOL    HW1 9839   6.748   6.108   3.809
 2980SOL    HW2 9840   6.835   6.234   3.865
 2981SOL     OW 9841   1.770   1.734   5.438
 2981SOL    HW1 9842   1.805   1.641   5.424
 2981SOL    HW2 9843   1.756   1.749   5.536
 2982SOL     OW 9844   4.816   6.547   3.235
 2982SOL    HW1 9845   4.882   6.612   3.271
 2982SOL    HW2 9846   4.859   6.492   3.163
 2983SOL     OW 9847   6.787   6.923   2.683
 2983SOL    HW1 9848   6.790   6.846   2.618
 2983SOL    HW2 9849   6.874   6.929   2.731
 2984SOL     OW 9850   5.926   5.053   1.606
 2984SOL    HW1 9851   5.979   5.026   1.686
 2984SOL    HW2 9852   5.946   4.991   1.530
 2985SOL     OW 9853   6.556   1.848   3.112
 2985SOL    HW1 9854   6.569   1.753   3.084
 2985SOL    HW2 9855   6.461   1.874   3.098
 2986SOL     OW 9856   2.302   3.861   5.425
 2986SOL    HW1 9857   2.345   3.896   5.342
 2986SOL    HW2 9858   2.316   3.762   5.429
 2987SOL     OW 9859   4.913   2.014   4.658
 2987SOL    HW1 9860   4.947   2.098   4.701
 2987SOL    HW2 9861   4.923   2.021   4.559
 2988SOL     OW 9862   0.625   0.091   1.446
 2988SOL    HW1 9863   0.617   0.146   1.530
 2988SOL    HW2 9864   0.653   0.151   1.371
 2989SOL     OW 9865   6.564   5.423   0.611
 2989SOL    HW1 9866   6.538   5.406   0.516
 2989SOL    HW2 9867   6.482   5.440   0.665
 2990SOL     OW 9868   3.295   0.437   0.912
 2990SOL    HW1 9869   3.353   0.472   0.838
 2990SOL    HW2 9870   3.208   0.405   0.874
 2991SOL     OW 9871   6.255   4.738   0.309
 2991SOL    HW1 9872   6.189   4.813   0.313
 2991SOL    HW2 9873   6.347   4.773   0.328
 2992SOL     OW 9874   4.206   4.422   6.897
 2992SOL    HW1 9875   4.283   4.480   6.871
 2992SOL    HW2 9876   4.123   4.477   6.904
 2993SOL     OW 9877   1.599   5.465   0.419
 2993SOL    HW1 9878   1.557   5.435   0.334
 2993SOL    HW2 9879   1.653   5.390   0.458
 2994SOL     OW 9880   3.760   6.482   6.803
 2994SOL    HW1 9881   3.692   6.553   6.784
 2994SOL    HW2 9882   3.841   6.523   6.844
 2995SOL     OW 9883   2.694   0.790   5.668
 2995SOL    HW1 9884   2.700   0.732   5.586
 2995SOL    HW2 9885   2.653   0.878   5.643
 2996SOL     OW 9886   4.162   5.924   5.414
 2996SOL    HW1 9887   4.187   6.015   5.379
 2996SOL    HW2 9888   4.078   5.931   5.467
 2997SOL     OW 9889   4.601   6.400   0.258
 2997SOL    HW1 9890   4.577   6.355   0.345
 2997SOL    HW2 9891   4.533   6.471   0.238
 2998SOL     OW 9892   6.009   5.113   5.026
 2998SOL    HW1 9893   6.074   5.038   5.036
 2998SOL    HW2 9894   6.059   5.200   5.025
 2999SOL     OW 9895   3.071   6.932   2.033
 2999SOL    HW1 9896   2.984   6.908   2.077
 2999SOL    HW2 9897   3.090   0.006   2.046
 3000SOL     OW 9898   1.233   2.270   4.447
 3000SOL    HW1 9899   1.157   2.206   4.463
 3000SOL    HW2 9900   1.256   2.271   4.350
 3001SOL     OW 9901   4.803   6.759   5.753
 3001SOL    HW1 9902   4.878   6.821   5.730
 3001SOL    HW2 9903   4.717   6.800   5.724
 3002SOL     OW 9904   3.181   0.336   5.743
 3002SOL    HW1 9905   3.105   0.358   5.682
 3002SOL    HW2 9906   3.179   0.238   5.765
 3003SOL     OW 9907   2.173   7.002   6.289
 3003SOL    HW1 9908   2.218   0.040   6.225
 3003SOL    HW2 9909   2.115   0.031   6.351
 3004SOL     OW 9910   6.445   3.455   5.265
 3004SOL    HW1 9911   6.462   3.377   5.325
 3004SOL    HW2 9912   6.450   3.425   5.170
 3005SOL     OW 9913   4.595   2.265   1.428
 3005SOL    HW1 9914   4.576   2.316   1.345
 3005SOL    HW2 9915   4.593   2.167   1.409
 3006SOL     OW 9916   5.107   0.620   1.020
 3006SOL    HW1 9917   5.043   0.696   1.031
 3006SOL    HW2 9918   5.166   0.637   0.942
 3007SOL     OW 9919   6.468   5.255   1.886
 3007SOL    HW1 9920   6.490   5.341   1.839
 3007SOL    HW2 9921   6.369   5.243   1.889
 3008SOL     OW 9922   4.641   5.993   5.750
 3008SOL    HW1 9923   4.670   5.898   5.761
 3008SOL    HW2 9924   4.668   6.026   5.660
 3009SOL     OW 9925   1.177   0.938   2.613
 3009SOL    HW1 9926   1.264   0.981   2.636
 3009SOL    HW2 9927   1.170   0.850   2.659
 3010SOL     OW 9928   2.942   6.630   2.650
 3010SOL    HW1 9929   2.967   6.533   2.658
 3010SOL    HW2 9930   2.983   6.668   2.567
 3011SOL     OW 9931   5.462   0.575   0.200
 3011SOL    HW1 9932   5.540   0.548   0.143
 3011SOL    HW2 9933   5.377   0.552   0.153
 3012SOL     OW 9934   0.201   4.548   2.114
 3012SOL    HW1 9935   0.289   4.517   2.149
 3012SOL    HW2 9936   0.210   4.568   2.016
 3013SOL     OW 9937   6.342   4.050   2.263
 3013SOL    HW1 9938   6.405   3.983   2.301
 3013SOL    HW2 9939   6.333   4.035   2.164
 3014SOL     OW 9940   5.316   0.553   5.317
 3014SOL    HW1 9941   5.223   0.556   5.279
 3014SOL    HW2 9942   5.319   0.490   5.393
 3015SOL     OW 9943   3.203   2.259   0.008
 3015SOL    HW1 9944   3.197   2.177   6.974
 3015SOL    HW2 9945   3.168   2.239   0.099
 3016SOL     OW 9946   3.956   6.236   3.655
 3016SOL    HW1 9947   4.000   6.173   3.720
 3016SOL    HW2 9948   3.934   6.186   3.571
 3017SOL     OW 9949   6.940   6.396   0.838
 3017SOL    HW1 9950   7.017   6.333   0.852
 3017SOL    HW2 9951   6.854   6.346   0.842
 3018SOL     OW 9952   3.844   6.832   6.250
 3018SOL    HW1 9953   3.773   6.851   6.183
 3018SOL    HW2 9954   3.933   6.831   6.204
 3019SOL     OW 9955   5.105   6.642   2.154
 3019SOL    HW1 9956   5.178   6.598   2.102
 3019SOL    HW2 9957   5.036   6.575   2.178
 3020SOL     OW 9958   2.227   1.140   1.305
 3020SOL    HW1 9959   2.143   1.087   1.319
 3020SOL    HW2 9960   2.236   1.163   1.208
 3021SOL     OW 9961   4.096   0.866   6.286
 3021SOL    HW1 9962   4.158   0.840   6.212
 3021SOL    HW2 9963   4.038   0.788   6.309
 3022SOL     OW 9964   5.916   0.025   1.755
 3022SOL    HW1 9965   5.863   0.055   1.676
 3022SOL    HW2 9966   5.944   6.954   1.743
 3023SOL     OW 9967   5.438   6.980   1.408
 3023SOL    HW1 9968   5.512   6.950   1.347
 3023SOL    HW2 9969   5.353   6.934   1.383
 3024SOL     OW 9970   2.726   6.763   6.815
 3024SOL    HW1 9971   2.679   6.847   6.841
 3024SOL    HW2 9972   2.803   6.784   6.755
 3025SOL     OW 9973   1.528   2.288   1.861
 3025SOL    HW1 9974   1.572   2.368   1.820
 3025SOL    HW2 9975   1.596   2.233   1.909
 3026SOL     OW 9976   1.751   5.011   0.419
 3026SOL    HW1 9977   1.700   4.973   0.342
 3026SOL    HW2 9978   1.814   5.081   0.386
 3027SOL     OW 9979   1.509   1.396   4.157
 3027SOL    HW1 9980   1.500   1.495   4.168
 3027SOL    HW2 9981   1.468   1.368   4.070
 3028SOL     OW 9982   1.534   0.738   4.665
 3028SOL    HW1 9983   1.625   0.704   4.687
 3028SOL    HW2 9984   1.520   0.827   4.709
 3029SOL     OW 9985   5.480   5.136   5.971
 3029SOL    HW1 9986   5.384   5.138   6.001
 3029SOL    HW2 9987   5.500   5.218   5.917
 3030SOL     OW 9988   1.100   1.531   5.800
 3030SOL    HW1 9989   1.110   1.432   5.810
 3030SOL    HW2 9990   1.093   1.573   5.890
 3031SOL     OW 9991   1.036   5.373   6.749
 3031SOL    HW1 9992   1.109   5.429   6.790
 3031SOL    HW2 9993   0.950   5.389   6.798
 3032SOL     OW 9994   4.077   0.505   5.431
 3032SOL    HW1 9995   4.166   0.462   5.445
 3032SOL    HW2 9996   4.033   0.466   5.350
 3033SOL     OW 9997   5.464   4.766   6.017
 3033SOL    HW1 9998   5.430   4.832   5.948
 3033SOL    HW2 9999   5.406   4.772   6.098
 3034SOL     OW10000   2.548   0.049   4.374
 3034SOL    HW110001   2.470   0.038   4.435
 3034SOL    HW210002   2.626   0.086   4.425
 3035SOL     OW10003   6.277   0.021   6.982
 3035SOL    HW110004   6.207   0.038   6.913
 3035SOL    HW210005   6.348   0.091   6.976
 3036SOL     OW10006   1.102   4.784   5.994
 3036SOL    HW110007   1.137   4.867   6.037
 3036SOL    HW210008   1.052   4.808   5.911
 3037SOL     OW10009   6.388   6.774   5.579
 3037SOL    HW110010   6.387   6.749   5.676
 3037SOL    HW210011   6.444   6.709   5.528
 3038SOL     OW10012   5.956   6.620   5.899
 3038SOL    HW110013   5.957   6.534   5.951
 3038SOL    HW210014   6.013   6.611   5.818
 3039SOL     OW10015   6.862   4.840   0.575
 3039SOL    HW110016   6.840   4.876   0.483
 3039SOL    HW210017   6.925   4.903   0.620
 3040SOL     OW10018   2.189   2.276   0.232
 3040SOL    HW110019   2.170   2.188   0.189
 3040SOL    HW210020   2.219   2.261   0.327
 3041SOL     OW10021   1.674   2.324   6.042
 3041SOL    HW110022   1.768   2.301   6.017
 3041SOL    HW210023   1.610   2.264   5.994
 3042SOL     OW10024   5.145   6.845   1.977
 3042SOL    HW110025   5.111   6.823   1.886
 3042SOL    HW210026   5.127   6.769   2.039
 3043SOL     OW10027   6.630   5.016   0.338
 3043SOL    HW110028   6.673   5.066   0.414
 3043SOL    HW210029   6.592   4.930   0.372
 3044SOL     OW10030   3.077   3.608   5.623
 3044SOL    HW110031   2.985   3.649   5.620
 3044SOL    HW210032   3.130   3.641   5.545
 3045SOL     OW10033   5.557   2.131   4.111
 3045SOL    HW110034   5.599   2.121   4.202
 3045SOL    HW210035   5.490   2.058   4.098
 3046SOL     OW10036   2.217   2.337   6.289
 3046SOL    HW110037   2.156   2.379   6.221
 3046SOL    HW210038   2.262   2.257   6.248
 3047SOL     OW10039   0.240   4.682   1.865
 3047SOL    HW110040   0.241   4.781   1.858
 3047SOL    HW210041   0.165   4.646   1.809
 3048SOL     OW10042   3.094   2.548   1.717
 3048SOL    HW110043   3.080   2.646   1.730
 3048SOL    HW210044   3.012   2.498   1.746
 3049SOL     OW10045   1.007   0.168   1.306
 3049SOL    HW110046   1.013   0.082   1.357
 3049SOL    HW210047   0.912   0.191   1.290
 3050SOL     OW10048   2.461   6.129   3.850
 3050SOL    HW110049   2.466   6.130   3.950
 3050SOL    HW210050   2.422   6.216   3.818
 3051SOL     OW10051   2.584   4.368   5.230
 3051SOL    HW110052   2.559   4.408   5.142
 3051SOL    HW210053   2.637   4.433   5.284
 3052SOL     OW10054   5.189   6.536   3.074
 3052SOL    HW110055   5.122   6.468   3.103
 3052SOL    HW210056   5.145   6.625   3.064
 3053SOL     OW10057   4.728   6.885   1.246
 3053SOL    HW110058   4.722   6.793   1.285
 3053SOL    HW210059   4.811   6.892   1.191
 3054SOL     OW10060   2.428   3.992   5.744
 3054SOL    HW110061   2.391   3.972   5.835
 3054SOL    HW210062   2.354   4.021   5.684
 3055SOL     OW10063   5.919   6.504   2.757
 3055SOL    HW110064   5.942   6.579   2.819
 3055SOL    HW210065   5.966   6.517   2.670
 3056SOL     OW10066   6.189   0.763   1.181
 3056SOL    HW110067   6.244   0.757   1.098
 3056SOL    HW210068   6.129   0.842   1.175
 3057SOL     OW10069   6.533   5.862   2.684
 3057SOL    HW110070   6.492   5.953   2.690
 3057SOL    HW210071   6.545   5.825   2.776
 3058SOL     OW10072   6.237   5.391   1.633
 3058SOL    HW110073   6.286   5.452   1.697
 3058SOL    HW210074   6.178   5.329   1.685
 3059SOL     OW10075   2.120   2.563   5.040
 3059SOL    HW110076   2.192   2.632   5.028
 3059SOL    HW210077   2.087   2.565   5.134
 3060SOL     OW10078   6.678   6.629   0.525
 3060SOL    HW110079   6.613   6.677   0.584
 3060SOL    HW210080   6.760   6.605   0.577
 3061SOL     OW10081   0.188   0.642   6.132
 3061SOL    HW110082   0.140   0.646   6.045
 3061SOL    HW210083   0.124   0.620   6.206
 3062SOL     OW10084   3.011   5.652   6.107
 3062SOL    HW110085   3.080   5.677   6.175
 3062SOL    HW210086   2.936   5.602   6.151
 3063SOL     OW10087   1.888   5.658   0.521
 3063SOL    HW110088   1.867   5.646   0.424
 3063SOL    HW210089   1.909   5.570   0.562
 3064SOL     OW10090   6.980   3.950   3.527
 3064SOL    HW110091   6.908   3.983   3.588
 3064SOL    HW210092   0.026   4.021   3.515
 3065SOL     OW10093   2.520   1.307   1.119
 3065SOL    HW110094   2.619   1.318   1.110
 3065SOL    HW210095   2.500   1.251   1.200
 3066SOL     OW10096   5.273   5.818   0.901
 3066SOL    HW110097   5.360   5.789   0.861
 3066SOL    HW210098   5.230   5.741   0.947
 3067SOL     OW10099   4.751   6.602   3.595
 3067SOL    HW110100   4.684   6.665   3.558
 3067SOL    HW210101   4.813   6.573   3.522
 3068SOL     OW10102   5.726   4.928   0.603
 3068SOL    HW110103   5.720   4.995   0.529
 3068SOL    HW210104   5.814   4.880   0.597
 3069SOL     OW10105   1.013   5.293   3.656
 3069SOL    HW110106   0.978   5.368   3.713
 3069SOL    HW210107   1.113   5.289   3.664
 3070SOL     OW10108   3.851   1.282   4.522
 3070SOL    HW110109   3.788   1.359   4.527
 3070SOL    HW210110   3.876   1.265   4.427
 3071SOL     OW10111   5.723   0.385   4.042
 3071SOL    HW110112   5.770   0.466   4.007
 3071SOL    HW210113   5.729   0.311   3.974
 3072SOL     OW10114   0.783   0.566   2.083
 3072SOL    HW110115   0.867   0.582   2.032
 3072SOL    HW210116   0.715   0.522   2.023
 3073SOL     OW10117   1.751   2.647   4.496
 3073SOL    HW110118   1.728   2.551   4.511
 3073SOL    HW210119   1.685   2.689   4.434
 3074SOL     OW10120   4.692   3.520   6.424
 3074SOL    HW110121   4.593   3.524   6.437
 3074SOL    HW210122   4.733   3.607   6.451
 3075SOL     OW10123   0.296   5.865   1.115
 3075SOL    HW110124   0.386   5.857   1.158
 3075SOL    HW210125   0.226   5.876   1.185
 3076SOL     OW10126   0.972   0.278   4.923
 3076SOL    HW110127   0.945   0.331   5.003
 3076SOL    HW210128   0.982   0.339   4.844
 3077SOL     OW10129   5.420   4.372   3.865
 3077SOL    HW110130   5.439   4.454   3.920
 3077SOL    HW210131   5.323   4.369   3.842
 3078SOL     OW10132   2.478   3.303   0.758
 3078SOL    HW110133   2.576   3.296   0.739
 3078SOL    HW210134   2.454   3.236   0.829
 3079SOL     OW10135   5.241   2.689   6.364
 3079SOL    HW110136   5.255   2.591   6.376
 3079SOL    HW210137   5.327   2.731   6.332
 3080SOL     OW10138   6.029   6.072   0.953
 3080SOL    HW110139   5.976   6.017   1.019
 3080SOL    HW210140   5.973   6.089   0.872
 3081SOL     OW10141   6.453   4.970   5.980
 3081SOL    HW110142   6.414   5.043   6.035
 3081SOL    HW210143   6.548   4.992   5.956
 3082SOL     OW10144   2.385   0.197   2.008
 3082SOL    HW110145   2.335   0.113   1.989
 3082SOL    HW210146   2.407   0.243   1.922
 3083SOL     OW10147   3.370   0.724   2.194
 3083SOL    HW110148   3.453   0.670   2.182
 3083SOL    HW210149   3.299   0.667   2.235
 3084SOL     OW10150   4.643   6.511   4.053
 3084SOL    HW110151   4.589   6.452   3.994
 3084SOL    HW210152   4.625   6.487   4.149
 3085SOL     OW10153   0.955   5.930   1.449
 3085SOL    HW110154   0.945   5.911   1.351
 3085SOL    HW210155   1.049   5.910   1.476
 3086SOL     OW10156   5.871   1.728   3.856
 3086SOL    HW110157   5.834   1.642   3.821
 3086SOL    HW210158   5.895   1.787   3.779
 3087SOL     OW10159   5.609   2.935   2.420
 3087SOL    HW110160   5.515   2.926   2.387
 3087SOL    HW210161   5.645   3.025   2.395
 3088SOL     OW10162   2.733   4.009   6.091
 3088SOL    HW110163   2.746   4.086   6.027
 3088SOL    HW210164   2.749   4.041   6.184
 3089SOL     OW10165   2.467   2.460   0.830
 3089SOL    HW110166   2.415   2.375   0.832
 3089SOL    HW210167   2.506   2.478   0.920
 3090SOL     OW10168   0.465   1.682   0.980
 3090SOL    HW110169   0.420   1.653   1.065
 3090SOL    HW210170   0.496   1.777   0.989
 3091SOL     OW10171   2.466   0.054   0.967
 3091SOL    HW110172   2.396   0.105   0.917
 3091SOL    HW210173   2.552   0.055   0.914
 3092SOL     OW10174   4.057   6.169   1.107
 3092SOL    HW110175   4.080   6.073   1.098
 3092SOL    HW210176   4.140   6.223   1.117
 3093SOL     OW10177   5.237   5.653   3.592
 3093SOL    HW110178   5.236   5.645   3.692
 3093SOL    HW210179   5.313   5.600   3.555
 3094SOL     OW10180   3.412   5.249   5.489
 3094SOL    HW110181   3.387   5.316   5.558
 3094SOL    HW210182   3.501   5.274   5.449
 3095SOL     OW10183   2.380   4.818   4.669
 3095SOL    HW110184   2.402   4.916   4.667
 3095SOL    HW210185   2.385   4.784   4.762
 3096SOL     OW10186   6.842   0.757   5.165
 3096SOL    HW110187   6.813   0.664   5.145
 3096SOL    HW210188   6.874   0.762   5.260
 3097SOL     OW10189   1.854   2.896   0.280
 3097SOL    HW110190   1.944   2.859   0.304
 3097SOL    HW210191   1.788   2.821   0.272
 3098SOL     OW10192   4.156   2.145   0.594
 3098SOL    HW110193   4.107   2.180   0.673
 3098SOL    HW210194   4.099   2.154   0.512
 3099SOL     OW10195   1.011   5.876   5.105
 3099SOL    HW110196   1.062   5.962   5.106
 3099SOL    HW210197   0.931   5.886   5.046
 3100SOL     OW10198   6.217   5.958   0.123
 3100SOL    HW110199   6.180   5.983   0.213
 3100SOL    HW210200   6.143   5.926   0.064
 3101SOL     OW10201   4.550   6.792   0.701
 3101SOL    HW110202   4.597   6.815   0.786
 3101SOL    HW210203   4.454   6.821   0.707
 3102SOL     OW10204   0.400   5.828   0.729
 3102SOL    HW110205   0.350   5.906   0.767
 3102SOL    HW210206   0.377   5.745   0.779
 3103SOL     OW10207   4.267   3.857   1.778
 3103SOL    HW110208   4.349   3.870   1.723
 3103SOL    HW210209   4.229   3.946   1.804
 3104SOL     OW10210   6.544   5.324   3.732
 3104SOL    HW110211   6.523   5.235   3.692
 3104SOL    HW210212   6.466   5.357   3.785
 3105SOL     OW10213   6.238   5.997   3.560
 3105SOL    HW110214   6.273   6.042   3.642
 3105SOL    HW210215   6.138   6.002   3.561
 3106SOL     OW10216   6.909   3.098   4.721
 3106SOL    HW110217   6.890   3.124   4.626
 3106SOL    HW210218   6.875   3.005   4.737
 3107SOL     OW10219   2.781   6.867   3.743
 3107SOL    HW110220   2.771   6.768   3.737
 3107SOL    HW210221   2.695   6.911   3.719
 3108SOL     OW10222   3.111   1.051   3.238
 3108SOL    HW110223   3.116   0.951   3.242
 3108SOL    HW210224   3.200   1.088   3.212
 3109SOL     OW10225   4.736   6.125   3.020
 3109SOL    HW110226   4.702   6.219   3.032
 3109SOL    HW210227   4.817   6.126   2.961
 3110SOL     OW10228   1.241   2.714   1.967
 3110SOL    HW110229   1.208   2.670   2.051
 3110SOL    HW210230   1.296   2.649   1.915
 3111SOL     OW10231   6.757   4.949   3.349
 3111SOL    HW110232   6.774   4.859   3.389
 3111SOL    HW210233   6.820   4.964   3.273
 3112SOL     OW10234   3.070   3.681   6.706
 3112SOL    HW110235   3.155   3.628   6.703
 3112SOL    HW210236   2.993   3.621   6.683
 3113SOL     OW10237   4.122   6.969   3.949
 3113SOL    HW110238   4.090   6.879   3.977
 3113SOL    HW210239   4.139   6.969   3.850
 3114SOL     OW10240   5.515   5.615   0.984
 3114SOL    HW110241   5.565   5.573   0.908
 3114SOL    HW210242   5.473   5.542   1.040
 3115SOL     OW10243   2.661   3.366   1.754
 3115SOL    HW110244   2.718   3.448   1.763
 3115SOL    HW210245   2.572   3.384   1.796
 3116SOL     OW10246   0.166   1.499   6.681
 3116SOL    HW110247   0.230   1.421   6.684
 3116SOL    HW210248   0.173   1.551   6.766
 3117SOL     OW10249   3.810   3.736   5.258
 3117SOL    HW110250   3.711   3.731   5.242
 3117SOL    HW210251   3.843   3.647   5.289
 3118SOL     OW10252   5.726   5.155   0.170
 3118SOL    HW110253   5.768   5.067   0.148
 3118SOL    HW210254   5.689   5.151   0.263
 3119SOL     OW10255   2.079   5.028   6.155
 3119SOL    HW110256   2.079   5.127   6.142
 3119SOL    HW210257   2.128   5.005   6.239
 3120SOL     OW10258   2.782   5.633   5.779
 3120SOL    HW110259   2.834   5.548   5.773
 3120SOL    HW210260   2.717   5.638   5.703
 3121SOL     OW10261   0.442   5.968   3.316
 3121SOL    HW110262   0.472   5.928   3.230
 3121SOL    HW210263   0.468   6.065   3.318
 3122SOL     OW10264   2.551   5.256   0.530
 3122SOL    HW110265   2.578   5.256   0.626
 3122SOL    HW210266   2.570   5.346   0.490
 3123SOL     OW10267   3.514   6.728   4.870
 3123SOL    HW110268   3.452   6.762   4.799
 3123SOL    HW210269   3.599   6.695   4.829
 3124SOL     OW10270   4.132   0.467   6.125
 3124SOL    HW110271   4.113   0.447   6.221
 3124SOL    HW210272   4.216   0.420   6.096
 3125SOL     OW10273   0.059   2.086   5.726
 3125SOL    HW110274   0.075   2.108   5.630
 3125SOL    HW210275   7.023   2.155   5.767
 3126SOL     OW10276   3.436   6.758   0.356
 3126SOL    HW110277   3.454   6.791   0.449
 3126SOL    HW210278   3.487   6.674   0.340
 3127SOL     OW10279   1.493   1.088   3.837
 3127SOL    HW110280   1.589   1.099   3.812
 3127SOL    HW210281   1.481   1.004   3.889
 3128SOL     OW10282   1.124   0.822   0.378
 3128SOL    HW110283   1.148   0.726   0.396
 3128SOL    HW210284   1.113   0.869   0.466
 3129SOL     OW10285   1.915   2.909   3.841
 3129SOL    HW110286   1.917   2.959   3.928
 3129SOL    HW210287   1.969   2.825   3.849
 3130SOL     OW10288   2.149   5.564   3.277
 3130SOL    HW110289   2.111   5.608   3.196
 3130SOL    HW210290   2.170   5.468   3.256
 3131SOL     OW10291   0.332   3.340   3.768
 3131SOL    HW110292   0.386   3.327   3.851
 3131SOL    HW210293   0.390   3.330   3.688
 3132SOL     OW10294   5.143   6.100   5.050
 3132SOL    HW110295   5.183   6.070   4.964
 3132SOL    HW210296   5.074   6.034   5.079
 3133SOL     OW10297   2.472   1.915   3.275
 3133SOL    HW110298   2.413   1.950   3.348
 3133SOL    HW210299   2.540   1.984   3.251
 3134SOL     OW10300   5.438   3.015   1.775
 3134SOL    HW110301   5.502   3.064   1.834
 3134SOL    HW210302   5.344   3.042   1.798
 3135SOL     OW10303   2.544   1.644   3.376
 3135SOL    HW110304   2.523   1.734   3.339
 3135SOL    HW210305   2.510   1.638   3.470
 3136SOL     OW10306   6.658   0.015   5.070
 3136SOL    HW110307   6.678   6.968   5.138
 3136SOL    HW210308   6.713   7.022   4.988
 3137SOL     OW10309   6.820   2.055   4.905
 3137SOL    HW110310   6.739   2.114   4.908
 3137SOL    HW210311   6.862   2.059   4.814
 3138SOL     OW10312   5.510   1.894   4.722
 3138SOL    HW110313   5.592   1.938   4.759
 3138SOL    HW210314   5.527   1.866   4.627
 3139SOL     OW10315   4.883   6.522   5.187
 3139SOL    HW110316   4.785   6.524   5.164
 3139SOL    HW210317   4.929   6.597   5.141
 3140SOL     OW10318   6.199   5.862   6.112
 3140SOL    HW110319   6.122   5.839   6.052
 3140SOL    HW210320   6.253   5.780   6.128
 3141SOL     OW10321   0.739   5.543   0.991
 3141SOL    HW110322   0.737   5.639   1.019
 3141SOL    HW210323   0.786   5.535   0.903
 3142SOL     OW10324   3.645   0.146   6.342
 3142SOL    HW110325   3.588   0.157   6.260
 3142SOL    HW210326   3.742   0.145   6.315
 3143SOL     OW10327   0.381   1.866   0.518
 3143SOL    HW110328   0.364   1.793   0.452
 3143SOL    HW210329   0.448   1.930   0.480
 3144SOL     OW10330   1.820   3.697   6.603
 3144SOL    HW110331   1.744   3.674   6.665
 3144SOL    HW210332   1.871   3.774   6.641
 3145SOL     OW10333   3.539   6.017   4.197
 3145SOL    HW110334   3.539   5.921   4.170
 3145SOL    HW210335   3.547   6.074   4.115
 3146SOL     OW10336   2.233   0.582   3.669
 3146SOL    HW110337   2.239   0.682   3.659
 3146SOL    HW210338   2.180   0.560   3.751
 3147SOL     OW10339   3.600   4.324   0.567
 3147SOL    HW110340   3.627   4.302   0.661
 3147SOL    HW210341   3.585   4.239   0.516
 3148SOL     OW10342   3.416   5.542   5.269
 3148SOL    HW110343   3.398   5.584   5.358
 3148SOL    HW210344   3.451   5.611   5.206
 3149SOL     OW10345   3.221   6.110   6.118
 3149SOL    HW110346   3.185   6.020   6.144
 3149SOL    HW210347   3.207   6.124   6.021
 3150SOL     OW10348   0.208   0.181   4.171
 3150SOL    HW110349   0.209   0.167   4.270
 3150SOL    HW210350   0.301   0.175   4.134
 3151SOL     OW10351   3.924   0.144   0.402
 3151SOL    HW110352   3.949   0.210   0.332
 3151SOL    HW210353   3.852   0.084   0.368
 3152SOL     OW10354   1.279   4.830   6.845
 3152SOL    HW110355   1.338   4.759   6.806
 3152SOL    HW210356   1.331   4.915   6.852
 3153SOL     OW10357   6.964   4.429   3.087
 3153SOL    HW110358   6.932   4.497   3.021
 3153SOL    HW210359   6.885   4.380   3.125
 3154SOL     OW10360   5.595   2.436   6.963
 3154SOL    HW110361   5.617   2.338   6.970
 3154SOL    HW210362   5.625   2.483   0.022
 3155SOL     OW10363   3.807   6.339   0.286
 3155SOL    HW110364   3.883   6.400   0.308
 3155SOL    HW210365   3.810   6.314   0.190
 3156SOL     OW10366   3.823   3.409   3.246
 3156SOL    HW110367   3.831   3.406   3.345
 3156SOL    HW210368   3.768   3.331   3.214
 3157SOL     OW10369   1.906   2.744   4.881
 3157SOL    HW110370   1.881   2.841   4.877
 3157SOL    HW210371   1.993   2.734   4.930
 3158SOL     OW10372   4.286   6.089   1.272
 3158SOL    HW110373   4.385   6.084   1.272
 3158SOL    HW210374   4.257   6.179   1.303
 3159SOL     OW10375   5.587   4.712   0.689
 3159SOL    HW110376   5.641   4.786   0.648
 3159SOL    HW210377   5.533   4.748   0.765
 3160SOL     OW10378   6.229   4.813   0.761
 3160SOL    HW110379   6.153   4.860   0.716
 3160SOL    HW210380   6.237   4.720   0.724
 3161SOL     OW10381   0.651   1.698   2.859
 3161SOL    HW110382   0.608   1.785   2.886
 3161SOL    HW210383   0.748   1.701   2.879
 3162SOL     OW10384   6.202   0.097   5.797
 3162SOL    HW110385   6.184   0.195   5.802
 3162SOL    HW210386   6.277   0.074   5.860
 3163SOL     OW10387   2.291   4.604   5.482
 3163SOL    HW110388   2.366   4.669   5.469
 3163SOL    HW210389   2.212   4.650   5.522
 3164SOL     OW10390   5.924   5.547   6.095
 3164SOL    HW110391   5.895   5.492   6.016
 3164SOL    HW210392   5.845   5.572   6.150
 3165SOL     OW10393   0.320   2.421   1.595
 3165SOL    HW110394   0.268   2.343   1.630
 3165SOL    HW210395   0.415   2.393   1.578
 3166SOL     OW10396   4.603   3.065   6.197
 3166SOL    HW110397   4.605   3.000   6.273
 3166SOL    HW210398   4.508   3.085   6.173
 3167SOL     OW10399   0.395   4.089   1.723
 3167SOL    HW110400   0.438   4.176   1.702
 3167SOL    HW210401   0.296   4.097   1.712
 3168SOL     OW10402   4.997   3.293   0.675
 3168SOL    HW110403   4.964   3.202   0.701
 3168SOL    HW210404   5.057   3.328   0.747
 3169SOL     OW10405   1.924   2.112   4.792
 3169SOL    HW110406   1.981   2.182   4.836
 3169SOL    HW210407   1.970   2.023   4.797
 3170SOL     OW10408   4.749   0.669   5.681
 3170SOL    HW110409   4.842   0.677   5.643
 3170SOL    HW210410   4.741   0.730   5.760
 3171SOL     OW10411   6.314   0.070   3.220
 3171SOL    HW110412   6.303   0.047   3.316
 3171SOL    HW210413   6.412   0.070   3.197
 3172SOL     OW10414   5.841   0.355   5.995
 3172SOL    HW110415   5.923   0.313   6.033
 3172SOL    HW210416   5.865   0.440   5.949
 3173SOL     OW10417   1.984   1.390   1.541
 3173SOL    HW110418   1.895   1.420   1.507
 3173SOL    HW210419   2.045   1.469   1.549
 3174SOL     OW10420   1.844   3.270   6.378
 3174SOL    HW110421   1.910   3.313   6.316
 3174SOL    HW210422   1.874   3.282   6.472
 3175SOL     OW10423   6.816   5.918   0.625
 3175SOL    HW110424   6.758   5.997   0.643
 3175SOL    HW210425   6.910   5.938   0.654
 3176SOL     OW10426   1.355   6.171   6.525
 3176SOL    HW110427   1.304   6.164   6.440
 3176SOL    HW210428   1.339   6.089   6.580
 3177SOL     OW10429   1.021   6.772   4.397
 3177SOL    HW110430   0.975   6.684   4.411
 3177SOL    HW210431   0.967   6.845   4.440
 3178SOL     OW10432   2.496   3.589   0.773
 3178SOL    HW110433   2.538   3.627   0.856
 3178SOL    HW210434   2.454   3.501   0.795
 3179SOL     OW10435   1.098   2.516   3.414
 3179SOL    HW110436   1.161   2.452   3.459
 3179SOL    HW210437   1.147   2.601   3.394
 3180SOL     OW10438   5.711   1.443   6.125
 3180SOL    HW110439   5.678   1.519   6.181
 3180SOL    HW210440   5.680   1.356   6.164
 3181SOL     OW10441   0.959   1.475   2.827
 3181SOL    HW110442   0.894   1.443   2.758
 3181SOL    HW210443   0.945   1.573   2.843
 3182SOL     OW10444   1.471   4.757   5.349
 3182SOL    HW110445   1.378   4.788   5.328
 3182SOL    HW210446   1.497   4.686   5.285
 3183SOL     OW10447   4.848   2.835   1.273
 3183SOL    HW110448   4.921   2.899   1.297
 3183SOL    HW210449   4.888   2.748   1.243
 3184SOL     OW10450   0.940   2.293   3.760
 3184SOL    HW110451   0.938   2.197   3.787
 3184SOL    HW210452   0.925   2.301   3.661
 3185SOL     OW10453   0.287   6.258   6.560
 3185SOL    HW110454   0.274   6.278   6.463
 3185SOL    HW210455   0.285   6.159   6.575
 3186SOL     OW10456   3.407   0.592   1.592
 3186SOL    HW110457   3.370   0.682   1.571
 3186SOL    HW210458   3.401   0.575   1.690
 3187SOL     OW10459   2.835   4.211   0.183
 3187SOL    HW110460   2.766   4.248   0.120
 3187SOL    HW210461   2.819   4.113   0.196
 3188SOL     OW10462   4.586   6.900   3.119
 3188SOL    HW110463   4.534   6.974   3.161
 3188SOL    HW210464   4.677   6.934   3.093
 3189SOL     OW10465   6.769   6.683   2.029
 3189SOL    HW110466   6.771   6.584   2.013
 3189SOL    HW210467   6.808   6.731   1.951
 3190SOL     OW10468   0.551   6.809   1.388
 3190SOL    HW110469   0.569   6.891   1.443
 3190SOL    HW210470   0.529   6.836   1.294
 3191SOL     OW10471   2.989   0.169   0.564
 3191SOL    HW110472   3.006   0.158   0.466
 3191SOL    HW210473   2.922   0.242   0.578
 3192SOL     OW10474   5.844   2.002   3.232
 3192SOL    HW110475   5.808   1.927   3.176
 3192SOL    HW210476   5.832   2.089   3.184
 3193SOL     OW10477   4.644   4.309   0.961
 3193SOL    HW110478   4.641   4.281   1.057
 3193SOL    HW210479   4.717   4.376   0.949
 3194SOL     OW10480   1.939   4.680   5.297
 3194SOL    HW110481   1.912   4.590   5.262
 3194SOL    HW210482   1.861   4.743   5.290
 3195SOL     OW10483   0.865   3.907   3.191
 3195SOL    HW110484   0.882   3.809   3.180
 3195SOL    HW210485   0.935   3.959   3.143
 3196SOL     OW10486   0.324   6.947   5.677
 3196SOL    HW110487   0.369   6.857   5.675
 3196SOL    HW210488   0.392   7.017   5.696
 3197SOL     OW10489   0.148   3.938   4.363
 3197SOL    HW110490   0.085   3.930   4.440
 3197SOL    HW210491   0.236   3.897   4.387
 3198SOL     OW10492   5.527   6.438   0.395
 3198SOL    HW110493   5.538   6.436   0.495
 3198SOL    HW210494   5.544   6.347   0.359
 3199SOL     OW10495   3.564   1.694   3.491
 3199SOL    HW110496   3.624   1.766   3.457
 3199SOL    HW210497   3.468   1.719   3.475
 3200SOL     OW10498   0.179   2.200   0.268
 3200SOL    HW110499   0.123   2.146   0.331
 3200SOL    HW210500   0.242   2.257   0.321
 3201SOL     OW10501   4.626   4.388   3.198
 3201SOL    HW110502   4.549   4.409   3.138
 3201SOL    HW210503   4.618   4.443   3.282
 3202SOL     OW10504   1.027   6.025   1.726
 3202SOL    HW110505   1.012   6.034   1.627
 3202SOL    HW210506   0.940   6.028   1.774
 3203SOL     OW10507   5.059   0.492   1.260
 3203SOL    HW110508   5.009   0.413   1.225
 3203SOL    HW210509   5.070   0.559   1.187
 3204SOL     OW10510   6.355   6.077   2.386
 3204SOL    HW110511   6.314   6.088   2.476
 3204SOL    HW210512   6.283   6.073   2.317
 3205SOL     OW10513   1.019   3.960   3.706
 3205SOL    HW110514   0.959   3.982   3.629
 3205SOL    HW210515   1.091   4.028   3.713
 3206SOL     OW10516   1.582   6.805   0.374
 3206SOL    HW110517   1.639   6.741   0.425
 3206SOL    HW210518   1.634   6.841   0.296
 3207SOL     OW10519   1.013   1.434   2.549
 3207SOL    HW110520   0.934   1.458   2.493
 3207SOL    HW210521   1.066   1.517   2.568
 3208SOL     OW10522   6.103   0.493   4.623
 3208SOL    HW110523   6.056   0.545   4.552
 3208SOL    HW210524   6.200   0.519   4.625
 3209SOL     OW10525   2.306   0.311   2.727
 3209SOL    HW110526   2.278   0.398   2.687
 3209SOL    HW210527   2.405   0.302   2.722
 3210SOL     OW10528   0.551   5.065   1.971
 3210SOL    HW110529   0.490   5.088   1.896
 3210SOL    HW210530   0.533   5.127   2.048
 3211SOL     OW10531   1.052   4.110   2.591
 3211SOL    HW110532   0.956   4.110   2.618
 3211SOL    HW210533   1.080   4.017   2.567
 3212SOL     OW10534   5.016   3.156   5.566
 3212SOL    HW110535   5.080   3.206   5.509
 3212SOL    HW210536   4.933   3.136   5.514
 3213SOL     OW10537   4.893   0.306   1.219
 3213SOL    HW110538   4.810   0.308   1.275
 3213SOL    HW210539   4.873   0.341   1.128
 3214SOL     OW10540   4.067   4.212   6.417
 3214SOL    HW110541   4.071   4.224   6.317
 3214SOL    HW210542   3.978   4.173   6.441
 3215SOL     OW10543   6.195   1.385   0.419
 3215SOL    HW110544   6.242   1.308   0.377
 3215SOL    HW210545   6.112   1.353   0.464
 3216SOL     OW10546   5.505   6.763   4.919
 3216SOL    HW110547   5.557   6.815   4.852
 3216SOL    HW210548   5.417   6.736   4.880
 3217SOL     OW10549   6.672   4.126   0.288
 3217SOL    HW110550   6.687   4.211   0.239
 3217SOL    HW210551   6.581   4.126   0.328
 3218SOL     OW10552   3.650   1.613   2.181
 3218SOL    HW110553   3.569   1.647   2.229
 3218SOL    HW210554   3.695   1.690   2.135
 3219SOL     OW10555   0.463   0.248   3.876
 3219SOL    HW110556   0.426   0.340   3.887
 3219SOL    HW210557   0.479   0.207   3.966
 3220SOL     OW10558   5.728   3.207   5.673
 3220SOL    HW110559   5.822   3.174   5.670
 3220SOL    HW210560   5.682   3.171   5.754
 3221SOL     OW10561   3.793   0.544   2.531
 3221SOL    HW110562   3.720   0.587   2.585
 3221SOL    HW210563   3.803   0.592   2.444
 3222SOL     OW10564   6.706   4.265   2.165
 3222SOL    HW110565   6.762   4.347   2.159
 3222SOL    HW210566   6.658   4.263   2.253
 3223SOL     OW10567   2.423   4.384   3.574
 3223SOL    HW110568   2.439   4.301   3.520
 3223SOL    HW210569   2.383   4.360   3.662
 3224SOL     OW10570   3.177   5.825   1.363
 3224SOL    HW110571   3.275   5.822   1.342
 3224SOL    HW210572   3.125   5.846   1.280
 3225SOL     OW10573   1.906   2.695   1.176
 3225SOL    HW110574   1.940   2.622   1.235
 3225SOL    HW210575   1.837   2.749   1.224
 3226SOL     OW10576   0.344   0.477   4.023
 3226SOL    HW110577   0.309   0.555   4.074
 3226SOL    HW210578   0.324   0.489   3.925
 3227SOL     OW10579   1.823   2.072   5.602
 3227SOL    HW110580   1.899   2.021   5.562
 3227SOL    HW210581   1.755   2.091   5.531
 3228SOL     OW10582   4.889   3.363   4.911
 3228SOL    HW110583   4.840   3.443   4.943
 3228SOL    HW210584   4.900   3.299   4.987
 3229SOL     OW10585   4.595   1.634   5.298
 3229SOL    HW110586   4.595   1.559   5.232
 3229SOL    HW210587   4.679   1.632   5.351
 3230SOL     OW10588   1.679   0.385   3.926
 3230SOL    HW110589   1.722   0.321   3.990
 3230SOL    HW210590   1.748   0.441   3.882
 3231SOL     OW10591   4.637   5.020   0.496
 3231SOL    HW110592   4.677   4.983   0.412
 3231SOL    HW210593   4.710   5.051   0.557
 3232SOL     OW10594   1.754   4.297   2.904
 3232SOL    HW110595   1.749   4.394   2.928
 3232SOL    HW210596   1.818   4.285   2.828
 3233SOL     OW10597   1.694   4.031   0.597
 3233SOL    HW110598   1.678   4.107   0.659
 3233SOL    HW210599   1.749   4.061   0.520
 3234SOL     OW10600   6.419   2.440   5.219
 3234SOL    HW110601   6.392   2.353   5.177
 3234SOL    HW210602   6.477   2.490   5.155
 3235SOL     OW10603   5.234   0.877   2.448
 3235SOL    HW110604   5.333   0.863   2.446
 3235SOL    HW210605   5.212   0.971   2.422
 3236SOL     OW10606   0.281   2.573   1.365
 3236SOL    HW110607   0.293   2.517   1.447
 3236SOL    HW210608   0.256   2.666   1.392
 3237SOL     OW10609   3.138   6.040   4.728
 3237SOL    HW110610   3.137   5.954   4.677
 3237SOL    HW210611   3.046   6.079   4.730
 3238SOL     OW10612   6.533   6.063   6.358
 3238SOL    HW110613   6.444   6.109   6.353
 3238SOL    HW210614   6.521   5.967   6.335
 3239SOL     OW10615   0.691   5.975   5.417
 3239SOL    HW110616   0.635   5.948   5.339
 3239SOL    HW210617   0.705   5.896   5.477
 3240SOL     OW10618   0.405   2.241   4.693
 3240SOL    HW110619   0.322   2.265   4.642
 3240SOL    HW210620   0.389   2.157   4.745
 3241SOL     OW10621   4.086   6.842   4.818
 3241SOL    HW110622   4.136   6.841   4.731
 3241SOL    HW210623   4.106   6.758   4.869
 3242SOL     OW10624   3.203   6.894   0.759
 3242SOL    HW110625   3.235   6.808   0.719
 3242SOL    HW210626   3.240   6.971   0.706
 3243SOL     OW10627   3.378   5.121   1.124
 3243SOL    HW110628   3.427   5.035   1.110
 3243SOL    HW210629   3.347   5.157   1.036
 3244SOL     OW10630   1.311   6.191   5.663
 3244SOL    HW110631   1.224   6.148   5.636
 3244SOL    HW210632   1.292   6.278   5.709
 3245SOL     OW10633   3.261   1.832   5.891
 3245SOL    HW110634   3.340   1.779   5.922
 3245SOL    HW210635   3.260   1.920   5.939
 3246SOL     OW10636   5.694   6.462   3.835
 3246SOL    HW110637   5.657   6.434   3.746
 3246SOL    HW210638   5.793   6.476   3.826
 3247SOL     OW10639   6.253   2.898   5.581
 3247SOL    HW110640   6.245   2.986   5.533
 3247SOL    HW210641   6.207   2.904   5.670
 3248SOL     OW10642   4.921   3.872   2.726
 3248SOL    HW110643   4.914   3.853   2.628
 3248SOL    HW210644   4.995   3.818   2.766
 3249SOL     OW10645   3.154   4.241   5.628
 3249SOL    HW110646   3.147   4.329   5.581
 3249SOL    HW210647   3.195   4.174   5.567
 3250SOL     OW10648   4.727   5.104   1.359
 3250SOL    HW110649   4.773   5.088   1.446
 3250SOL    HW210650   4.708   5.016   1.315
 3251SOL     OW10651   3.833   0.551   3.682
 3251SOL    HW110652   3.783   0.594   3.757
 3251SOL    HW210653   3.912   0.607   3.658
 3252SOL     OW10654   3.374   1.844   3.742
 3252SOL    HW110655   3.322   1.930   3.740
 3252SOL    HW210656   3.358   1.794   3.656
 3253SOL     OW10657   5.025   4.501   1.368
 3253SOL    HW110658   4.946   4.522   1.426
 3253SOL    HW210659   5.101   4.471   1.426
 3254SOL     OW10660   6.442   4.111   2.595
 3254SOL    HW110661   6.473   4.125   2.689
 3254SOL    HW210662   6.343   4.098   2.594
 3255SOL     OW10663   3.834   5.154   0.696
 3255SOL    HW110664   3.838   5.253   0.715
 3255SOL    HW210665   3.909   5.129   0.635
 3256SOL     OW10666   6.314   6.468   5.697
 3256SOL    HW110667   6.276   6.407   5.766
 3256SOL    HW210668   6.240   6.508   5.643
 3257SOL     OW10669   2.277   1.695   1.320
 3257SOL    HW110670   2.293   1.728   1.227
 3257SOL    HW210671   2.240   1.603   1.318
 3258SOL     OW10672   4.726   6.607   1.354
 3258SOL    HW110673   4.794   6.543   1.318
 3258SOL    HW210674   4.642   6.599   1.301
 3259SOL     OW10675   5.950   5.959   3.467
 3259SOL    HW110676   5.975   5.946   3.371
 3259SOL    HW210677   5.949   6.057   3.488
 3260SOL     OW10678   2.003   1.639   1.105
 3260SOL    HW110679   2.043   1.592   1.184
 3260SOL    HW210680   2.071   1.646   1.032
 3261SOL     OW10681   4.801   6.877   3.731
 3261SOL    HW110682   4.866   6.815   3.775
 3261SOL    HW210683   4.824   6.886   3.634
 3262SOL     OW10684   3.740   1.814   4.242
 3262SOL    HW110685   3.729   1.751   4.165
 3262SOL    HW210686   3.779   1.765   4.320
 3263SOL     OW10687   3.688   4.919   3.008
 3263SOL    HW110688   3.649   5.001   3.050
 3263SOL    HW210689   3.780   4.904   3.043
 3264SOL     OW10690   5.088   4.698   6.077
 3264SOL    HW110691   5.041   4.715   6.164
 3264SOL    HW210692   5.091   4.783   6.024
 3265SOL     OW10693   5.172   0.165   5.971
 3265SOL    HW110694   5.097   0.220   5.935
 3265SOL    HW210695   5.135   0.089   6.024
 3266SOL     OW10696   1.319   2.604   6.494
 3266SOL    HW110697   1.255   2.661   6.547
 3266SOL    HW210698   1.371   2.662   6.432
 3267SOL     OW10699   5.154   2.809   1.695
 3267SOL    HW110700   5.151   2.714   1.663
 3267SOL    HW210701   5.099   2.819   1.778
 3268SOL     OW10702   1.866   5.174   6.769
 3268SOL    HW110703   1.867   5.272   6.786
 3268SOL    HW210704   1.947   5.148   6.716
 3269SOL     OW10705   4.420   3.404   0.861
 3269SOL    HW110706   4.380   3.402   0.952
 3269SOL    HW210707   4.470   3.319   0.844
 3270SOL     OW10708   7.015   5.046   3.705
 3270SOL    HW110709   0.064   5.114   3.716
 3270SOL    HW210710   6.946   5.081   3.643
 3271SOL     OW10711   4.471   0.209   1.698
 3271SOL    HW110712   4.410   0.186   1.774
 3271SOL    HW210713   4.564   0.180   1.719
 3272SOL     OW10714   4.764   6.401   6.660
 3272SOL    HW110715   4.739   6.405   6.563
 3272SOL    HW210716   4.789   6.493   6.691
 3273SOL     OW10717   1.300   0.634   3.197
 3273SOL    HW110718   1.327   0.718   3.150
 3273SOL    HW210719   1.214   0.649   3.244
 3274SOL     OW10720   2.970   1.499   6.722
 3274SOL    HW110721   3.023   1.470   6.802
 3274SOL    HW210722   2.898   1.562   6.750
 3275SOL     OW10723   4.554   0.751   6.802
 3275SOL    HW110724   4.578   0.836   6.848
 3275SOL    HW210725   4.464   0.760   6.759
 3276SOL     OW10726   1.881   6.163   6.961
 3276SOL    HW110727   1.974   6.142   6.990
 3276SOL    HW210728   1.816   6.131   0.006
 3277SOL     OW10729   6.954   6.043   6.673
 3277SOL    HW110730   6.927   6.132   6.709
 3277SOL    HW210731   6.880   5.978   6.687
 3278SOL     OW10732   0.775   0.685   0.244
 3278SOL    HW110733   0.828   0.764   0.274
 3278SOL    HW210734   0.681   0.714   0.222
 3279SOL     OW10735   1.923   6.470   1.232
 3279SOL    HW110736   1.911   6.515   1.321
 3279SOL    HW210737   1.835   6.462   1.187
 3280SOL     OW10738   2.676   6.321   4.018
 3280SOL    HW110739   2.622   6.406   4.021
 3280SOL    HW210740   2.631   6.251   4.072
 3281SOL     OW10741   2.148   6.382   0.561
 3281SOL    HW110742   2.189   6.446   0.626
 3281SOL    HW210743   2.194   6.389   0.473
 3282SOL     OW10744   2.198   5.493   2.551
 3282SOL    HW110745   2.248   5.552   2.615
 3282SOL    HW210746   2.261   5.424   2.514
 3283SOL     OW10747   2.159   6.765   3.333
 3283SOL    HW110748   2.100   6.686   3.354
 3283SOL    HW210749   2.118   6.817   3.258
 3284SOL     OW10750   1.296   5.011   5.731
 3284SOL    HW110751   1.385   5.055   5.742
 3284SOL    HW210752   1.267   5.017   5.635
 3285SOL     OW10753   0.373   2.799   3.953
 3285SOL    HW110754   0.311   2.739   4.005
 3285SOL    HW210755   0.467   2.769   3.966
 3286SOL     OW10756   4.547   4.402   6.694
 3286SOL    HW110757   4.546   4.487   6.746
 3286SOL    HW210758   4.454   4.383   6.661
 3287SOL     OW10759   0.094   3.187   1.649
 3287SOL    HW110760   0.164   3.258   1.640
 3287SOL    HW210761   0.018   3.222   1.704
 3288SOL     OW10762   1.101   6.895   6.813
 3288SOL    HW110763   1.096   6.884   6.913
 3288SOL    HW210764   1.170   6.832   6.776
 3289SOL     OW10765   1.442   6.310   4.224
 3289SOL    HW110766   1.460   6.225   4.173
 3289SOL    HW210767   1.451   6.292   4.322
 3290SOL     OW10768   0.390   4.528   3.482
 3290SOL    HW110769   0.392   4.436   3.520
 3290SOL    HW210770   0.482   4.554   3.452
 3291SOL     OW10771   1.834   1.000   2.315
 3291SOL    HW110772   1.783   1.086   2.318
 3291SOL    HW210773   1.906   1.001   2.384
 3292SOL     OW10774   0.689   5.628   4.890
 3292SOL    HW110775   0.717   5.560   4.824
 3292SOL    HW210776   0.650   5.707   4.843
 3293SOL     OW10777   6.124   0.647   3.150
 3293SOL    HW110778   6.151   0.734   3.109
 3293SOL    HW210779   6.171   0.634   3.237
 3294SOL     OW10780   0.064   6.776   0.835
 3294SOL    HW110781   0.102   6.684   0.833
 3294SOL    HW210782   6.994   6.773   0.871
 3295SOL     OW10783   2.069   2.506   6.082
 3295SOL    HW110784   2.137   2.518   6.010
 3295SOL    HW210785   2.012   2.587   6.089
 3296SOL     OW10786   0.928   6.338   2.553
 3296SOL    HW110787   0.936   6.343   2.653
 3296SOL    HW210788   0.952   6.426   2.513
 3297SOL     OW10789   3.423   1.396   6.159
 3297SOL    HW110790   3.395   1.326   6.224
 3297SOL    HW210791   3.511   1.435   6.187
 3298SOL     OW10792   0.193   4.323   2.527
 3298SOL    HW110793   0.289   4.301   2.511
 3298SOL    HW210794   0.160   4.274   2.608
 3299SOL     OW10795   0.884   1.648   4.291
 3299SOL    HW110796   0.826   1.604   4.223
 3299SOL    HW210797   0.834   1.658   4.377
 3300SOL     OW10798   7.015   0.131   4.931
 3300SOL    HW110799   6.980   0.179   5.011
 3300SOL    HW210800   0.084   0.097   4.950
 3301SOL     OW10801   6.498   3.824   2.357
 3301SOL    HW110802   6.579   3.832   2.416
 3301SOL    HW210803   6.526   3.806   2.263
 3302SOL     OW10804   1.009   6.285   5.275
 3302SOL    HW110805   1.066   6.207   5.249
 3302SOL    HW210806   0.961   6.264   5.360
 3303SOL     OW10807   2.906   3.494   3.946
 3303SOL    HW110808   2.851   3.434   4.003
 3303SOL    HW210809   2.996   3.506   3.986
 3304SOL     OW10810   1.860   0.428   3.405
 3304SOL    HW110811   1.803   0.504   3.436
 3304SOL    HW210812   1.955   0.458   3.396
 3305SOL     OW10813   0.858   3.083   0.319
 3305SOL    HW110814   0.854   3.020   0.396
 3305SOL    HW210815   0.765   3.113   0.295
 3306SOL     OW10816   1.368   2.674   2.385
 3306SOL    HW110817   1.432   2.680   2.309
 3306SOL    HW210818   1.277   2.649   2.350
 3307SOL     OW10819   0.907   0.162   0.211
 3307SOL    HW110820   0.823   0.143   0.161
 3307SOL    HW210821   0.914   0.100   0.289
 3308SOL     OW10822   4.980   6.083   1.078
 3308SOL    HW110823   4.902   6.026   1.101
 3308SOL    HW210824   5.035   6.100   1.160
 3309SOL     OW10825   1.656   4.583   2.132
 3309SOL    HW110826   1.579   4.647   2.124
 3309SOL    HW210827   1.720   4.616   2.200
 3310SOL     OW10828   1.712   6.883   2.035
 3310SOL    HW110829   1.780   6.847   1.971
 3310SOL    HW210830   1.738   6.975   2.062
 3311SOL     OW10831   3.919   5.632   0.839
 3311SOL    HW110832   4.016   5.628   0.862
 3311SOL    HW210833   3.877   5.709   0.887
 3312SOL     OW10834   1.451   2.854   6.197
 3312SOL    HW110835   1.359   2.875   6.231
 3312SOL    HW210836   1.487   2.775   6.247
 3313SOL     OW10837   5.888   6.493   4.732
 3313SOL    HW110838   5.795   6.495   4.696
 3313SOL    HW210839   5.945   6.556   4.680
 3314SOL     OW10840   0.703   4.784   6.818
 3314SOL    HW110841   0.652   4.751   6.897
 3314SOL    HW210842   0.801   4.777   6.836
 3315SOL     OW10843   6.483   2.859   3.316
 3315SOL    HW110844   6.387   2.836   3.298
 3315SOL    HW210845   6.518   2.797   3.387
 3316SOL     OW10846   4.305   1.217   0.189
 3316SOL    HW110847   4.403   1.232   0.204
 3316SOL    HW210848   4.254   1.292   0.229
 3317SOL     OW10849   4.269   2.034   1.446
 3317SOL    HW110850   4.362   2.057   1.417
 3317SOL    HW210851   4.268   2.017   1.545
 3318SOL     OW10852   2.711   5.006   5.689
 3318SOL    HW110853   2.612   5.016   5.694
 3318SOL    HW210854   2.746   5.058   5.612
 3319SOL     OW10855   6.728   6.441   6.623
 3319SOL    HW110856   6.798   6.424   6.692
 3319SOL    HW210857   6.696   6.354   6.586
 3320SOL     OW10858   0.783   0.389   1.056
 3320SOL    HW110859   0.785   0.331   0.974
 3320SOL    HW210860   0.797   0.484   1.030
 3321SOL     OW10861   3.942   3.870   4.252
 3321SOL    HW110862   3.984   3.848   4.164
 3321SOL    HW210863   3.947   3.790   4.312
 3322SOL     OW10864   4.655   2.165   2.172
 3322SOL    HW110865   4.604   2.092   2.218
 3322SOL    HW210866   4.605   2.193   2.090
 3323SOL     OW10867   1.853   4.608   0.283
 3323SOL    HW110868   1.852   4.646   0.191
 3323SOL    HW210869   1.786   4.534   0.290
 3324SOL     OW10870   6.286   3.406   1.612
 3324SOL    HW110871   6.290   3.486   1.672
 3324SOL    HW210872   6.357   3.341   1.640
 3325SOL     OW10873   0.938   4.876   5.788
 3325SOL    HW110874   0.882   4.794   5.777
 3325SOL    HW210875   0.907   4.926   5.868
 3326SOL     OW10876   5.522   0.324   2.244
 3326SOL    HW110877   5.475   0.369   2.320
 3326SOL    HW210878   5.462   0.255   2.204
 3327SOL     OW10879   4.754   6.042   1.823
 3327SOL    HW110880   4.674   6.091   1.788
 3327SOL    HW210881   4.820   6.107   1.860
 3328SOL     OW10882   6.080   6.639   4.097
 3328SOL    HW110883   6.129   6.724   4.079
 3328SOL    HW210884   5.988   6.644   4.059
 3329SOL     OW10885   5.719   0.779   5.891
 3329SOL    HW110886   5.752   0.819   5.806
 3329SOL    HW210887   5.706   0.851   5.959
 3330SOL     OW10888   6.745   6.569   2.847
 3330SOL    HW110889   6.830   6.518   2.848
 3330SOL    HW210890   6.742   6.629   2.767
 3331SOL     OW10891   1.428   4.196   2.751
 3331SOL    HW110892   1.494   4.265   2.720
 3331SOL    HW210893   1.418   4.201   2.850
 3332SOL     OW10894   3.885   5.191   7.022
 3332SOL    HW110895   3.927   5.180   6.932
 3332SOL    HW210896   3.937   5.256   0.052
 3333SOL     OW10897   1.801   3.747   0.986
 3333SOL    HW110898   1.826   3.658   0.948
 3333SOL    HW210899   1.793   3.814   0.913
 3334SOL     OW10900   1.147   2.269   2.521
 3334SOL    HW110901   1.088   2.337   2.565
 3334SOL    HW210902   1.111   2.247   2.431
 3335SOL     OW10903   3.823   4.277   5.784
 3335SOL    HW110904   3.824   4.227   5.697
 3335SOL    HW210905   3.908   4.328   5.793
 3336SOL     OW10906   3.857   5.814   5.769
 3336SOL    HW110907   3.920   5.804   5.846
 3336SOL    HW210908   3.771   5.855   5.802
 3337SOL     OW10909   3.226   3.012   3.618
 3337SOL    HW110910   3.195   3.043   3.709
 3337SOL    HW210911   3.150   3.018   3.553
 3338SOL     OW10912   2.726   3.123   1.620
 3338SOL    HW110913   2.723   3.138   1.521
 3338SOL    HW210914   2.716   3.210   1.668
 3339SOL     OW10915   0.849   6.585   6.915
 3339SOL    HW110916   0.804   6.534   6.989
 3339SOL    HW210917   0.787   6.593   6.837
 3340SOL     OW10918   4.667   1.374   6.091
 3340SOL    HW110919   4.734   1.352   6.020
 3340SOL    HW210920   4.621   1.291   6.121
 3341SOL     OW10921   1.361   4.304   1.333
 3341SOL    HW110922   1.432   4.235   1.346
 3341SOL    HW210923   1.277   4.261   1.301
 3342SOL     OW10924   5.745   0.198   2.135
 3342SOL    HW110925   5.806   0.158   2.203
 3342SOL    HW210926   5.668   0.243   2.180
 3343SOL     OW10927   3.342   5.439   0.928
 3343SOL    HW110928   3.296   5.356   0.896
 3343SOL    HW210929   3.331   5.511   0.860
 3344SOL     OW10930   1.258   3.483   1.488
 3344SOL    HW110931   1.223   3.573   1.513
 3344SOL    HW210932   1.336   3.460   1.546
 3345SOL     OW10933   5.191   5.396   1.324
 3345SOL    HW110934   5.276   5.345   1.310
 3345SOL    HW210935   5.113   5.335   1.315
 3346SOL     OW10936   1.230   0.622   0.000
 3346SOL    HW110937   1.322   0.658   0.016
 3346SOL    HW210938   1.162   0.690   0.029
 3347SOL     OW10939   1.009   4.066   5.664
 3347SOL    HW110940   0.912   4.044   5.671
 3347SOL    HW210941   1.020   4.164   5.648
 3348SOL     OW10942   3.437   4.180   6.200
 3348SOL    HW110943   3.496   4.217   6.128
 3348SOL    HW210944   3.405   4.255   6.259
 3349SOL     OW10945   1.527   5.880   1.643
 3349SOL    HW110946   1.434   5.895   1.610
 3349SOL    HW210947   1.583   5.842   1.569
 3350SOL     OW10948   2.275   5.157   5.162
 3350SOL    HW110949   2.284   5.101   5.244
 3350SOL    HW210950   2.302   5.103   5.082
 3351SOL     OW10951   5.002   6.845   1.733
 3351SOL    HW110952   4.920   6.848   1.676
 3351SOL    HW210953   5.078   6.806   1.682
 3352SOL     OW10954   5.609   1.336   6.933
 3352SOL    HW110955   5.612   1.378   6.843
 3352SOL    HW210956   5.532   1.373   6.985
 3353SOL     OW10957   4.009   0.956   6.578
 3353SOL    HW110958   4.010   0.973   6.479
 3353SOL    HW210959   4.070   1.021   6.623
 3354SOL     OW10960   2.244   3.064   0.401
 3354SOL    HW110961   2.206   2.999   0.336
 3354SOL    HW210962   2.275   3.146   0.352
 3355SOL     OW10963   1.280   1.116   4.963
 3355SOL    HW110964   1.320   1.158   4.881
 3355SOL    HW210965   1.220   1.041   4.936
 3356SOL     OW10966   3.259   0.939   6.003
 3356SOL    HW110967   3.171   0.912   6.044
 3356SOL    HW210968   3.296   0.862   5.951
 3357SOL     OW10969   2.863   3.553   3.458
 3357SOL    HW110970   2.833   3.463   3.489
 3357SOL    HW210971   2.891   3.608   3.536
 3358SOL     OW10972   0.082   2.064   1.104
 3358SOL    HW110973   0.137   1.989   1.068
 3358SOL    HW210974   0.131   2.108   1.180
 3359SOL     OW10975   1.250   6.883   4.284
 3359SOL    HW110976   1.258   6.844   4.192
 3359SOL    HW210977   1.193   6.824   4.341
 3360SOL     OW10978   1.535   5.624   4.713
 3360SOL    HW110979   1.622   5.591   4.751
 3360SOL    HW210980   1.459   5.590   4.768
 3361SOL     OW10981   6.588   6.809   4.396
 3361SOL    HW110982   6.648   6.813   4.317
 3361SOL    HW210983   6.546   6.898   4.412
 3362SOL     OW10984   3.910   0.493   4.368
 3362SOL    HW110985   4.007   0.493   4.393
 3362SOL    HW210986   3.898   0.529   4.276
 3363SOL     OW10987   5.340   3.763   0.322
 3363SOL    HW110988   5.324   3.672   0.284
 3363SOL    HW210989   5.361   3.826   0.248
 3364SOL     OW10990   1.767   3.623   1.511
 3364SOL    HW110991   1.799   3.585   1.424
 3364SOL    HW210992   1.798   3.565   1.586
 3365SOL     OW10993   1.127   2.702   2.813
 3365SOL    HW110994   1.179   2.777   2.771
 3365SOL    HW210995   1.116   2.629   2.747
 3366SOL     OW10996   6.131   2.552   3.956
 3366SOL    HW110997   6.204   2.518   4.016
 3366SOL    HW210998   6.044   2.548   4.004
 3367SOL     OW10999   3.457   2.881   3.647
 3367SOL    HW111000   3.495   2.866   3.556
 3367SOL    HW211001   3.370   2.929   3.639
 3368SOL     OW11002   2.441   0.858   3.581
 3368SOL    HW111003   2.482   0.923   3.646
 3368SOL    HW211004   2.446   0.896   3.489
 3369SOL     OW11005   5.125   2.794   1.229
 3369SOL    HW111006   5.074   2.714   1.197
 3369SOL    HW211007   5.202   2.764   1.284
 3370SOL     OW11008   0.753   5.360   2.923
 3370SOL    HW111009   0.751   5.264   2.895
 3370SOL    HW211010   0.702   5.370   3.009
 3371SOL     OW11011   2.643   2.856   1.262
 3371SOL    HW111012   2.625   2.797   1.183
 3371SOL    HW211013   2.682   2.943   1.231
 3372SOL     OW11014   5.656   2.675   3.357
 3372SOL    HW111015   5.734   2.675   3.419
 3372SOL    HW211016   5.572   2.666   3.410
 3373SOL     OW11017   0.223   4.433   0.509
 3373SOL    HW111018   0.234   4.532   0.512
 3373SOL    HW211019   0.250   4.399   0.419
 3374SOL     OW11020   1.157   5.601   4.012
 3374SOL    HW111021   1.170   5.587   3.914
 3374SOL    HW211022   1.245   5.591   4.060
 3375SOL     OW11023   0.138   5.989   5.659
 3375SOL    HW111024   0.065   5.969   5.725
 3375SOL    HW211025   0.208   6.045   5.704
 3376SOL     OW11026   3.121   3.686   5.368
 3376SOL    HW111027   3.037   3.696   5.315
 3376SOL    HW211028   3.175   3.770   5.361
 3377SOL     OW11029   6.772   5.528   4.127
 3377SOL    HW111030   6.863   5.488   4.115
 3377SOL    HW211031   6.705   5.455   4.138
 3378SOL     OW11032   0.870   5.722   0.516
 3378SOL    HW111033   0.794   5.659   0.501
 3378SOL    HW211034   0.837   5.816   0.509
 3379SOL     OW11035   5.907   4.176   4.036
 3379SOL    HW111036   5.843   4.254   4.040
 3379SOL    HW211037   5.983   4.193   4.099
 3380SOL     OW11038   2.175   5.304   1.782
 3380SOL    HW111039   2.274   5.291   1.783
 3380SOL    HW211040   2.150   5.377   1.845
 3381SOL     OW11041   2.829   4.090   6.354
 3381SOL    HW111042   2.912   4.043   6.323
 3381SOL    HW211043   2.775   4.029   6.411
 3382SOL     OW11044   6.751   4.017   6.422
 3382SOL    HW111045   6.839   3.992   6.462
 3382SOL    HW211046   6.680   4.015   6.492
 3383SOL     OW11047   3.213   6.088   0.762
 3383SOL    HW111048   3.244   6.042   0.845
 3383SOL    HW211049   3.134   6.145   0.783
 3384SOL     OW11050   2.661   2.858   6.423
 3384SOL    HW111051   2.725   2.793   6.382
 3384SOL    HW211052   2.696   2.889   6.512
 3385SOL     OW11053   5.735   2.782   4.626
 3385SOL    HW111054   5.773   2.862   4.674
 3385SOL    HW211055   5.810   2.731   4.583
 3386SOL     OW11056   0.244   5.455   4.992
 3386SOL    HW111057   0.290   5.478   4.906
 3386SOL    HW211058   0.294   5.495   5.069
 3387SOL     OW11059   6.133   0.150   2.816
 3387SOL    HW111060   6.131   0.139   2.717
 3387SOL    HW211061   6.105   0.243   2.839
 3388SOL     OW11062   0.696   3.911   0.161
 3388SOL    HW111063   0.794   3.888   0.158
 3388SOL    HW211064   0.660   3.887   0.251
 3389SOL     OW11065   6.363   5.198   6.093
 3389SOL    HW111066   6.290   5.239   6.148
 3389SOL    HW211067   6.352   5.227   5.997
 3390SOL     OW11068   3.233   5.604   0.673
 3390SOL    HW111069   3.333   5.600   0.667
 3390SOL    HW211070   3.201   5.692   0.636
 3391SOL     OW11071   5.130   3.842   5.288
 3391SOL    HW111072   5.165   3.903   5.216
 3391SOL    HW211073   5.195   3.767   5.302
 3392SOL     OW11074   5.161   6.411   5.556
 3392SOL    HW111075   5.226   6.354   5.606
 3392SOL    HW211076   5.188   6.416   5.459
 3393SOL     OW11077   3.684   0.018   0.372
 3393SOL    HW111078   3.623   7.004   0.443
 3393SOL    HW211079   3.650   7.013   0.282
 3394SOL     OW11080   2.803   5.527   1.385
 3394SOL    HW111081   2.753   5.445   1.415
 3394SOL    HW211082   2.779   5.546   1.289
 3395SOL     OW11083   2.069   6.541   3.066
 3395SOL    HW111084   2.169   6.546   3.070
 3395SOL    HW211085   2.032   6.543   3.159
 3396SOL     OW11086   4.583   0.353   4.866
 3396SOL    HW111087   4.541   0.414   4.933
 3396SOL    HW211088   4.523   0.345   4.787
 3397SOL     OW11089   2.319   6.298   1.105
 3397SOL    HW111090   2.226   6.293   1.068
 3397SOL    HW211091   2.384   6.272   1.033
 3398SOL     OW11092   6.864   1.039   6.602
 3398SOL    HW111093   6.870   1.048   6.503
 3398SOL    HW211094   6.861   1.131   6.643
 3399SOL     OW11095   0.151   5.965   2.312
 3399SOL    HW111096   0.136   6.035   2.243
 3399SOL    HW211097   0.221   5.995   2.377
 3400SOL     OW11098   3.291   2.921   5.518
 3400SOL    HW111099   3.239   2.898   5.435
 3400SOL    HW211100   3.231   2.918   5.597
 3401SOL     OW11101   6.864   3.234   4.188
 3401SOL    HW111102   6.862   3.316   4.131
 3401SOL    HW211103   6.898   3.157   4.135
 3402SOL     OW11104   5.662   3.416   7.010
 3402SOL    HW111105   5.652   3.504   6.965
 3402SOL    HW211106   5.588   3.404   0.053
 3403SOL     OW11107   5.601   6.505   4.617
 3403SOL    HW111108   5.646   6.440   4.556
 3403SOL    HW211109   5.602   6.596   4.575
 3404SOL     OW11110   5.161   5.007   3.234
 3404SOL    HW111111   5.259   4.994   3.217
 3404SOL    HW211112   5.109   4.943   3.178
 3405SOL     OW11113   4.302   5.833   1.441
 3405SOL    HW111114   4.376   5.889   1.481
 3405SOL    HW211115   4.215   5.858   1.484
 3406SOL     OW11116   3.809   4.883   1.108
 3406SOL    HW111117   3.765   4.909   1.194
 3406SOL    HW211118   3.803   4.959   1.044
 3407SOL     OW11119   1.593   2.807   0.535
 3407SOL    HW111120   1.628   2.774   0.447
 3407SOL    HW211121   1.503   2.767   0.553
 3408SOL     OW11122   3.982   6.598   3.941
 3408SOL    HW111123   3.990   6.500   3.921
 3408SOL    HW211124   4.015   6.651   3.863
 3409SOL     OW11125   4.487   1.897   6.667
 3409SOL    HW111126   4.463   1.863   6.575
 3409SOL    HW211127   4.405   1.895   6.725
 3410SOL     OW11128   7.013   0.575   2.209
 3410SOL    HW111129   7.000   0.561   2.307
 3410SOL    HW211130   6.934   0.541   2.159
 3411SOL     OW11131   5.837   3.414   6.131
 3411SOL    HW111132   5.820   3.331   6.185
 3411SOL    HW211133   5.858   3.388   6.037
 3412SOL     OW11134   5.489   2.649   3.565
 3412SOL    HW111135   5.495   2.747   3.584
 3412SOL    HW211136   5.419   2.607   3.622
 3413SOL     OW11137   0.100   2.571   1.157
 3413SOL    HW111138   0.132   2.603   1.068
 3413SOL    HW211139   0.175   2.574   1.223
 3414SOL     OW11140   4.058   3.087   1.756
 3414SOL    HW111141   4.071   2.999   1.712
 3414SOL    HW211142   3.971   3.087   1.806
 3415SOL     OW11143   2.649   1.455   6.431
 3415SOL    HW111144   2.671   1.538   6.482
 3415SOL    HW211145   2.644   1.377   6.494
 3416SOL     OW11146   5.389   6.589   5.764
 3416SOL    HW111147   5.469   6.621   5.814
 3416SOL    HW211148   5.314   6.655   5.773
 3417SOL     OW11149   5.674   0.268   2.565
 3417SOL    HW111150   5.720   0.355   2.546
 3417SOL    HW211151   5.652   0.223   2.479
 3418SOL     OW11152   4.042   5.772   0.577
 3418SOL    HW111153   3.987   5.833   0.635
 3418SOL    HW211154   3.994   5.685   0.566
 3419SOL     OW11155   3.046   4.748   5.318
 3419SOL    HW111156   3.034   4.712   5.411
 3419SOL    HW211157   3.027   4.675   5.252
 3420SOL     OW11158   4.202   1.007   1.926
 3420SOL    HW111159   4.108   1.036   1.906
 3420SOL    HW211160   4.205   0.961   2.015
 3421SOL     OW11161   0.282   1.402   4.439
 3421SOL    HW111162   0.293   1.350   4.524
 3421SOL    HW211163   0.189   1.436   4.433
 3422SOL     OW11164   3.226   5.575   2.030
 3422SOL    HW111165   3.165   5.629   1.972
 3422SOL    HW211166   3.317   5.615   2.030
 3423SOL     OW11167   2.362   4.674   6.300
 3423SOL    HW111168   2.318   4.685   6.211
 3423SOL    HW211169   2.458   4.700   6.294
 3424SOL     OW11170   5.591   6.923   2.538
 3424SOL    HW111171   5.492   6.925   2.536
 3424SOL    HW211172   5.622   6.846   2.593
 3425SOL     OW11173   5.508   2.986   6.280
 3425SOL    HW111174   5.457   3.058   6.233
 3425SOL    HW211175   5.491   2.991   6.378
 3426SOL     OW11176   6.623   5.732   6.607
 3426SOL    HW111177   6.648   5.801   6.674
 3426SOL    HW211178   6.541   5.683   6.639
 3427SOL     OW11179   1.750   1.466   6.405
 3427SOL    HW111180   1.822   1.427   6.346
 3427SOL    HW211181   1.661   1.453   6.362
 3428SOL     OW11182   5.021   0.489   4.088
 3428SOL    HW111183   5.090   0.489   4.015
 3428SOL    HW211184   5.034   0.408   4.146
 3429SOL     OW11185   4.093   6.175   0.439
 3429SOL    HW111186   3.994   6.169   0.451
 3429SOL    HW211187   4.138   6.160   0.526
 3430SOL     OW11188   3.116   4.682   6.777
 3430SOL    HW111189   3.204   4.673   6.731
 3430SOL    HW211190   3.102   4.778   6.802
 3431SOL     OW11191   1.009   4.617   2.709
 3431SOL    HW111192   1.046   4.535   2.754
 3431SOL    HW211193   0.913   4.601   2.685
 3432SOL     OW11194   0.220   5.414   6.695
 3432SOL    HW111195   0.277   5.468   6.756
 3432SOL    HW211196   0.256   5.417   6.602
 3433SOL     OW11197   0.452   0.536   0.671
 3433SOL    HW111198   0.550   0.516   0.672
 3433SOL    HW211199   0.439   0.635   0.680
 3434SOL     OW11200   3.869   2.157   2.469
 3434SOL    HW111201   3.957   2.197   2.443
 3434SOL    HW211202   3.824   2.121   2.387
 3435SOL     OW11203   2.056   3.047   1.233
 3435SOL    HW111204   2.006   3.013   1.313
 3435SOL    HW211205   1.995   3.103   1.177
 3436SOL     OW11206   4.159   6.077   5.701
 3436SOL    HW111207   4.209   5.994   5.676
 3436SOL    HW211208   4.196   6.114   5.787
 3437SOL     OW11209   1.436   6.537   0.225
 3437SOL    HW111210   1.432   6.564   0.321
 3437SOL    HW211211   1.371   6.462   0.208
 3438SOL     OW11212   1.997   4.120   0.578
 3438SOL    HW111213   2.000   4.087   0.484
 3438SOL    HW211214   2.056   4.064   0.636
 3439SOL     OW11215   2.779   6.141   0.816
 3439SOL    HW111216   2.815   6.141   0.909
 3439SOL    HW211217   2.708   6.072   0.807
 3440SOL     OW11218   3.748   3.954   5.868
 3440SOL    HW111219   3.686   3.974   5.944
 3440SOL    HW211220   3.807   3.877   5.893
 3441SOL     OW11221   6.615   5.150   4.960
 3441SOL    HW111222   6.531   5.135   4.907
 3441SOL    HW211223   6.694   5.148   4.899
 3442SOL     OW11224   1.208   1.788   0.596
 3442SOL    HW111225   1.112   1.815   0.583
 3442SOL    HW211226   1.214   1.690   0.611
 3443SOL     OW11227   0.385   5.608   2.432
 3443SOL    HW111228   0.321   5.632   2.360
 3443SOL    HW211229   0.465   5.564   2.392
 3444SOL     OW11230   0.450   4.384   6.245
 3444SOL    HW111231   0.544   4.416   6.247
 3444SOL    HW211232   0.429   4.344   6.155
 3445SOL     OW11233   5.566   5.302   4.577
 3445SOL    HW111234   5.634   5.318   4.506
 3445SOL    HW211235   5.506   5.227   4.549
 3446SOL     OW11236   4.960   1.603   0.225
 3446SOL    HW111237   5.045   1.586   0.174
 3446SOL    HW211238   4.921   1.515   0.253
 3447SOL     OW11239   5.010   1.669   5.798
 3447SOL    HW111240   5.091   1.621   5.763
 3447SOL    HW211241   4.984   1.740   5.734
 3448SOL     OW11242   0.756   4.875   5.361
 3448SOL    HW111243   0.834   4.923   5.402
 3448SOL    HW211244   0.748   4.784   5.400
 3449SOL     OW11245   1.419   3.632   5.111
 3449SOL    HW111246   1.494   3.566   5.110
 3449SOL    HW211247   1.444   3.710   5.169
 3450SOL     OW11248   2.583   6.733   2.190
 3450SOL    HW111249   2.508   6.772   2.243
 3450SOL    HW211250   2.597   6.638   2.219
 3451SOL     OW11251   1.788   2.048   0.369
 3451SOL    HW111252   1.692   2.058   0.395
 3451SOL    HW211253   1.809   2.113   0.296
 3452SOL     OW11254   4.553   1.216   6.473
 3452SOL    HW111255   4.514   1.165   6.550
 3452SOL    HW211256   4.532   1.313   6.483
 3453SOL     OW11257   4.169   6.368   5.642
 3453SOL    HW111258   4.183   6.270   5.657
 3453SOL    HW211259   4.244   6.419   5.683
 3454SOL     OW11260   1.386   2.922   3.049
 3454SOL    HW111261   1.354   2.988   3.117
 3454SOL    HW211262   1.448   2.856   3.092
 3455SOL     OW11263   0.718   4.481   6.298
 3455SOL    HW111264   0.795   4.520   6.249
 3455SOL    HW211265   0.731   4.494   6.397
 3456SOL     OW11266   4.439   5.318   3.166
 3456SOL    HW111267   4.401   5.354   3.251
 3456SOL    HW211268   4.395   5.363   3.088
 3457SOL     OW11269   3.997   4.055   0.129
 3457SOL    HW111270   3.957   4.098   0.210
 3457SOL    HW211271   3.949   3.970   0.108
 3458SOL     OW11272   4.388   1.869   1.079
 3458SOL    HW111273   4.293   1.896   1.099
 3458SOL    HW211274   4.399   1.854   0.981
 3459SOL     OW11275   6.731   6.666   2.557
 3459SOL    HW111276   6.643   6.702   2.526
 3459SOL    HW211277   6.732   6.566   2.546
 3460SOL     OW11278   4.112   1.553   5.222
 3460SOL    HW111279   4.121   1.649   5.196
 3460SOL    HW211280   4.045   1.508   5.162
 3461SOL     OW11281   4.783   4.230   3.722
 3461SOL    HW111282   4.795   4.318   3.767
 3461SOL    HW211283   4.837   4.160   3.769
 3462SOL     OW11284   1.178   5.021   6.562
 3462SOL    HW111285   1.165   4.922   6.563
 3462SOL    HW211286   1.276   5.041   6.570
 3463SOL     OW11287   5.788   4.404   0.021
 3463SOL    HW111288   5.844   4.321   0.024
 3463SOL    HW211289   5.813   4.464   0.098
 3464SOL     OW11290   0.238   4.292   3.843
 3464SOL    HW111291   0.338   4.292   3.844
 3464SOL    HW211292   0.204   4.201   3.867
 3465SOL     OW11293   0.922   2.874   1.462
 3465SOL    HW111294   0.901   2.814   1.540
 3465SOL    HW211295   0.941   2.818   1.381
 3466SOL     OW11296   6.344   4.100   3.397
 3466SOL    HW111297   6.315   4.075   3.489
 3466SOL    HW211298   6.388   4.022   3.353
 3467SOL     OW11299   1.559   2.670   6.384
 3467SOL    HW111300   1.652   2.638   6.369
 3467SOL    HW211301   1.540   2.676   6.482
 3468SOL     OW11302   4.473   5.908   1.799
 3468SOL    HW111303   4.473   5.982   1.732
 3468SOL    HW211304   4.544   5.842   1.776
 3469SOL     OW11305   5.104   4.217   0.518
 3469SOL    HW111306   5.163   4.286   0.476
 3469SOL    HW211307   5.084   4.145   0.452
 3470SOL     OW11308   6.466   5.164   1.267
 3470SOL    HW111309   6.421   5.120   1.189
 3470SOL    HW211310   6.398   5.192   1.334
 3471SOL     OW11311   4.196   6.751   4.477
 3471SOL    HW111312   4.163   6.845   4.470
 3471SOL    HW211313   4.290   6.746   4.442
 3472SOL     OW11314   4.177   0.568   5.111
 3472SOL    HW111315   4.142   0.490   5.163
 3472SOL    HW211316   4.196   0.539   5.017
 3473SOL     OW11317   4.494   6.297   3.890
 3473SOL    HW111318   4.451   6.246   3.816
 3473SOL    HW211319   4.429   6.363   3.928
 3474SOL     OW11320   4.090   4.589   0.242
 3474SOL    HW111321   4.096   4.659   0.314
 3474SOL    HW211322   4.152   4.514   0.262
 3475SOL     OW11323   1.594   4.972   5.198
 3475SOL    HW111324   1.585   4.912   5.278
 3475SOL    HW211325   1.658   5.046   5.220
 3476SOL     OW11326   4.052   1.709   3.520
 3476SOL    HW111327   4.039   1.615   3.487
 3476SOL    HW211328   4.065   1.708   3.619
 3477SOL     OW11329   4.947   5.568   2.106
 3477SOL    HW111330   4.920   5.648   2.053
 3477SOL    HW211331   4.873   5.500   2.105
 3478SOL     OW11332   3.485   4.085   0.463
 3478SOL    HW111333   3.536   4.000   0.474
 3478SOL    HW211334   3.445   4.089   0.372
 3479SOL     OW11335   1.977   0.530   0.508
 3479SOL    HW111336   1.898   0.539   0.448
 3479SOL    HW211337   2.054   0.493   0.457
 3480SOL     OW11338   1.149   6.390   4.573
 3480SOL    HW111339   1.200   6.464   4.616
 3480SOL    HW211340   1.211   6.314   4.553
 3481SOL     OW11341   1.909   5.313   0.141
 3481SOL    HW111342   1.826   5.280   0.185
 3481SOL    HW211343   1.894   5.406   0.108
 3482SOL     OW11344   0.086   2.320   1.275
 3482SOL    HW111345   0.098   2.390   1.205
 3482SOL    HW211346   7.018   2.329   1.315
 3483SOL     OW11347   3.848   0.924   0.900
 3483SOL    HW111348   3.784   0.938   0.825
 3483SOL    HW211349   3.941   0.944   0.870
 3484SOL     OW11350   3.670   4.119   3.041
 3484SOL    HW111351   3.737   4.126   3.115
 3484SOL    HW211352   3.713   4.145   2.954
 3485SOL     OW11353   6.294   2.229   5.093
 3485SOL    HW111354   6.261   2.136   5.081
 3485SOL    HW211355   6.245   2.290   5.030
 3486SOL     OW11356   5.723   0.869   3.421
 3486SOL    HW111357   5.747   0.965   3.405
 3486SOL    HW211358   5.757   0.840   3.511
 3487SOL     OW11359   1.136   6.933   1.010
 3487SOL    HW111360   1.065   7.000   0.987
 3487SOL    HW211361   1.192   6.915   0.929
 3488SOL     OW11362   6.191   4.062   5.030
 3488SOL    HW111363   6.208   3.965   5.016
 3488SOL    HW211364   6.156   4.103   4.946
 3489SOL     OW11365   2.977   5.624   6.716
 3489SOL    HW111366   3.074   5.602   6.704
 3489SOL    HW211367   2.936   5.556   6.776
 3490SOL     OW11368   4.686   3.943   0.384
 3490SOL    HW111369   4.751   3.970   0.313
 3490SOL    HW211370   4.705   3.995   0.467
 3491SOL     OW11371   5.568   2.540   5.211
 3491SOL    HW111372   5.608   2.468   5.156
 3491SOL    HW211373   5.473   2.556   5.182
 3492SOL     OW11374   6.345   4.548   6.547
 3492SOL    HW111375   6.336   4.572   6.450
 3492SOL    HW211376   6.442   4.551   6.573
 3493SOL     OW11377   6.380   3.984   1.024
 3493SOL    HW111378   6.389   4.016   1.118
 3493SOL    HW211379   6.426   4.049   0.962
 3494SOL     OW11380   3.432   6.303   1.368
 3494SOL    HW111381   3.355   6.303   1.431
 3494SOL    HW211382   3.507   6.249   1.406
 3495SOL     OW11383   5.878   4.626   6.274
 3495SOL    HW111384   5.879   4.609   6.373
 3495SOL    HW211385   5.850   4.721   6.257
 3496SOL     OW11386   0.544   5.823   1.248
 3496SOL    HW111387   0.518   5.756   1.317
 3496SOL    HW211388   0.592   5.899   1.293
 3497SOL     OW11389   3.556   6.918   5.117
 3497SOL    HW111390   3.544   6.840   5.055
 3497SOL    HW211391   3.610   6.988   5.071
 3498SOL     OW11392   0.918   1.649   0.187
 3498SOL    HW111393   0.938   1.736   0.142
 3498SOL    HW211394   0.888   1.582   0.119
 3499SOL     OW11395   6.672   3.847   4.343
 3499SOL    HW111396   6.634   3.932   4.379
 3499SOL    HW211397   6.660   3.844   4.244
 3500SOL     OW11398   5.829   2.880   0.817
 3500SOL    HW111399   5.823   2.963   0.873
 3500SOL    HW211400   5.840   2.906   0.721
 3501SOL     OW11401   0.911   4.941   3.143
 3501SOL    HW111402   0.927   4.862   3.084
 3501SOL    HW211403   0.838   4.997   3.104
 3502SOL     OW11404   0.938   5.126   1.415
 3502SOL    HW111405   0.938   5.108   1.317
 3502SOL    HW211406   0.845   5.117   1.451
 3503SOL     OW11407   3.638   6.748   3.764
 3503SOL    HW111408   3.715   6.811   3.775
 3503SOL    HW211409   3.665   6.671   3.707
 3504SOL     OW11410   2.175   3.116   2.292
 3504SOL    HW111411   2.137   3.192   2.240
 3504SOL    HW211412   2.233   3.151   2.366
 3505SOL     OW11413   4.658   6.485   5.046
 3505SOL    HW111414   4.648   6.425   4.967
 3505SOL    HW211415   4.600   6.566   5.034
 3506SOL     OW11416   0.044   4.653   2.325
 3506SOL    HW111417   6.990   4.703   2.287
 3506SOL    HW211418   0.086   4.598   2.252
 3507SOL     OW11419   6.822   0.189   5.902
 3507SOL    HW111420   6.782   0.142   5.824
 3507SOL    HW211421   6.750   0.216   5.965
 3508SOL     OW11422   6.594   4.354   0.043
 3508SOL    HW111423   6.663   4.387   0.107
 3508SOL    HW211424   6.599   4.407   6.982
 3509SOL     OW11425   5.322   0.046   6.852
 3509SOL    HW111426   5.244   0.096   6.890
 3509SOL    HW211427   5.292   6.980   6.819
 3510SOL     OW11428   2.145   1.470   1.894
 3510SOL    HW111429   2.128   1.503   1.801
 3510SOL    HW211430   2.242   1.446   1.904
 3511SOL     OW11431   1.176   0.807   4.291
 3511SOL    HW111432   1.200   0.772   4.382
 3511SOL    HW211433   1.138   0.899   4.301
 3512SOL     OW11434   4.111   2.914   1.404
 3512SOL    HW111435   4.118   2.873   1.495
 3512SOL    HW211436   4.099   2.841   1.336
 3513SOL     OW11437   6.360   4.112   1.285
 3513SOL    HW111438   6.368   4.211   1.285
 3513SOL    HW211439   6.429   4.073   1.347
 3514SOL     OW11440   2.550   6.106   2.083
 3514SOL    HW111441   2.471   6.130   2.139
 3514SOL    HW211442   2.627   6.085   2.143
 3515SOL     OW11443   3.992   5.521   3.429
 3515SOL    HW111444   3.980   5.614   3.394
 3515SOL    HW211445   3.986   5.523   3.529
 3516SOL     OW11446   1.830   0.642   0.268
 3516SOL    HW111447   1.802   0.726   0.315
 3516SOL    HW211448   1.748   0.594   0.236
 3517SOL     OW11449   0.518   0.569   6.915
 3517SOL    HW111450   0.477   0.559   7.005
 3517SOL    HW211451   0.487   0.495   6.855
 3518SOL     OW11452   4.019   2.997   6.108
 3518SOL    HW111453   3.951   2.935   6.070
 3518SOL    HW211454   3.994   3.092   6.084
 3519SOL     OW11455   3.264   0.079   0.598
 3519SOL    HW111456   3.171   0.115   0.587
 3519SOL    HW211457   3.322   0.114   0.525
 3520SOL     OW11458   3.528   4.831   1.635
 3520SOL    HW111459   3.481   4.917   1.653
 3520SOL    HW211460   3.539   4.780   1.720
 3521SOL     OW11461   6.736   1.929   5.516
 3521SOL    HW111462   6.705   2.020   5.543
 3521SOL    HW211463   6.818   1.905   5.568
 3522SOL     OW11464   2.615   0.313   0.736
 3522SOL    HW111465   2.608   0.403   0.779
 3522SOL    HW211466   2.618   0.242   0.806
 3523SOL     OW11467   2.102   4.504   5.113
 3523SOL    HW111468   2.144   4.477   5.027
 3523SOL    HW211469   2.163   4.479   5.189
 3524SOL     OW11470   2.640   1.354   3.630
 3524SOL    HW111471   2.726   1.401   3.611
 3524SOL    HW211472   2.642   1.316   3.722
 3525SOL     OW11473   1.534   3.049   3.478
 3525SOL    HW111474   1.535   2.949   3.476
 3525SOL    HW211475   1.500   3.084   3.391
 3526SOL     OW11476   3.661   6.116   3.614
 3526SOL    HW111477   3.745   6.106   3.561
 3526SOL    HW211478   3.615   6.201   3.589
 3527SOL     OW11479   5.660   3.677   6.921
 3527SOL    HW111480   5.714   3.727   6.854
 3527SOL    HW211481   5.680   3.712   7.013
 3528SOL     OW11482   1.639   6.924   4.620
 3528SOL    HW111483   1.655   6.825   4.621
 3528SOL    HW211484   1.566   6.945   4.555
 3529SOL     OW11485   3.672   5.574   6.933
 3529SOL    HW111486   3.760   5.620   6.922
 3529SOL    HW211487   3.685   5.475   6.926
 3530SOL     OW11488   1.980   5.705   3.124
 3530SOL    HW111489   1.964   5.791   3.173
 3530SOL    HW211490   1.893   5.663   3.099
 3531SOL     OW11491   4.870   5.188   0.218
 3531SOL    HW111492   4.911   5.158   0.304
 3531SOL    HW211493   4.913   5.141   0.141
 3532SOL     OW11494   2.568   6.692   0.963
 3532SOL    HW111495   2.507   6.731   1.031
 3532SOL    HW211496   2.651   6.659   1.007
 3533SOL     OW11497   1.433   0.796   3.505
 3533SOL    HW111498   1.459   0.762   3.415
 3533SOL    HW211499   1.348   0.848   3.498
 3534SOL     OW11500   5.189   6.923   4.328
 3534SOL    HW111501   5.240   6.981   4.265
 3534SOL    HW211502   5.233   6.924   4.418
 3535SOL     OW11503   4.774   6.182   0.242
 3535SOL    HW111504   4.705   6.252   0.223
 3535SOL    HW211505   4.814   6.197   0.332
 3536SOL     OW11506   1.161   3.502   2.565
 3536SOL    HW111507   1.238   3.507   2.628
 3536SOL    HW211508   1.190   3.461   2.479
 3537SOL     OW11509   2.974   5.055   2.094
 3537SOL    HW111510   3.015   4.971   2.058
 3537SOL    HW211511   2.890   5.033   2.144
 3538SOL     OW11512   4.057   0.724   3.705
 3538SOL    HW111513   4.015   0.796   3.762
 3538SOL    HW211514   4.153   0.747   3.689
 3539SOL     OW11515   4.685   5.371   5.006
 3539SOL    HW111516   4.586   5.375   4.992
 3539SOL    HW211517   4.729   5.444   4.952
 3540SOL     OW11518   3.734   4.778   6.395
 3540SOL    HW111519   3.712   4.748   6.488
 3540SOL    HW211520   3.826   4.748   6.370
 3541SOL     OW11521   0.401   2.832   2.400
 3541SOL    HW111522   0.484   2.841   2.345
 3541SOL    HW211523   0.366   2.923   2.424
 3542SOL     OW11524   5.866   1.907   0.110
 3542SOL    HW111525   5.813   1.988   0.135
 3542SOL    HW211526   5.946   1.900   0.171
 3543SOL     OW11527   6.660   2.918   4.068
 3543SOL    HW111528   6.714   2.975   4.007
 3543SOL    HW211529   6.611   2.848   4.015
 3544SOL     OW11530   2.903   4.581   6.242
 3544SOL    HW111531   2.901   4.511   6.314
 3544SOL    HW211532   2.993   4.624   6.241
 3545SOL     OW11533   3.561   6.575   1.115
 3545SOL    HW111534   3.651   6.617   1.129
 3545SOL    HW211535   3.514   6.621   1.040
 3546SOL     OW11536   6.245   4.456   1.569
 3546SOL    HW111537   6.303   4.456   1.488
 3546SOL    HW211538   6.296   4.495   1.646
 3547SOL     OW11539   1.095   3.939   4.392
 3547SOL    HW111540   1.092   3.967   4.488
 3547SOL    HW211541   1.157   3.862   4.381
 3548SOL     OW11542   6.568   0.552   5.593
 3548SOL    HW111543   6.574   0.514   5.686
 3548SOL    HW211544   6.638   0.511   5.535
 3549SOL     OW11545   2.210   6.879   6.709
 3549SOL    HW111546   2.138   6.872   6.639
 3549SOL    HW211547   2.237   6.787   6.737
 3550SOL     OW11548   5.958   1.971   6.076
 3550SOL    HW111549   5.983   1.903   6.008
 3550SOL    HW211550   6.011   2.054   6.061
 3551SOL     OW11551   5.611   1.508   5.330
 3551SOL    HW111552   5.683   1.506   5.260
 3551SOL    HW211553   5.584   1.414   5.353
 3552SOL     OW11554   0.115   0.404   3.371
 3552SOL    HW111555   0.200   0.383   3.420
 3552SOL    HW211556   0.095   0.332   3.305
 3553SOL     OW11557   6.013   6.188   6.231
 3553SOL    HW111558   5.993   6.226   6.322
 3553SOL    HW211559   5.949   6.113   6.212
 3554SOL     OW11560   5.064   4.358   6.788
 3554SOL    HW111561   5.088   4.389   6.696
 3554SOL    HW211562   5.147   4.343   6.841
 3555SOL     OW11563   2.460   1.490   5.677
 3555SOL    HW111564   2.402   1.450   5.748
 3555SOL    HW211565   2.554   1.493   5.709
 3556SOL     OW11566   6.028   1.018   0.482
 3556SOL    HW111567   6.008   1.027   0.580
 3556SOL    HW211568   6.011   0.923   0.453
 3557SOL     OW11569   4.544   6.218   1.370
 3557SOL    HW111570   4.643   6.227   1.380
 3557SOL    HW211571   4.516   6.259   1.284
 3558SOL     OW11572   4.414   5.399   2.204
 3558SOL    HW111573   4.445   5.443   2.289
 3558SOL    HW211574   4.450   5.306   2.200
 3559SOL     OW11575   3.935   6.352   6.276
 3559SOL    HW111576   3.978   6.441   6.287
 3559SOL    HW211577   3.839   6.364   6.250
 3560SOL     OW11578   2.113   5.983   4.399
 3560SOL    HW111579   2.162   6.045   4.461
 3560SOL    HW211580   2.137   5.889   4.421
 3561SOL     OW11581   3.705   3.194   6.047
 3561SOL    HW111582   3.694   3.215   5.950
 3561SOL    HW211583   3.616   3.198   6.092
 3562SOL     OW11584   2.809   1.262   0.824
 3562SOL    HW111585   2.834   1.207   0.904
 3562SOL    HW211586   2.842   1.216   0.741
 3563SOL     OW11587   0.225   2.443   6.846
 3563SOL    HW111588   0.254   2.508   6.916
 3563SOL    HW211589   0.125   2.440   6.842
 3564SOL     OW11590   6.226   3.685   3.178
 3564SOL    HW111591   6.172   3.721   3.101
 3564SOL    HW211592   6.283   3.759   3.215
 3565SOL     OW11593   4.904   6.252   4.900
 3565SOL    HW111594   4.974   6.187   4.929
 3565SOL    HW211595   4.814   6.207   4.902
 3566SOL     OW11596   1.057   0.963   5.895
 3566SOL    HW111597   1.034   0.907   5.975
 3566SOL    HW211598   1.132   0.920   5.845
 3567SOL     OW11599   0.107   4.628   0.229
 3567SOL    HW111600   0.019   4.613   0.185
 3567SOL    HW211601   0.175   4.656   0.161
 3568SOL     OW11602   3.898   3.999   5.350
 3568SOL    HW111603   3.909   4.049   5.264
 3568SOL    HW211604   3.840   3.919   5.335
 3569SOL     OW11605   1.751   0.742   3.045
 3569SOL    HW111606   1.848   0.728   3.062
 3569SOL    HW211607   1.724   0.691   2.963
 3570SOL     OW11608   6.066   2.002   4.508
 3570SOL    HW111609   6.000   1.953   4.450
 3570SOL    HW211610   6.022   2.083   4.547
 3571SOL     OW11611   5.994   5.399   4.493
 3571SOL    HW111612   6.045   5.462   4.552
 3571SOL    HW211613   6.058   5.333   4.453
 3572SOL     OW11614   5.808   0.033   5.530
 3572SOL    HW111615   5.821   6.965   5.569
 3572SOL    HW211616   5.789   0.097   5.604
 3573SOL     OW11617   0.355   2.301   1.270
 3573SOL    HW111618   0.264   2.265   1.287
 3573SOL    HW211619   0.351   2.401   1.264
 3574SOL     OW11620   6.200   3.617   0.193
 3574SOL    HW111621   6.191   3.526   0.154
 3574SOL    HW211622   6.109   3.657   0.207
 3575SOL     OW11623   6.562   6.883   2.093
 3575SOL    HW111624   6.646   6.894   2.041
 3575SOL    HW211625   6.583   6.840   2.181
 3576SOL     OW11626   0.061   0.654   0.173
 3576SOL    HW111627   0.138   0.597   0.202
 3576SOL    HW211628   0.057   0.655   0.073
 3577SOL     OW11629   2.529   4.630   7.001
 3577SOL    HW111630   2.525   4.585   6.912
 3577SOL    HW211631   2.446   4.608   0.029
 3578SOL     OW11632   3.410   4.474   1.672
 3578SOL    HW111633   3.452   4.530   1.742
 3578SOL    HW211634   3.311   4.473   1.684
 3579SOL     OW11635   1.755   3.775   5.351
 3579SOL    HW111636   1.661   3.741   5.358
 3579SOL    HW211637   1.797   3.740   5.267
 3580SOL     OW11638   6.079   2.363   0.540
 3580SOL    HW111639   6.157   2.309   0.573
 3580SOL    HW211640   6.033   2.406   0.618
 3581SOL     OW11641   6.916   0.552   3.286
 3581SOL    HW111642   6.993   0.507   3.332
 3581SOL    HW211643   6.850   0.583   3.354
 3582SOL     OW11644   0.281   0.002   6.003
 3582SOL    HW111645   0.285   0.071   5.931
 3582SOL    HW211646   0.185   7.001   6.020
 3583SOL     OW11647   0.985   5.607   1.615
 3583SOL    HW111648   0.974   5.512   1.586
 3583SOL    HW211649   1.071   5.643   1.579
 3584SOL     OW11650   5.793   0.473   5.268
 3584SOL    HW111651   5.703   0.502   5.299
 3584SOL    HW211652   5.846   0.438   5.346
 3585SOL     OW11653   2.384   4.656   3.561
 3585SOL    HW111654   2.412   4.561   3.576
 3585SOL    HW211655   2.287   4.659   3.537
 3586SOL     OW11656   0.993   1.200   6.398
 3586SOL    HW111657   1.013   1.205   6.300
 3586SOL    HW211658   1.069   1.155   6.445
 3587SOL     OW11659   3.503   6.673   6.536
 3587SOL    HW111660   3.457   6.611   6.600
 3587SOL    HW211661   3.470   6.766   6.550
 3588SOL     OW11662   2.815   2.169   5.575
 3588SOL    HW111663   2.732   2.168   5.519
 3588SOL    HW211664   2.873   2.091   5.551
 3589SOL     OW11665   3.219   6.535   4.630
 3589SOL    HW111666   3.131   6.533   4.677
 3589SOL    HW211667   3.205   6.526   4.531
 3590SOL     OW11668   1.004   5.649   6.610
 3590SOL    HW111669   1.054   5.734   6.627
 3590SOL    HW211670   1.041   5.577   6.669
 3591SOL     OW11671   5.160   1.451   5.373
 3591SOL    HW111672   5.193   1.368   5.328
 3591SOL    HW211673   5.126   1.516   5.304
 3592SOL     OW11674   5.853   1.814   1.949
 3592SOL    HW111675   5.779   1.875   1.978
 3592SOL    HW211676   5.850   1.731   2.006
 3593SOL     OW11677   1.017   5.243   4.603
 3593SOL    HW111678   1.004   5.148   4.633
 3593SOL    HW211679   1.010   5.247   4.503
 3594SOL     OW11680   3.829   1.395   4.236
 3594SOL    HW111681   3.905   1.343   4.273
 3594SOL    HW211682   3.762   1.333   4.194
 3595SOL     OW11683   2.330   6.181   5.573
 3595SOL    HW111684   2.304   6.161   5.668
 3595SOL    HW211685   2.372   6.271   5.569
 3596SOL     OW11686   0.243   3.550   3.398
 3596SOL    HW111687   0.258   3.530   3.301
 3596SOL    HW211688   0.320   3.603   3.433
 3597SOL     OW11689   3.931   0.007   4.211
 3597SOL    HW111690   3.983   0.011   4.296
 3597SOL    HW211691   3.960   6.950   4.158
 3598SOL     OW11692   1.707   0.307   0.012
 3598SOL    HW111693   1.798   0.347   0.012
 3598SOL    HW211694   1.648   0.358   6.972
 3599SOL     OW11695   0.014   1.827   4.868
 3599SOL    HW111696   7.005   1.909   4.821
 3599SOL    HW211697   0.013   1.749   4.805
 3600SOL     OW11698   6.204   6.882   1.361
 3600SOL    HW111699   6.142   6.803   1.365
 3600SOL    HW211700   6.210   6.924   1.452
 3601SOL     OW11701   6.398   3.698   6.143
 3601SOL    HW111702   6.457   3.687   6.063
 3601SOL    HW211703   6.385   3.609   6.186
 3602SOL     OW11704   3.134   2.302   1.275
 3602SOL    HW111705   3.229   2.325   1.296
 3602SOL    HW211706   3.131   2.221   1.217
 3603SOL     OW11707   3.924   4.891   4.818
 3603SOL    HW111708   3.979   4.819   4.776
 3603SOL    HW211709   3.896   4.957   4.747
 3604SOL     OW11710   6.164   4.126   3.178
 3604SOL    HW111711   6.093   4.056   3.185
 3604SOL    HW211712   6.214   4.131   3.264
 3605SOL     OW11713   6.048   2.008   6.387
 3605SOL    HW111714   6.021   1.933   6.447
 3605SOL    HW211715   6.105   1.972   6.313
 3606SOL     OW11716   2.279   4.162   3.168
 3606SOL    HW111717   2.255   4.073   3.206
 3606SOL    HW211718   2.226   4.233   3.214
 3607SOL     OW11719   4.394   0.033   6.551
 3607SOL    HW111720   4.316   7.020   6.602
 3607SOL    HW211721   4.363   0.067   6.463
 3608SOL     OW11722   0.766   3.442   3.372
 3608SOL    HW111723   0.780   3.440   3.471
 3608SOL    HW211724   0.717   3.360   3.343
 3609SOL     OW11725   7.019   0.029   4.059
 3609SOL    HW111726   0.074   0.086   4.082
 3609SOL    HW211727   0.000   6.966   4.110
 3610SOL     OW11728   1.418   5.244   5.915
 3610SOL    HW111729   1.436   5.298   5.998
 3610SOL    HW211730   1.323   5.214   5.916
 3611SOL     OW11731   4.509   5.400   5.284
 3611SOL    HW111732   4.425   5.400   5.228
 3611SOL    HW211733   4.577   5.340   5.242
 3612SOL     OW11734   2.278   5.908   0.995
 3612SOL    HW111735   2.267   5.920   1.093
 3612SOL    HW211736   2.292   5.811   0.974
 3613SOL     OW11737   5.006   5.128   6.114
 3613SOL    HW111738   4.964   5.101   6.201
 3613SOL    HW211739   4.949   5.197   6.070
 3614SOL     OW11740   3.547   2.882   4.371
 3614SOL    HW111741   3.554   2.824   4.290
 3614SOL    HW211742   3.542   2.978   4.343
 3615SOL     OW11743   5.132   6.382   6.374
 3615SOL    HW111744   5.185   6.330   6.440
 3615SOL    HW211745   5.191   6.411   6.298
 3616SOL     OW11746   6.159   0.896   4.520
 3616SOL    HW111747   6.177   0.893   4.422
 3616SOL    HW211748   6.226   0.841   4.569
 3617SOL     OW11749   6.974   0.977   0.367
 3617SOL    HW111750   6.995   0.923   0.449
 3617SOL    HW211751   0.028   0.975   0.305
 3618SOL     OW11752   2.908   6.513   6.238
 3618SOL    HW111753   2.949   6.429   6.203
 3618SOL    HW211754   2.970   6.590   6.224
 3619SOL     OW11755   5.357   3.565   3.554
 3619SOL    HW111756   5.350   3.662   3.531
 3619SOL    HW211757   5.348   3.510   3.472
 3620SOL     OW11758   6.043   1.691   5.088
 3620SOL    HW111759   6.076   1.599   5.068
 3620SOL    HW211760   6.034   1.742   5.002
 3621SOL     OW11761   1.549   2.746   5.506
 3621SOL    HW111762   1.459   2.779   5.537
 3621SOL    HW211763   1.537   2.668   5.446
 3622SOL     OW11764   0.780   3.813   1.063
 3622SOL    HW111765   0.835   3.733   1.086
 3622SOL    HW211766   0.690   3.784   1.030
 3623SOL     OW11767   6.811   4.731   4.013
 3623SOL    HW111768   6.801   4.829   3.995
 3623SOL    HW211769   6.740   4.682   3.963
 3624SOL     OW11770   2.328   0.920   1.635
 3624SOL    HW111771   2.413   0.934   1.585
 3624SOL    HW211772   2.254   0.898   1.571
 3625SOL     OW11773   0.916   2.936   4.400
 3625SOL    HW111774   0.954   2.844   4.405
 3625SOL    HW211775   0.959   2.986   4.325
 3626SOL     OW11776   2.783   3.864   5.577
 3626SOL    HW111777   2.853   3.875   5.507
 3626SOL    HW211778   2.741   3.952   5.597
 3627SOL     OW11779   3.391   3.267   4.043
 3627SOL    HW111780   3.412   3.364   4.059
 3627SOL    HW211781   3.372   3.253   3.946
 3628SOL     OW11782   2.595   5.874   4.345
 3628SOL    HW111783   2.687   5.848   4.374
 3628SOL    HW211784   2.582   5.851   4.249
 3629SOL     OW11785   5.758   3.411   5.003
 3629SOL    HW111786   5.771   3.384   5.098
 3629SOL    HW211787   5.671   3.458   4.994
 3630SOL     OW11788   5.440   1.132   5.003
 3630SOL    HW111789   5.523   1.104   4.955
 3630SOL    HW211790   5.453   1.119   5.101
 3631SOL     OW11791   2.109   1.025   3.907
 3631SOL    HW111792   2.185   1.031   3.971
 3631SOL    HW211793   2.080   1.118   3.882
 3632SOL     OW11794   4.216   6.865   6.084
 3632SOL    HW111795   4.146   6.794   6.089
 3632SOL    HW211796   4.306   6.825   6.098
 3633SOL     OW11797   1.124   2.883   5.400
 3633SOL    HW111798   1.089   2.868   5.307
 3633SOL    HW211799   1.211   2.931   5.395
 3634SOL     OW11800   2.983   4.953   6.267
 3634SOL    HW111801   3.005   5.000   6.181
 3634SOL    HW211802   3.058   4.892   6.291
 3635SOL     OW11803   2.037   1.356   4.807
 3635SOL    HW111804   2.047   1.295   4.728
 3635SOL    HW211805   2.006   1.445   4.776
 3636SOL     OW11806   1.270   6.291   0.888
 3636SOL    HW111807   1.333   6.307   0.812
 3636SOL    HW211808   1.228   6.200   0.877
 3637SOL     OW11809   4.698   0.879   1.505
 3637SOL    HW111810   4.644   0.872   1.589
 3637SOL    HW211811   4.716   0.976   1.486
 3638SOL     OW11812   6.545   4.741   3.314
 3638SOL    HW111813   6.613   4.810   3.291
 3638SOL    HW211814   6.535   4.735   3.413
 3639SOL     OW11815   2.472   6.240   0.530
 3639SOL    HW111816   2.428   6.216   0.443
 3639SOL    HW211817   2.447   6.333   0.556
 3640SOL     OW11818   2.123   0.178   1.411
 3640SOL    HW111819   2.220   0.164   1.390
 3640SOL    HW211820   2.109   0.174   1.510
 3641SOL     OW11821   2.009   0.636   4.830
 3641SOL    HW111822   1.991   0.543   4.862
 3641SOL    HW211823   1.997   0.701   4.905
 3642SOL     OW11824   6.264   6.884   2.004
 3642SOL    HW111825   6.349   6.934   1.989
 3642SOL    HW211826   6.284   6.799   2.052
 3643SOL     OW11827   3.502   5.696   4.997
 3643SOL    HW111828   3.454   5.736   4.919
 3643SOL    HW211829   3.589   5.744   5.011
 3644SOL     OW11830   6.632   0.042   1.302
 3644SOL    HW111831   6.701   0.062   1.232
 3644SOL    HW211832   6.586   0.126   1.329
 3645SOL     OW11833   3.989   5.975   3.136
 3645SOL    HW111834   4.061   5.954   3.070
 3645SOL    HW211835   3.906   6.003   3.088
 3646SOL     OW11836   0.018   5.413   4.870
 3646SOL    HW111837   0.095   5.414   4.933
 3646SOL    HW211838   6.970   5.474   4.903
 3647SOL     OW11839   2.910   2.753   0.960
 3647SOL    HW111840   2.944   2.704   1.040
 3647SOL    HW211841   2.955   2.842   0.953
 3648SOL     OW11842   3.222   6.794   3.003
 3648SOL    HW111843   3.175   6.729   3.063
 3648SOL    HW211844   3.213   6.887   3.040
 3649SOL     OW11845   3.320   2.898   2.070
 3649SOL    HW111846   3.239   2.923   2.123
 3649SOL    HW211847   3.395   2.877   2.133
 3650SOL     OW11848   5.666   6.829   1.190
 3650SOL    HW111849   5.616   6.891   1.130
 3650SOL    HW211850   5.764   6.844   1.178
 3651SOL     OW11851   1.643   6.349   2.059
 3651SOL    HW111852   1.612   6.258   2.032
 3651SOL    HW211853   1.670   6.347   2.156
 3652SOL     OW11854   4.278   5.454   2.979
 3652SOL    HW111855   4.242   5.372   2.935
 3652SOL    HW211856   4.224   5.534   2.951
 3653SOL     OW11857   6.287   2.697   4.496
 3653SOL    HW111858   6.369   2.728   4.546
 3653SOL    HW211859   6.290   2.597   4.488
 3654SOL     OW11860   1.406   6.926   1.486
 3654SOL    HW111861   1.423   6.844   1.430
 3654SOL    HW211862   1.461   6.922   1.569
 3655SOL     OW11863   6.748   1.253   3.177
 3655SOL    HW111864   6.814   1.189   3.139
 3655SOL    HW211865   6.774   1.278   3.270
 3656SOL     OW11866   2.306   1.721   3.029
 3656SOL    HW111867   2.352   1.660   2.964
 3656SOL    HW211868   2.362   1.729   3.112
 3657SOL     OW11869   4.730   5.278   2.115
 3657SOL    HW111870   4.782   5.238   2.191
 3657SOL    HW211871   4.642   5.231   2.106
 3658SOL     OW11872   1.954   5.285   5.710
 3658SOL    HW111873   1.999   5.352   5.770
 3658SOL    HW211874   1.936   5.201   5.761
 3659SOL     OW11875   1.271   3.639   0.229
 3659SOL    HW111876   1.352   3.681   0.271
 3659SOL    HW211877   1.193   3.647   0.292
 3660SOL     OW11878   4.149   5.062   0.747
 3660SOL    HW111879   4.086   5.117   0.801
 3660SOL    HW211880   4.243   5.085   0.771
 3661SOL     OW11881   5.519   1.790   1.660
 3661SOL    HW111882   5.472   1.856   1.602
 3661SOL    HW211883   5.529   1.704   1.609
 3662SOL     OW11884   1.582   6.082   4.698
 3662SOL    HW111885   1.657   6.072   4.632
 3662SOL    HW211886   1.609   6.146   4.769
 3663SOL     OW11887   1.288   3.618   5.438
 3663SOL    HW111888   1.250   3.710   5.431
 3663SOL    HW211889   1.246   3.559   5.369
 3664SOL     OW11890   3.836   6.897   2.209
 3664SOL    HW111891   3.863   6.834   2.136
 3664SOL    HW211892   3.810   6.985   2.170
 3665SOL     OW11893   1.821   1.174   5.367
 3665SOL    HW111894   1.876   1.163   5.285
 3665SOL    HW211895   1.786   1.268   5.371
 3666SOL     OW11896   0.674   4.527   4.293
 3666SOL    HW111897   0.715   4.537   4.202
 3666SOL    HW211898   0.722   4.454   4.342
 3667SOL     OW11899   0.838   1.589   6.514
 3667SOL    HW111900   0.933   1.575   6.542
 3667SOL    HW211901   0.824   1.686   6.492
 3668SOL     OW11902   2.037   6.135   1.810
 3668SOL    HW111903   2.073   6.044   1.787
 3668SOL    HW211904   1.946   6.145   1.770
 3669SOL     OW11905   5.733   1.501   3.692
 3669SOL    HW111906   5.645   1.472   3.730
 3669SOL    HW211907   5.719   1.578   3.630
 3670SOL     OW11908   2.267   5.525   6.258
 3670SOL    HW111909   2.272   5.568   6.349
 3670SOL    HW211910   2.349   5.548   6.206
 3671SOL     OW11911   1.788   0.685   3.505
 3671SOL    HW111912   1.724   0.685   3.581
 3671SOL    HW211913   1.876   0.722   3.535
 3672SOL     OW11914   6.058   0.206   0.651
 3672SOL    HW111915   6.085   0.289   0.602
 3672SOL    HW211916   6.121   0.192   0.728
 3673SOL     OW11917   4.409   0.321   6.748
 3673SOL    HW111918   4.311   0.336   6.734
 3673SOL    HW211919   4.447   0.397   6.801
 3674SOL     OW11920   1.149   6.545   0.797
 3674SOL    HW111921   1.188   6.462   0.837
 3674SOL    HW211922   1.050   6.548   0.815
 3675SOL     OW11923   1.673   2.394   4.515
 3675SOL    HW111924   1.720   2.346   4.441
 3675SOL    HW211925   1.675   2.339   4.598
 3676SOL     OW11926   1.737   4.603   2.714
 3676SOL    HW111927   1.644   4.634   2.695
 3676SOL    HW211928   1.758   4.618   2.811
 3677SOL     OW11929   6.378   6.658   4.043
 3677SOL    HW111930   6.353   6.594   4.115
 3677SOL    HW211931   6.353   6.751   4.071
 3678SOL     OW11932   1.301   1.716   3.854
 3678SOL    HW111933   1.364   1.675   3.787
 3678SOL    HW211934   1.238   1.777   3.807
 3679SOL     OW11935   6.832   0.482   1.746
 3679SOL    HW111936   6.733   0.494   1.733
 3679SOL    HW211937   6.881   0.557   1.701
 3680SOL     OW11938   5.955   4.211   4.773
 3680SOL    HW111939   5.942   4.167   4.862
 3680SOL    HW211940   5.875   4.269   4.754
 3681SOL     OW11941   5.667   6.371   4.382
 3681SOL    HW111942   5.665   6.274   4.357
 3681SOL    HW211943   5.715   6.422   4.311
 3682SOL     OW11944   0.872   2.905   6.691
 3682SOL    HW111945   0.818   2.983   6.723
 3682SOL    HW211946   0.824   2.820   6.710
 3683SOL     OW11947   5.494   6.229   3.887
 3683SOL    HW111948   5.422   6.220   3.957
 3683SOL    HW211949   5.569   6.283   3.924
 3684SOL     OW11950   1.901   3.349   0.919
 3684SOL    HW111951   1.955   3.304   0.848
 3684SOL    HW211952   1.893   3.288   0.998
 3685SOL     OW11953   5.934   6.793   6.811
 3685SOL    HW111954   5.862   6.827   6.871
 3685SOL    HW211955   6.023   6.809   6.853
 3686SOL     OW11956   7.021   4.203   1.277
 3686SOL    HW111957   6.987   4.127   1.221
 3686SOL    HW211958   0.096   4.193   1.290
 3687SOL     OW11959   3.624   1.491   0.097
 3687SOL    HW111960   3.647   1.410   0.150
 3687SOL    HW211961   3.530   1.483   0.063
 3688SOL     OW11962   6.480   3.325   0.205
 3688SOL    HW111963   6.381   3.331   0.196
 3688SOL    HW211964   6.509   3.374   0.287
 3689SOL     OW11965   2.575   6.967   3.462
 3689SOL    HW111966   2.519   6.896   3.418
 3689SOL    HW211967   2.653   6.988   3.404
 3690SOL     OW11968   4.709   5.968   5.168
 3690SOL    HW111969   4.716   6.059   5.208
 3690SOL    HW211970   4.614   5.938   5.168
 3691SOL     OW11971   2.891   2.739   6.284
 3691SOL    HW111972   2.907   2.640   6.280
 3691SOL    HW211973   2.970   2.784   6.326
 3692SOL     OW11974   0.608   6.870   6.217
 3692SOL    HW111975   0.622   6.836   6.310
 3692SOL    HW211976   0.595   6.969   6.219
 3693SOL     OW11977   1.469   1.427   3.654
 3693SOL    HW111978   1.483   1.357   3.584
 3693SOL    HW211979   1.515   1.511   3.628
 3694SOL     OW11980   2.049   5.657   2.856
 3694SOL    HW111981   1.976   5.606   2.812
 3694SOL    HW211982   2.015   5.698   2.940
 3695SOL     OW11983   1.346   2.560   0.978
 3695SOL    HW111984   1.362   2.528   1.071
 3695SOL    HW211985   1.309   2.653   0.981
 3696SOL     OW11986   3.143   6.006   5.840
 3696SOL    HW111987   3.124   6.057   5.756
 3696SOL    HW211988   3.056   5.981   5.885
 3697SOL     OW11989   5.237   0.441   3.853
 3697SOL    HW111990   5.220   0.475   3.760
 3697SOL    HW211991   5.279   0.513   3.908
 3698SOL     OW11992   3.611   0.389   6.562
 3698SOL    HW111993   3.605   0.323   6.637
 3698SOL    HW211994   3.644   0.344   6.479
 3699SOL     OW11995   0.981   4.809   1.884
 3699SOL    HW111996   1.072   4.806   1.925
 3699SOL    HW211997   0.925   4.875   1.933
 3700SOL     OW11998   0.217   0.733   3.438
 3700SOL    HW111999   0.304   0.695   3.468
 3700SOL    HW212000   0.177   0.676   3.366
 3701SOL     OW12001   5.549   0.540   3.611
 3701SOL    HW112002   5.603   0.522   3.529
 3701SOL    HW212003   5.477   0.606   3.590
 3702SOL     OW12004   5.300   0.813   6.381
 3702SOL    HW112005   5.373   0.746   6.362
 3702SOL    HW212006   5.260   0.843   6.294
 3703SOL     OW12007   3.513   4.800   0.342
 3703SOL    HW112008   3.483   4.757   0.427
 3703SOL    HW212009   3.569   4.735   0.290
 3704SOL     OW12010   2.795   6.675   1.856
 3704SOL    HW112011   2.746   6.716   1.779
 3704SOL    HW212012   2.828   6.748   1.916
 3705SOL     OW12013   6.071   1.179   4.155
 3705SOL    HW112014   5.988   1.234   4.156
 3705SOL    HW212015   6.068   1.113   4.230
 3706SOL     OW12016   2.852   2.330   3.480
 3706SOL    HW112017   2.763   2.354   3.519
 3706SOL    HW212018   2.851   2.346   3.382
 3707SOL     OW12019   4.343   2.545   5.488
 3707SOL    HW112020   4.347   2.645   5.498
 3707SOL    HW212021   4.290   2.507   5.564
 3708SOL     OW12022   6.512   0.148   6.787
 3708SOL    HW112023   6.581   0.124   6.855
 3708SOL    HW212024   6.458   0.225   6.820
 3709SOL     OW12025   5.462   0.271   0.142
 3709SOL    HW112026   5.399   0.308   0.210
 3709SOL    HW212027   5.550   0.316   0.150
 3710SOL     OW12028   0.315   4.629   0.004
 3710SOL    HW112029   0.369   4.545   0.006
 3710SOL    HW212030   0.254   4.628   6.948
 3711SOL     OW12031   0.154   5.283   2.333
 3711SOL    HW112032   0.185   5.308   2.424
 3711SOL    HW212033   0.213   5.212   2.295
 3712SOL     OW12034   1.596   0.489   0.196
 3712SOL    HW112035   1.650   0.425   0.142
 3712SOL    HW212036   1.504   0.453   0.209
 3713SOL     OW12037   3.770   4.852   5.971
 3713SOL    HW112038   3.755   4.924   5.904
 3713SOL    HW212039   3.818   4.890   6.050
 3714SOL     OW12040   4.463   1.526   5.046
 3714SOL    HW112041   4.408   1.446   5.024
 3714SOL    HW212042   4.548   1.525   4.992
 3715SOL     OW12043   5.423   4.121   4.007
 3715SOL    HW112044   5.452   4.212   3.976
 3715SOL    HW212045   5.424   4.118   4.107
 3716SOL     OW12046   0.533   1.623   3.990
 3716SOL    HW112047   0.458   1.588   4.047
 3716SOL    HW212048   0.523   1.586   3.897
 3717SOL     OW12049   6.257   0.619   0.285
 3717SOL    HW112050   6.356   0.617   0.272
 3717SOL    HW212051   6.215   0.540   0.240
 3718SOL     OW12052   0.703   5.470   0.030
 3718SOL    HW112053   0.642   5.396   0.059
 3718SOL    HW212054   0.662   5.558   0.053
 3719SOL     OW12055   3.511   4.594   0.147
 3719SOL    HW112056   3.496   4.496   0.135
 3719SOL    HW212057   3.467   4.644   0.072
 3720SOL     OW12058   0.337   1.061   5.587
 3720SOL    HW112059   0.422   1.090   5.632
 3720SOL    HW212060   0.301   1.138   5.534
 3721SOL     OW12061   4.679   3.543   0.190
 3721SOL    HW112062   4.625   3.480   0.135
 3721SOL    HW212063   4.621   3.588   0.257
 3722SOL     OW12064   5.736   5.995   1.595
 3722SOL    HW112065   5.691   5.932   1.658
 3722SOL    HW212066   5.667   6.051   1.549
 3723SOL     OW12067   4.895   0.901   0.612
 3723SOL    HW112068   4.918   0.881   0.707
 3723SOL    HW212069   4.901   0.817   0.558
 3724SOL     OW12070   0.062   4.948   5.654
 3724SOL    HW112071   0.012   5.032   5.633
 3724SOL    HW212072   0.047   4.881   5.582
 3725SOL     OW12073   5.880   6.106   0.715
 3725SOL    HW112074   5.791   6.117   0.759
 3725SOL    HW212075   5.913   6.196   0.685
 3726SOL     OW12076   6.108   2.995   1.194
 3726SOL    HW112077   6.198   2.982   1.151
 3726SOL    HW212078   6.080   2.910   1.238
 3727SOL     OW12079   2.450   2.777   5.264
 3727SOL    HW112080   2.475   2.873   5.250
 3727SOL    HW212081   2.373   2.773   5.328
 3728SOL     OW12082   0.605   3.427   6.748
 3728SOL    HW112083   0.587   3.502   6.812
 3728SOL    HW212084   0.702   3.426   6.724
 3729SOL     OW12085   0.590   2.721   3.736
 3729SOL    HW112086   0.684   2.704   3.704
 3729SOL    HW212087   0.562   2.813   3.709
 3730SOL     OW12088   2.208   0.380   0.856
 3730SOL    HW112089   2.170   0.330   0.778
 3730SOL    HW212090   2.228   0.317   0.930
 3731SOL     OW12091   3.280   5.937   6.406
 3731SOL    HW112092   3.339   5.956   6.485
 3731SOL    HW212093   3.205   6.003   6.404
 3732SOL     OW12094   2.113   3.619   4.594
 3732SOL    HW112095   2.117   3.524   4.565
 3732SOL    HW212096   2.020   3.655   4.582
 3733SOL     OW12097   3.374   3.261   1.085
 3733SOL    HW112098   3.461   3.286   1.043
 3733SOL    HW212099   3.388   3.180   1.143
 3734SOL     OW12100   4.840   0.052   3.960
 3734SOL    HW112101   4.876   0.002   3.881
 3734SOL    HW212102   4.847   0.150   3.944
 3735SOL     OW12103   3.650   2.031   1.799
 3735SOL    HW112104   3.610   2.084   1.724
 3735SOL    HW212105   3.682   2.093   1.870
 3736SOL     OW12106   4.909   0.972   5.760
 3736SOL    HW112107   4.862   1.044   5.709
 3736SOL    HW212108   4.852   0.943   5.837
 3737SOL     OW12109   3.765   6.705   4.232
 3737SOL    HW112110   3.865   6.713   4.224
 3737SOL    HW212111   3.733   6.759   4.309
 3738SOL     OW12112   0.043   6.891   4.600
 3738SOL    HW112113   0.014   6.815   4.658
 3738SOL    HW212114   6.986   6.932   4.557
 3739SOL     OW12115   1.032   3.281   1.548
 3739SOL    HW112116   1.120   3.328   1.541
 3739SOL    HW212117   1.030   3.227   1.631
 3740SOL     OW12118   5.545   0.359   6.864
 3740SOL    HW112119   5.606   0.289   6.902
 3740SOL    HW212120   5.471   0.314   6.814
 3741SOL     OW12121   3.480   2.313   0.098
 3741SOL    HW112122   3.484   2.405   0.138
 3741SOL    HW212123   3.384   2.287   0.085
 3742SOL     OW12124   3.396   3.361   5.431
 3742SOL    HW112125   3.409   3.284   5.493
 3742SOL    HW212126   3.467   3.429   5.447
 3743SOL     OW12127   1.051   5.594   6.299
 3743SOL    HW112128   1.053   5.545   6.386
 3743SOL    HW212129   1.017   5.687   6.313
 3744SOL     OW12130   6.563   5.087   3.056
 3744SOL    HW112131   6.484   5.034   3.085
 3744SOL    HW212132   6.646   5.031   3.063
 3745SOL     OW12133   5.148   5.886   1.816
 3745SOL    HW112134   5.170   5.790   1.800
 3745SOL    HW212135   5.195   5.918   1.899
 3746SOL     OW12136   4.268   1.228   1.621
 3746SOL    HW112137   4.209   1.212   1.700
 3746SOL    HW212138   4.216   1.273   1.548
 3747SOL     OW12139   2.845   0.397   0.626
 3747SOL    HW112140   2.809   0.466   0.563
 3747SOL    HW212141   2.770   0.359   0.680
 3748SOL     OW12142   5.207   0.241   1.640
 3748SOL    HW112143   5.130   0.272   1.584
 3748SOL    HW212144   5.180   0.239   1.736
 3749SOL     OW12145   1.660   0.652   4.414
 3749SOL    HW112146   1.625   0.668   4.506
 3749SOL    HW212147   1.742   0.708   4.399
 3750SOL     OW12148   6.963   4.351   6.581
 3750SOL    HW112149   6.887   4.376   6.521
 3750SOL    HW212150   6.927   4.317   6.668
 3751SOL     OW12151   1.242   4.497   1.504
 3751SOL    HW112152   1.204   4.535   1.420
 3751SOL    HW212153   1.313   4.431   1.481
 3752SOL     OW12154   4.896   5.878   6.987
 3752SOL    HW112155   4.808   5.891   6.942
 3752SOL    HW212156   4.932   5.966   7.017
 3753SOL     OW12157   0.377   0.279   3.292
 3753SOL    HW112158   0.375   0.305   3.389
 3753SOL    HW212159   0.370   0.180   3.283
 3754SOL     OW12160   2.934   1.278   1.615
 3754SOL    HW112161   2.880   1.275   1.699
 3754SOL    HW212162   2.873   1.275   1.536
 3755SOL     OW12163   2.516   5.515   4.417
 3755SOL    HW112164   2.582   5.588   4.402
 3755SOL    HW212165   2.527   5.477   4.509
 3756SOL     OW12166   1.180   6.992   0.625
 3756SOL    HW112167   1.210   6.942   0.706
 3756SOL    HW212168   1.254   6.994   0.557
 3757SOL     OW12169   0.678   4.070   0.594
 3757SOL    HW112170   0.719   4.064   0.685
 3757SOL    HW212171   0.579   4.083   0.602
 3758SOL     OW12172   1.742   6.993   3.959
 3758SOL    HW112173   1.840   7.011   3.952
 3758SOL    HW212174   1.725   6.895   3.950
 3759SOL     OW12175   5.345   0.389   4.220
 3759SOL    HW112176   5.317   0.319   4.286
 3759SOL    HW212177   5.418   0.353   4.162
 3760SOL     OW12178   1.097   0.789   2.955
 3760SOL    HW112179   1.041   0.786   2.872
 3760SOL    HW212180   1.159   0.867   2.950
 3761SOL     OW12181   4.457   1.782   5.473
 3761SOL    HW112182   4.483   1.877   5.455
 3761SOL    HW212183   4.518   1.720   5.424
 3762SOL     OW12184   0.520   2.509   4.088
 3762SOL    HW112185   0.582   2.581   4.053
 3762SOL    HW212186   0.438   2.506   4.032
 3763SOL     OW12187   0.409   5.559   6.787
 3763SOL    HW112188   0.387   5.593   6.695
 3763SOL    HW212189   0.507   5.567   6.803
 3764SOL     OW12190   2.965   1.165   2.678
 3764SOL    HW112191   3.004   1.092   2.733
 3764SOL    HW212192   2.894   1.128   2.618
 3765SOL     OW12193   5.182   2.626   2.669
 3765SOL    HW112194   5.173   2.721   2.640
 3765SOL    HW212195   5.181   2.622   2.769
 3766SOL     OW12196   1.325   2.838   2.596
 3766SOL    HW112197   1.413   2.867   2.635
 3766SOL    HW212198   1.342   2.770   2.525
 3767SOL     OW12199   1.874   6.073   5.863
 3767SOL    HW112200   1.904   6.168   5.868
 3767SOL    HW212201   1.850   6.041   5.955
 3768SOL     OW12202   1.798   6.607   2.420
 3768SOL    HW112203   1.746   6.640   2.340
 3768SOL    HW212204   1.895   6.610   2.399
 3769SOL     OW12205   4.937   5.384   4.343
 3769SOL    HW112206   5.004   5.314   4.371
 3769SOL    HW212207   4.858   5.339   4.302
 3770SOL     OW12208   2.969   0.363   1.236
 3770SOL    HW112209   3.007   0.455   1.248
 3770SOL    HW212210   3.026   0.296   1.284
 3771SOL     OW12211   6.774   5.786   5.609
 3771SOL    HW112212   6.792   5.823   5.517
 3771SOL    HW212213   6.838   5.828   5.673
 3772SOL     OW12214   1.775   6.056   1.774
 3772SOL    HW112215   1.794   5.960   1.752
 3772SOL    HW212216   1.751   6.065   1.870
 3773SOL     OW12217   4.642   5.081   0.050
 3773SOL    HW112218   4.578   5.046   0.118
 3773SOL    HW212219   4.706   5.144   0.095
 3774SOL     OW12220   6.909   4.738   1.922
 3774SOL    HW112221   6.918   4.645   1.886
 3774SOL    HW212222   6.950   4.802   1.858
 3775SOL     OW12223   5.189   5.206   5.070
 3775SOL    HW112224   5.242   5.121   5.064
 3775SOL    HW212225   5.246   5.279   5.106
 3776SOL     OW12226   4.196   2.813   6.225
 3776SOL    HW112227   4.139   2.888   6.192
 3776SOL    HW212228   4.242   2.770   6.147
 3777SOL     OW12229   2.881   5.275   3.844
 3777SOL    HW112230   2.836   5.212   3.907
 3777SOL    HW212231   2.863   5.247   3.750
 3778SOL     OW12232   3.049   4.985   6.839
 3778SOL    HW112233   3.014   5.019   6.752
 3778SOL    HW212234   3.136   5.031   6.860
 3779SOL     OW12235   6.590   4.555   6.884
 3779SOL    HW112236   6.550   4.633   6.931
 3779SOL    HW212237   6.612   4.580   6.790
 3780SOL     OW12238   6.122   3.239   2.014
 3780SOL    HW112239   6.185   3.161   2.021
 3780SOL    HW212240   6.053   3.219   1.943
 3781SOL     OW12241   2.033   6.765   5.547
 3781SOL    HW112242   2.026   6.858   5.584
 3781SOL    HW212243   1.956   6.710   5.580
 3782SOL     OW12244   4.087   5.411   0.075
 3782SOL    HW112245   4.121   5.321   0.102
 3782SOL    HW212246   4.050   5.458   0.155
 3783SOL     OW12247   4.421   5.310   4.975
 3783SOL    HW112248   4.351   5.346   5.037
 3783SOL    HW212249   4.382   5.234   4.922
 3784SOL     OW12250   5.811   3.358   5.266
 3784SOL    HW112251   5.729   3.357   5.323
 3784SOL    HW212252   5.884   3.307   5.311
 3785SOL     OW12253   1.097   2.725   3.093
 3785SOL    HW112254   1.141   2.787   3.158
 3785SOL    HW212255   1.121   2.753   3.000
 3786SOL     OW12256   1.955   2.831   5.206
 3786SOL    HW112257   1.992   2.738   5.207
 3786SOL    HW212258   2.031   2.897   5.204
 3787SOL     OW12259   5.084   6.340   4.165
 3787SOL    HW112260   5.070   6.261   4.224
 3787SOL    HW212261   5.118   6.310   4.075
 3788SOL     OW12262   5.587   3.312   5.431
 3788SOL    HW112263   5.526   3.241   5.394
 3788SOL    HW212264   5.635   3.275   5.511
 3789SOL     OW12265   2.135   3.377   1.367
 3789SOL    HW112266   2.166   3.293   1.412
 3789SOL    HW212267   2.149   3.369   1.268
 3790SOL     OW12268   0.899   6.725   1.550
 3790SOL    HW112269   0.999   6.720   1.547
 3790SOL    HW212270   0.868   6.710   1.644
 3791SOL     OW12271   4.813   0.726   4.822
 3791SOL    HW112272   4.750   0.759   4.752
 3791SOL    HW212273   4.858   0.803   4.867
 3792SOL     OW12274   6.807   0.195   3.997
 3792SOL    HW112275   6.829   0.287   4.030
 3792SOL    HW212276   6.887   0.136   4.011
 3793SOL     OW12277   3.980   4.329   0.596
 3793SOL    HW112278   3.929   4.286   0.671
 3793SOL    HW212279   3.960   4.282   0.510
 3794SOL     OW12280   1.506   5.333   6.155
 3794SOL    HW112281   1.544   5.255   6.206
 3794SOL    HW212282   1.450   5.388   6.217
 3795SOL     OW12283   3.199   6.204   1.237
 3795SOL    HW112284   3.141   6.168   1.310
 3795SOL    HW212285   3.280   6.248   1.277
 3796SOL     OW12286   5.540   0.812   6.794
 3796SOL    HW112287   5.516   0.851   6.705
 3796SOL    HW212288   5.581   0.883   6.851
 3797SOL     OW12289   0.206   2.780   0.940
 3797SOL    HW112290   0.166   2.854   0.993
 3797SOL    HW212291   0.303   2.772   0.962
 3798SOL     OW12292   1.304   5.032   3.528
 3798SOL    HW112293   1.297   5.101   3.600
 3798SOL    HW212294   1.216   5.025   3.480
 3799SOL     OW12295   6.985   1.105   3.181
 3799SOL    HW112296   0.015   1.084   3.263
 3799SOL    HW212297   6.959   1.021   3.135
 3800SOL     OW12298   5.294   2.632   2.901
 3800SOL    HW112299   5.249   2.574   2.968
 3800SOL    HW212300   5.390   2.645   2.926
 3801SOL     OW12301   5.966   1.305   0.529
 3801SOL    HW112302   5.952   1.337   0.623
 3801SOL    HW212303   5.996   1.210   0.531
 3802SOL     OW12304   6.549   3.434   2.132
 3802SOL    HW112305   6.565   3.515   2.188
 3802SOL    HW212306   6.485   3.373   2.179
 3803SOL     OW12307   4.366   4.118   5.392
 3803SOL    HW112308   4.311   4.188   5.439
 3803SOL    HW212309   4.307   4.063   5.334
 3804SOL     OW12310   3.984   6.515   3.602
 3804SOL    HW112311   3.991   6.421   3.635
 3804SOL    HW212312   3.987   6.516   3.502
 3805SOL     OW12313   2.432   1.982   6.704
 3805SOL    HW112314   2.371   2.061   6.703
 3805SOL    HW212315   2.387   1.904   6.661
 3806SOL     OW12316   2.433   4.942   1.421
 3806SOL    HW112317   2.345   4.926   1.466
 3806SOL    HW212318   2.499   4.873   1.451
 3807SOL     OW12319   0.691   4.401   3.576
 3807SOL    HW112320   0.598   4.366   3.564
 3807SOL    HW212321   0.752   4.355   3.511
 3808SOL     OW12322   2.911   6.550   5.830
 3808SOL    HW112323   2.890   6.617   5.759
 3808SOL    HW212324   2.837   6.483   5.836
 3809SOL     OW12325   5.455   1.461   1.779
 3809SOL    HW112326   5.549   1.428   1.775
 3809SOL    HW212327   5.405   1.415   1.852
 3810SOL     OW12328   5.038   2.339   2.830
 3810SOL    HW112329   5.020   2.436   2.847
 3810SOL    HW212330   5.119   2.330   2.773
 3811SOL     OW12331   6.588   6.126   5.282
 3811SOL    HW112332   6.661   6.117   5.350
 3811SOL    HW212333   6.511   6.176   5.322
 3812SOL     OW12334   4.007   5.829   0.098
 3812SOL    HW112335   4.101   5.861   0.106
 3812SOL    HW212336   3.956   5.856   0.180
 3813SOL     OW12337   6.034   4.250   0.063
 3813SOL    HW112338   6.092   4.220   7.011
 3813SOL    HW212339   6.080   4.324   0.112
 3814SOL     OW12340   0.663   0.371   5.249
 3814SOL    HW112341   0.721   0.331   5.179
 3814SOL    HW212342   0.680   0.470   5.254
 3815SOL     OW12343   5.344   3.188   6.138
 3815SOL    HW112344   5.277   3.179   6.212
 3815SOL    HW212345   5.362   3.285   6.121
 3816SOL     OW12346   6.542   6.386   0.847
 3816SOL    HW112347   6.494   6.408   0.762
 3816SOL    HW212348   6.620   6.326   0.826
 3817SOL     OW12349   4.193   3.715   1.557
 3817SOL    HW112350   4.140   3.636   1.588
 3817SOL    HW212351   4.232   3.762   1.636
 3818SOL     OW12352   5.302   6.022   2.552
 3818SOL    HW112353   5.228   5.975   2.504
 3818SOL    HW212354   5.338   6.095   2.493
 3819SOL     OW12355   6.359   3.601   3.442
 3819SOL    HW112356   6.274   3.635   3.481
 3819SOL    HW212357   6.357   3.614   3.342
 3820SOL     OW12358   3.289   6.714   5.848
 3820SOL    HW112359   3.201   6.710   5.894
 3820SOL    HW212360   3.345   6.636   5.875
 3821SOL     OW12361   2.018   0.189   0.334
 3821SOL    HW112362   2.045   0.102   0.377
 3821SOL    HW212363   1.920   0.190   0.320
 3822SOL     OW12364   4.978   6.834   2.285
 3822SOL    HW112365   4.972   6.916   2.228
 3822SOL    HW212366   5.025   6.762   2.235
 3823SOL     OW12367   5.403   6.270   5.182
 3823SOL    HW112368   5.308   6.276   5.154
 3823SOL    HW212369   5.419   6.334   5.258
 3824SOL     OW12370   2.221   2.811   0.833
 3824SOL    HW112371   2.163   2.777   0.906
 3824SOL    HW212372   2.315   2.820   0.866
 3825SOL     OW12373   0.426   4.967   5.906
 3825SOL    HW112374   0.334   4.942   5.877
 3825SOL    HW212375   0.492   4.941   5.835
 3826SOL     OW12376   5.294   3.801   3.207
 3826SOL    HW112377   5.381   3.844   3.232
 3826SOL    HW212378   5.220   3.867   3.215
 3827SOL     OW12379   0.266   1.943   6.827
 3827SOL    HW112380   0.255   1.966   6.924
 3827SOL    HW212381   0.278   2.026   6.774
 3828SOL     OW12382   3.977   3.089   4.172
 3828SOL    HW112383   3.979   3.131   4.263
 3828SOL    HW212384   3.910   3.015   4.171
 3829SOL     OW12385   0.552   2.976   1.467
 3829SOL    HW112386   0.629   3.040   1.471
 3829SOL    HW212387   0.527   2.949   1.560
 3830SOL     OW12388   5.673   0.167   3.854
 3830SOL    HW112389   5.602   0.218   3.807
 3830SOL    HW212390   5.705   0.093   3.795
 3831SOL     OW12391   4.607   2.474   3.364
 3831SOL    HW112392   4.654   2.469   3.275
 3831SOL    HW212393   4.532   2.409   3.366
 3832SOL     OW12394   6.604   0.870   3.931
 3832SOL    HW112395   6.664   0.932   3.882
 3832SOL    HW212396   6.630   0.869   4.028
 3833SOL     OW12397   1.699   2.964   5.609
 3833SOL    HW112398   1.774   2.985   5.545
 3833SOL    HW212399   1.649   2.884   5.576
 3834SOL     OW12400   5.017   4.686   1.162
 3834SOL    HW112401   5.101   4.732   1.190
 3834SOL    HW212402   4.993   4.616   1.229
 3835SOL     OW12403   4.342   5.733   5.360
 3835SOL    HW112404   4.270   5.802   5.370
 3835SOL    HW212405   4.349   5.681   5.446
 3836SOL     OW12406   6.861   6.469   4.543
 3836SOL    HW112407   6.909   6.420   4.615
 3836SOL    HW212408   6.785   6.520   4.583
 3837SOL     OW12409   4.409   4.855   6.069
 3837SOL    HW112410   4.450   4.769   6.040
 3837SOL    HW212411   4.462   4.895   6.143
 3838SOL     OW12412   6.971   0.464   4.042
 3838SOL    HW112413   6.878   0.464   4.079
 3838SOL    HW212414   0.012   0.440   4.115
 3839SOL     OW12415   4.790   0.687   3.612
 3839SOL    HW112416   4.842   0.662   3.694
 3839SOL    HW212417   4.730   0.611   3.586
 3840SOL     OW12418   3.435   1.300   6.726
 3840SOL    HW112419   3.371   1.228   6.697
 3840SOL    HW212420   3.527   1.279   6.693
 3841SOL     OW12421   6.055   4.270   3.830
 3841SOL    HW112422   6.019   4.193   3.884
 3841SOL    HW212423   6.011   4.355   3.860
 3842SOL     OW12424   2.001   4.477   6.090
 3842SOL    HW112425   2.069   4.427   6.145
 3842SOL    HW212426   2.019   4.463   5.993
 3843SOL     OW12427   5.510   2.540   6.096
 3843SOL    HW112428   5.559   2.611   6.147
 3843SOL    HW212429   5.417   2.571   6.077
 3844SOL     OW12430   6.615   0.270   1.068
 3844SOL    HW112431   6.710   0.284   1.096
 3844SOL    HW212432   6.599   0.174   1.049
 3845SOL     OW12433   1.786   5.881   0.618
 3845SOL    HW112434   1.834   5.797   0.594
 3845SOL    HW212435   1.700   5.858   0.663
 3846SOL     OW12436   0.211   3.473   2.719
 3846SOL    HW112437   0.308   3.488   2.734
 3846SOL    HW212438   0.197   3.438   2.626
 3847SOL     OW12439   0.751   1.875   6.673
 3847SOL    HW112440   0.671   1.895   6.617
 3847SOL    HW212441   0.834   1.890   6.620
 3848SOL     OW12442   6.522   4.324   1.966
 3848SOL    HW112443   6.597   4.284   2.019
 3848SOL    HW212444   6.462   4.252   1.932
 3849SOL     OW12445   0.218   4.526   6.251
 3849SOL    HW112446   0.220   4.618   6.289
 3849SOL    HW212447   0.311   4.492   6.242
 3850SOL     OW12448   3.198   2.488   1.477
 3850SOL    HW112449   3.146   2.524   1.555
 3850SOL    HW212450   3.137   2.430   1.422
 3851SOL     OW12451   0.537   6.121   2.906
 3851SOL    HW112452   0.635   6.104   2.891
 3851SOL    HW212453   0.485   6.038   2.886
 3852SOL     OW12454   1.429   0.473   5.035
 3852SOL    HW112455   1.431   0.413   4.955
 3852SOL    HW212456   1.470   0.426   5.113
 3853SOL     OW12457   2.898   0.732   3.510
 3853SOL    HW112458   2.880   0.635   3.496
 3853SOL    HW212459   2.813   0.778   3.540
 3854SOL     OW12460   0.058   2.250   2.133
 3854SOL    HW112461   0.027   2.344   2.150
 3854SOL    HW212462   0.145   2.235   2.180
 3855SOL     OW12463   3.378   6.814   6.828
 3855SOL    HW112464   3.475   6.789   6.826
 3855SOL    HW212465   3.360   6.883   6.758
 3856SOL     OW12466   0.066   2.752   6.283
 3856SOL    HW112467   0.155   2.764   6.327
 3856SOL    HW212468   0.073   2.681   6.213
 3857SOL     OW12469   2.563   0.560   6.122
 3857SOL    HW112470   2.647   0.530   6.077
 3857SOL    HW212471   2.538   0.651   6.088
 3858SOL     OW12472   4.947   1.095   4.228
 3858SOL    HW112473   4.973   1.180   4.183
 3858SOL    HW212474   4.848   1.081   4.218
 3859SOL     OW12475   5.807   6.856   1.573
 3859SOL    HW112476   5.740   6.823   1.641
 3859SOL    HW212477   5.769   6.936   1.526
 3860SOL     OW12478   1.450   0.038   4.430
 3860SOL    HW112479   1.369   7.016   4.392
 3860SOL    HW212480   1.522   0.041   4.361
 3861SOL     OW12481   2.778   5.237   1.509
 3861SOL    HW112482   2.773   5.198   1.417
 3861SOL    HW212483   2.698   5.209   1.561
 3862SOL     OW12484   1.795   0.619   4.660
 3862SOL    HW112485   1.833   0.607   4.569
 3862SOL    HW212486   1.869   0.635   4.725
 3863SOL     OW12487   3.171   0.607   0.523
 3863SOL    HW112488   3.243   0.605   0.454
 3863SOL    HW212489   3.084   0.629   0.480
 3864SOL     OW12490   1.911   0.228   4.732
 3864SOL    HW112491   1.999   0.254   4.771
 3864SOL    HW212492   1.889   0.134   4.759
 3865SOL     OW12493   5.024   1.374   0.599
 3865SOL    HW112494   4.998   1.293   0.652
 3865SOL    HW212495   5.121   1.395   0.615
 3866SOL     OW12496   2.757   1.998   6.581
 3866SOL    HW112497   2.685   2.007   6.511
 3866SOL    HW212498   2.826   2.069   6.566
 3867SOL     OW12499   0.089   2.917   1.903
 3867SOL    HW112500   0.044   2.846   1.848
 3867SOL    HW212501   0.104   2.882   1.996
 3868SOL     OW12502   4.289   0.745   0.370
 3868SOL    HW112503   4.263   0.837   0.399
 3868SOL    HW212504   4.382   0.725   0.401
 3869SOL     OW12505   4.910   1.480   4.162
 3869SOL    HW112506   4.883   1.575   4.180
 3869SOL    HW212507   4.841   1.419   4.201
 3870SOL     OW12508   0.203   0.584   5.410
 3870SOL    HW112509   0.215   0.648   5.486
 3870SOL    HW212510   0.225   0.630   5.324
 3871SOL     OW12511   2.231   5.750   4.526
 3871SOL    HW112512   2.317   5.798   4.546
 3871SOL    HW212513   2.240   5.703   4.438
 3872SOL     OW12514   2.809   3.338   5.339
 3872SOL    HW112515   2.809   3.303   5.245
 3872SOL    HW212516   2.903   3.343   5.373
 3873SOL     OW12517   3.805   1.809   0.619
 3873SOL    HW112518   3.732   1.877   0.622
 3873SOL    HW212519   3.852   1.806   0.708
 3874SOL     OW12520   2.107   1.118   0.666
 3874SOL    HW112521   2.110   1.115   0.766
 3874SOL    HW212522   2.031   1.063   0.632
 3875SOL     OW12523   1.099   2.426   6.112
 3875SOL    HW112524   1.012   2.474   6.116
 3875SOL    HW212525   1.150   2.457   6.031
 3876SOL     OW12526   3.682   5.309   2.544
 3876SOL    HW112527   3.589   5.296   2.509
 3876SOL    HW212528   3.713   5.226   2.589
 3877SOL     OW12529   0.249   2.077   6.182
 3877SOL    HW112530   0.265   2.168   6.145
 3877SOL    HW212531   0.327   2.049   6.237
 3878SOL     OW12532   5.516   1.172   4.276
 3878SOL    HW112533   5.450   1.142   4.207
 3878SOL    HW212534   5.470   1.232   4.342
 3879SOL     OW12535   5.251   5.821   0.093
 3879SOL    HW112536   5.194   5.838   0.013
 3879SOL    HW212537   5.333   5.771   0.065
 3880SOL     OW12538   4.476   4.514   3.895
 3880SOL    HW112539   4.418   4.580   3.943
 3880SOL    HW212540   4.543   4.476   3.958
 3881SOL     OW12541   1.342   3.237   0.182
 3881SOL    HW112542   1.360   3.267   0.089
 3881SOL    HW212543   1.258   3.183   0.184
 3882SOL     OW12544   0.488   2.249   5.886
 3882SOL    HW112545   0.468   2.155   5.859
 3882SOL    HW212546   0.586   2.260   5.902
 3883SOL     OW12547   4.532   5.597   3.413
 3883SOL    HW112548   4.590   5.520   3.441
 3883SOL    HW212549   4.588   5.679   3.404
 3884SOL     OW12550   0.339   3.876   1.940
 3884SOL    HW112551   0.394   3.846   2.018
 3884SOL    HW212552   0.385   3.952   1.894
 3885SOL     OW12553   4.956   5.698   2.666
 3885SOL    HW112554   5.010   5.624   2.626
 3885SOL    HW212555   4.880   5.660   2.718
 3886SOL     OW12556   2.642   6.163   5.678
 3886SOL    HW112557   2.586   6.224   5.622
 3886SOL    HW212558   2.584   6.112   5.741
 3887SOL     OW12559   1.530   6.116   1.994
 3887SOL    HW112560   1.442   6.117   1.947
 3887SOL    HW212561   1.526   6.053   2.071
 3888SOL     OW12562   5.929   4.905   3.973
 3888SOL    HW112563   5.945   4.901   3.874
 3888SOL    HW212564   5.987   4.975   4.014
 3889SOL     OW12565   5.739   3.936   0.560
 3889SOL    HW112566   5.641   3.919   0.544
 3889SOL    HW212567   5.793   3.874   0.504
 3890SOL     OW12568   5.282   3.080   4.368
 3890SOL    HW112569   5.338   3.161   4.386
 3890SOL    HW212570   5.341   3.001   4.354
 3891SOL     OW12571   5.082   5.537   3.238
 3891SOL    HW112572   5.175   5.567   3.259
 3891SOL    HW212573   5.072   5.440   3.260
 3892SOL     OW12574   0.147   2.050   1.431
 3892SOL    HW112575   0.049   2.064   1.413
 3892SOL    HW212576   0.175   2.107   1.508
 3893SOL     OW12577   4.045   3.812   2.696
 3893SOL    HW112578   4.037   3.719   2.730
 3893SOL    HW212579   4.075   3.872   2.771
 3894SOL     OW12580   4.661   0.411   5.768
 3894SOL    HW112581   4.675   0.510   5.759
 3894SOL    HW212582   4.728   0.374   5.833
 3895SOL     OW12583   0.902   0.341   4.096
 3895SOL    HW112584   0.835   0.281   4.052
 3895SOL    HW212585   0.994   0.304   4.080
 3896SOL     OW12586   1.429   1.226   6.210
 3896SOL    HW112587   1.430   1.184   6.300
 3896SOL    HW212588   1.478   1.168   6.145
 3897SOL     OW12589   4.084   6.211   1.512
 3897SOL    HW112590   3.994   6.227   1.472
 3897SOL    HW212591   4.096   6.113   1.530
 3898SOL     OW12592   3.764   3.108   1.093
 3898SOL    HW112593   3.701   3.057   1.151
 3898SOL    HW212594   3.852   3.117   1.140
 3899SOL     OW12595   3.493   0.387   5.957
 3899SOL    HW112596   3.448   0.411   5.871
 3899SOL    HW212597   3.543   0.466   5.992
 3900SOL     OW12598   4.780   3.863   3.081
 3900SOL    HW112599   4.725   3.930   3.131
 3900SOL    HW212600   4.828   3.909   3.006
 3901SOL     OW12601   2.823   0.496   6.700
 3901SOL    HW112602   2.817   0.514   6.798
 3901SOL    HW212603   2.813   0.582   6.650
 3902SOL     OW12604   5.721   2.987   2.730
 3902SOL    HW112605   5.786   2.913   2.713
 3902SOL    HW212606   5.689   2.981   2.824
 3903SOL     OW12607   3.161   4.712   6.257
 3903SOL    HW112608   3.161   4.641   6.327
 3903SOL    HW212609   3.183   4.671   6.168
 3904SOL     OW12610   1.396   0.668   0.573
 3904SOL    HW112611   1.398   0.683   0.672
 3904SOL    HW212612   1.469   0.604   0.548
 3905SOL     OW12613   6.576   6.264   4.960
 3905SOL    HW112614   6.506   6.296   5.024
 3905SOL    HW212615   6.594   6.336   4.893
 3906SOL     OW12616   6.355   6.416   5.040
 3906SOL    HW112617   6.265   6.374   5.025
 3906SOL    HW212618   6.360   6.502   4.989
 3907SOL     OW12619   6.423   2.108   3.513
 3907SOL    HW112620   6.464   2.173   3.449
 3907SOL    HW212621   6.422   2.017   3.472
 3908SOL     OW12622   2.275   3.711   6.139
 3908SOL    HW112623   2.321   3.799   6.122
 3908SOL    HW212624   2.321   3.664   6.215
 3909SOL     OW12625   5.530   5.367   3.898
 3909SOL    HW112626   5.543   5.404   3.805
 3909SOL    HW212627   5.556   5.271   3.899
 3910SOL     OW12628   4.046   3.536   2.826
 3910SOL    HW112629   3.975   3.521   2.756
 3910SOL    HW212630   4.136   3.525   2.784
 3911SOL     OW12631   6.725   2.450   5.639
 3911SOL    HW112632   6.779   2.471   5.720
 3911SOL    HW212633   6.674   2.532   5.610
 3912SOL     OW12634   4.988   2.810   6.537
 3912SOL    HW112635   4.996   2.906   6.511
 3912SOL    HW212636   5.013   2.753   6.459
 3913SOL     OW12637   0.835   6.520   1.372
 3913SOL    HW112638   0.857   6.438   1.425
 3913SOL    HW212639   0.840   6.601   1.431
 3914SOL     OW12640   3.263   5.755   5.694
 3914SOL    HW112641   3.242   5.817   5.770
 3914SOL    HW212642   3.220   5.667   5.710
 3915SOL     OW12643   6.774   6.099   1.928
 3915SOL    HW112644   6.793   6.048   2.012
 3915SOL    HW212645   6.858   6.107   1.875
 3916SOL     OW12646   0.813   6.977   3.190
 3916SOL    HW112647   0.820   0.029   3.255
 3916SOL    HW212648   0.782   7.012   3.101
 3917SOL     OW12649   2.347   0.363   7.008
 3917SOL    HW112650   2.272   0.320   0.034
 3917SOL    HW212651   2.342   0.339   6.912
 3918SOL     OW12652   5.497   3.425   0.185
 3918SOL    HW112653   5.458   3.333   0.188
 3918SOL    HW212654   5.427   3.491   0.212
 3919SOL     OW12655   3.314   6.621   0.748
 3919SOL    HW112656   3.244   6.628   0.819
 3919SOL    HW212657   3.363   6.534   0.759
 3920SOL     OW12658   1.844   1.658   7.019
 3920SOL    HW112659   1.775   1.706   6.966
 3920SOL    HW212660   1.862   1.709   0.080
 3921SOL     OW12661   1.474   3.884   1.722
 3921SOL    HW112662   1.544   3.953   1.742
 3921SOL    HW212663   1.393   3.900   1.778
 3922SOL     OW12664   0.982   4.888   1.231
 3922SOL    HW112665   0.962   4.975   1.186
 3922SOL    HW212666   1.061   4.898   1.291
 3923SOL     OW12667   6.447   0.449   0.961
 3923SOL    HW112668   6.522   0.389   0.988
 3923SOL    HW212669   6.392   0.404   0.891
 3924SOL     OW12670   6.849   4.920   4.381
 3924SOL    HW112671   6.827   4.889   4.474
 3924SOL    HW212672   6.945   4.948   4.377
 3925SOL     OW12673   1.776   5.098   1.660
 3925SOL    HW112674   1.755   5.119   1.755
 3925SOL    HW212675   1.739   5.008   1.636
 3926SOL     OW12676   3.690   5.117   2.736
 3926SOL    HW112677   3.728   5.025   2.736
 3926SOL    HW212678   3.590   5.112   2.742
 3927SOL     OW12679   0.918   3.455   6.224
 3927SOL    HW112680   1.003   3.413   6.192
 3927SOL    HW212681   0.841   3.397   6.202
 3928SOL     OW12682   5.850   5.735   6.530
 3928SOL    HW112683   5.765   5.784   6.548
 3928SOL    HW212684   5.833   5.636   6.537
 3929SOL     OW12685   0.831   1.963   4.408
 3929SOL    HW112686   0.752   1.963   4.470
 3929SOL    HW212687   0.860   1.869   4.390
 3930SOL     OW12688   2.819   1.683   4.153
 3930SOL    HW112689   2.902   1.634   4.124
 3930SOL    HW212690   2.830   1.780   4.135
 3931SOL     OW12691   5.319   0.167   2.157
 3931SOL    HW112692   5.277   0.241   2.104
 3931SOL    HW212693   5.353   0.096   2.095
 3932SOL     OW12694   2.100   1.670   4.162
 3932SOL    HW112695   2.050   1.754   4.184
 3932SOL    HW212696   2.107   1.660   4.063
 3933SOL     OW12697   0.763   6.953   5.666
 3933SOL    HW112698   0.696   6.990   5.731
 3933SOL    HW212699   0.726   6.958   5.573
 3934SOL     OW12700   5.187   6.838   6.787
 3934SOL    HW112701   5.202   6.752   6.836
 3934SOL    HW212702   5.198   6.822   6.689
 3935SOL     OW12703   5.033   0.357   0.971
 3935SOL    HW112704   5.008   0.325   0.880
 3935SOL    HW212705   5.062   0.453   0.966
 3936SOL     OW12706   0.488   4.505   2.751
 3936SOL    HW112707   0.463   4.408   2.740
 3936SOL    HW212708   0.413   4.554   2.794
 3937SOL     OW12709   0.298   1.488   2.500
 3937SOL    HW112710   0.223   1.457   2.559
 3937SOL    HW212711   0.361   1.545   2.553
 3938SOL     OW12712   0.221   2.235   2.651
 3938SOL    HW112713   0.263   2.324   2.666
 3938SOL    HW212714   0.127   2.236   2.685
 3939SOL     OW12715   2.768   1.966   1.837
 3939SOL    HW112716   2.734   1.875   1.814
 3939SOL    HW212717   2.855   1.959   1.885
 3940SOL     OW12718   4.470   3.469   1.443
 3940SOL    HW112719   4.566   3.440   1.442
 3940SOL    HW212720   4.450   3.515   1.530
 3941SOL     OW12721   4.584   3.713   6.720
 3941SOL    HW112722   4.524   3.641   6.687
 3941SOL    HW212723   4.559   3.800   6.677
 3942SOL     OW12724   6.853   0.400   6.879
 3942SOL    HW112725   6.952   0.394   6.867
 3942SOL    HW212726   6.825   0.496   6.881
 3943SOL     OW12727   0.115   3.252   4.705
 3943SOL    HW112728   0.199   3.231   4.755
 3943SOL    HW212729   0.045   3.184   4.725
 3944SOL     OW12730   5.164   2.225   4.709
 3944SOL    HW112731   5.169   2.154   4.778
 3944SOL    HW212732   5.215   2.197   4.628
 3945SOL     OW12733   6.998   0.853   0.638
 3945SOL    HW112734   6.903   0.823   0.643
 3945SOL    HW212735   0.033   0.773   0.620
 3946SOL     OW12736   4.177   4.780   2.946
 3946SOL    HW112737   4.197   4.720   2.868
 3946SOL    HW212738   4.257   4.783   3.006
 3947SOL     OW12739   6.078   5.122   6.614
 3947SOL    HW112740   6.075   5.083   6.706
 3947SOL    HW212741   5.985   5.129   6.578
 3948SOL     OW12742   6.463   3.679   0.850
 3948SOL    HW112743   6.382   3.727   0.882
 3948SOL    HW212744   6.487   3.712   0.759
 3949SOL     OW12745   5.572   6.471   3.316
 3949SOL    HW112746   5.627   6.465   3.233
 3949SOL    HW212747   5.483   6.428   3.300
 3950SOL     OW12748   2.005   6.146   0.544
 3950SOL    HW112749   2.021   6.179   0.637
 3950SOL    HW212750   2.085   6.165   0.488
 3951SOL     OW12751   5.243   6.801   1.653
 3951SOL    HW112752   5.298   6.884   1.661
 3951SOL    HW212753   5.295   6.723   1.687
 3952SOL     OW12754   5.685   2.148   6.950
 3952SOL    HW112755   5.594   2.107   6.956
 3952SOL    HW212756   5.730   2.143   0.015
 3953SOL     OW12757   3.928   3.931   2.970
 3953SOL    HW112758   3.913   3.991   3.048
 3953SOL    HW212759   3.878   3.966   2.891
 3954SOL     OW12760   4.284   4.878   5.707
 3954SOL    HW112761   4.348   4.814   5.664
 3954SOL    HW212762   4.235   4.831   5.780
 3955SOL     OW12763   3.937   1.013   4.802
 3955SOL    HW112764   4.028   1.044   4.775
 3955SOL    HW212765   3.880   1.001   4.720
 3956SOL     OW12766   2.369   1.276   1.695
 3956SOL    HW112767   2.378   1.238   1.603
 3956SOL    HW212768   2.353   1.202   1.761
 3957SOL     OW12769   3.969   0.778   4.508
 3957SOL    HW112770   3.928   0.687   4.503
 3957SOL    HW212771   3.903   0.843   4.546
 3958SOL     OW12772   5.634   0.286   5.579
 3958SOL    HW112773   5.570   0.215   5.606
 3958SOL    HW212774   5.636   0.358   5.649
 3959SOL     OW12775   4.736   5.498   0.100
 3959SOL    HW112776   4.654   5.554   0.089
 3959SOL    HW212777   4.711   5.408   0.137
 3960SOL     OW12778   5.276   1.818   4.793
 3960SOL    HW112779   5.353   1.874   4.761
 3960SOL    HW212780   5.204   1.818   4.725
 3961SOL     OW12781   5.721   6.323   4.060
 3961SOL    HW112782   5.787   6.363   4.124
 3961SOL    HW212783   5.694   6.392   3.993
 3962SOL     OW12784   0.073   5.576   5.367
 3962SOL    HW112785   7.008   5.529   5.364
 3962SOL    HW212786   0.089   5.611   5.459
 3963SOL     OW12787   4.750   6.797   2.139
 3963SOL    HW112788   4.802   6.796   2.224
 3963SOL    HW212789   4.746   6.705   2.100
 3964SOL     OW12790   5.894   3.075   3.363
 3964SOL    HW112791   5.842   3.160   3.362
 3964SOL    HW212792   5.844   3.005   3.312
 3965SOL     OW12793   4.867   3.813   4.275
 3965SOL    HW112794   4.866   3.785   4.371
 3965SOL    HW212795   4.819   3.900   4.265
 3966SOL     OW12796   2.702   6.266   6.436
 3966SOL    HW112797   2.700   6.247   6.534
 3966SOL    HW212798   2.641   6.343   6.415
 3967SOL     OW12799   2.125   4.662   3.329
 3967SOL    HW112800   2.184   4.639   3.252
 3967SOL    HW212801   2.124   4.761   3.342
 3968SOL     OW12802   3.479   6.811   0.627
 3968SOL    HW112803   3.438   6.732   0.671
 3968SOL    HW212804   3.535   6.861   0.693
 3969SOL     OW12805   0.729   5.111   2.809
 3969SOL    HW112806   0.805   5.053   2.782
 3969SOL    HW212807   0.662   5.057   2.860
 3970SOL     OW12808   4.920   6.195   2.368
 3970SOL    HW112809   5.008   6.237   2.387
 3970SOL    HW212810   4.918   6.102   2.405
 3971SOL     OW12811   2.096   6.272   3.280
 3971SOL    HW112812   2.154   6.200   3.319
 3971SOL    HW212813   2.102   6.269   3.180
 3972SOL     OW12814   1.901   3.827   0.384
 3972SOL    HW112815   1.845   3.793   0.308
 3972SOL    HW212816   1.935   3.919   0.363
 3973SOL     OW12817   1.820   5.078   1.038
 3973SOL    HW112818   1.875   5.109   1.117
 3973SOL    HW212819   1.878   5.079   0.956
 3974SOL     OW12820   2.477   1.232   5.210
 3974SOL    HW112821   2.395   1.205   5.261
 3974SOL    HW212822   2.530   1.296   5.266
 3975SOL     OW12823   5.880   2.706   6.099
 3975SOL    HW112824   5.871   2.719   6.001
 3975SOL    HW212825   5.789   2.696   6.140
 3976SOL     OW12826   2.207   5.198   2.185
 3976SOL    HW112827   2.270   5.257   2.236
 3976SOL    HW212828   2.132   5.253   2.148
 3977SOL     OW12829   1.109   3.507   6.605
 3977SOL    HW112830   1.160   3.438   6.656
 3977SOL    HW212831   1.111   3.485   6.508
 3978SOL     OW12832   6.483   4.422   3.771
 3978SOL    HW112833   6.497   4.328   3.801
 3978SOL    HW212834   6.427   4.422   3.688
 3979SOL     OW12835   3.764   6.813   6.519
 3979SOL    HW112836   3.668   6.830   6.498
 3979SOL    HW212837   3.819   6.831   6.437
 3980SOL     OW12838   5.213   5.914   6.044
 3980SOL    HW112839   5.264   5.869   5.971
 3980SOL    HW212840   5.251   6.006   6.059
 3981SOL     OW12841   4.388   6.461   6.958
 3981SOL    HW112842   4.348   6.470   0.026
 3981SOL    HW212843   4.316   6.471   6.889
 3982SOL     OW12844   2.954   6.610   2.968
 3982SOL    HW112845   2.975   6.616   3.065
 3982SOL    HW212846   3.033   6.571   2.920
 3983SOL     OW12847   3.534   5.602   4.310
 3983SOL    HW112848   3.544   5.673   4.380
 3983SOL    HW212849   3.441   5.563   4.315
 3984SOL     OW12850   6.723   2.500   2.808
 3984SOL    HW112851   6.713   2.413   2.856
 3984SOL    HW212852   6.720   2.483   2.709
 3985SOL     OW12853   4.028   4.901   6.508
 3985SOL    HW112854   4.012   4.812   6.467
 3985SOL    HW212855   4.059   4.890   6.603
 3986SOL     OW12856   5.382   0.705   2.787
 3986SOL    HW112857   5.394   0.794   2.744
 3986SOL    HW212858   5.449   0.641   2.749
 3987SOL     OW12859   3.228   5.592   5.056
 3987SOL    HW112860   3.319   5.556   5.078
 3987SOL    HW212861   3.164   5.568   5.129
 3988SOL     OW12862   3.839   5.972   0.658
 3988SOL    HW112863   3.823   6.040   0.586
 3988SOL    HW212864   3.909   6.006   0.721
 3989SOL     OW12865   5.749   2.120   0.221
 3989SOL    HW112866   5.658   2.116   0.262
 3989SOL    HW212867   5.797   2.201   0.255
 3990SOL     OW12868   6.376   1.594   2.344
 3990SOL    HW112869   6.412   1.687   2.359
 3990SOL    HW212870   6.446   1.538   2.301
 3991SOL     OW12871   6.541   0.506   3.094
 3991SOL    HW112872   6.638   0.507   3.070
 3991SOL    HW212873   6.498   0.426   3.053
 3992SOL     OW12874   2.975   2.056   1.144
 3992SOL    HW112875   2.902   2.070   1.211
 3992SOL    HW212876   3.001   1.960   1.143
 3993SOL     OW12877   1.085   2.890   1.837
 3993SOL    HW112878   1.056   2.954   1.908
 3993SOL    HW212879   1.150   2.824   1.875
 3994SOL     OW12880   2.510   6.437   4.713
 3994SOL    HW112881   2.471   6.468   4.626
 3994SOL    HW212882   2.510   6.337   4.716
 3995SOL     OW12883   1.503   2.132   4.544
 3995SOL    HW112884   1.461   2.203   4.488
 3995SOL    HW212885   1.549   2.174   4.622
 3996SOL     OW12886   6.783   6.513   4.284
 3996SOL    HW112887   6.812   6.499   4.378
 3996SOL    HW212888   6.684   6.528   4.281
 3997SOL     OW12889   4.543   0.940   4.521
 3997SOL    HW112890   4.614   0.896   4.466
 3997SOL    HW212891   4.465   0.962   4.463
 3998SOL     OW12892   4.419   1.955   3.206
 3998SOL    HW112893   4.407   2.010   3.289
 3998SOL    HW212894   4.416   2.015   3.126
 3999SOL     OW12895   4.786   2.286   4.293
 3999SOL    HW112896   4.770   2.365   4.233
 3999SOL    HW212897   4.698   2.251   4.326
 4000SOL     OW12898   4.221   6.509   4.231
 4000SOL    HW112899   4.212   6.410   4.246
 4000SOL    HW212900   4.232   6.555   4.320
 4001SOL     OW12901   1.001   2.391   4.213
 4001SOL    HW112902   1.001   2.459   4.139
 4001SOL    HW212903   0.919   2.335   4.207
 4002SOL     OW12904   2.379   4.156   1.944
 4002SOL    HW112905   2.367   4.169   2.043
 4002SOL    HW212906   2.400   4.061   1.925
 4003SOL     OW12907   3.587   2.112   4.968
 4003SOL    HW112908   3.673   2.127   5.017
 4003SOL    HW212909   3.520   2.071   5.029
 4004SOL     OW12910   6.868   1.669   5.125
 4004SOL    HW112911   6.903   1.763   5.114
 4004SOL    HW212912   6.768   1.670   5.114
 4005SOL     OW12913   6.256   4.923   5.108
 4005SOL    HW112914   6.328   4.857   5.087
 4005SOL    HW212915   6.202   4.890   5.186
 4006SOL     OW12916   3.762   5.589   2.668
 4006SOL    HW112917   3.670   5.559   2.640
 4006SOL    HW212918   3.830   5.529   2.627
 4007SOL     OW12919   6.394   2.046   6.379
 4007SOL    HW112920   6.321   2.104   6.344
 4007SOL    HW212921   6.362   1.952   6.387
 4008SOL     OW12922   2.723   2.208   4.890
 4008SOL    HW112923   2.637   2.201   4.940
 4008SOL    HW212924   2.799   2.181   4.950
 4009SOL     OW12925   3.002   3.342   2.975
 4009SOL    HW112926   3.070   3.318   2.905
 4009SOL    HW212927   2.946   3.418   2.942
 4010SOL     OW12928   1.823   3.018   6.715
 4010SOL    HW112929   1.894   3.087   6.711
 4010SOL    HW212930   1.798   2.990   6.622
 4011SOL     OW12931   1.055   2.800   0.924
 4011SOL    HW112932   0.989   2.725   0.911
 4011SOL    HW212933   1.104   2.815   0.838
 4012SOL     OW12934   5.755   2.514   3.577
 4012SOL    HW112935   5.660   2.543   3.584
 4012SOL    HW212936   5.810   2.562   3.645
 4013SOL     OW12937   4.220   2.317   3.346
 4013SOL    HW112938   4.296   2.307   3.282
 4013SOL    HW212939   4.254   2.346   3.435
 4014SOL     OW12940   5.695   6.710   2.262
 4014SOL    HW112941   5.787   6.743   2.241
 4014SOL    HW212942   5.628   6.777   2.231
 4015SOL     OW12943   4.388   3.483   6.887
 4015SOL    HW112944   4.444   3.488   6.805
 4015SOL    HW212945   4.413   3.556   6.950
 4016SOL     OW12946   3.388   6.197   5.085
 4016SOL    HW112947   3.297   6.229   5.111
 4016SOL    HW212948   3.434   6.156   5.163
 4017SOL     OW12949   5.991   6.720   0.345
 4017SOL    HW112950   5.989   6.803   0.401
 4017SOL    HW212951   5.982   6.640   0.404
 4018SOL     OW12952   1.909   6.501   0.198
 4018SOL    HW112953   1.849   6.482   0.120
 4018SOL    HW212954   1.867   6.466   0.281
 4019SOL     OW12955   4.952   5.189   3.297
 4019SOL    HW112956   5.016   5.114   3.282
 4019SOL    HW212957   4.870   5.176   3.241
 4020SOL     OW12958   5.240   1.720   5.132
 4020SOL    HW112959   5.338   1.712   5.111
 4020SOL    HW212960   5.221   1.809   5.173
 4021SOL     OW12961   4.237   4.173   0.049
 4021SOL    HW112962   4.245   4.167   6.973
 4021SOL    HW212963   4.140   4.166   0.074
 4022SOL     OW12964   5.254   0.341   0.655
 4022SOL    HW112965   5.282   0.265   0.714
 4022SOL    HW212966   5.171   0.383   0.692
 4023SOL     OW12967   6.969   0.276   5.548
 4023SOL    HW112968   7.001   0.300   5.640
 4023SOL    HW212969   6.918   0.191   5.552
 4024SOL     OW12970   4.340   4.618   4.363
 4024SOL    HW112971   4.399   4.638   4.441
 4024SOL    HW212972   4.276   4.693   4.350
 4025SOL     OW12973   1.206   4.170   3.729
 4025SOL    HW112974   1.298   4.154   3.693
 4025SOL    HW212975   1.210   4.169   3.829
 4026SOL     OW12976   4.728   6.975   4.939
 4026SOL    HW112977   4.775   6.895   4.901
 4026SOL    HW212978   4.769   0.034   4.902
 4027SOL     OW12979   3.612   4.875   2.267
 4027SOL    HW112980   3.566   4.796   2.227
 4027SOL    HW212981   3.705   4.881   2.231
 4028SOL     OW12982   2.626   6.064   3.642
 4028SOL    HW112983   2.631   5.973   3.602
 4028SOL    HW212984   2.569   6.062   3.725
 4029SOL     OW12985   1.874   3.605   3.874
 4029SOL    HW112986   1.935   3.627   3.950
 4029SOL    HW212987   1.926   3.606   3.788
 4030SOL     OW12988   1.213   1.687   6.148
 4030SOL    HW112989   1.305   1.655   6.125
 4030SOL    HW212990   1.147   1.614   6.128
 4031SOL     OW12991   5.672   5.717   4.168
 4031SOL    HW112992   5.756   5.763   4.196
 4031SOL    HW212993   5.596   5.781   4.173
 4032SOL     OW12994   3.912   6.934   5.263
 4032SOL    HW112995   3.996   6.879   5.260
 4032SOL    HW212996   3.881   6.942   5.358
 4033SOL     OW12997   3.271   3.851   5.968
 4033SOL    HW112998   3.198   3.783   5.972
 4033SOL    HW212999   3.232   3.940   5.945
 4034SOL     OW13000   5.845   2.988   4.778
 4034SOL    HW113001   5.816   3.026   4.866
 4034SOL    HW213002   5.913   3.048   4.737
 4035SOL     OW13003   0.376   5.245   1.533
 4035SOL    HW113004   0.423   5.177   1.478
 4035SOL    HW213005   0.334   5.313   1.473
 4036SOL     OW13006   6.963   6.233   2.557
 4036SOL    HW113007   6.981   6.217   2.654
 4036SOL    HW213008   6.870   6.267   2.546
 4037SOL     OW13009   6.938   3.981   5.842
 4037SOL    HW113010   6.927   3.955   5.746
 4037SOL    HW213011   6.945   3.898   5.898
 4038SOL     OW13012   6.582   5.222   3.397
 4038SOL    HW113013   6.571   5.174   3.310
 4038SOL    HW213014   6.512   5.293   3.404
 4039SOL     OW13015   3.439   5.580   1.299
 4039SOL    HW113016   3.531   5.553   1.329
 4039SOL    HW213017   3.438   5.678   1.280
 4040SOL     OW13018   3.124   6.567   0.514
 4040SOL    HW113019   3.211   6.584   0.560
 4040SOL    HW213020   3.136   6.495   0.445
 4041SOL     OW13021   1.066   6.331   3.056
 4041SOL    HW113022   1.076   6.246   3.005
 4041SOL    HW213023   1.152   6.353   3.102
 4042SOL     OW13024   5.960   6.013   2.298
 4042SOL    HW113025   5.965   5.944   2.370
 4042SOL    HW213026   6.025   5.990   2.226
 4043SOL     OW13027   6.678   3.620   1.486
 4043SOL    HW113028   6.646   3.667   1.569
 4043SOL    HW213029   6.600   3.605   1.425
 4044SOL     OW13030   6.025   5.645   2.762
 4044SOL    HW113031   6.094   5.683   2.700
 4044SOL    HW213032   6.061   5.563   2.806
 4045SOL     OW13033   2.353   4.513   5.789
 4045SOL    HW113034   2.426   4.552   5.846
 4045SOL    HW213035   2.351   4.561   5.701
 4046SOL     OW13036   0.147   3.107   0.358
 4046SOL    HW113037   0.160   3.110   0.457
 4046SOL    HW213038   0.049   3.108   0.337
 4047SOL     OW13039   2.944   3.714   2.700
 4047SOL    HW113040   2.977   3.639   2.643
 4047SOL    HW213041   2.919   3.678   2.790
 4048SOL     OW13042   4.692   2.409   0.394
 4048SOL    HW113043   4.704   2.499   0.436
 4048SOL    HW213044   4.602   2.405   0.350
 4049SOL     OW13045   6.730   0.859   5.962
 4049SOL    HW113046   6.813   0.864   5.906
 4049SOL    HW213047   6.754   0.839   6.056
 4050SOL     OW13048   3.023   0.781   2.370
 4050SOL    HW113049   3.031   0.731   2.283
 4050SOL    HW213050   3.012   0.716   2.445
 4051SOL     OW13051   1.306   4.090   1.025
 4051SOL    HW113052   1.230   4.027   1.040
 4051SOL    HW213053   1.392   4.039   1.029
 4052SOL     OW13054   1.535   0.276   1.259
 4052SOL    HW113055   1.506   0.369   1.284
 4052SOL    HW213056   1.604   0.244   1.324
 4053SOL     OW13057   3.158   5.453   3.638
 4053SOL    HW113058   3.067   5.478   3.606
 4053SOL    HW213059   3.189   5.518   3.707
 4054SOL     OW13060   5.339   1.638   6.287
 4054SOL    HW113061   5.304   1.613   6.197
 4054SOL    HW213062   5.271   1.691   6.337
 4055SOL     OW13063   4.733   2.904   0.352
 4055SOL    HW113064   4.833   2.901   0.346
 4055SOL    HW213065   4.693   2.849   0.279
 4056SOL     OW13066   4.471   2.638   0.686
 4056SOL    HW113067   4.552   2.637   0.627
 4056SOL    HW213068   4.412   2.714   0.659
 4057SOL     OW13069   6.396   2.272   0.303
 4057SOL    HW113070   6.437   2.247   0.391
 4057SOL    HW213071   6.310   2.222   0.292
 4058SOL     OW13072   0.838   2.005   3.870
 4058SOL    HW113073   0.847   1.937   3.798
 4058SOL    HW213074   0.796   1.964   3.951
 4059SOL     OW13075   6.966   2.097   5.426
 4059SOL    HW113076   0.042   2.102   5.417
 4059SOL    HW213077   6.924   2.088   5.336
 4060SOL     OW13078   3.347   6.013   5.573
 4060SOL    HW113079   3.372   5.940   5.636
 4060SOL    HW213080   3.261   6.055   5.603
 4061SOL     OW13081   2.364   2.849   1.398
 4061SOL    HW113082   2.347   2.900   1.314
 4061SOL    HW213083   2.462   2.836   1.411
 4062SOL     OW13084   3.276   6.323   2.600
 4062SOL    HW113085   3.328   6.293   2.520
 4062SOL    HW213086   3.184   6.349   2.572
 4063SOL     OW13087   2.249   5.184   6.471
 4063SOL    HW113088   2.272   5.088   6.454
 4063SOL    HW213089   2.249   5.202   6.569
 4064SOL     OW13090   6.249   6.908   3.963
 4064SOL    HW113091   6.288   6.937   3.876
 4064SOL    HW213092   6.162   6.955   3.978
 4065SOL     OW13093   0.045   4.421   6.053
 4065SOL    HW113094   6.975   4.405   6.083
 4065SOL    HW213095   0.098   4.459   6.128
 4066SOL     OW13096   5.788   5.289   1.506
 4066SOL    HW113097   5.851   5.361   1.535
 4066SOL    HW213098   5.821   5.201   1.539
 4067SOL     OW13099   5.897   0.934   1.252
 4067SOL    HW113100   5.926   0.946   1.347
 4067SOL    HW213101   5.798   0.918   1.249
 4068SOL     OW13102   5.560   0.949   4.590
 4068SOL    HW113103   5.640   0.894   4.617
 4068SOL    HW213104   5.555   0.953   4.490
 4069SOL     OW13105   6.739   6.190   0.847
 4069SOL    HW113106   6.694   6.105   0.877
 4069SOL    HW213107   6.742   6.192   0.747
 4070SOL     OW13108   0.153   3.777   3.095
 4070SOL    HW113109   0.069   3.738   3.056
 4070SOL    HW213110   0.220   3.704   3.109
 4071SOL     OW13111   2.895   0.249   4.164
 4071SOL    HW113112   2.948   0.258   4.079
 4071SOL    HW213113   2.828   0.176   4.153
 4072SOL     OW13114   1.032   0.061   4.120
 4072SOL    HW113115   1.111   0.103   4.164
 4072SOL    HW213116   1.054   0.038   4.026
 4073SOL     OW13117   2.465   5.060   2.163
 4073SOL    HW113118   2.376   5.095   2.193
 4073SOL    HW213119   2.523   5.043   2.242
 4074SOL     OW13120   0.442   2.883   0.080
 4074SOL    HW113121   0.450   2.954   0.010
 4074SOL    HW213122   0.527   2.878   0.132
 4075SOL     OW13123   5.420   0.311   3.696
 4075SOL    HW113124   5.389   0.313   3.791
 4075SOL    HW213125   5.464   0.398   3.673
 4076SOL     OW13126   2.070   2.641   3.116
 4076SOL    HW113127   2.095   2.647   3.019
 4076SOL    HW213128   1.988   2.696   3.132
 4077SOL     OW13129   3.471   0.785   0.515
 4077SOL    HW113130   3.540   0.714   0.501
 4077SOL    HW213131   3.501   0.848   0.587
 4078SOL     OW13132   4.912   4.327   2.560
 4078SOL    HW113133   4.858   4.310   2.477
 4078SOL    HW213134   4.992   4.267   2.560
 4079SOL     OW13135   5.701   0.442   4.326
 4079SOL    HW113136   5.690   0.412   4.231
 4079SOL    HW213137   5.677   0.539   4.333
 4080SOL     OW13138   3.046   3.053   3.436
 4080SOL    HW113139   3.023   3.149   3.455
 4080SOL    HW213140   2.995   3.022   3.355
 4081SOL     OW13141   2.413   2.171   0.029
 4081SOL    HW113142   2.410   2.088   6.996
 4081SOL    HW213143   2.485   2.161   0.098
 4082SOL     OW13144   0.878   2.007   5.998
 4082SOL    HW113145   0.969   2.006   5.958
 4082SOL    HW213146   0.825   1.931   5.960
 4083SOL     OW13147   6.119   5.432   2.896
 4083SOL    HW113148   6.094   5.383   2.979
 4083SOL    HW213149   6.151   5.366   2.827
 4084SOL     OW13150   4.788   6.922   1.869
 4084SOL    HW113151   4.878   6.881   1.855
 4084SOL    HW213152   4.754   6.896   1.959
 4085SOL     OW13153   2.304   4.363   2.970
 4085SOL    HW113154   2.281   4.439   3.030
 4085SOL    HW213155   2.297   4.277   3.021
 4086SOL     OW13156   5.800   5.270   5.171
 4086SOL    HW113157   5.827   5.320   5.254
 4086SOL    HW213158   5.872   5.205   5.148
 4087SOL     OW13159   1.962   0.822   2.134
 4087SOL    HW113160   1.945   0.820   2.035
 4087SOL    HW213161   1.907   0.893   2.176
 4088SOL     OW13162   0.154   1.405   5.666
 4088SOL    HW113163   0.214   1.372   5.594
 4088SOL    HW213164   0.097   1.330   5.700
 4089SOL     OW13165   1.452   0.777   2.677
 4089SOL    HW113166   1.529   0.714   2.685
 4089SOL    HW213167   1.487   0.869   2.656
 4090SOL     OW13168   2.959   2.415   5.627
 4090SOL    HW113169   2.993   2.418   5.533
 4090SOL    HW213170   2.921   2.325   5.647
 4091SOL     OW13171   3.387   6.227   2.390
 4091SOL    HW113172   3.340   6.141   2.373
 4091SOL    HW213173   3.459   6.240   2.322
 4092SOL     OW13174   5.672   1.689   5.931
 4092SOL    HW113175   5.679   1.700   6.030
 4092SOL    HW213176   5.610   1.613   5.910
 4093SOL     OW13177   5.550   3.886   3.093
 4093SOL    HW113178   5.483   3.942   3.044
 4093SOL    HW213179   5.626   3.864   3.032
 4094SOL     OW13180   6.810   6.744   0.321
 4094SOL    HW113181   6.902   6.772   0.347
 4094SOL    HW213182   6.772   6.683   0.391
 4095SOL     OW13183   1.934   5.394   0.681
 4095SOL    HW113184   1.835   5.383   0.691
 4095SOL    HW213185   1.976   5.407   0.771
 4096SOL     OW13186   0.623   0.231   6.472
 4096SOL    HW113187   0.645   0.309   6.530
 4096SOL    HW213188   0.528   0.203   6.489
 4097SOL     OW13189   0.725   3.636   5.885
 4097SOL    HW113190   0.663   3.558   5.890
 4097SOL    HW213191   0.681   3.711   5.836
 4098SOL     OW13192   1.245   6.045   1.871
 4098SOL    HW113193   1.160   6.031   1.820
 4098SOL    HW213194   1.234   6.010   1.964
 4099SOL     OW13195   6.751   3.461   5.307
 4099SOL    HW113196   6.741   3.364   5.283
 4099SOL    HW213197   6.723   3.476   5.401
 4100SOL     OW13198   2.476   0.489   3.415
 4100SOL    HW113199   2.495   0.443   3.502
 4100SOL    HW213200   2.454   0.421   3.346
 4101SOL     OW13201   5.976   5.813   5.967
 4101SOL    HW113202   5.912   5.867   5.914
 4101SOL    HW213203   5.941   5.720   5.978
 4102SOL     OW13204   1.332   5.668   0.366
 4102SOL    HW113205   1.417   5.707   0.402
 4102SOL    HW213206   1.353   5.582   0.318
 4103SOL     OW13207   2.638   5.737   2.696
 4103SOL    HW113208   2.731   5.701   2.685
 4103SOL    HW213209   2.616   5.741   2.794
 4104SOL     OW13210   1.722   6.201   5.346
 4104SOL    HW113211   1.648   6.137   5.326
 4104SOL    HW213212   1.810   6.154   5.338
 4105SOL     OW13213   3.704   6.669   1.818
 4105SOL    HW113214   3.765   6.591   1.832
 4105SOL    HW213215   3.623   6.639   1.769
 4106SOL     OW13216   1.653   6.996   2.357
 4106SOL    HW113217   1.719   0.047   2.371
 4106SOL    HW213218   1.584   0.001   2.291
 4107SOL     OW13219   1.472   1.291   0.955
 4107SOL    HW113220   1.455   1.383   0.922
 4107SOL    HW213221   1.505   1.233   0.880
 4108SOL     OW13222   6.841   6.612   5.407
 4108SOL    HW113223   6.902   6.576   5.478
 4108SOL    HW213224   6.789   6.537   5.367
 4109SOL     OW13225   4.843   6.523   4.743
 4109SOL    HW113226   4.747   6.521   4.713
 4109SOL    HW213227   4.866   6.437   4.788
 4110SOL     OW13228   4.320   3.001   0.362
 4110SOL    HW113229   4.420   3.009   0.354
 4110SOL    HW213230   4.292   2.908   0.342
 4111SOL     OW13231   5.970   4.651   3.738
 4111SOL    HW113232   5.943   4.736   3.692
 4111SOL    HW213233   5.902   4.580   3.719
 4112SOL     OW13234   4.060   5.864   4.851
 4112SOL    HW113235   4.091   5.775   4.887
 4112SOL    HW213236   3.996   5.848   4.775
 4113SOL     OW13237   4.698   5.131   5.139
 4113SOL    HW113238   4.690   5.197   5.064
 4113SOL    HW213239   4.752   5.171   5.213
 4114SOL     OW13240   0.371   0.605   2.145
 4114SOL    HW113241   0.321   0.584   2.229
 4114SOL    HW213242   0.420   0.691   2.157
 4115SOL     OW13243   3.867   5.553   4.565
 4115SOL    HW113244   3.865   5.520   4.660
 4115SOL    HW213245   3.946   5.515   4.518
 4116SOL     OW13246   6.209   3.597   3.801
 4116SOL    HW113247   6.231   3.499   3.794
 4116SOL    HW213248   6.177   3.617   3.894
 4117SOL     OW13249   6.894   1.526   2.886
 4117SOL    HW113250   6.861   1.471   2.810
 4117SOL    HW213251   6.944   1.467   2.950
 4118SOL     OW13252   1.764   0.402   1.130
 4118SOL    HW113253   1.850   0.356   1.152
 4118SOL    HW213254   1.725   0.441   1.214
 4119SOL     OW13255   0.143   0.671   5.133
 4119SOL    HW113256   0.152   0.577   5.098
 4119SOL    HW213257   0.046   0.697   5.135
 4120SOL     OW13258   2.190   0.906   6.192
 4120SOL    HW113259   2.244   0.971   6.139
 4120SOL    HW213260   2.118   0.867   6.134
 4121SOL     OW13261   6.655   1.049   1.393
 4121SOL    HW113262   6.610   1.135   1.370
 4121SOL    HW213263   6.712   1.020   1.315
 4122SOL     OW13264   1.079   4.780   2.928
 4122SOL    HW113265   1.061   4.722   2.848
 4122SOL    HW213266   1.124   4.864   2.899
 4123SOL     OW13267   5.908   4.486   1.629
 4123SOL    HW113268   5.972   4.542   1.680
 4123SOL    HW213269   5.947   4.464   1.539
 4124SOL     OW13270   6.260   0.254   0.362
 4124SOL    HW113271   6.287   0.181   0.424
 4124SOL    HW213272   6.164   0.276   0.375
 4125SOL     OW13273   0.124   2.837   6.722
 4125SOL    HW113274   0.056   2.851   6.794
 4125SOL    HW213275   0.144   2.925   6.677
 4126SOL     OW13276   1.477   4.357   4.019
 4126SOL    HW113277   1.533   4.432   4.053
 4126SOL    HW213278   1.534   4.276   4.006
 4127SOL     OW13279   5.046   2.196   3.848
 4127SOL    HW113280   5.079   2.102   3.854
 4127SOL    HW213281   5.049   2.239   3.938
 4128SOL     OW13282   6.665   2.311   6.172
 4128SOL    HW113283   6.630   2.404   6.160
 4128SOL    HW213284   6.648   2.282   6.266
 4129SOL     OW13285   3.516   1.183   1.392
 4129SOL    HW113286   3.540   1.276   1.366
 4129SOL    HW213287   3.496   1.129   1.310
 4130SOL     OW13288   5.451   2.806   0.371
 4130SOL    HW113289   5.509   2.887   0.363
 4130SOL    HW213290   5.362   2.824   0.328
 4131SOL     OW13291   4.780   6.231   3.804
 4131SOL    HW113292   4.825   6.320   3.809
 4131SOL    HW213293   4.686   6.240   3.837
 4132SOL     OW13294   6.567   4.197   3.102
 4132SOL    HW113295   6.476   4.159   3.120
 4132SOL    HW213296   6.634   4.147   3.157
 4133SOL     OW13297   5.474   6.016   3.514
 4133SOL    HW113298   5.518   5.950   3.453
 4133SOL    HW213299   5.502   5.999   3.608
 4134SOL     OW13300   1.456   3.719   1.228
 4134SOL    HW113301   1.480   3.728   1.325
 4134SOL    HW213302   1.458   3.623   1.202
 4135SOL     OW13303   6.348   1.351   1.039
 4135SOL    HW113304   6.373   1.390   0.951
 4135SOL    HW213305   6.379   1.256   1.044
 4136SOL     OW13306   0.896   4.488   0.338
 4136SOL    HW113307   0.982   4.538   0.345
 4136SOL    HW213308   0.837   4.513   0.415
 4137SOL     OW13309   6.845   2.946   5.848
 4137SOL    HW113310   6.878   2.997   5.927
 4137SOL    HW213311   6.879   2.852   5.852
 4138SOL     OW13312   5.215   0.199   6.363
 4138SOL    HW113313   5.126   0.244   6.353
 4138SOL    HW213314   5.276   0.257   6.417
 4139SOL     OW13315   1.661   4.311   2.452
 4139SOL    HW113316   1.612   4.337   2.369
 4139SOL    HW213317   1.739   4.371   2.466
 4140SOL     OW13318   2.352   0.294   6.734
 4140SOL    HW113319   2.449   0.281   6.714
 4140SOL    HW213320   2.306   0.331   6.653
 4141SOL     OW13321   5.529   0.796   6.136
 4141SOL    HW113322   5.544   0.701   6.109
 4141SOL    HW213323   5.553   0.808   6.232
 4142SOL     OW13324   6.349   5.840   1.570
 4142SOL    HW113325   6.325   5.755   1.525
 4142SOL    HW213326   6.426   5.883   1.523
 4143SOL     OW13327   6.370   3.789   6.643
 4143SOL    HW113328   6.305   3.855   6.681
 4143SOL    HW213329   6.367   3.793   6.543
 4144SOL     OW13330   4.281   0.565   1.331
 4144SOL    HW113331   4.279   0.477   1.283
 4144SOL    HW213332   4.375   0.599   1.335
 4145SOL     OW13333   5.332   0.436   1.254
 4145SOL    HW113334   5.234   0.457   1.250
 4145SOL    HW213335   5.380   0.488   1.184
 4146SOL     OW13336   4.669   0.192   2.280
 4146SOL    HW113337   4.613   0.259   2.232
 4146SOL    HW213338   4.764   0.199   2.248
 4147SOL     OW13339   4.607   4.675   0.023
 4147SOL    HW113340   4.594   4.645   0.117
 4147SOL    HW213341   4.657   4.762   0.022
 4148SOL     OW13342   2.895   1.533   6.046
 4148SOL    HW113343   2.796   1.543   6.061
 4148SOL    HW213344   2.939   1.502   6.130
 4149SOL     OW13345   1.342   3.523   6.262
 4149SOL    HW113346   1.341   3.580   6.180
 4149SOL    HW213347   1.325   3.579   6.343
 4150SOL     OW13348   5.804   1.358   0.330
 4150SOL    HW113349   5.861   1.397   0.257
 4150SOL    HW213350   5.858   1.351   0.414
 4151SOL     OW13351   2.460   6.154   4.759
 4151SOL    HW113352   2.546   6.120   4.723
 4151SOL    HW213353   2.450   6.124   4.854
 4152SOL     OW13354   2.894   3.836   1.152
 4152SOL    HW113355   2.932   3.837   1.060
 4152SOL    HW213356   2.863   3.928   1.176
 4153SOL     OW13357   6.836   5.922   2.120
 4153SOL    HW113358   6.889   5.840   2.096
 4153SOL    HW213359   6.852   5.944   2.216
 4154SOL     OW13360   0.437   6.963   4.266
 4154SOL    HW113361   0.361   6.934   4.325
 4154SOL    HW213362   0.470   6.884   4.214
 4155SOL     OW13363   6.208   0.863   2.121
 4155SOL    HW113364   6.119   0.823   2.101
 4155SOL    HW213365   6.231   0.847   2.217
 4156SOL     OW13366   0.573   4.336   5.844
 4156SOL    HW113367   0.534   4.420   5.882
 4156SOL    HW213368   0.550   4.330   5.747
 4157SOL     OW13369   5.166   5.649   1.094
 4157SOL    HW113370   5.211   5.702   1.166
 4157SOL    HW213371   5.076   5.619   1.126
 4158SOL     OW13372   0.162   2.601   0.699
 4158SOL    HW113373   0.080   2.612   0.642
 4158SOL    HW213374   0.169   2.678   0.763
 4159SOL     OW13375   3.249   0.686   4.757
 4159SOL    HW113376   3.231   0.773   4.803
 4159SOL    HW213377   3.164   0.651   4.718
 4160SOL     OW13378   1.831   6.781   5.920
 4160SOL    HW113379   1.785   6.807   6.005
 4160SOL    HW213380   1.906   6.718   5.940
 4161SOL     OW13381   3.572   2.856   3.418
 4161SOL    HW113382   3.512   2.904   3.354
 4161SOL    HW213383   3.584   2.761   3.388
 4162SOL     OW13384   5.478   6.072   1.552
 4162SOL    HW113385   5.461   6.000   1.619
 4162SOL    HW213386   5.415   6.062   1.475
 4163SOL     OW13387   3.704   5.486   1.408
 4163SOL    HW113388   3.708   5.486   1.507
 4163SOL    HW213389   3.669   5.398   1.376
 4164SOL     OW13390   5.289   1.871   6.681
 4164SOL    HW113391   5.242   1.811   6.745
 4164SOL    HW213392   5.246   1.864   6.591
 4165SOL     OW13393   3.434   1.814   4.356
 4165SOL    HW113394   3.528   1.803   4.325
 4165SOL    HW213395   3.405   1.909   4.343
 4166SOL     OW13396   6.144   1.993   1.941
 4166SOL    HW113397   6.212   1.934   1.984
 4166SOL    HW213398   6.053   1.953   1.954
 4167SOL     OW13399   3.884   5.185   4.598
 4167SOL    HW113400   3.892   5.268   4.654
 4167SOL    HW213401   3.796   5.185   4.552
 4168SOL     OW13402   5.325   4.126   0.236
 4168SOL    HW113403   5.356   4.109   0.329
 4168SOL    HW213404   5.264   4.205   0.235
 4169SOL     OW13405   5.328   3.376   6.963
 4169SOL    HW113406   5.246   3.405   7.013
 4169SOL    HW213407   5.358   3.450   6.903
 4170SOL     OW13408   1.034   3.003   5.124
 4170SOL    HW113409   1.030   3.052   5.037
 4170SOL    HW213410   0.999   3.062   5.197
 4171SOL     OW13411   0.356   1.341   5.912
 4171SOL    HW113412   0.413   1.423   5.923
 4171SOL    HW213413   0.268   1.368   5.871
 4172SOL     OW13414   2.439   2.416   6.398
 4172SOL    HW113415   2.434   2.439   6.495
 4172SOL    HW213416   2.350   2.386   6.366
 4173SOL     OW13417   4.824   1.590   5.418
 4173SOL    HW113418   4.897   1.569   5.353
 4173SOL    HW213419   4.808   1.511   5.478
 4174SOL     OW13420   3.658   6.476   4.116
 4174SOL    HW113421   3.683   6.401   4.178
 4174SOL    HW213422   3.700   6.561   4.148
 4175SOL     OW13423   1.334   4.637   6.496
 4175SOL    HW113424   1.236   4.618   6.493
 4175SOL    HW213425   1.366   4.633   6.590
 4176SOL     OW13426   4.983   6.946   5.697
 4176SOL    HW113427   4.971   6.988   5.607
 4176SOL    HW213428   5.073   6.904   5.702
 4177SOL     OW13429   3.948   5.186   3.021
 4177SOL    HW113430   3.959   5.200   2.923
 4177SOL    HW213431   3.880   5.249   3.057
 4178SOL     OW13432   3.809   6.256   1.493
 4178SOL    HW113433   3.841   6.265   1.587
 4178SOL    HW213434   3.793   6.347   1.454
 4179SOL     OW13435   4.518   2.497   6.774
 4179SOL    HW113436   4.577   2.438   6.829
 4179SOL    HW213437   4.428   2.503   6.818
 4180SOL     OW13438   3.779   3.590   0.421
 4180SOL    HW113439   3.875   3.585   0.448
 4180SOL    HW213440   3.746   3.499   0.397
 4181SOL     OW13441   5.542   6.408   5.663
 4181SOL    HW113442   5.543   6.394   5.564
 4181SOL    HW213443   5.487   6.489   5.685
 4182SOL     OW13444   0.516   5.770   5.644
 4182SOL    HW113445   0.506   5.679   5.684
 4182SOL    HW213446   0.463   5.836   5.697
 4183SOL     OW13447   4.569   1.946   0.111
 4183SOL    HW113448   4.661   1.926   0.143
 4183SOL    HW213449   4.573   2.011   0.035
 4184SOL     OW13450   3.617   5.553   3.420
 4184SOL    HW113451   3.633   5.567   3.322
 4184SOL    HW213452   3.519   5.544   3.437
 4185SOL     OW13453   4.938   3.709   3.601
 4185SOL    HW113454   4.979   3.780   3.659
 4185SOL    HW213455   4.914   3.748   3.512
 4186SOL     OW13456   1.663   5.215   0.221
 4186SOL    HW113457   1.644   5.120   0.245
 4186SOL    HW213458   1.597   5.246   0.153
 4187SOL     OW13459   2.391   3.976   6.046
 4187SOL    HW113460   2.456   3.903   6.025
 4187SOL    HW213461   2.439   4.064   6.040
 4188SOL     OW13462   4.794   0.374   6.618
 4188SOL    HW113463   4.837   0.398   6.705
 4188SOL    HW213464   4.755   0.456   6.576
 4189SOL     OW13465   4.703   5.192   3.138
 4189SOL    HW113466   4.622   5.232   3.181
 4189SOL    HW213467   4.704   5.216   3.041
 4190SOL     OW13468   6.072   6.829   1.782
 4190SOL    HW113469   6.147   6.833   1.848
 4190SOL    HW213470   5.990   6.792   1.827
 4191SOL     OW13471   4.347   3.094   6.484
 4191SOL    HW113472   4.315   3.134   6.570
 4191SOL    HW213473   4.348   2.994   6.493
 4192SOL     OW13474   1.649   3.493   6.272
 4192SOL    HW113475   1.550   3.486   6.280
 4192SOL    HW213476   1.686   3.408   6.234
 4193SOL     OW13477   6.856   0.811   0.159
 4193SOL    HW113478   6.941   0.757   0.158
 4193SOL    HW213479   6.798   0.779   0.234
 4194SOL     OW13480   5.941   1.074   6.466
 4194SOL    HW113481   5.982   1.119   6.387
 4194SOL    HW213482   5.938   1.138   6.543
 4195SOL     OW13483   2.803   6.563   1.055
 4195SOL    HW113484   2.787   6.486   1.116
 4195SOL    HW213485   2.864   6.535   0.981
 4196SOL     OW13486   0.223   2.423   3.054
 4196SOL    HW113487   0.286   2.347   3.040
 4196SOL    HW213488   0.261   2.485   3.123
 4197SOL     OW13489   3.351   1.139   0.037
 4197SOL    HW113490   3.446   1.111   0.021
 4197SOL    HW213491   3.295   1.115   6.981
 4198SOL     OW13492   6.624   2.007   2.062
 4198SOL    HW113493   6.712   2.036   2.024
 4198SOL    HW213494   6.628   2.010   2.162
 4199SOL     OW13495   0.425   3.629   6.640
 4199SOL    HW113496   0.471   3.544   6.666
 4199SOL    HW213497   0.493   3.696   6.610
 4200SOL     OW13498   4.892   1.698   3.676
 4200SOL    HW113499   4.927   1.631   3.610
 4200SOL    HW213500   4.824   1.756   3.633
 4201SOL     OW13501   5.623   6.917   4.721
 4201SOL    HW113502   5.645   6.861   4.641
 4201SOL    HW213503   5.682   6.998   4.721
 4202SOL     OW13504   4.667   4.106   1.614
 4202SOL    HW113505   4.649   4.080   1.519
 4202SOL    HW213506   4.619   4.191   1.635
 4203SOL     OW13507   5.670   4.486   5.722
 4203SOL    HW113508   5.723   4.571   5.716
 4203SOL    HW213509   5.630   4.478   5.813
 4204SOL     OW13510   1.671   4.321   6.394
 4204SOL    HW113511   1.638   4.413   6.373
 4204SOL    HW213512   1.609   4.254   6.355
 4205SOL     OW13513   4.617   6.629   6.459
 4205SOL    HW113514   4.664   6.550   6.418
 4205SOL    HW213515   4.544   6.596   6.518
 4206SOL     OW13516   2.407   1.780   4.458
 4206SOL    HW113517   2.459   1.704   4.497
 4206SOL    HW213518   2.436   1.795   4.363
 4207SOL     OW13519   1.517   2.180   2.224
 4207SOL    HW113520   1.463   2.152   2.303
 4207SOL    HW213521   1.461   2.238   2.165
 4208SOL     OW13522   2.535   2.540   3.876
 4208SOL    HW113523   2.497   2.591   3.954
 4208SOL    HW213524   2.608   2.480   3.908
 4209SOL     OW13525   6.590   5.682   1.998
 4209SOL    HW113526   6.607   5.588   1.968
 4209SOL    HW213527   6.618   5.746   1.926
 4210SOL     OW13528   3.007   4.291   5.228
 4210SOL    HW113529   2.988   4.383   5.193
 4210SOL    HW213530   2.936   4.266   5.294
 4211SOL     OW13531   3.541   3.025   5.576
 4211SOL    HW113532   3.445   3.019   5.547
 4211SOL    HW213533   3.572   2.936   5.609
 4212SOL     OW13534   0.597   2.299   2.885
 4212SOL    HW113535   0.503   2.292   2.917
 4212SOL    HW213536   0.656   2.326   2.962
 4213SOL     OW13537   3.924   0.269   3.996
 4213SOL    HW113538   3.929   0.181   4.044
 4213SOL    HW213539   3.938   0.254   3.898
 4214SOL     OW13540   6.575   6.029   3.298
 4214SOL    HW113541   6.498   5.966   3.305
 4214SOL    HW213542   6.648   6.000   3.361
 4215SOL     OW13543   5.963   0.622   5.907
 4215SOL    HW113544   5.883   0.680   5.919
 4215SOL    HW213545   5.989   0.620   5.810
 4216SOL     OW13546   2.460   5.450   2.158
 4216SOL    HW113547   2.392   5.473   2.088
 4216SOL    HW213548   2.543   5.417   2.114
 4217SOL     OW13549   1.714   0.223   3.214
 4217SOL    HW113550   1.748   0.294   3.275
 4217SOL    HW213551   1.621   0.197   3.240
 4218SOL     OW13552   2.993   0.966   2.010
 4218SOL    HW113553   2.968   0.987   2.105
 4218SOL    HW213554   3.092   0.970   1.999
 4219SOL     OW13555   3.747   4.893   3.575
 4219SOL    HW113556   3.800   4.841   3.641
 4219SOL    HW213557   3.704   4.971   3.621
 4220SOL     OW13558   6.320   2.004   0.889
 4220SOL    HW113559   6.415   2.032   0.897
 4220SOL    HW213560   6.274   2.062   0.822
 4221SOL     OW13561   0.284   6.294   0.287
 4221SOL    HW113562   0.280   6.368   0.219
 4221SOL    HW213563   0.247   6.210   0.247
 4222SOL     OW13564   4.829   3.145   4.421
 4222SOL    HW113565   4.800   3.111   4.331
 4222SOL    HW213566   4.829   3.245   4.421
 4223SOL     OW13567   3.554   3.994   2.756
 4223SOL    HW113568   3.528   3.901   2.731
 4223SOL    HW213569   3.477   4.039   2.802
 4224SOL     OW13570   4.486   4.838   4.132
 4224SOL    HW113571   4.429   4.771   4.085
 4224SOL    HW213572   4.440   4.866   4.217
 4225SOL     OW13573   1.097   2.006   5.841
 4225SOL    HW113574   1.172   2.014   5.907
 4225SOL    HW213575   1.134   1.983   5.751
 4226SOL     OW13576   0.002   4.626   4.855
 4226SOL    HW113577   6.973   4.711   4.851
 4226SOL    HW213578   0.055   4.624   4.939
 4227SOL     OW13579   4.744   5.280   1.814
 4227SOL    HW113580   4.693   5.195   1.799
 4227SOL    HW213581   4.786   5.278   1.905
 4228SOL     OW13582   1.510   4.758   3.546
 4228SOL    HW113583   1.453   4.677   3.560
 4228SOL    HW213584   1.454   4.833   3.512
 4229SOL     OW13585   6.013   6.190   5.578
 4229SOL    HW113586   6.033   6.273   5.525
 4229SOL    HW213587   5.957   6.128   5.524
 4230SOL     OW13588   6.866   1.360   1.739
 4230SOL    HW113589   6.945   1.386   1.796
 4230SOL    HW213590   6.889   1.277   1.688
 4231SOL     OW13591   0.460   0.611   6.187
 4231SOL    HW113592   0.364   0.634   6.173
 4231SOL    HW213593   0.494   0.561   6.107
 4232SOL     OW13594   1.549   5.017   4.246
 4232SOL    HW113595   1.645   5.009   4.220
 4232SOL    HW213596   1.512   4.926   4.268
 4233SOL     OW13597   4.553   5.523   2.456
 4233SOL    HW113598   4.634   5.541   2.400
 4233SOL    HW213599   4.568   5.558   2.548
 4234SOL     OW13600   3.595   5.535   5.696
 4234SOL    HW113601   3.592   5.584   5.609
 4234SOL    HW213602   3.687   5.497   5.710
 4235SOL     OW13603   6.888   5.762   6.263
 4235SOL    HW113604   6.906   5.798   6.354
 4235SOL    HW213605   6.827   5.824   6.214
 4236SOL     OW13606   0.106   5.595   3.116
 4236SOL    HW113607   0.010   5.608   3.141
 4236SOL    HW213608   0.136   5.505   3.149
 4237SOL     OW13609   0.063   4.524   3.768
 4237SOL    HW113610   0.115   4.606   3.793
 4237SOL    HW213611   0.114   4.442   3.795
 4238SOL     OW13612   3.018   6.062   2.630
 4238SOL    HW113613   3.061   6.116   2.702
 4238SOL    HW213614   2.924   6.040   2.657
 4239SOL     OW13615   4.321   1.315   3.637
 4239SOL    HW113616   4.402   1.280   3.591
 4239SOL    HW213617   4.240   1.267   3.604
 4240SOL     OW13618   5.722   0.094   1.509
 4240SOL    HW113619   5.661   0.078   1.432
 4240SOL    HW213620   5.775   0.178   1.493
 4241SOL     OW13621   6.538   4.542   0.458
 4241SOL    HW113622   6.638   4.542   0.453
 4241SOL    HW213623   6.510   4.506   0.547
 4242SOL     OW13624   3.307   2.147   3.588
 4242SOL    HW113625   3.371   2.145   3.511
 4242SOL    HW213626   3.357   2.131   3.673
 4243SOL     OW13627   4.173   1.513   2.651
 4243SOL    HW113628   4.165   1.604   2.691
 4243SOL    HW213629   4.133   1.515   2.559
 4244SOL     OW13630   3.200   3.113   4.763
 4244SOL    HW113631   3.148   3.080   4.684
 4244SOL    HW213632   3.165   3.070   4.846
 4245SOL     OW13633   5.991   0.367   6.901
 4245SOL    HW113634   5.942   0.280   6.892
 4245SOL    HW213635   6.079   0.351   6.946
 4246SOL     OW13636   6.631   4.258   6.666
 4246SOL    HW113637   6.629   4.167   6.624
 4246SOL    HW213638   6.542   4.276   6.708
 4247SOL     OW13639   0.392   6.011   5.096
 4247SOL    HW113640   0.472   5.976   5.048
 4247SOL    HW213641   0.415   6.024   5.193
 4248SOL     OW13642   2.382   3.892   6.490
 4248SOL    HW113643   2.355   3.807   6.535
 4248SOL    HW213644   2.473   3.882   6.451
 4249SOL     OW13645   5.365   3.835   5.633
 4249SOL    HW113646   5.274   3.875   5.645
 4249SOL    HW213647   5.362   3.739   5.658
 4250SOL     OW13648   1.148   4.152   3.396
 4250SOL    HW113649   1.138   4.249   3.417
 4250SOL    HW213650   1.240   4.133   3.362
 4251SOL     OW13651   5.459   4.905   0.030
 4251SOL    HW113652   5.545   4.887   7.006
 4251SOL    HW213653   5.399   4.825   0.022
 4252SOL     OW13654   6.817   5.583   4.946
 4252SOL    HW113655   6.784   5.520   5.016
 4252SOL    HW213656   6.740   5.624   4.898
 4253SOL     OW13657   3.898   5.832   2.693
 4253SOL    HW113658   3.811   5.871   2.720
 4253SOL    HW213659   3.884   5.737   2.663
 4254SOL     OW13660   3.017   3.705   1.701
 4254SOL    HW113661   2.979   3.794   1.676
 4254SOL    HW213662   2.995   3.639   1.629
 4255SOL     OW13663   0.195   1.832   4.548
 4255SOL    HW113664   0.220   1.923   4.515
 4255SOL    HW213665   0.134   1.788   4.482
 4256SOL     OW13666   2.104   1.050   2.024
 4256SOL    HW113667   2.121   1.002   2.109
 4256SOL    HW213668   2.052   1.134   2.042
 4257SOL     OW13669   4.378   2.259   5.124
 4257SOL    HW113670   4.297   2.298   5.081
 4257SOL    HW213671   4.433   2.212   5.056
 4258SOL     OW13672   4.977   6.360   3.110
 4258SOL    HW113673   4.965   6.327   3.203
 4258SOL    HW213674   5.001   6.284   3.050
 4259SOL     OW13675   1.822   3.205   1.138
 4259SOL    HW113676   1.796   3.257   1.219
 4259SOL    HW213677   1.742   3.161   1.099
 4260SOL     OW13678   3.940   5.648   4.014
 4260SOL    HW113679   4.031   5.650   3.972
 4260SOL    HW213680   3.948   5.652   4.113
 4261SOL     OW13681   1.214   1.493   2.876
 4261SOL    HW113682   1.117   1.481   2.855
 4261SOL    HW213683   1.243   1.424   2.941
 4262SOL     OW13684   0.083   6.540   6.309
 4262SOL    HW113685   0.115   6.592   6.230
 4262SOL    HW213686   0.154   6.476   6.338
 4263SOL     OW13687   4.223   5.129   6.559
 4263SOL    HW113688   4.163   5.050   6.570
 4263SOL    HW213689   4.302   5.103   6.503
 4264SOL     OW13690   0.053   0.346   1.502
 4264SOL    HW113691   0.004   0.389   1.577
 4264SOL    HW213692   0.070   0.250   1.525
 4265SOL     OW13693   1.465   1.990   0.057
 4265SOL    HW113694   1.446   2.089   0.055
 4265SOL    HW213695   1.562   1.975   0.074
 4266SOL     OW13696   3.233   4.700   1.349
 4266SOL    HW113697   3.330   4.680   1.353
 4266SOL    HW213698   3.195   4.706   1.441
 4267SOL     OW13699   1.718   4.433   6.016
 4267SOL    HW113700   1.706   4.483   5.930
 4267SOL    HW213701   1.814   4.437   6.045
 4268SOL     OW13702   1.923   0.645   0.767
 4268SOL    HW113703   1.954   0.630   0.673
 4268SOL    HW213704   1.907   0.556   0.811
 4269SOL     OW13705   2.488   4.483   0.827
 4269SOL    HW113706   2.431   4.562   0.850
 4269SOL    HW213707   2.551   4.465   0.902
 4270SOL     OW13708   3.754   2.849   6.452
 4270SOL    HW113709   3.748   2.919   6.381
 4270SOL    HW213710   3.828   2.870   6.516
 4271SOL     OW13711   1.386   0.352   0.499
 4271SOL    HW113712   1.314   0.399   0.449
 4271SOL    HW213713   1.348   0.307   0.579
 4272SOL     OW13714   6.902   3.723   3.801
 4272SOL    HW113715   6.816   3.686   3.767
 4272SOL    HW213716   6.971   3.718   3.729
 4273SOL     OW13717   5.701   6.792   4.028
 4273SOL    HW113718   5.629   6.751   4.083
 4273SOL    HW213719   5.685   6.771   3.931
 4274SOL     OW13720   2.035   0.523   3.890
 4274SOL    HW113721   1.965   0.586   3.855
 4274SOL    HW213722   2.068   0.556   3.978
 4275SOL     OW13723   0.834   0.242   6.265
 4275SOL    HW113724   0.924   0.275   6.294
 4275SOL    HW213725   0.774   0.235   6.344
 4276SOL     OW13726   2.029   4.725   2.475
 4276SOL    HW113727   2.115   4.738   2.524
 4276SOL    HW213728   2.039   4.759   2.381
 4277SOL     OW13729   0.932   5.214   5.069
 4277SOL    HW113730   0.863   5.218   4.996
 4277SOL    HW213731   0.908   5.277   5.142
 4278SOL     OW13732   1.468   6.628   6.032
 4278SOL    HW113733   1.474   6.632   5.932
 4278SOL    HW213734   1.551   6.669   6.072
 4279SOL     OW13735   2.974   6.011   4.274
 4279SOL    HW113736   2.958   5.925   4.225
 4279SOL    HW213737   3.072   6.024   4.288
 4280SOL     OW13738   4.800   2.851   3.607
 4280SOL    HW113739   4.812   2.889   3.699
 4280SOL    HW213740   4.738   2.773   3.611
 4281SOL     OW13741   2.500   4.135   5.353
 4281SOL    HW113742   2.544   4.204   5.295
 4281SOL    HW213743   2.464   4.061   5.295
 4282SOL     OW13744   0.434   2.989   0.640
 4282SOL    HW113745   0.460   2.903   0.596
 4282SOL    HW213746   0.343   3.017   0.611
 4283SOL     OW13747   2.566   0.689   4.870
 4283SOL    HW113748   2.624   0.762   4.835
 4283SOL    HW213749   2.516   0.647   4.795
 4284SOL     OW13750   0.137   1.805   2.832
 4284SOL    HW113751   0.042   1.790   2.806
 4284SOL    HW213752   0.170   1.726   2.884
 4285SOL     OW13753   0.836   6.072   4.510
 4285SOL    HW113754   0.877   5.989   4.547
 4285SOL    HW213755   0.773   6.110   4.578
 4286SOL     OW13756   5.299   5.885   6.685
 4286SOL    HW113757   5.376   5.927   6.732
 4286SOL    HW213758   5.235   5.848   6.751
 4287SOL     OW13759   3.962   6.550   5.659
 4287SOL    HW113760   4.019   6.471   5.638
 4287SOL    HW213761   3.866   6.529   5.640
 4288SOL     OW13762   1.260   6.149   3.134
 4288SOL    HW113763   1.160   6.143   3.136
 4288SOL    HW213764   1.293   6.104   3.051
 4289SOL     OW13765   6.649   3.726   0.317
 4289SOL    HW113766   6.722   3.777   0.271
 4289SOL    HW213767   6.682   3.693   0.405
 4290SOL     OW13768   2.198   1.870   3.507
 4290SOL    HW113769   2.272   1.937   3.507
 4290SOL    HW213770   2.134   1.891   3.433
 4291SOL     OW13771   6.628   4.399   1.364
 4291SOL    HW113772   6.639   4.391   1.265
 4291SOL    HW213773   6.716   4.385   1.409
 4292SOL     OW13774   5.561   5.478   5.946
 4292SOL    HW113775   5.523   5.508   5.858
 4292SOL    HW213776   5.542   5.547   6.015
 4293SOL     OW13777   0.010   2.412   6.412
 4293SOL    HW113778   0.109   2.401   6.410
 4293SOL    HW213779   7.010   2.490   6.470
 4294SOL     OW13780   5.024   2.300   5.673
 4294SOL    HW113781   5.053   2.386   5.715
 4294SOL    HW213782   5.019   2.229   5.743
 4295SOL     OW13783   3.692   6.062   5.609
 4295SOL    HW113784   3.657   6.125   5.678
 4295SOL    HW213785   3.624   6.051   5.536
 4296SOL     OW13786   2.515   1.443   2.636
 4296SOL    HW113787   2.508   1.371   2.566
 4296SOL    HW213788   2.591   1.422   2.698
 4297SOL     OW13789   5.797   0.838   0.283
 4297SOL    HW113790   5.838   0.796   0.202
 4297SOL    HW213791   5.697   0.830   0.278
 4298SOL     OW13792   2.504   5.243   1.521
 4298SOL    HW113793   2.489   5.162   1.464
 4298SOL    HW213794   2.432   5.310   1.504
 4299SOL     OW13795   1.024   4.438   5.654
 4299SOL    HW113796   1.019   4.470   5.748
 4299SOL    HW213797   1.099   4.484   5.606
 4300SOL     OW13798   5.640   6.649   5.875
 4300SOL    HW113799   5.688   6.727   5.835
 4300SOL    HW213800   5.692   6.616   5.954
 4301SOL     OW13801   2.625   1.253   0.267
 4301SOL    HW113802   2.541   1.296   0.300
 4301SOL    HW213803   2.606   1.202   0.183
 4302SOL     OW13804   0.987   6.856   6.548
 4302SOL    HW113805   1.042   6.793   6.495
 4302SOL    HW213806   1.038   6.885   6.629
 4303SOL     OW13807   6.946   4.036   1.510
 4303SOL    HW113808   6.976   3.941   1.500
 4303SOL    HW213809   6.932   4.076   1.420
 4304SOL     OW13810   3.115   3.031   5.044
 4304SOL    HW113811   3.118   3.067   5.137
 4304SOL    HW213812   3.125   2.931   5.046
 4305SOL     OW13813   6.170   1.039   4.872
 4305SOL    HW113814   6.138   1.073   4.783
 4305SOL    HW213815   6.143   1.103   4.944
 4306SOL     OW13816   5.920   5.877   6.261
 4306SOL    HW113817   5.915   5.809   6.334
 4306SOL    HW213818   5.988   5.849   6.193
 4307SOL     OW13819   5.205   3.457   0.325
 4307SOL    HW113820   5.174   3.362   0.328
 4307SOL    HW213821   5.160   3.509   0.398
 4308SOL     OW13822   3.879   6.943   5.543
 4308SOL    HW113823   3.833   7.012   5.599
 4308SOL    HW213824   3.977   6.961   5.544
 4309SOL     OW13825   1.705   0.925   1.349
 4309SOL    HW113826   1.758   1.002   1.382
 4309SOL    HW213827   1.705   0.924   1.249
 4310SOL     OW13828   1.618   0.579   2.597
 4310SOL    HW113829   1.672   0.628   2.530
 4310SOL    HW213830   1.557   0.514   2.551
 4311SOL     OW13831   1.176   5.753   4.448
 4311SOL    HW113832   1.192   5.752   4.546
 4311SOL    HW213833   1.247   5.809   4.403
 4312SOL     OW13834   1.472   5.633   1.389
 4312SOL    HW113835   1.505   5.593   1.303
 4312SOL    HW213836   1.547   5.682   1.434
 4313SOL     OW13837   5.259   0.398   1.997
 4313SOL    HW113838   5.175   0.403   1.943
 4313SOL    HW213839   5.248   0.454   2.079
 4314SOL     OW13840   5.393   3.692   2.241
 4314SOL    HW113841   5.425   3.611   2.192
 4314SOL    HW213842   5.307   3.724   2.200
 4315SOL     OW13843   2.431   1.326   2.339
 4315SOL    HW113844   2.513   1.379   2.317
 4315SOL    HW213845   2.362   1.386   2.377
 4316SOL     OW13846   0.473   0.879   2.181
 4316SOL    HW113847   0.466   0.961   2.238
 4316SOL    HW213848   0.543   0.892   2.111
 4317SOL     OW13849   4.113   0.459   3.780
 4317SOL    HW113850   4.121   0.553   3.746
 4317SOL    HW213851   4.029   0.418   3.745
 4318SOL     OW13852   6.449   2.416   3.802
 4318SOL    HW113853   6.370   2.475   3.792
 4318SOL    HW213854   6.420   2.320   3.798
 4319SOL     OW13855   2.914   3.119   5.958
 4319SOL    HW113856   2.864   3.039   5.993
 4319SOL    HW213857   2.898   3.129   5.860
 4320SOL     OW13858   0.328   5.732   3.558
 4320SOL    HW113859   0.371   5.797   3.495
 4320SOL    HW213860   0.255   5.682   3.510
 4321SOL     OW13861   0.663   0.694   4.982
 4321SOL    HW113862   0.756   0.703   4.946
 4321SOL    HW213863   0.610   0.636   4.920
 4322SOL     OW13864   5.730   1.548   0.974
 4322SOL    HW113865   5.656   1.616   0.974
 4322SOL    HW213866   5.699   1.466   1.022
 4323SOL     OW13867   7.012   1.894   3.891
 4323SOL    HW113868   0.026   1.948   3.817
 4323SOL    HW213869   6.922   1.930   3.917
 4324SOL     OW13870   5.635   2.745   6.246
 4324SOL    HW113871   5.594   2.835   6.261
 4324SOL    HW213872   5.667   2.709   6.334
 4325SOL     OW13873   1.974   2.115   5.822
 4325SOL    HW113874   1.924   2.082   5.742
 4325SOL    HW213875   2.072   2.115   5.803
 4326SOL     OW13876   6.410   2.551   5.473
 4326SOL    HW113877   6.408   2.490   5.395
 4326SOL    HW213878   6.443   2.501   5.554
 4327SOL     OW13879   5.471   0.494   3.252
 4327SOL    HW113880   5.562   0.513   3.289
 4327SOL    HW213881   5.420   0.580   3.244
 4328SOL     OW13882   5.598   5.069   0.382
 4328SOL    HW113883   5.544   4.987   0.360
 4328SOL    HW213884   5.540   5.150   0.375
 4329SOL     OW13885   5.060   1.383   6.374
 4329SOL    HW113886   5.019   1.448   6.438
 4329SOL    HW213887   5.034   1.408   6.281
 4330SOL     OW13888   1.045   0.715   6.545
 4330SOL    HW113889   0.951   0.714   6.512
 4330SOL    HW213890   1.046   0.739   6.642
 4331SOL     OW13891   5.310   2.352   6.978
 4331SOL    HW113892   5.245   2.336   6.904
 4331SOL    HW213893   5.396   2.386   6.941
 4332SOL     OW13894   5.275   3.319   1.987
 4332SOL    HW113895   5.190   3.351   1.944
 4332SOL    HW213896   5.286   3.221   1.970
 4333SOL     OW13897   6.057   1.760   5.624
 4333SOL    HW113898   6.098   1.837   5.673
 4333SOL    HW213899   5.982   1.792   5.566
 4334SOL     OW13900   4.589   0.307   1.292
 4334SOL    HW113901   4.514   0.271   1.348
 4334SOL    HW213902   4.583   0.406   1.288
 4335SOL     OW13903   3.934   4.515   5.681
 4335SOL    HW113904   3.917   4.561   5.768
 4335SOL    HW213905   3.854   4.524   5.622
 4336SOL     OW13906   1.215   6.044   5.225
 4336SOL    HW113907   1.301   6.018   5.182
 4336SOL    HW213908   1.221   6.028   5.323
 4337SOL     OW13909   0.290   5.245   0.220
 4337SOL    HW113910   0.360   5.230   0.150
 4337SOL    HW213911   0.323   5.210   0.308
 4338SOL     OW13912   6.070   5.704   3.616
 4338SOL    HW113913   6.065   5.784   3.556
 4338SOL    HW213914   6.016   5.720   3.698
 4339SOL     OW13915   6.859   1.317   6.676
 4339SOL    HW113916   6.921   1.391   6.652
 4339SOL    HW213917   6.765   1.345   6.660
 4340SOL     OW13918   4.737   3.550   1.794
 4340SOL    HW113919   4.796   3.474   1.820
 4340SOL    HW213920   4.789   3.614   1.736
 4341SOL     OW13921   0.635   4.064   6.844
 4341SOL    HW113922   0.691   3.983   6.861
 4341SOL    HW213923   0.651   4.097   6.751
 4342SOL     OW13924   0.187   2.056   2.936
 4342SOL    HW113925   0.108   2.109   2.903
 4342SOL    HW213926   0.178   1.962   2.903
 4343SOL     OW13927   2.496   1.770   1.717
 4343SOL    HW113928   2.508   1.673   1.739
 4343SOL    HW213929   2.430   1.810   1.781
 4344SOL     OW13930   2.217   3.888   2.286
 4344SOL    HW113931   2.314   3.879   2.310
 4344SOL    HW213932   2.161   3.856   2.362
 4345SOL     OW13933   2.331   1.608   6.130
 4345SOL    HW113934   2.265   1.679   6.105
 4345SOL    HW213935   2.417   1.650   6.158
 4346SOL     OW13936   6.967   3.476   1.066
 4346SOL    HW113937   6.926   3.548   1.121
 4346SOL    HW213938   6.939   3.387   1.101
 4347SOL     OW13939   5.646   5.983   2.734
 4347SOL    HW113940   5.646   6.080   2.710
 4347SOL    HW213941   5.552   5.954   2.755
 4348SOL     OW13942   0.946   4.003   0.026
 4348SOL    HW113943   0.980   3.986   0.119
 4348SOL    HW213944   0.878   4.076   0.029
 4349SOL     OW13945   6.910   0.840   2.071
 4349SOL    HW113946   6.839   0.829   2.002
 4349SOL    HW213947   6.867   0.849   2.161
 4350SOL     OW13948   4.787   0.368   3.453
 4350SOL    HW113949   4.783   0.372   3.553
 4350SOL    HW213950   4.880   0.344   3.425
 4351SOL     OW13951   2.401   6.538   0.476
 4351SOL    HW113952   2.497   6.557   0.491
 4351SOL    HW213953   2.345   6.610   0.518
 4352SOL     OW13954   6.179   1.466   2.927
 4352SOL    HW113955   6.163   1.500   2.834
 4352SOL    HW213956   6.111   1.396   2.949
 4353SOL     OW13957   3.004   5.596   1.796
 4353SOL    HW113958   3.093   5.572   1.758
 4353SOL    HW213959   2.943   5.517   1.791
 4354SOL     OW13960   2.456   1.206   1.423
 4354SOL    HW113961   2.374   1.180   1.371
 4354SOL    HW213962   2.484   1.129   1.481
 4355SOL     OW13963   4.779   0.555   0.847
 4355SOL    HW113964   4.755   0.652   0.841
 4355SOL    HW213965   4.696   0.500   0.859
 4356SOL     OW13966   3.384   4.019   0.215
 4356SOL    HW113967   3.300   4.067   0.191
 4356SOL    HW213968   3.363   3.927   0.247
 4357SOL     OW13969   6.472   0.770   6.747
 4357SOL    HW113970   6.499   0.782   6.842
 4357SOL    HW213971   6.391   0.825   6.728
 4358SOL     OW13972   6.387   1.067   1.044
 4358SOL    HW113973   6.446   1.020   1.110
 4358SOL    HW213974   6.291   1.054   1.070
 4359SOL     OW13975   6.046   2.941   4.059
 4359SOL    HW113976   6.129   2.886   4.044
 4359SOL    HW213977   6.051   2.985   4.148
 4360SOL     OW13978   2.207   3.353   1.065
 4360SOL    HW113979   2.289   3.402   1.095
 4360SOL    HW213980   2.142   3.418   1.026
 4361SOL     OW13981   5.737   1.619   2.194
 4361SOL    HW113982   5.690   1.632   2.106
 4361SOL    HW213983   5.776   1.527   2.197
 4362SOL     OW13984   5.145   4.203   2.958
 4362SOL    HW113985   5.078   4.130   2.950
 4362SOL    HW213986   5.105   4.280   3.006
 4363SOL     OW13987   5.539   1.069   6.145
 4363SOL    HW113988   5.524   0.979   6.103
 4363SOL    HW213989   5.562   1.057   6.241
 4364SOL     OW13990   3.323   3.799   4.791
 4364SOL    HW113991   3.254   3.729   4.774
 4364SOL    HW213992   3.310   3.876   4.727
 4365SOL     OW13993   3.680   1.530   0.513
 4365SOL    HW113994   3.773   1.567   0.515
 4365SOL    HW213995   3.678   1.448   0.455
 4366SOL     OW13996   5.299   5.126   1.107
 4366SOL    HW113997   5.398   5.121   1.119
 4366SOL    HW213998   5.275   5.086   1.018
 4367SOL     OW13999   0.100   6.808   0.566
 4367SOL    HW114000   0.093   6.806   0.665
 4367SOL    HW214001   0.041   6.880   0.529
 4368SOL     OW14002   4.763   4.435   1.895
 4368SOL    HW114003   4.799   4.388   1.815
 4368SOL    HW214004   4.705   4.372   1.947
 4369SOL     OW14005   3.205   5.617   1.589
 4369SOL    HW114006   3.203   5.696   1.528
 4369SOL    HW214007   3.154   5.542   1.547
 4370SOL     OW14008   5.915   4.178   2.533
 4370SOL    HW114009   5.961   4.134   2.457
 4370SOL    HW214010   5.853   4.112   2.577
 4371SOL     OW14011   0.494   2.324   2.405
 4371SOL    HW114012   0.536   2.339   2.315
 4371SOL    HW214013   0.549   2.260   2.457
 4372SOL     OW14014   4.714   0.078   3.363
 4372SOL    HW114015   4.628   0.040   3.328
 4372SOL    HW214016   4.701   0.175   3.385
 4373SOL     OW14017   6.334   1.753   6.251
 4373SOL    HW114018   6.426   1.740   6.213
 4373SOL    HW214019   6.266   1.745   6.179
 4374SOL     OW14020   3.581   1.410   1.267
 4374SOL    HW114021   3.596   1.498   1.312
 4374SOL    HW214022   3.638   1.404   1.185
 4375SOL     OW14023   3.583   5.841   4.482
 4375SOL    HW114024   3.619   5.915   4.540
 4375SOL    HW214025   3.554   5.879   4.394
 4376SOL     OW14026   6.523   1.844   4.334
 4376SOL    HW114027   6.530   1.905   4.255
 4376SOL    HW214028   6.581   1.880   4.408
 4377SOL     OW14029   6.938   4.860   6.460
 4377SOL    HW114030   7.014   4.833   6.518
 4377SOL    HW214031   6.972   4.878   6.367
 4378SOL     OW14032   3.042   1.545   4.081
 4378SOL    HW114033   3.110   1.569   4.011
 4378SOL    HW214034   3.066   1.457   4.122
 4379SOL     OW14035   3.540   1.991   5.842
 4379SOL    HW114036   3.447   2.016   5.813
 4379SOL    HW214037   3.587   2.073   5.874
 4380SOL     OW14038   0.403   2.016   2.678
 4380SOL    HW114039   0.326   2.079   2.691
 4380SOL    HW214040   0.417   1.963   2.762
 4381SOL     OW14041   1.509   6.293   6.970
 4381SOL    HW114042   1.453   6.334   6.898
 4381SOL    HW214043   1.587   6.352   6.991
 4382SOL     OW14044   0.659   5.012   4.348
 4382SOL    HW114045   0.641   5.071   4.269
 4382SOL    HW214046   0.739   4.955   4.329
 4383SOL     OW14047   6.398   3.838   0.273
 4383SOL    HW114048   6.333   3.763   0.264
 4383SOL    HW214049   6.492   3.802   0.273
 4384SOL     OW14050   5.560   0.013   4.030
 4384SOL    HW114051   5.600   0.083   3.972
 4384SOL    HW214052   5.623   6.960   4.040
 4385SOL     OW14053   4.703   1.719   5.866
 4385SOL    HW114054   4.734   1.738   5.773
 4385SOL    HW214055   4.646   1.638   5.867
 4386SOL     OW14056   1.934   3.694   5.166
 4386SOL    HW114057   2.031   3.690   5.190
 4386SOL    HW214058   1.924   3.739   5.077
 4387SOL     OW14059   5.402   1.975   0.695
 4387SOL    HW114060   5.414   2.073   0.681
 4387SOL    HW214061   5.398   1.955   0.793
 4388SOL     OW14062   4.930   4.017   0.262
 4388SOL    HW114063   5.004   3.973   0.312
 4388SOL    HW214064   4.928   3.983   0.168
 4389SOL     OW14065   1.416   2.259   0.110
 4389SOL    HW114066   1.434   2.317   0.190
 4389SOL    HW214067   1.426   2.313   0.027
 4390SOL     OW14068   0.329   1.677   0.748
 4390SOL    HW114069   0.385   1.730   0.683
 4390SOL    HW214070   0.360   1.695   0.841
 4391SOL     OW14071   1.012   5.871   0.882
 4391SOL    HW114072   1.056   5.888   0.795
 4391SOL    HW214073   0.915   5.895   0.875
 4392SOL     OW14074   0.881   3.263   5.939
 4392SOL    HW114075   0.950   3.194   5.916
 4392SOL    HW214076   0.842   3.301   5.855
 4393SOL     OW14077   5.593   0.558   1.912
 4393SOL    HW114078   5.510   0.542   1.965
 4393SOL    HW214079   5.640   0.472   1.896
 4394SOL     OW14080   1.047   7.001   2.694
 4394SOL    HW114081   1.142   0.003   2.679
 4394SOL    HW214082   1.016   6.941   2.620
 4395SOL     OW14083   1.773   4.913   2.067
 4395SOL    HW114084   1.812   4.864   1.989
 4395SOL    HW214085   1.786   4.859   2.150
 4396SOL     OW14086   3.131   1.027   2.890
 4396SOL    HW114087   3.103   0.943   2.937
 4396SOL    HW214088   3.080   1.105   2.926
 4397SOL     OW14089   3.029   1.321   4.689
 4397SOL    HW114090   3.124   1.328   4.659
 4397SOL    HW214091   2.988   1.238   4.650
 4398SOL     OW14092   1.593   3.178   5.418
 4398SOL    HW114093   1.582   3.194   5.516
 4398SOL    HW214094   1.662   3.107   5.404
 4399SOL     OW14095   2.681   6.339   2.053
 4399SOL    HW114096   2.716   6.346   1.960
 4399SOL    HW214097   2.624   6.257   2.061
 4400SOL     OW14098   1.867   5.956   4.270
 4400SOL    HW114099   1.883   5.872   4.218
 4400SOL    HW214100   1.954   5.990   4.305
 4401SOL     OW14101   3.069   6.855   6.600
 4401SOL    HW114102   2.999   6.801   6.554
 4401SOL    HW214103   3.076   6.827   6.696
 4402SOL     OW14104   2.405   0.754   2.965
 4402SOL    HW114105   2.313   0.750   2.926
 4402SOL    HW214106   2.407   0.705   3.052
 4403SOL     OW14107   0.736   5.066   1.638
 4403SOL    HW114108   0.738   5.124   1.719
 4403SOL    HW214109   0.641   5.051   1.610
 4404SOL     OW14110   0.290   6.360   6.321
 4404SOL    HW114111   0.364   6.406   6.371
 4404SOL    HW214112   0.325   6.327   6.233
 4405SOL     OW14113   1.742   5.235   2.330
 4405SOL    HW114114   1.762   5.271   2.239
 4405SOL    HW214115   1.758   5.306   2.399
 4406SOL     OW14116   6.242   3.930   1.974
 4406SOL    HW114117   6.293   3.851   2.009
 4406SOL    HW214118   6.151   3.931   2.016
 4407SOL     OW14119   6.156   6.330   1.131
 4407SOL    HW114120   6.241   6.377   1.105
 4407SOL    HW214121   6.108   6.300   1.049
 4408SOL     OW14122   3.921   0.839   0.200
 4408SOL    HW114123   3.823   0.843   0.179
 4408SOL    HW214124   3.933   0.806   0.294
 4409SOL     OW14125   3.128   0.835   3.650
 4409SOL    HW114126   3.045   0.801   3.605
 4409SOL    HW214127   3.110   0.925   3.689
 4410SOL     OW14128   0.189   0.594   1.059
 4410SOL    HW114129   0.214   0.572   1.153
 4410SOL    HW214130   0.090   0.582   1.047
 4411SOL     OW14131   4.507   4.671   5.325
 4411SOL    HW114132   4.513   4.768   5.304
 4411SOL    HW214133   4.452   4.657   5.407
 4412SOL     OW14134   4.558   6.227   1.755
 4412SOL    HW114135   4.547   6.232   1.854
 4412SOL    HW214136   4.486   6.281   1.710
 4413SOL     OW14137   4.716   5.449   3.850
 4413SOL    HW114138   4.811   5.419   3.853
 4413SOL    HW214139   4.656   5.370   3.835
 4414SOL     OW14140   5.455   3.667   1.696
 4414SOL    HW114141   5.516   3.690   1.620
 4414SOL    HW214142   5.402   3.748   1.722
 4415SOL     OW14143   1.615   3.498   1.097
 4415SOL    HW114144   1.630   3.553   1.015
 4415SOL    HW214145   1.686   3.517   1.164
 4416SOL     OW14146   5.144   2.597   3.966
 4416SOL    HW114147   5.105   2.669   3.907
 4416SOL    HW214148   5.180   2.639   4.049
 4417SOL     OW14149   0.138   4.148   1.617
 4417SOL    HW114150   0.201   4.190   1.552
 4417SOL    HW214151   0.058   4.112   1.568
 4418SOL     OW14152   6.533   0.854   5.790
 4418SOL    HW114153   6.612   0.846   5.850
 4418SOL    HW214154   6.538   0.785   5.718
 4419SOL     OW14155   6.403   5.575   6.662
 4419SOL    HW114156   6.309   5.611   6.661
 4419SOL    HW214157   6.403   5.485   6.704
 4420SOL     OW14158   3.765   1.346   0.988
 4420SOL    HW114159   3.737   1.387   0.901
 4420SOL    HW214160   3.833   1.405   1.031
 4421SOL     OW14161   1.925   3.183   0.492
 4421SOL    HW114162   1.863   3.108   0.469
 4421SOL    HW214163   2.008   3.176   0.436
 4422SOL     OW14164   6.710   3.006   6.178
 4422SOL    HW114165   6.634   3.063   6.146
 4422SOL    HW214166   6.676   2.915   6.200
 4423SOL     OW14167   6.347   4.460   4.571
 4423SOL    HW114168   6.258   4.430   4.607
 4423SOL    HW214169   6.420   4.427   4.630
 4424SOL     OW14170   4.923   5.932   2.481
 4424SOL    HW114171   4.884   5.897   2.396
 4424SOL    HW214172   4.947   5.855   2.540
 4425SOL     OW14173   0.904   5.771   1.229
 4425SOL    HW114174   0.835   5.758   1.300
 4425SOL    HW214175   0.860   5.802   1.145
 4426SOL     OW14176   0.550   0.814   4.330
 4426SOL    HW114177   0.630   0.798   4.273
 4426SOL    HW214178   0.559   0.764   4.416
 4427SOL     OW14179   2.354   5.791   2.646
 4427SOL    HW114180   2.352   5.870   2.707
 4427SOL    HW214181   2.447   5.756   2.639
 4428SOL     OW14182   6.596   5.356   3.071
 4428SOL    HW114183   6.693   5.371   3.091
 4428SOL    HW214184   6.581   5.259   3.050
 4429SOL     OW14185   3.120   6.597   3.188
 4429SOL    HW114186   3.206   6.596   3.239
 4429SOL    HW214187   3.043   6.607   3.251
 4430SOL     OW14188   5.845   3.615   5.318
 4430SOL    HW114189   5.795   3.662   5.246
 4430SOL    HW214190   5.845   3.517   5.301
 4431SOL     OW14191   3.793   6.826   4.718
 4431SOL    HW114192   3.778   6.873   4.805
 4431SOL    HW214193   3.887   6.793   4.713
 4432SOL     OW14194   0.899   3.695   6.088
 4432SOL    HW114195   0.888   3.606   6.132
 4432SOL    HW214196   0.842   3.698   6.006
 4433SOL     OW14197   0.819   1.057   4.355
 4433SOL    HW114198   0.917   1.048   4.337
 4433SOL    HW214199   0.773   1.092   4.273
 4434SOL     OW14200   6.929   0.688   1.625
 4434SOL    HW114201   6.878   0.768   1.594
 4434SOL    HW214202   6.987   0.713   1.702
 4435SOL     OW14203   2.281   4.202   0.762
 4435SOL    HW114204   2.334   4.281   0.729
 4435SOL    HW214205   2.295   4.125   0.700
 4436SOL     OW14206   4.217   2.169   1.935
 4436SOL    HW114207   4.250   2.208   2.021
 4436SOL    HW214208   4.119   2.151   1.941
 4437SOL     OW14209   6.302   4.357   7.005
 4437SOL    HW114210   6.401   4.345   7.020
 4437SOL    HW214211   6.259   4.384   0.067
 4438SOL     OW14212   4.367   1.289   4.931
 4438SOL    HW114213   4.465   1.270   4.939
 4438SOL    HW214214   4.315   1.208   4.956
 4439SOL     OW14215   2.374   5.804   3.137
 4439SOL    HW114216   2.318   5.886   3.153
 4439SOL    HW214217   2.463   5.816   3.180
 4440SOL     OW14218   1.231   4.626   5.574
 4440SOL    HW114219   1.273   4.550   5.525
 4440SOL    HW214220   1.296   4.664   5.640
 4441SOL     OW14221   6.720   2.336   1.022
 4441SOL    HW114222   6.756   2.429   1.015
 4441SOL    HW214223   6.662   2.316   0.943
 4442SOL     OW14224   1.603   5.148   0.636
 4442SOL    HW114225   1.653   5.067   0.606
 4442SOL    HW214226   1.529   5.167   0.571
 4443SOL     OW14227   0.426   5.524   5.959
 4443SOL    HW114228   0.358   5.597   5.959
 4443SOL    HW214229   0.459   5.509   5.866
 4444SOL     OW14230   5.796   5.294   0.883
 4444SOL    HW114231   5.741   5.377   0.871
 4444SOL    HW214232   5.891   5.313   0.860
 4445SOL     OW14233   1.712   4.104   0.226
 4445SOL    HW114234   1.742   4.020   0.181
 4445SOL    HW214235   1.652   4.156   0.165
 4446SOL     OW14236   4.513   1.784   2.028
 4446SOL    HW114237   4.414   1.771   2.041
 4446SOL    HW214238   4.532   1.805   1.933
 4447SOL     OW14239   4.085   5.559   5.801
 4447SOL    HW114240   4.085   5.547   5.702
 4447SOL    HW214241   3.991   5.563   5.835
 4448SOL     OW14242   3.501   6.346   1.872
 4448SOL    HW114243   3.429   6.412   1.896
 4448SOL    HW214244   3.576   6.354   1.936
 4449SOL     OW14245   3.750   1.882   5.704
 4449SOL    HW114246   3.697   1.911   5.784
 4449SOL    HW214247   3.760   1.958   5.641
 4450SOL     OW14248   2.176   6.405   0.217
 4450SOL    HW114249   2.245   6.477   0.217
 4450SOL    HW214250   2.085   6.447   0.213
 4451SOL     OW14251   4.790   5.392   3.426
 4451SOL    HW114252   4.844   5.312   3.399
 4451SOL    HW214253   4.850   5.470   3.440
 4452SOL     OW14254   5.131   4.999   3.943
 4452SOL    HW114255   5.086   5.089   3.947
 4452SOL    HW214256   5.091   4.945   3.869
 4453SOL     OW14257   6.899   4.412   1.085
 4453SOL    HW114258   6.918   4.484   1.152
 4453SOL    HW214259   6.955   4.332   1.107
 4454SOL     OW14260   1.526   1.996   0.468
 4454SOL    HW114261   1.500   1.925   0.532
 4454SOL    HW214262   1.448   2.019   0.409
 4455SOL     OW14263   1.970   0.421   4.445
 4455SOL    HW114264   1.929   0.380   4.527
 4455SOL    HW214265   2.069   0.413   4.449
 4456SOL     OW14266   2.094   5.908   3.991
 4456SOL    HW114267   2.083   5.823   3.940
 4456SOL    HW214268   2.004   5.950   4.005
 4457SOL     OW14269   1.153   1.884   4.230
 4457SOL    HW114270   1.074   1.823   4.222
 4457SOL    HW214271   1.209   1.857   4.308
 4458SOL     OW14272   1.386   3.288   6.153
 4458SOL    HW114273   1.297   3.242   6.143
 4458SOL    HW214274   1.371   3.381   6.186
 4459SOL     OW14275   1.039   3.498   2.913
 4459SOL    HW114276   1.000   3.480   2.822
 4459SOL    HW214277   0.969   3.486   2.982
 4460SOL     OW14278   0.077   2.822   4.696
 4460SOL    HW114279   0.070   2.862   4.787
 4460SOL    HW214280   0.040   2.885   4.628
 4461SOL     OW14281   2.442   0.922   0.895
 4461SOL    HW114282   2.415   0.829   0.869
 4461SOL    HW214283   2.407   0.987   0.827
 4462SOL     OW14284   6.618   4.256   2.424
 4462SOL    HW114285   6.703   4.234   2.471
 4462SOL    HW214286   6.542   4.208   2.467
 4463SOL     OW14287   5.473   1.566   0.014
 4463SOL    HW114288   5.495   1.627   6.961
 4463SOL    HW214289   5.512   1.603   0.098
 4464SOL     OW14290   0.483   3.662   1.437
 4464SOL    HW114291   0.501   3.718   1.518
 4464SOL    HW214292   0.569   3.638   1.393
 4465SOL     OW14293   3.981   5.340   1.910
 4465SOL    HW114294   4.073   5.379   1.918
 4465SOL    HW214295   3.985   5.242   1.929
 4466SOL     OW14296   0.521   2.990   2.114
 4466SOL    HW114297   0.598   3.017   2.057
 4466SOL    HW214298   0.459   3.068   2.125
 4467SOL     OW14299   5.434   4.885   1.991
 4467SOL    HW114300   5.444   4.804   1.934
 4467SOL    HW214301   5.518   4.900   2.042
 4468SOL     OW14302   1.722   2.896   1.319
 4468SOL    HW114303   1.755   2.957   1.390
 4468SOL    HW214304   1.624   2.910   1.305
 4469SOL     OW14305   2.330   5.754   1.462
 4469SOL    HW114306   2.238   5.757   1.423
 4469SOL    HW214307   2.396   5.786   1.395
 4470SOL     OW14308   0.725   0.052   2.664
 4470SOL    HW114309   0.741   0.096   2.576
 4470SOL    HW214310   0.800   7.012   2.683
 4471SOL     OW14311   0.766   0.462   6.571
 4471SOL    HW114312   0.782   0.508   6.484
 4471SOL    HW214313   0.849   0.415   6.600
 4472SOL     OW14314   1.710   2.991   0.842
 4472SOL    HW114315   1.808   2.983   0.863
 4472SOL    HW214316   1.698   3.034   0.753
 4473SOL     OW14317   0.308   3.190   4.882
 4473SOL    HW114318   0.349   3.101   4.903
 4473SOL    HW214319   0.335   3.256   4.951
 4474SOL     OW14320   2.140   6.057   0.801
 4474SOL    HW114321   2.177   5.998   0.872
 4474SOL    HW214322   2.082   6.003   0.740
 4475SOL     OW14323   0.940   3.687   0.517
 4475SOL    HW114324   0.928   3.612   0.452
 4475SOL    HW214325   0.871   3.758   0.500
 4476SOL     OW14326   5.399   1.433   3.363
 4476SOL    HW114327   5.306   1.396   3.366
 4476SOL    HW214328   5.400   1.515   3.305
 4477SOL     OW14329   0.233   1.326   4.757
 4477SOL    HW114330   0.138   1.298   4.741
 4477SOL    HW214331   0.291   1.245   4.761
 4478SOL     OW14332   1.748   0.569   1.955
 4478SOL    HW114333   1.823   0.618   1.910
 4478SOL    HW214334   1.669   0.630   1.962
 4479SOL     OW14335   2.416   2.754   6.604
 4479SOL    HW114336   2.499   2.810   6.603
 4479SOL    HW214337   2.384   2.742   6.510
 4480SOL     OW14338   0.404   6.747   3.311
 4480SOL    HW114339   0.473   6.704   3.369
 4480SOL    HW214340   0.312   6.720   3.342
 4481SOL     OW14341   1.673   3.537   5.601
 4481SOL    HW114342   1.708   3.445   5.585
 4481SOL    HW214343   1.706   3.571   5.689
 4482SOL     OW14344   2.345   0.488   1.249
 4482SOL    HW114345   2.258   0.523   1.214
 4482SOL    HW214346   2.372   0.542   1.329
 4483SOL     OW14347   1.471   3.567   0.452
 4483SOL    HW114348   1.459   3.474   0.419
 4483SOL    HW214349   1.509   3.565   0.545
 4484SOL     OW14350   3.032   0.708   6.836
 4484SOL    HW114351   3.068   0.628   6.787
 4484SOL    HW214352   3.020   0.686   6.932
 4485SOL     OW14353   0.274   3.678   4.867
 4485SOL    HW114354   0.315   3.755   4.818
 4485SOL    HW214355   0.340   3.640   4.931
 4486SOL     OW14356   5.155   4.481   3.942
 4486SOL    HW114357   5.205   4.557   3.985
 4486SOL    HW214358   5.113   4.425   4.013
 4487SOL     OW14359   0.371   3.075   6.420
 4487SOL    HW114360   0.280   3.082   6.461
 4487SOL    HW214361   0.361   3.068   6.320
 4488SOL     OW14362   6.893   3.825   3.297
 4488SOL    HW114363   6.845   3.740   3.319
 4488SOL    HW214364   6.960   3.845   3.368
 4489SOL     OW14365   3.637   5.977   6.379
 4489SOL    HW114366   3.706   5.975   6.306
 4489SOL    HW214367   3.577   6.055   6.365
 4490SOL     OW14368   5.863   1.474   1.703
 4490SOL    HW114369   5.828   1.407   1.637
 4490SOL    HW214370   5.821   1.563   1.686
 4491SOL     OW14371   1.006   3.774   2.806
 4491SOL    HW114372   1.060   3.847   2.848
 4491SOL    HW214373   1.046   3.686   2.830
 4492SOL     OW14374   6.565   1.079   2.523
 4492SOL    HW114375   6.469   1.052   2.516
 4492SOL    HW214376   6.572   1.178   2.522
 4493SOL     OW14377   5.298   1.768   5.501
 4493SOL    HW114378   5.217   1.815   5.466
 4493SOL    HW214379   5.272   1.708   5.576
 4494SOL     OW14380   1.616   0.837   2.264
 4494SOL    HW114381   1.691   0.903   2.261
 4494SOL    HW214382   1.539   0.876   2.315
 4495SOL     OW14383   4.086   6.587   0.875
 4495SOL    HW114384   4.106   6.652   0.803
 4495SOL    HW214385   3.992   6.555   0.866
 4496SOL     OW14386   2.507   6.017   5.894
 4496SOL    HW114387   2.550   6.070   5.967
 4496SOL    HW214388   2.532   5.921   5.903
 4497SOL     OW14389   4.384   0.726   5.758
 4497SOL    HW114390   4.285   0.741   5.747
 4497SOL    HW214391   4.423   0.697   5.671
 4498SOL     OW14392   0.571   5.077   4.608
 4498SOL    HW114393   0.601   5.048   4.517
 4498SOL    HW214394   0.596   5.007   4.675
 4499SOL     OW14395   6.124   0.766   2.379
 4499SOL    HW114396   6.071   0.694   2.335
 4499SOL    HW214397   6.135   0.746   2.476
 4500SOL     OW14398   3.305   6.700   0.043
 4500SOL    HW114399   3.342   6.747   6.987
 4500SOL    HW214400   3.240   6.759   0.091
 4501SOL     OW14401   6.211   0.408   2.089
 4501SOL    HW114402   6.186   0.330   2.031
 4501SOL    HW214403   6.288   0.457   2.047
 4502SOL     OW14404   1.187   4.230   6.660
 4502SOL    HW114405   1.179   4.136   6.695
 4502SOL    HW214406   1.245   4.283   6.721
 4503SOL     OW14407   3.760   1.878   2.728
 4503SOL    HW114408   3.683   1.816   2.745
 4503SOL    HW214409   3.794   1.865   2.635
 4504SOL     OW14410   1.234   2.350   3.741
 4504SOL    HW114411   1.138   2.371   3.759
 4504SOL    HW214412   1.251   2.254   3.763
 4505SOL     OW14413   6.251   2.850   3.519
 4505SOL    HW114414   6.246   2.820   3.423
 4505SOL    HW214415   6.269   2.948   3.522
 4506SOL     OW14416   4.000   3.634   0.087
 4506SOL    HW114417   4.042   3.554   0.128
 4506SOL    HW214418   4.071   3.696   0.053
 4507SOL     OW14419   5.950   2.490   3.048
 4507SOL    HW114420   5.872   2.520   3.102
 4507SOL    HW214421   5.918   2.449   2.962
 4508SOL     OW14422   6.481   5.217   0.825
 4508SOL    HW114423   6.435   5.301   0.854
 4508SOL    HW214424   6.577   5.221   0.852
 4509SOL     OW14425   5.541   1.908   2.184
 4509SOL    HW114426   5.500   1.823   2.153
 4509SOL    HW214427   5.601   1.890   2.263
 4510SOL     OW14428   4.821   1.694   4.518
 4510SOL    HW114429   4.869   1.607   4.506
 4510SOL    HW214430   4.767   1.713   4.436
 4511SOL     OW14431   6.936   4.671   6.897
 4511SOL    HW114432   6.955   4.722   6.981
 4511SOL    HW214433   6.886   4.587   6.919
 4512SOL     OW14434   3.157   3.272   5.676
 4512SOL    HW114435   3.188   3.203   5.741
 4512SOL    HW214436   3.186   3.363   5.707
 4513SOL     OW14437   0.070   0.302   0.776
 4513SOL    HW114438   0.001   0.372   0.793
 4513SOL    HW214439   0.161   0.343   0.780
 4514SOL     OW14440   4.754   4.837   6.658
 4514SOL    HW114441   4.750   4.738   6.644
 4514SOL    HW214442   4.842   4.871   6.625
 4515SOL     OW14443   4.196   0.741   6.057
 4515SOL    HW114444   4.292   0.716   6.058
 4515SOL    HW214445   4.140   0.657   6.058
 4516SOL     OW14446   3.305   2.099   5.739
 4516SOL    HW114447   3.305   2.156   5.657
 4516SOL    HW214448   3.214   2.100   5.780
 4517SOL     OW14449   4.091   0.502   4.669
 4517SOL    HW114450   4.136   0.488   4.757
 4517SOL    HW214451   3.995   0.528   4.685
 4518SOL     OW14452   0.119   0.055   0.713
 4518SOL    HW114453   0.129   7.014   0.789
 4518SOL    HW214454   0.097   0.146   0.748
 4519SOL     OW14455   4.893   6.909   6.726
 4519SOL    HW114456   4.877   6.974   6.652
 4519SOL    HW214457   4.987   6.917   6.759
 4520SOL     OW14458   4.623   4.728   5.756
 4520SOL    HW114459   4.674   4.783   5.822
 4520SOL    HW214460   4.671   4.729   5.669
 4521SOL     OW14461   4.462   2.114   4.093
 4521SOL    HW114462   4.469   2.056   4.174
 4521SOL    HW214463   4.550   2.114   4.045
 4522SOL     OW14464   5.901   3.523   3.420
 4522SOL    HW114465   5.941   3.508   3.330
 4522SOL    HW214466   5.970   3.563   3.481
 4523SOL     OW14467   0.022   3.540   6.402
 4523SOL    HW114468   0.013   3.497   6.492
 4523SOL    HW214469   0.094   3.609   6.406
 4524SOL     OW14470   1.868   3.693   2.242
 4524SOL    HW114471   1.952   3.689   2.188
 4524SOL    HW214472   1.798   3.741   2.188
 4525SOL     OW14473   3.717   2.149   5.982
 4525SOL    HW114474   3.797   2.090   5.972
 4525SOL    HW214475   3.746   2.245   5.974
 4526SOL     OW14476   1.777   0.103   5.469
 4526SOL    HW114477   1.723   0.058   5.398
 4526SOL    HW214478   1.799   0.038   5.541
 4527SOL     OW14479   0.188   1.796   2.551
 4527SOL    HW114480   0.211   1.796   2.648
 4527SOL    HW214481   0.089   1.793   2.540
 4528SOL     OW14482   4.945   0.920   4.536
 4528SOL    HW114483   4.926   0.994   4.601
 4528SOL    HW214484   5.040   0.890   4.546
 4529SOL     OW14485   2.277   2.162   4.364
 4529SOL    HW114486   2.217   2.082   4.358
 4529SOL    HW214487   2.356   2.150   4.305
 4530SOL     OW14488   3.783   5.213   6.586
 4530SOL    HW114489   3.729   5.291   6.555
 4530SOL    HW214490   3.753   5.130   6.537
 4531SOL     OW14491   2.280   6.770   5.463
 4531SOL    HW114492   2.183   6.772   5.486
 4531SOL    HW214493   2.301   6.847   5.403
 4532SOL     OW14494   6.330   0.981   2.454
 4532SOL    HW114495   6.285   1.069   2.438
 4532SOL    HW214496   6.263   0.907   2.446
 4533SOL     OW14497   2.707   6.325   1.231
 4533SOL    HW114498   2.622   6.376   1.247
 4533SOL    HW214499   2.700   6.235   1.273
 4534SOL     OW14500   5.901   1.679   4.537
 4534SOL    HW114501   5.943   1.743   4.471
 4534SOL    HW214502   5.802   1.685   4.530
 4535SOL     OW14503   1.467   0.707   0.086
 4535SOL    HW114504   1.555   0.735   0.049
 4535SOL    HW214505   1.476   0.619   0.133
 4536SOL     OW14506   3.781   1.387   5.749
 4536SOL    HW114507   3.722   1.316   5.788
 4536SOL    HW214508   3.839   1.425   5.821
 4537SOL     OW14509   3.428   3.526   3.198
 4537SOL    HW114510   3.390   3.530   3.106
 4537SOL    HW214511   3.422   3.616   3.241
 4538SOL     OW14512   0.962   2.436   0.042
 4538SOL    HW114513   0.994   2.342   0.037
 4538SOL    HW214514   1.027   2.496   7.020
 4539SOL     OW14515   1.007   5.566   4.660
 4539SOL    HW114516   1.034   5.509   4.582
 4539SOL    HW214517   1.024   5.516   4.745
 4540SOL     OW14518   1.321   1.480   0.347
 4540SOL    HW114519   1.354   1.558   0.295
 4540SOL    HW214520   1.263   1.422   0.289
 4541SOL     OW14521   3.789   3.460   0.079
 4541SOL    HW114522   3.857   3.533   0.077
 4541SOL    HW214523   3.818   3.386   0.019
 4542SOL     OW14524   0.539   1.584   6.601
 4542SOL    HW114525   0.502   1.671   6.568
 4542SOL    HW214526   0.639   1.585   6.592
 4543SOL     OW14527   4.350   1.433   0.810
 4543SOL    HW114528   4.420   1.454   0.741
 4543SOL    HW214529   4.387   1.365   0.874
 4544SOL     OW14530   4.585   6.291   0.638
 4544SOL    HW114531   4.622   6.381   0.662
 4544SOL    HW214532   4.500   6.303   0.587
 4545SOL     OW14533   2.732   2.850   5.699
 4545SOL    HW114534   2.649   2.905   5.705
 4545SOL    HW214535   2.744   2.796   5.782
 4546SOL     OW14536   4.172   0.151   6.350
 4546SOL    HW114537   4.105   0.176   6.420
 4546SOL    HW214538   4.128   0.095   6.280
 4547SOL     OW14539   0.476   0.402   0.378
 4547SOL    HW114540   0.544   0.463   0.420
 4547SOL    HW214541   0.384   0.431   0.407
 4548SOL     OW14542   3.652   0.870   2.098
 4548SOL    HW114543   3.644   0.969   2.111
 4548SOL    HW214544   3.662   0.851   2.000
 4549SOL     OW14545   6.312   3.531   4.245
 4549SOL    HW114546   6.334   3.566   4.336
 4549SOL    HW214547   6.355   3.590   4.176
 4550SOL     OW14548   1.923   5.568   5.437
 4550SOL    HW114549   1.987   5.534   5.505
 4550SOL    HW214550   1.917   5.668   5.444
 4551SOL     OW14551   3.068   2.420   6.029
 4551SOL    HW114552   3.165   2.420   6.052
 4551SOL    HW214553   3.013   2.441   6.110
 4552SOL     OW14554   4.893   0.905   6.894
 4552SOL    HW114555   4.911   0.822   6.842
 4552SOL    HW214556   4.803   0.941   6.869
 4553SOL     OW14557   0.039   6.028   0.665
 4553SOL    HW114558   0.104   6.094   0.702
 4553SOL    HW214559   0.022   6.050   0.569
 4554SOL     OW14560   6.073   6.699   3.455
 4554SOL    HW114561   5.973   6.695   3.450
 4554SOL    HW214562   6.111   6.609   3.437
 4555SOL     OW14563   0.769   0.678   1.736
 4555SOL    HW114564   0.791   0.770   1.702
 4555SOL    HW214565   0.674   0.677   1.766
 4556SOL     OW14566   5.400   4.189   4.269
 4556SOL    HW114567   5.466   4.241   4.323
 4556SOL    HW214568   5.322   4.248   4.246
 4557SOL     OW14569   6.375   4.963   4.363
 4557SOL    HW114570   6.344   4.872   4.388
 4557SOL    HW214571   6.389   5.018   4.446
 4558SOL     OW14572   1.036   4.188   4.809
 4558SOL    HW114573   1.088   4.260   4.762
 4558SOL    HW214574   1.086   4.102   4.803
 4559SOL     OW14575   0.193   2.611   4.098
 4559SOL    HW114576   0.150   2.675   4.161
 4559SOL    HW214577   0.206   2.523   4.143
 4560SOL     OW14578   6.155   4.584   3.178
 4560SOL    HW114579   6.251   4.557   3.177
 4560SOL    HW214580   6.097   4.502   3.176
 4561SOL     OW14581   4.390   2.462   4.330
 4561SOL    HW114582   4.415   2.547   4.282
 4561SOL    HW214583   4.466   2.434   4.389
 4562SOL     OW14584   4.066   1.127   0.864
 4562SOL    HW114585   4.155   1.162   0.833
 4562SOL    HW214586   3.993   1.175   0.817
 4563SOL     OW14587   1.034   3.975   1.666
 4563SOL    HW114588   1.071   3.962   1.758
 4563SOL    HW214589   1.103   4.017   1.608
 4564SOL     OW14590   2.100   4.367   2.417
 4564SOL    HW114591   2.122   4.423   2.337
 4564SOL    HW214592   2.010   4.393   2.452
 4565SOL     OW14593   2.167   0.353   5.549
 4565SOL    HW114594   2.194   0.413   5.473
 4565SOL    HW214595   2.242   0.349   5.615
 4566SOL     OW14596   0.089   4.203   3.054
 4566SOL    HW114597   0.040   4.116   3.062
 4566SOL    HW214598   0.034   4.275   3.096
 4567SOL     OW14599   6.787   6.863   6.841
 4567SOL    HW114600   6.693   6.849   6.870
 4567SOL    HW214601   6.810   6.960   6.849
 4568SOL     OW14602   0.992   5.019   3.746
 4568SOL    HW114603   0.993   5.114   3.716
 4568SOL    HW214604   0.924   5.007   3.819
 4569SOL     OW14605   1.535   2.062   3.315
 4569SOL    HW114606   1.487   2.126   3.254
 4569SOL    HW214607   1.496   1.971   3.305
 4570SOL     OW14608   4.991   5.287   1.109
 4570SOL    HW114609   5.077   5.316   1.066
 4570SOL    HW214610   4.983   5.188   1.105
 4571SOL     OW14611   1.986   4.388   5.553
 4571SOL    HW114612   2.070   4.343   5.522
 4571SOL    HW214613   1.909   4.357   5.497
 4572SOL     OW14614   4.425   3.124   1.683
 4572SOL    HW114615   4.455   3.137   1.588
 4572SOL    HW214616   4.490   3.065   1.731
 4573SOL     OW14617   2.225   4.926   0.590
 4573SOL    HW114618   2.261   4.854   0.530
 4573SOL    HW214619   2.126   4.918   0.595
 4574SOL     OW14620   4.879   0.649   1.985
 4574SOL    HW114621   4.833   0.737   1.972
 4574SOL    HW214622   4.976   0.664   2.001
 4575SOL     OW14623   6.574   1.149   5.273
 4575SOL    HW114624   6.540   1.182   5.361
 4575SOL    HW214625   6.503   1.159   5.204
 4576SOL     OW14626   3.516   3.968   6.873
 4576SOL    HW114627   3.539   4.033   6.945
 4576SOL    HW214628   3.427   3.990   6.835
 4577SOL     OW14629   0.869   1.854   1.860
 4577SOL    HW114630   0.842   1.828   1.767
 4577SOL    HW214631   0.806   1.924   1.895
 4578SOL     OW14632   1.755   1.017   3.227
 4578SOL    HW114633   1.806   0.949   3.173
 4578SOL    HW214634   1.693   1.067   3.167
 4579SOL     OW14635   4.526   0.956   3.490
 4579SOL    HW114636   4.502   1.036   3.436
 4579SOL    HW214637   4.624   0.959   3.513
 4580SOL     OW14638   0.994   1.296   1.192
 4580SOL    HW114639   1.032   1.335   1.275
 4580SOL    HW214640   0.971   1.369   1.128
 4581SOL     OW14641   2.600   0.642   1.032
 4581SOL    HW114642   2.613   0.554   1.079
 4581SOL    HW214643   2.627   0.632   0.936
 4582SOL     OW14644   7.009   1.011   3.705
 4582SOL    HW114645   0.002   0.915   3.684
 4582SOL    HW214646   0.054   1.067   3.658
 4583SOL     OW14647   1.708   6.921   0.147
 4583SOL    HW114648   1.733   7.008   0.189
 4583SOL    HW214649   1.741   6.919   0.053
 4584SOL     OW14650   0.283   1.949   3.985
 4584SOL    HW114651   0.259   1.852   3.977
 4584SOL    HW214652   0.201   2.002   4.007
 4585SOL     OW14653   1.830   3.155   2.876
 4585SOL    HW114654   1.839   3.055   2.869
 4585SOL    HW214655   1.751   3.177   2.933
 4586SOL     OW14656   6.544   5.064   5.611
 4586SOL    HW114657   6.496   5.144   5.574
 4586SOL    HW214658   6.477   4.993   5.633
 4587SOL     OW14659   4.307   4.343   5.819
 4587SOL    HW114660   4.353   4.430   5.807
 4587SOL    HW214661   4.350   4.292   5.894
 4588SOL     OW14662   3.120   4.193   6.353
 4588SOL    HW114663   3.085   4.285   6.331
 4588SOL    HW214664   3.172   4.197   6.437
 4589SOL     OW14665   5.553   6.610   2.527
 4589SOL    HW114666   5.598   6.617   2.438
 4589SOL    HW214667   5.454   6.609   2.514
 4590SOL     OW14668   2.737   5.548   1.133
 4590SOL    HW114669   2.651   5.498   1.121
 4590SOL    HW214670   2.728   5.639   1.093
 4591SOL     OW14671   2.431   0.883   5.054
 4591SOL    HW114672   2.366   0.923   4.990
 4591SOL    HW214673   2.502   0.834   5.004
 4592SOL     OW14674   2.885   1.947   4.018
 4592SOL    HW114675   2.930   2.025   4.061
 4592SOL    HW214676   2.940   1.913   3.942
 4593SOL     OW14677   1.176   5.865   4.112
 4593SOL    HW114678   1.200   5.768   4.105
 4593SOL    HW214679   1.102   5.875   4.180
 4594SOL     OW14680   2.068   6.382   4.027
 4594SOL    HW114681   2.112   6.398   4.115
 4594SOL    HW214682   1.971   6.364   4.041
 4595SOL     OW14683   5.655   2.159   6.441
 4595SOL    HW114684   5.661   2.130   6.345
 4595SOL    HW214685   5.660   2.079   6.500
 4596SOL     OW14686   1.278   1.155   2.317
 4596SOL    HW114687   1.265   1.160   2.218
 4596SOL    HW214688   1.189   1.167   2.362
 4597SOL     OW14689   2.341   6.020   0.601
 4597SOL    HW114690   2.289   6.024   0.687
 4597SOL    HW214691   2.404   6.098   0.597
 4598SOL     OW14692   0.612   3.295   7.019
 4598SOL    HW114693   0.590   3.317   6.924
 4598SOL    HW214694   0.711   3.288   0.005
 4599SOL     OW14695   3.531   6.362   2.832
 4599SOL    HW114696   3.612   6.419   2.847
 4599SOL    HW214697   3.475   6.402   2.760
 4600SOL     OW14698   6.854   6.306   6.230
 4600SOL    HW114699   6.902   6.384   6.270
 4600SOL    HW214700   6.919   6.231   6.215
 4601SOL     OW14701   1.683   0.554   5.734
 4601SOL    HW114702   1.675   0.625   5.664
 4601SOL    HW214703   1.679   0.464   5.691
 4602SOL     OW14704   4.056   1.585   6.351
 4602SOL    HW114705   3.977   1.629   6.309
 4602SOL    HW214706   4.092   1.642   6.425
 4603SOL     OW14707   4.122   6.917   1.177
 4603SOL    HW114708   4.122   6.869   1.265
 4603SOL    HW214709   4.140   7.014   1.192
 4604SOL     OW14710   0.707   0.228   3.801
 4604SOL    HW114711   0.730   0.323   3.820
 4604SOL    HW214712   0.609   0.214   3.814
 4605SOL     OW14713   4.402   0.933   1.429
 4605SOL    HW114714   4.451   1.009   1.385
 4605SOL    HW214715   4.451   0.905   1.511
 4606SOL     OW14716   6.922   6.715   5.036
 4606SOL    HW114717   6.995   6.766   5.080
 4606SOL    HW214718   6.854   6.688   5.104
 4607SOL     OW14719   2.718   1.716   1.066
 4607SOL    HW114720   2.694   1.767   1.148
 4607SOL    HW214721   2.676   1.759   0.986
 4608SOL     OW14722   0.062   2.899   4.969
 4608SOL    HW114723   7.018   2.830   4.997
 4608SOL    HW214724   0.060   2.975   5.034
 4609SOL     OW14725   5.376   4.845   6.257
 4609SOL    HW114726   5.327   4.804   6.333
 4609SOL    HW214727   5.438   4.916   6.291
 4610SOL     OW14728   5.009   5.096   7.017
 4610SOL    HW114729   4.964   5.133   6.936
 4610SOL    HW214730   5.107   5.087   6.999
 4611SOL     OW14731   0.126   1.227   6.814
 4611SOL    HW114732   0.085   1.299   6.870
 4611SOL    HW214733   0.083   1.226   6.724
 4612SOL     OW14734   2.724   1.115   2.988
 4612SOL    HW114735   2.745   1.019   2.971
 4612SOL    HW214736   2.807   1.162   3.018
 4613SOL     OW14737   1.442   5.793   1.886
 4613SOL    HW114738   1.464   5.827   1.794
 4613SOL    HW214739   1.414   5.869   1.944
 4614SOL     OW14740   0.216   4.519   3.175
 4614SOL    HW114741   0.171   4.533   3.087
 4614SOL    HW214742   0.160   4.458   3.232
 4615SOL     OW14743   1.485   4.326   6.629
 4615SOL    HW114744   1.525   4.394   6.568
 4615SOL    HW214745   1.557   4.273   6.673
 4616SOL     OW14746   1.434   4.135   6.419
 4616SOL    HW114747   1.438   4.201   6.494
 4616SOL    HW214748   1.347   4.085   6.423
 4617SOL     OW14749   6.868   3.410   3.577
 4617SOL    HW114750   6.967   3.408   3.569
 4617SOL    HW214751   6.842   3.407   3.673
 4618SOL     OW14752   2.479   3.683   5.685
 4618SOL    HW114753   2.531   3.748   5.740
 4618SOL    HW214754   2.384   3.681   5.717
 4619SOL     OW14755   4.769   6.086   6.366
 4619SOL    HW114756   4.709   6.133   6.303
 4619SOL    HW214757   4.835   6.030   6.315
 4620SOL     OW14758   1.287   4.454   1.790
 4620SOL    HW114759   1.382   4.485   1.793
 4620SOL    HW214760   1.250   4.468   1.698
 4621SOL     OW14761   3.282   0.211   2.834
 4621SOL    HW114762   3.258   0.141   2.767
 4621SOL    HW214763   3.381   0.223   2.835
 4622SOL     OW14764   5.136   0.001   0.706
 4622SOL    HW114765   5.187   6.945   0.673
 4622SOL    HW214766   5.200   0.070   0.740
 4623SOL     OW14767   3.282   4.872   2.559
 4623SOL    HW114768   3.251   4.856   2.465
 4623SOL    HW214769   3.203   4.884   2.619
 4624SOL     OW14770   4.906   1.529   1.409
 4624SOL    HW114771   4.812   1.507   1.385
 4624SOL    HW214772   4.908   1.577   1.496
 4625SOL     OW14773   1.560   6.468   1.562
 4625SOL    HW114774   1.470   6.507   1.579
 4625SOL    HW214775   1.554   6.368   1.569
 4626SOL     OW14776   4.179   3.307   1.973
 4626SOL    HW114777   4.128   3.249   1.909
 4626SOL    HW214778   4.269   3.329   1.933
 4627SOL     OW14779   5.662   0.293   5.097
 4627SOL    HW114780   5.714   0.219   5.055
 4627SOL    HW214781   5.722   0.344   5.159
 4628SOL     OW14782   6.266   4.782   2.725
 4628SOL    HW114783   6.212   4.736   2.796
 4628SOL    HW214784   6.215   4.781   2.639
 4629SOL     OW14785   1.659   5.415   0.706
 4629SOL    HW114786   1.636   5.318   0.709
 4629SOL    HW214787   1.591   5.464   0.651
 4630SOL     OW14788   1.938   3.852   1.485
 4630SOL    HW114789   1.865   3.787   1.505
 4630SOL    HW214790   1.918   3.900   1.400
 4631SOL     OW14791   6.338   0.988   2.866
 4631SOL    HW114792   6.381   0.903   2.895
 4631SOL    HW214793   6.408   1.057   2.847
 4632SOL     OW14794   2.815   4.744   3.464
 4632SOL    HW114795   2.841   4.648   3.454
 4632SOL    HW214796   2.854   4.781   3.549
 4633SOL     OW14797   5.273   2.430   4.276
 4633SOL    HW114798   5.307   2.398   4.365
 4633SOL    HW214799   5.345   2.423   4.208
 4634SOL     OW14800   3.746   3.010   4.541
 4634SOL    HW114801   3.823   3.065   4.509
 4634SOL    HW214802   3.714   2.950   4.468
 4635SOL     OW14803   4.668   6.200   2.482
 4635SOL    HW114804   4.596   6.239   2.424
 4635SOL    HW214805   4.757   6.214   2.439
 4636SOL     OW14806   1.645   6.288   6.195
 4636SOL    HW114807   1.636   6.197   6.237
 4636SOL    HW214808   1.562   6.340   6.212
 4637SOL     OW14809   1.996   2.366   3.216
 4637SOL    HW114810   2.092   2.358   3.244
 4637SOL    HW214811   1.982   2.453   3.169
 4638SOL     OW14812   3.828   4.870   0.646
 4638SOL    HW114813   3.804   4.960   0.682
 4638SOL    HW214814   3.838   4.805   0.722
 4639SOL     OW14815   3.708   2.059   2.301
 4639SOL    HW114816   3.672   2.079   2.210
 4639SOL    HW214817   3.637   2.074   2.369
 4640SOL     OW14818   6.300   3.181   0.990
 4640SOL    HW114819   6.276   3.203   1.084
 4640SOL    HW214820   6.335   3.263   0.944
 4641SOL     OW14821   1.497   5.930   4.396
 4641SOL    HW114822   1.506   5.831   4.391
 4641SOL    HW214823   1.512   5.960   4.490
 4642SOL     OW14824   6.016   1.309   5.503
 4642SOL    HW114825   6.072   1.359   5.569
 4642SOL    HW214826   6.058   1.315   5.412
 4643SOL     OW14827   0.704   1.768   0.307
 4643SOL    HW114828   0.784   1.720   0.270
 4643SOL    HW214829   0.626   1.754   0.246
 4644SOL     OW14830   0.959   0.562   0.680
 4644SOL    HW114831   0.894   0.560   0.757
 4644SOL    HW214832   0.969   0.656   0.647
 4645SOL     OW14833   6.357   2.330   4.743
 4645SOL    HW114834   6.292   2.384   4.795
 4645SOL    HW214835   6.339   2.232   4.758
 4646SOL     OW14836   2.092   3.671   2.613
 4646SOL    HW114837   2.018   3.728   2.578
 4646SOL    HW214838   2.110   3.596   2.548
 4647SOL     OW14839   2.106   6.693   1.692
 4647SOL    HW114840   2.096   6.594   1.693
 4647SOL    HW214841   2.194   6.718   1.732
 4648SOL     OW14842   2.874   1.124   4.551
 4648SOL    HW114843   2.920   1.044   4.590
 4648SOL    HW214844   2.890   1.126   4.452
 4649SOL     OW14845   5.538   1.779   0.601
 4649SOL    HW114846   5.490   1.857   0.641
 4649SOL    HW214847   5.605   1.744   0.666
 4650SOL     OW14848   4.611   5.443   0.982
 4650SOL    HW114849   4.518   5.440   0.944
 4650SOL    HW214850   4.609   5.418   1.079
 4651SOL     OW14851   0.511   4.204   6.478
 4651SOL    HW114852   0.466   4.272   6.421
 4651SOL    HW214853   0.459   4.118   6.476
 4652SOL     OW14854   6.891   0.232   5.186
 4652SOL    HW114855   6.979   0.254   5.228
 4652SOL    HW214856   6.831   0.312   5.191
 4653SOL     OW14857   6.954   5.737   0.999
 4653SOL    HW114858   0.014   5.784   0.971
 4653SOL    HW214859   6.881   5.757   0.933
 4654SOL     OW14860   0.794   1.050   5.794
 4654SOL    HW114861   0.876   1.019   5.843
 4654SOL    HW214862   0.814   1.061   5.697
 4655SOL     OW14863   5.153   3.710   2.804
 4655SOL    HW114864   5.221   3.759   2.750
 4655SOL    HW214865   5.196   3.670   2.885
 4656SOL     OW14866   5.871   1.110   1.797
 4656SOL    HW114867   5.849   1.191   1.851
 4656SOL    HW214868   5.793   1.087   1.739
 4657SOL     OW14869   3.783   1.305   2.591
 4657SOL    HW114870   3.881   1.292   2.607
 4657SOL    HW214871   3.738   1.216   2.585
 4658SOL     OW14872   1.206   1.774   6.415
 4658SOL    HW114873   1.291   1.827   6.419
 4658SOL    HW214874   1.189   1.747   6.320
 4659SOL     OW14875   1.961   4.408   0.638
 4659SOL    HW114876   1.982   4.477   0.568
 4659SOL    HW214877   1.987   4.318   0.605
 4660SOL     OW14878   0.054   5.286   4.004
 4660SOL    HW114879   0.117   5.213   4.031
 4660SOL    HW214880   6.994   5.281   4.059
 4661SOL     OW14881   0.712   1.648   5.629
 4661SOL    HW114882   0.728   1.550   5.646
 4661SOL    HW214883   0.790   1.685   5.578
 4662SOL     OW14884   2.887   0.704   6.123
 4662SOL    HW114885   2.902   0.705   6.024
 4662SOL    HW214886   2.892   0.609   6.156
 4663SOL     OW14887   0.955   0.011   0.487
 4663SOL    HW114888   0.913   0.062   0.562
 4663SOL    HW214889   1.045   7.002   0.516
 4664SOL     OW14890   6.142   6.721   6.107
 4664SOL    HW114891   6.167   6.634   6.149
 4664SOL    HW214892   6.079   6.704   6.031
 4665SOL     OW14893   0.197   0.448   2.980
 4665SOL    HW114894   0.295   0.443   2.957
 4665SOL    HW214895   0.177   0.536   3.022
 4666SOL     OW14896   1.645   2.765   5.964
 4666SOL    HW114897   1.585   2.694   5.927
 4666SOL    HW214898   1.604   2.802   6.048
 4667SOL     OW14899   6.406   3.388   0.835
 4667SOL    HW114900   6.490   3.353   0.876
 4667SOL    HW214901   6.412   3.488   0.828
 4668SOL     OW14902   4.685   2.086   4.776
 4668SOL    HW114903   4.648   2.174   4.744
 4668SOL    HW214904   4.770   2.067   4.727
 4669SOL     OW14905   5.218   6.809   6.502
 4669SOL    HW114906   5.146   6.744   6.477
 4669SOL    HW214907   5.288   6.810   6.430
 4670SOL     OW14908   0.237   3.682   6.454
 4670SOL    HW114909   0.303   3.656   6.525
 4670SOL    HW214910   0.253   3.777   6.427
 4671SOL     OW14911   6.872   2.827   2.040
 4671SOL    HW114912   6.903   2.774   1.961
 4671SOL    HW214913   6.952   2.859   2.092
 4672SOL     OW14914   2.734   3.695   6.812
 4672SOL    HW114915   2.636   3.691   6.832
 4672SOL    HW214916   2.786   3.685   6.897
 4673SOL     OW14917   5.760   0.845   0.833
 4673SOL    HW114918   5.740   0.886   0.744
 4673SOL    HW214919   5.800   0.914   0.894
 4674SOL     OW14920   0.852   2.899   0.518
 4674SOL    HW114921   0.855   2.948   0.605
 4674SOL    HW214922   0.758   2.872   0.499
 4675SOL     OW14923   1.727   5.855   6.420
 4675SOL    HW114924   1.667   5.929   6.390
 4675SOL    HW214925   1.774   5.881   6.504
 4676SOL     OW14926   0.334   6.036   4.484
 4676SOL    HW114927   0.285   5.951   4.466
 4676SOL    HW214928   0.415   6.041   4.426
 4677SOL     OW14929   3.808   6.778   0.007
 4677SOL    HW114930   3.711   6.773   0.028
 4677SOL    HW214931   3.857   6.816   0.085
 4678SOL     OW14932   2.239   4.150   0.038
 4678SOL    HW114933   2.256   4.223   6.996
 4678SOL    HW214934   2.194   4.188   0.119
 4679SOL     OW14935   2.537   6.679   5.415
 4679SOL    HW114936   2.442   6.698   5.439
 4679SOL    HW214937   2.543   6.653   5.318
 4680SOL     OW14938   0.649   5.005   0.089
 4680SOL    HW114939   0.737   5.014   0.043
 4680SOL    HW214940   0.660   4.951   0.173
 4681SOL     OW14941   6.391   5.597   4.761
 4681SOL    HW114942   6.446   5.673   4.795
 4681SOL    HW214943   6.295   5.624   4.759
 4682SOL     OW14944   2.602   6.960   0.535
 4682SOL    HW114945   2.697   6.958   0.567
 4682SOL    HW214946   2.548   6.896   0.590
 4683SOL     OW14947   0.453   4.703   3.095
 4683SOL    HW114948   0.454   4.766   3.173
 4683SOL    HW214949   0.370   4.647   3.099
 4684SOL     OW14950   1.485   1.404   5.129
 4684SOL    HW114951   1.533   1.394   5.042
 4684SOL    HW214952   1.476   1.315   5.173
 4685SOL     OW14953   5.011   4.739   5.003
 4685SOL    HW114954   4.951   4.819   5.001
 4685SOL    HW214955   5.100   4.762   4.964
 4686SOL     OW14956   4.553   5.979   0.176
 4686SOL    HW114957   4.571   5.989   0.078
 4686SOL    HW214958   4.607   6.045   0.227
 4687SOL     OW14959   5.048   6.651   4.547
 4687SOL    HW114960   4.980   6.584   4.576
 4687SOL    HW214961   5.002   6.732   4.511
 4688SOL     OW14962   0.184   1.976   0.680
 4688SOL    HW114963   0.251   1.935   0.619
 4688SOL    HW214964   0.122   2.034   0.628
 4689SOL     OW14965   1.523   4.899   4.756
 4689SOL    HW114966   1.434   4.935   4.730
 4689SOL    HW214967   1.583   4.898   4.676
 4690SOL     OW14968   1.798   1.614   0.713
 4690SOL    HW114969   1.837   1.633   0.622
 4690SOL    HW214970   1.817   1.520   0.739
 4691SOL     OW14971   3.755   4.511   0.448
 4691SOL    HW114972   3.676   4.461   0.481
 4691SOL    HW214973   3.825   4.446   0.416
 4692SOL     OW14974   0.702   5.862   3.682
 4692SOL    HW114975   0.630   5.802   3.718
 4692SOL    HW214976   0.755   5.811   3.614
 4693SOL     OW14977   0.963   0.501   2.680
 4693SOL    HW114978   0.886   0.477   2.620
 4693SOL    HW214979   0.953   0.452   2.767
 4694SOL     OW14980   1.245   0.945   5.670
 4694SOL    HW114981   1.308   0.904   5.603
 4694SOL    HW214982   1.186   1.010   5.623
 4695SOL     OW14983   3.241   2.960   2.472
 4695SOL    HW114984   3.188   2.916   2.400
 4695SOL    HW214985   3.180   2.985   2.548
 4696SOL     OW14986   6.118   3.371   0.472
 4696SOL    HW114987   6.196   3.417   0.514
 4696SOL    HW214988   6.037   3.431   0.475
 4697SOL     OW14989   1.149   5.827   6.768
 4697SOL    HW114990   1.101   5.834   6.855
 4697SOL    HW214991   1.198   5.740   6.763
 4698SOL     OW14992   6.294   2.994   2.401
 4698SOL    HW114993   6.209   2.971   2.448
 4698SOL    HW214994   6.371   2.983   2.464
 4699SOL     OW14995   0.076   6.583   3.090
 4699SOL    HW114996   0.056   6.537   3.003
 4699SOL    HW214997   0.026   6.670   3.094
 4700SOL     OW14998   5.243   6.611   6.971
 4700SOL    HW114999   5.281   6.552   0.018
 4700SOL    HW215000   5.171   6.561   6.921
 4701SOL     OW15001   0.908   0.559   0.042
 4701SOL    HW115002   0.830   0.575   7.005
 4701SOL    HW215003   0.884   0.588   0.135
 4702SOL     OW15004   2.561   3.554   0.295
 4702SOL    HW115005   2.580   3.456   0.292
 4702SOL    HW215006   2.583   3.589   0.386
 4703SOL     OW15007   0.658   0.867   2.008
 4703SOL    HW115008   0.693   0.774   2.003
 4703SOL    HW215009   0.694   0.921   1.931
 4704SOL     OW15010   4.681   0.230   6.874
 4704SOL    HW115011   4.685   0.329   6.856
 4704SOL    HW215012   4.762   0.202   6.925
 4705SOL     OW15013   3.743   4.126   4.584
 4705SOL    HW115014   3.657   4.117   4.534
 4705SOL    HW215015   3.787   4.212   4.558
 4706SOL     OW15016   5.317   4.720   0.261
 4706SOL    HW115017   5.323   4.686   0.168
 4706SOL    HW215018   5.223   4.709   0.294
 4707SOL     OW15019   2.976   5.572   1.063
 4707SOL    HW115020   3.042   5.540   1.131
 4707SOL    HW215021   2.884   5.543   1.089
 4708SOL     OW15022   1.699   3.205   2.415
 4708SOL    HW115023   1.678   3.218   2.512
 4708SOL    HW215024   1.717   3.294   2.372
 4709SOL     OW15025   2.589   4.638   0.598
 4709SOL    HW115026   2.672   4.686   0.627
 4709SOL    HW215027   2.539   4.606   0.679
 4710SOL     OW15028   5.059   3.206   1.391
 4710SOL    HW115029   5.087   3.124   1.441
 4710SOL    HW215030   5.004   3.265   1.451
 4711SOL     OW15031   2.815   6.943   3.321
 4711SOL    HW115032   2.861   7.002   3.255
 4711SOL    HW215033   2.875   6.926   3.398
 4712SOL     OW15034   1.634   4.207   6.842
 4712SOL    HW115035   1.561   4.208   6.910
 4712SOL    HW215036   1.657   4.113   6.819
 4713SOL     OW15037   1.724   5.607   0.891
 4713SOL    HW115038   1.693   5.680   0.830
 4713SOL    HW215039   1.711   5.519   0.845
 4714SOL     OW15040   3.695   1.957   0.933
 4714SOL    HW115041   3.693   1.939   1.031
 4714SOL    HW215042   3.624   2.025   0.910
 4715SOL     OW15043   4.917   3.706   4.791
 4715SOL    HW115044   4.962   3.765   4.858
 4715SOL    HW215045   4.857   3.641   4.838
 4716SOL     OW15046   2.567   5.222   0.009
 4716SOL    HW115047   2.616   5.248   6.949
 4716SOL    HW215048   2.553   5.123   0.010
 4717SOL     OW15049   2.273   5.246   4.175
 4717SOL    HW115050   2.261   5.322   4.239
 4717SOL    HW215051   2.271   5.159   4.225
 4718SOL     OW15052   5.281   0.804   6.937
 4718SOL    HW115053   5.369   0.817   6.892
 4718SOL    HW215054   5.224   0.885   6.923
 4719SOL     OW15055   4.806   2.762   1.532
 4719SOL    HW115056   4.894   2.803   1.507
 4719SOL    HW215057   4.739   2.781   1.461
 4720SOL     OW15058   3.138   1.117   3.728
 4720SOL    HW115059   3.065   1.182   3.708
 4720SOL    HW215060   3.219   1.141   3.675
 4721SOL     OW15061   1.331   1.440   1.167
 4721SOL    HW115062   1.410   1.499   1.183
 4721SOL    HW215063   1.297   1.454   1.074
 4722SOL     OW15064   3.440   0.435   2.771
 4722SOL    HW115065   3.499   0.482   2.705
 4722SOL    HW215066   3.489   0.355   2.806
 4723SOL     OW15067   3.143   0.232   5.290
 4723SOL    HW115068   3.142   0.180   5.375
 4723SOL    HW215069   3.230   0.281   5.283
 4724SOL     OW15070   4.742   4.848   1.268
 4724SOL    HW115071   4.821   4.835   1.328
 4724SOL    HW215072   4.709   4.759   1.237
 4725SOL     OW15073   5.716   5.483   2.805
 4725SOL    HW115074   5.620   5.503   2.827
 4725SOL    HW215075   5.764   5.568   2.786
 4726SOL     OW15076   6.978   6.358   4.758
 4726SOL    HW115077   0.049   6.329   4.743
 4726SOL    HW215078   6.966   6.381   4.855
 4727SOL     OW15079   6.396   6.416   1.063
 4727SOL    HW115080   6.474   6.400   1.002
 4727SOL    HW215081   6.376   6.514   1.067
 4728SOL     OW15082   6.709   0.915   6.981
 4728SOL    HW115083   6.613   0.890   6.994
 4728SOL    HW215084   6.759   0.901   0.043
 4729SOL     OW15085   2.750   0.849   0.752
 4729SOL    HW115086   2.789   0.929   0.705
 4729SOL    HW215087   2.744   0.868   0.850
 4730SOL     OW15088   1.964   0.625   5.603
 4730SOL    HW115089   2.030   0.616   5.677
 4730SOL    HW215090   1.912   0.540   5.594
 4731SOL     OW15091   4.997   2.028   6.878
 4731SOL    HW115092   5.049   1.943   6.881
 4731SOL    HW215093   4.915   2.015   6.822
 4732SOL     OW15094   0.140   1.046   0.184
 4732SOL    HW115095   0.231   1.024   0.148
 4732SOL    HW215096   0.083   1.082   0.111
 4733SOL     OW15097   6.784   3.345   3.826
 4733SOL    HW115098   6.699   3.386   3.856
 4733SOL    HW215099   6.858   3.372   3.887
 4734SOL     OW15100   5.341   4.321   5.901
 4734SOL    HW115101   5.434   4.298   5.874
 4734SOL    HW215102   5.342   4.365   5.991
 4735SOL     OW15103   0.369   3.899   4.021
 4735SOL    HW115104   0.300   3.960   3.982
 4735SOL    HW215105   0.410   3.845   3.948
 4736SOL     OW15106   2.022   0.310   1.202
 4736SOL    HW115107   2.067   0.263   1.278
 4736SOL    HW215108   2.034   0.409   1.212
 4737SOL     OW15109   3.412   5.059   1.904
 4737SOL    HW115110   3.405   5.110   1.990
 4737SOL    HW215111   3.441   5.120   1.831
 4738SOL     OW15112   0.151   6.269   2.920
 4738SOL    HW115113   0.099   6.197   2.873
 4738SOL    HW215114   0.219   6.227   2.980
 4739SOL     OW15115   4.183   6.959   1.607
 4739SOL    HW115116   4.244   6.944   1.529
 4739SOL    HW215117   4.102   6.901   1.597
 4740SOL     OW15118   0.550   2.302   3.828
 4740SOL    HW115119   0.509   2.393   3.822
 4740SOL    HW215120   0.597   2.293   3.915
 4741SOL     OW15121   3.791   3.501   1.642
 4741SOL    HW115122   3.755   3.546   1.723
 4741SOL    HW215123   3.891   3.497   1.647
 4742SOL     OW15124   4.275   0.888   0.706
 4742SOL    HW115125   4.372   0.877   0.688
 4742SOL    HW215126   4.233   0.940   0.632
 4743SOL     OW15127   1.660   6.239   0.903
 4743SOL    HW115128   1.727   6.176   0.863
 4743SOL    HW215129   1.574   6.234   0.851
 4744SOL     OW15130   1.884   5.656   1.647
 4744SOL    HW115131   1.893   5.674   1.745
 4744SOL    HW215132   1.928   5.569   1.625
 4745SOL     OW15133   1.810   3.569   0.226
 4745SOL    HW115134   1.892   3.542   0.175
 4745SOL    HW215135   1.810   3.524   0.315
 4746SOL     OW15136   5.022   5.581   4.187
 4746SOL    HW115137   4.981   5.517   4.252
 4746SOL    HW215138   5.097   5.535   4.139
 4747SOL     OW15139   3.460   0.594   6.689
 4747SOL    HW115140   3.365   0.563   6.677
 4747SOL    HW215141   3.522   0.518   6.669
 4748SOL     OW15142   1.881   0.448   2.145
 4748SOL    HW115143   1.972   0.408   2.136
 4748SOL    HW215144   1.847   0.475   2.055
 4749SOL     OW15145   2.165   1.862   0.938
 4749SOL    HW115146   2.146   1.788   0.873
 4749SOL    HW215147   2.234   1.831   1.004
 4750SOL     OW15148   4.435   3.323   5.865
 4750SOL    HW115149   4.444   3.421   5.882
 4750SOL    HW215150   4.342   3.294   5.885
 4751SOL     OW15151   4.466   1.447   2.602
 4751SOL    HW115152   4.377   1.443   2.555
 4751SOL    HW215153   4.452   1.478   2.696
 4752SOL     OW15154   5.808   1.771   6.889
 4752SOL    HW115155   5.714   1.785   6.858
 4752SOL    HW215156   5.826   1.831   6.967
 4753SOL     OW15157   2.487   6.221   5.257
 4753SOL    HW115158   2.437   6.294   5.211
 4753SOL    HW215159   2.580   6.250   5.276
 4754SOL     OW15160   5.138   4.354   0.167
 4754SOL    HW115161   5.185   4.353   0.078
 4754SOL    HW215162   5.039   4.343   0.152
 4755SOL     OW15163   0.619   1.462   0.910
 4755SOL    HW115164   0.561   1.381   0.900
 4755SOL    HW215165   0.561   1.544   0.917
 4756SOL     OW15166   6.981   3.984   5.534
 4756SOL    HW115167   6.986   3.893   5.493
 4756SOL    HW215168   6.948   4.050   5.466
 4757SOL     OW15169   2.311   3.381   0.359
 4757SOL    HW115170   2.272   3.430   0.281
 4757SOL    HW215171   2.409   3.366   0.343
 4758SOL     OW15172   2.515   5.248   3.143
 4758SOL    HW115173   2.525   5.311   3.065
 4758SOL    HW215174   2.557   5.289   3.224
 4759SOL     OW15175   0.678   6.236   2.519
 4759SOL    HW115176   0.619   6.312   2.544
 4759SOL    HW215177   0.774   6.261   2.533
 4760SOL     OW15178   1.696   6.314   1.142
 4760SOL    HW115179   1.671   6.253   1.217
 4760SOL    HW215180   1.686   6.266   1.055
 4761SOL     OW15181   4.850   6.540   1.752
 4761SOL    HW115182   4.820   6.468   1.689
 4761SOL    HW215183   4.828   6.629   1.713
 4762SOL     OW15184   1.641   0.552   2.860
 4762SOL    HW115185   1.650   0.554   2.760
 4762SOL    HW215186   1.675   0.465   2.895
 4763SOL     OW15187   5.336   5.500   2.044
 4763SOL    HW115188   5.346   5.520   2.141
 4763SOL    HW215189   5.363   5.579   1.990
 4764SOL     OW15190   4.754   3.156   0.014
 4764SOL    HW115191   4.842   3.178   0.055
 4764SOL    HW215192   4.680   3.187   0.074
 4765SOL     OW15193   3.955   2.028   5.937
 4765SOL    HW115194   3.990   2.107   5.888
 4765SOL    HW215195   3.987   1.944   5.892
 4766SOL     OW15196   1.087   0.976   4.478
 4766SOL    HW115197   1.099   0.930   4.566
 4766SOL    HW215198   1.097   1.075   4.490
 4767SOL     OW15199   1.950   4.848   3.591
 4767SOL    HW115200   2.006   4.769   3.618
 4767SOL    HW215201   1.986   4.930   3.636
 4768SOL     OW15202   4.780   2.310   6.076
 4768SOL    HW115203   4.850   2.249   6.114
 4768SOL    HW215204   4.820   2.400   6.057
 4769SOL     OW15205   1.500   3.086   0.498
 4769SOL    HW115206   1.544   3.148   0.434
 4769SOL    HW215207   1.548   2.998   0.498
 4770SOL     OW15208   6.817   1.627   3.336
 4770SOL    HW115209   6.780   1.654   3.247
 4770SOL    HW215210   6.785   1.535   3.358
 4771SOL     OW15211   1.932   0.241   3.852
 4771SOL    HW115212   1.984   0.325   3.863
 4771SOL    HW215213   1.906   0.231   3.756
 4772SOL     OW15214   2.684   4.972   3.102
 4772SOL    HW115215   2.624   5.026   3.042
 4772SOL    HW215216   2.729   5.032   3.168
 4773SOL     OW15217   3.001   5.172   4.833
 4773SOL    HW115218   3.090   5.218   4.840
 4773SOL    HW215219   2.932   5.227   4.879
 4774SOL     OW15220   0.866   3.973   0.818
 4774SOL    HW115221   0.834   3.942   0.908
 4774SOL    HW215222   0.955   4.018   0.828
 4775SOL     OW15223   5.626   5.257   4.952
 4775SOL    HW115224   5.615   5.179   4.891
 4775SOL    HW215225   5.698   5.237   5.018
 4776SOL     OW15226   0.307   1.587   5.087
 4776SOL    HW115227   0.374   1.594   5.013
 4776SOL    HW215228   0.242   1.513   5.067
 4777SOL     OW15229   1.681   6.695   2.890
 4777SOL    HW115230   1.690   6.673   2.987
 4777SOL    HW215231   1.605   6.758   2.877
 4778SOL     OW15232   1.938   0.413   6.974
 4778SOL    HW115233   1.983   0.491   7.019
 4778SOL    HW215234   1.933   0.429   6.876
 4779SOL     OW15235   4.835   1.150   4.665
 4779SOL    HW115236   4.810   1.238   4.624
 4779SOL    HW215237   4.753   1.103   4.696
 4780SOL     OW15238   4.816   3.130   4.686
 4780SOL    HW115239   4.854   3.209   4.734
 4780SOL    HW215240   4.823   3.144   4.587
 4781SOL     OW15241   1.589   5.412   1.846
 4781SOL    HW115242   1.526   5.336   1.856
 4781SOL    HW215243   1.598   5.436   1.749
 4782SOL     OW15244   0.944   6.214   3.734
 4782SOL    HW115245   1.018   6.194   3.799
 4782SOL    HW215246   0.857   6.186   3.774
 4783SOL     OW15247   0.572   3.386   6.308
 4783SOL    HW115248   0.472   3.385   6.300
 4783SOL    HW215249   0.612   3.343   6.227
 4784SOL     OW15250   5.508   3.102   0.008
 4784SOL    HW115251   5.449   3.168   6.984
 4784SOL    HW215252   5.488   3.105   0.106
 4785SOL     OW15253   0.548   0.122   4.102
 4785SOL    HW115254   0.644   0.104   4.080
 4785SOL    HW215255   0.515   0.054   4.166
 4786SOL     OW15256   1.121   5.635   0.055
 4786SOL    HW115257   1.134   5.734   0.060
 4786SOL    HW215258   1.078   5.603   0.140
 4787SOL     OW15259   5.189   1.249   4.904
 4787SOL    HW115260   5.172   1.334   4.954
 4787SOL    HW215261   5.264   1.199   4.949
 4788SOL     OW15262   6.586   5.777   1.199
 4788SOL    HW115263   6.581   5.738   1.291
 4788SOL    HW215264   6.528   5.724   1.137
 4789SOL     OW15265   6.220   0.502   2.834
 4789SOL    HW115266   6.153   0.474   2.903
 4789SOL    HW215267   6.199   0.459   2.746
 4790SOL     OW15268   6.986   2.043   4.688
 4790SOL    HW115269   6.948   2.036   4.596
 4790SOL    HW215270   0.034   2.113   4.689
 4791SOL     OW15271   0.532   0.244   7.009
 4791SOL    HW115272   0.555   0.178   0.058
 4791SOL    HW215273   0.553   0.203   6.920
 4792SOL     OW15274   0.990   3.725   2.014
 4792SOL    HW115275   1.042   3.648   1.977
 4792SOL    HW215276   0.892   3.706   2.007
 4793SOL     OW15277   0.842   3.952   5.368
 4793SOL    HW115278   0.823   3.960   5.270
 4793SOL    HW215279   0.766   3.990   5.420
 4794SOL     OW15280   5.037   1.914   5.521
 4794SOL    HW115281   4.959   1.851   5.517
 4794SOL    HW215282   5.019   1.994   5.464
 4795SOL     OW15283   0.185   0.863   6.562
 4795SOL    HW115284   0.178   0.868   6.662
 4795SOL    HW215285   0.211   0.953   6.527
 4796SOL     OW15286   4.801   1.225   5.679
 4796SOL    HW115287   4.811   1.265   5.589
 4796SOL    HW215288   4.708   1.240   5.713
 4797SOL     OW15289   2.366   5.270   5.768
 4797SOL    HW115290   2.389   5.212   5.691
 4797SOL    HW215291   2.364   5.366   5.739
 4798SOL     OW15292   3.114   6.089   0.266
 4798SOL    HW115293   3.054   6.011   0.287
 4798SOL    HW215294   3.140   6.085   0.170
 4799SOL     OW15295   3.329   3.102   0.479
 4799SOL    HW115296   3.354   3.195   0.452
 4799SOL    HW215297   3.324   3.097   0.579
 4800SOL     OW15298   1.013   4.884   0.382
 4800SOL    HW115299   1.040   4.788   0.380
 4800SOL    HW215300   1.081   4.937   0.434
 4801SOL     OW15301   4.701   2.456   3.020
 4801SOL    HW115302   4.778   2.502   3.064
 4801SOL    HW215303   4.724   2.360   3.005
 4802SOL     OW15304   7.003   0.787   4.692
 4802SOL    HW115305   6.987   0.822   4.600
 4802SOL    HW215306   6.932   0.720   4.715
 4803SOL     OW15307   5.105   3.893   5.651
 4803SOL    HW115308   5.048   3.873   5.571
 4803SOL    HW215309   5.099   3.991   5.673
 4804SOL     OW15310   5.088   2.095   0.827
 4804SOL    HW115311   5.084   2.066   0.731
 4804SOL    HW215312   5.170   2.151   0.841
 4805SOL     OW15313   5.641   1.435   6.661
 4805SOL    HW115314   5.731   1.447   6.619
 4805SOL    HW215315   5.592   1.523   6.660
 4806SOL     OW15316   1.108   2.270   3.081
 4806SOL    HW115317   1.012   2.246   3.064
 4806SOL    HW215318   1.162   2.250   3.000
 4807SOL     OW15319   6.854   4.301   6.836
 4807SOL    HW115320   6.853   4.225   6.901
 4807SOL    HW215321   6.769   4.302   6.783
 4808SOL     OW15322   3.700   5.924   2.466
 4808SOL    HW115323   3.774   5.910   2.531
 4808SOL    HW215324   3.677   5.837   2.422
 4809SOL     OW15325   2.947   3.488   1.533
 4809SOL    HW115326   2.930   3.564   1.470
 4809SOL    HW215327   2.959   3.404   1.481
 4810SOL     OW15328   1.818   5.334   4.413
 4810SOL    HW115329   1.819   5.309   4.509
 4810SOL    HW215330   1.886   5.279   4.364
 4811SOL     OW15331   3.539   3.130   4.277
 4811SOL    HW115332   3.488   3.174   4.352
 4811SOL    HW215333   3.510   3.169   4.190
 4812SOL     OW15334   2.053   6.622   2.342
 4812SOL    HW115335   2.086   6.613   2.247
 4812SOL    HW215336   2.124   6.590   2.404
 4813SOL     OW15337   0.712   2.748   4.836
 4813SOL    HW115338   0.686   2.744   4.740
 4813SOL    HW215339   0.810   2.730   4.845
 4814SOL     OW15340   6.530   2.990   0.840
 4814SOL    HW115341   6.450   3.045   0.865
 4814SOL    HW215342   6.524   2.901   0.886
 4815SOL     OW15343   6.157   4.247   2.313
 4815SOL    HW115344   6.071   4.198   2.302
 4815SOL    HW215345   6.234   4.189   2.285
 4816SOL     OW15346   2.767   0.439   2.464
 4816SOL    HW115347   2.741   0.526   2.421
 4816SOL    HW215348   2.764   0.367   2.395
 4817SOL     OW15349   4.273   2.411   0.600
 4817SOL    HW115350   4.343   2.478   0.627
 4817SOL    HW215351   4.318   2.328   0.566
 4818SOL     OW15352   4.448   6.649   4.377
 4818SOL    HW115353   4.468   6.724   4.313
 4818SOL    HW215354   4.478   6.562   4.338
 4819SOL     OW15355   2.979   1.005   0.054
 4819SOL    HW115356   2.960   1.100   0.079
 4819SOL    HW215357   2.931   0.944   0.117
 4820SOL     OW15358   6.672   3.963   1.836
 4820SOL    HW115359   6.583   3.930   1.805
 4820SOL    HW215360   6.734   3.886   1.851
 4821SOL     OW15361   0.198   5.678   1.801
 4821SOL    HW115362   0.163   5.698   1.710
 4821SOL    HW215363   0.283   5.625   1.794
 4822SOL     OW15364   0.642   3.352   1.370
 4822SOL    HW115365   0.691   3.434   1.401
 4822SOL    HW215366   0.705   3.274   1.370
 4823SOL     OW15367   0.400   1.260   3.220
 4823SOL    HW115368   0.438   1.170   3.242
 4823SOL    HW215369   0.377   1.307   3.305
 4824SOL     OW15370   5.694   1.808   2.392
 4824SOL    HW115371   5.684   1.758   2.477
 4824SOL    HW215372   5.710   1.744   2.317
 4825SOL     OW15373   1.102   3.425   4.080
 4825SOL    HW115374   1.180   3.481   4.051
 4825SOL    HW215375   1.112   3.400   4.176
 4826SOL     OW15376   6.668   6.984   0.379
 4826SOL    HW115377   6.693   6.894   0.343
 4826SOL    HW215378   6.641   0.020   0.304
 4827SOL     OW15379   5.116   1.775   6.885
 4827SOL    HW115380   5.157   1.727   6.963
 4827SOL    HW215381   5.023   1.743   6.871
 4828SOL     OW15382   5.081   3.480   6.730
 4828SOL    HW115383   5.056   3.509   6.823
 4828SOL    HW215384   5.132   3.553   6.685
 4829SOL     OW15385   3.389   0.321   5.256
 4829SOL    HW115386   3.425   0.230   5.273
 4829SOL    HW215387   3.420   0.353   5.167
 4830SOL     OW15388   4.393   5.537   4.706
 4830SOL    HW115389   4.459   5.494   4.645
 4830SOL    HW215390   4.441   5.580   4.782
 4831SOL     OW15391   5.932   2.387   6.732
 4831SOL    HW115392   5.919   2.441   6.648
 4831SOL    HW215393   6.028   2.390   6.759
 4832SOL     OW15394   1.842   2.625   6.276
 4832SOL    HW115395   1.927   2.667   6.306
 4832SOL    HW215396   1.824   2.650   6.181
 4833SOL     OW15397   6.567   1.647   3.460
 4833SOL    HW115398   6.518   1.582   3.402
 4833SOL    HW215399   6.662   1.652   3.431
 4834SOL     OW15400   5.926   0.392   3.440
 4834SOL    HW115401   6.004   0.423   3.385
 4834SOL    HW215402   5.958   0.358   3.528
 4835SOL     OW15403   1.673   1.519   5.958
 4835SOL    HW115404   1.760   1.537   6.005
 4835SOL    HW215405   1.637   1.431   5.988
 4836SOL     OW15406   5.999   3.104   2.278
 4836SOL    HW115407   6.032   3.180   2.223
 4836SOL    HW215408   5.900   3.096   2.269
 4837SOL     OW15409   0.536   4.734   0.723
 4837SOL    HW115410   0.550   4.821   0.677
 4837SOL    HW215411   0.438   4.717   0.735
 4838SOL     OW15412   2.359   5.949   2.884
 4838SOL    HW115413   2.382   5.878   2.951
 4838SOL    HW215414   2.268   5.985   2.904
 4839SOL     OW15415   0.798   0.058   6.615
 4839SOL    HW115416   0.737   0.092   6.544
 4839SOL    HW215417   0.825   6.987   6.594
 4840SOL     OW15418   6.388   6.051   6.074
 4840SOL    HW115419   6.316   5.985   6.095
 4840SOL    HW215420   6.450   6.014   6.005
 4841SOL     OW15421   2.186   5.955   1.258
 4841SOL    HW115422   2.243   6.024   1.301
 4841SOL    HW215423   2.119   5.921   1.324
 4842SOL     OW15424   3.490   6.640   1.383
 4842SOL    HW115425   3.483   6.603   1.291
 4842SOL    HW215426   3.557   6.714   1.384
 4843SOL     OW15427   1.359   3.577   6.981
 4843SOL    HW115428   1.335   3.569   0.054
 4843SOL    HW215429   1.392   3.669   6.962
 4844SOL     OW15430   0.803   1.864   5.060
 4844SOL    HW115431   0.795   1.775   5.017
 4844SOL    HW215432   0.737   1.927   5.020
 4845SOL     OW15433   5.699   5.677   3.894
 4845SOL    HW115434   5.694   5.666   3.993
 4845SOL    HW215435   5.793   5.703   3.869
 4846SOL     OW15436   0.483   5.236   6.782
 4846SOL    HW115437   0.426   5.275   6.710
 4846SOL    HW215438   0.443   5.150   6.814
 4847SOL     OW15439   4.763   2.868   4.707
 4847SOL    HW115440   4.773   2.857   4.806
 4847SOL    HW215441   4.764   2.965   4.684
 4848SOL     OW15442   2.795   2.835   1.481
 4848SOL    HW115443   2.739   2.819   1.400
 4848SOL    HW215444   2.737   2.837   1.562
 4849SOL     OW15445   1.912   6.544   6.131
 4849SOL    HW115446   2.011   6.535   6.123
 4849SOL    HW215447   1.868   6.465   6.088
 4850SOL     OW15448   3.560   6.535   3.392
 4850SOL    HW115449   3.615   6.576   3.319
 4850SOL    HW215450   3.612   6.537   3.478
 4851SOL     OW15451   4.921   1.322   5.463
 4851SOL    HW115452   4.923   1.250   5.393
 4851SOL    HW215453   4.996   1.386   5.447
 4852SOL     OW15454   1.850   1.923   1.863
 4852SOL    HW115455   1.776   1.864   1.897
 4852SOL    HW215456   1.913   1.943   1.937
 4853SOL     OW15457   3.741   1.834   2.043
 4853SOL    HW115458   3.708   1.928   2.055
 4853SOL    HW215459   3.830   1.836   1.998
 4854SOL     OW15460   3.607   0.106   6.927
 4854SOL    HW115461   3.549   0.044   6.980
 4854SOL    HW215462   3.635   0.183   6.985
 4855SOL     OW15463   6.638   2.890   2.786
 4855SOL    HW115464   6.649   2.852   2.878
 4855SOL    HW215465   6.670   2.985   2.784
 4856SOL     OW15466   1.098   4.308   2.201
 4856SOL    HW115467   1.013   4.278   2.244
 4856SOL    HW215468   1.175   4.290   2.264
 4857SOL     OW15469   0.437   0.808   5.588
 4857SOL    HW115470   0.439   0.786   5.686
 4857SOL    HW215471   0.400   0.901   5.576
 4858SOL     OW15472   1.644   0.552   4.145
 4858SOL    HW115473   1.561   0.497   4.135
 4858SOL    HW215474   1.655   0.578   4.241
 4859SOL     OW15475   3.913   5.966   6.231
 4859SOL    HW115476   3.962   6.044   6.192
 4859SOL    HW215477   3.943   5.882   6.186
 4860SOL     OW15478   3.299   4.431   0.573
 4860SOL    HW115479   3.391   4.408   0.543
 4860SOL    HW215480   3.263   4.356   0.629
 4861SOL     OW15481   4.312   4.357   6.529
 4861SOL    HW115482   4.375   4.374   6.454
 4861SOL    HW215483   4.237   4.299   6.497
 4862SOL     OW15484   0.318   7.004   0.517
 4862SOL    HW115485   0.257   6.998   0.595
 4862SOL    HW215486   0.369   0.066   0.521
 4863SOL     OW15487   5.146   4.389   6.314
 4863SOL    HW115488   5.164   4.448   6.235
 4863SOL    HW215489   5.222   4.325   6.327
 4864SOL     OW15490   3.525   0.986   4.262
 4864SOL    HW115491   3.553   1.036   4.344
 4864SOL    HW215492   3.437   0.942   4.279
 4865SOL     OW15493   1.694   6.814   5.212
 4865SOL    HW115494   1.648   6.766   5.286
 4865SOL    HW215495   1.684   6.763   5.127
 4866SOL     OW15496   6.775   4.483   6.425
 4866SOL    HW115497   6.719   4.400   6.424
 4866SOL    HW215498   6.776   4.523   6.333
 4867SOL     OW15499   4.511   1.307   2.851
 4867SOL    HW115500   4.470   1.364   2.922
 4867SOL    HW215501   4.501   1.211   2.876
 4868SOL     OW15502   6.823   4.556   0.504
 4868SOL    HW115503   6.876   4.635   0.533
 4868SOL    HW215504   6.875   4.472   0.523
 4869SOL     OW15505   0.907   1.892   1.059
 4869SOL    HW115506   0.881   1.963   0.992
 4869SOL    HW215507   0.928   1.807   1.010
 4870SOL     OW15508   0.171   6.856   1.156
 4870SOL    HW115509   0.148   6.860   1.253
 4870SOL    HW215510   0.091   6.884   1.102
 4871SOL     OW15511   0.964   1.729   3.160
 4871SOL    HW115512   0.972   1.806   3.223
 4871SOL    HW215513   1.011   1.649   3.200
 4872SOL     OW15514   5.736   6.916   3.054
 4872SOL    HW115515   5.780   6.975   3.121
 4872SOL    HW215516   5.638   6.915   3.070
 4873SOL     OW15517   6.897   5.471   4.576
 4873SOL    HW115518   6.929   5.468   4.481
 4873SOL    HW215519   6.963   5.522   4.631
 4874SOL     OW15520   4.890   3.099   2.978
 4874SOL    HW115521   4.816   3.115   2.913
 4874SOL    HW215522   4.975   3.137   2.941
 4875SOL     OW15523   5.877   6.177   5.236
 4875SOL    HW115524   5.838   6.116   5.167
 4875SOL    HW215525   5.952   6.230   5.195
 4876SOL     OW15526   0.115   0.965   2.026
 4876SOL    HW115527   0.100   0.997   1.932
 4876SOL    HW215528   0.031   0.925   2.062
 4877SOL     OW15529   6.639   1.467   6.607
 4877SOL    HW115530   6.599   1.459   6.698
 4877SOL    HW215531   6.670   1.560   6.592
 4878SOL     OW15532   6.468   3.394   2.645
 4878SOL    HW115533   6.545   3.458   2.648
 4878SOL    HW215534   6.489   3.318   2.584
 4879SOL     OW15535   5.331   0.730   3.196
 4879SOL    HW115536   5.357   0.814   3.245
 4879SOL    HW215537   5.239   0.741   3.159
 4880SOL     OW15538   6.928   3.005   6.368
 4880SOL    HW115539   6.849   3.010   6.308
 4880SOL    HW215540   6.963   2.911   6.370
 4881SOL     OW15541   1.317   3.044   1.689
 4881SOL    HW115542   1.402   2.997   1.712
 4881SOL    HW215543   1.247   3.021   1.757
 4882SOL     OW15544   5.041   2.101   4.402
 4882SOL    HW115545   5.003   2.172   4.343
 4882SOL    HW215546   5.118   2.138   4.453
 4883SOL     OW15547   5.899   4.422   0.489
 4883SOL    HW115548   5.900   4.433   0.589
 4883SOL    HW215549   5.881   4.326   0.467
 4884SOL     OW15550   1.822   1.180   1.834
 4884SOL    HW115551   1.825   1.185   1.934
 4884SOL    HW215552   1.908   1.213   1.796
 4885SOL     OW15553   0.952   5.126   0.258
 4885SOL    HW115554   0.939   5.096   0.163
 4885SOL    HW215555   0.969   5.046   0.316
 4886SOL     OW15556   3.212   0.415   2.253
 4886SOL    HW115557   3.307   0.440   2.273
 4886SOL    HW215558   3.171   0.483   2.192
 4887SOL     OW15559   4.574   5.891   0.491
 4887SOL    HW115560   4.648   5.824   0.478
 4887SOL    HW215561   4.587   5.967   0.427
 4888SOL     OW15562   4.613   0.208   3.047
 4888SOL    HW115563   4.544   0.268   3.086
 4888SOL    HW215564   4.704   0.238   3.076
 4889SOL     OW15565   6.563   3.018   3.731
 4889SOL    HW115566   6.477   3.053   3.768
 4889SOL    HW215567   6.637   3.036   3.796
 4890SOL     OW15568   6.614   1.701   5.091
 4890SOL    HW115569   6.619   1.781   5.150
 4890SOL    HW215570   6.525   1.656   5.101
 4891SOL     OW15571   2.465   5.791   0.180
 4891SOL    HW115572   2.541   5.725   0.176
 4891SOL    HW215573   2.430   5.796   0.274
 4892SOL     OW15574   5.312   5.113   2.698
 4892SOL    HW115575   5.274   5.036   2.749
 4892SOL    HW215576   5.406   5.131   2.730
 4893SOL     OW15577   1.585   3.110   1.050
 4893SOL    HW115578   1.633   3.048   0.989
 4893SOL    HW215579   1.505   3.148   1.002
 4894SOL     OW15580   4.487   5.883   1.185
 4894SOL    HW115581   4.439   5.851   1.266
 4894SOL    HW215582   4.445   5.844   1.103
 4895SOL     OW15583   0.244   3.870   5.429
 4895SOL    HW115584   0.191   3.947   5.393
 4895SOL    HW215585   0.332   3.866   5.382
 4896SOL     OW15586   2.721   4.997   4.856
 4896SOL    HW115587   2.721   4.952   4.946
 4896SOL    HW215588   2.816   5.009   4.825
 4897SOL     OW15589   2.065   1.043   5.237
 4897SOL    HW115590   2.041   1.059   5.142
 4897SOL    HW215591   2.087   0.946   5.250
 4898SOL     OW15592   4.796   2.020   4.056
 4898SOL    HW115593   4.827   2.088   3.989
 4898SOL    HW215594   4.750   1.945   4.009
 4899SOL     OW15595   6.254   6.663   2.162
 4899SOL    HW115596   6.197   6.585   2.138
 4899SOL    HW215597   6.247   6.680   2.261
 4900SOL     OW15598   3.995   6.194   6.072
 4900SOL    HW115599   3.982   6.251   6.153
 4900SOL    HW215600   4.092   6.196   6.045
 4901SOL     OW15601   1.621   0.544   6.888
 4901SOL    HW115602   1.524   0.548   6.866
 4901SOL    HW215603   1.649   0.632   6.928
 4902SOL     OW15604   3.065   0.431   5.521
 4902SOL    HW115605   2.966   0.424   5.527
 4902SOL    HW215606   3.098   0.373   5.446
 4903SOL     OW15607   5.096   3.983   3.195
 4903SOL    HW115608   5.043   3.969   3.279
 4903SOL    HW215609   5.036   3.978   3.116
 4904SOL     OW15610   1.865   0.413   1.721
 4904SOL    HW115611   1.907   0.479   1.660
 4904SOL    HW215612   1.812   0.461   1.791
 4905SOL     OW15613   2.415   0.623   2.718
 4905SOL    HW115614   2.411   0.663   2.809
 4905SOL    HW215615   2.509   0.595   2.698
 4906SOL     OW15616   5.533   3.527   4.888
 4906SOL    HW115617   5.502   3.493   4.799
 4906SOL    HW215618   5.455   3.540   4.948
 4907SOL     OW15619   3.831   2.420   0.009
 4907SOL    HW115620   3.757   2.439   6.968
 4907SOL    HW215621   3.859   2.504   0.054
 4908SOL     OW15622   3.519   6.979   6.475
 4908SOL    HW115623   3.424   7.008   6.484
 4908SOL    HW215624   3.568   0.020   6.417
 4909SOL     OW15625   4.801   5.128   4.173
 4909SOL    HW115626   4.790   5.119   4.272
 4909SOL    HW215627   4.723   5.179   4.136
 4910SOL     OW15628   3.982   2.138   6.850
 4910SOL    HW115629   3.905   2.084   6.884
 4910SOL    HW215630   3.951   2.201   6.779
 4911SOL     OW15631   6.621   4.602   2.931
 4911SOL    HW115632   6.711   4.621   2.971
 4911SOL    HW215633   6.606   4.660   2.851
 4912SOL     OW15634   5.888   2.753   4.341
 4912SOL    HW115635   5.977   2.796   4.320
 4912SOL    HW215636   5.819   2.790   4.279
 4913SOL     OW15637   0.814   4.013   5.090
 4913SOL    HW115638   0.798   4.093   5.033
 4913SOL    HW215639   0.913   3.995   5.095
 4914SOL     OW15640   4.046   6.731   4.159
 4914SOL    HW115641   4.027   6.678   4.076
 4914SOL    HW215642   4.104   6.676   4.220
 4915SOL     OW15643   3.927   5.784   5.228
 4915SOL    HW115644   3.920   5.883   5.229
 4915SOL    HW215645   3.901   5.748   5.318
 4916SOL     OW15646   5.294   2.008   3.659
 4916SOL    HW115647   5.226   1.988   3.730
 4916SOL    HW215648   5.248   2.030   3.574
 4917SOL     OW15649   4.378   6.367   6.275
 4917SOL    HW115650   4.341   6.325   6.357
 4917SOL    HW215651   4.374   6.467   6.284
 4918SOL     OW15652   5.852   5.184   3.798
 4918SOL    HW115653   5.766   5.148   3.834
 4918SOL    HW215654   5.848   5.187   3.698
 4919SOL     OW15655   3.553   3.626   2.202
 4919SOL    HW115656   3.631   3.679   2.233
 4919SOL    HW215657   3.524   3.562   2.274
 4920SOL     OW15658   5.984   1.444   6.247
 4920SOL    HW115659   5.886   1.450   6.228
 4920SOL    HW215660   6.011   1.348   6.253
 4921SOL     OW15661   6.792   6.540   1.621
 4921SOL    HW115662   6.730   6.536   1.699
 4921SOL    HW215663   6.796   6.634   1.586
 4922SOL     OW15664   4.528   1.935   5.892
 4922SOL    HW115665   4.532   1.965   5.988
 4922SOL    HW215666   4.607   1.876   5.873
 4923SOL     OW15667   3.902   1.627   1.778
 4923SOL    HW115668   3.893   1.594   1.872
 4923SOL    HW215669   3.951   1.559   1.723
 4924SOL     OW15670   2.352   0.745   5.289
 4924SOL    HW115671   2.400   0.798   5.219
 4924SOL    HW215672   2.374   0.781   5.379
 4925SOL     OW15673   4.998   5.669   3.463
 4925SOL    HW115674   5.010   5.668   3.364
 4925SOL    HW215675   5.087   5.661   3.508
 4926SOL     OW15676   5.871   2.885   1.785
 4926SOL    HW115677   5.797   2.821   1.808
 4926SOL    HW215678   5.929   2.898   1.866
 4927SOL     OW15679   2.499   1.739   0.033
 4927SOL    HW115680   2.590   1.781   0.036
 4927SOL    HW215681   2.479   1.711   6.962
 4928SOL     OW15682   0.057   1.670   0.719
 4928SOL    HW115683   0.018   1.663   0.810
 4928SOL    HW215684   0.156   1.662   0.724
 4929SOL     OW15685   7.001   0.490   4.847
 4929SOL    HW115686   0.030   0.435   4.912
 4929SOL    HW215687   6.914   0.445   4.829
 4930SOL     OW15688   4.741   5.632   2.853
 4930SOL    HW115689   4.707   5.685   2.931
 4930SOL    HW215690   4.665   5.584   2.811
 4931SOL     OW15691   6.120   0.034   1.138
 4931SOL    HW115692   6.044   0.098   1.133
 4931SOL    HW215693   6.160   0.036   1.230
 4932SOL     OW15694   3.351   3.483   2.903
 4932SOL    HW115695   3.303   3.396   2.889
 4932SOL    HW215696   3.439   3.480   2.856
 4933SOL     OW15697   1.326   0.403   5.353
 4933SOL    HW115698   1.300   0.438   5.263
 4933SOL    HW215699   1.272   0.449   5.423
 4934SOL     OW15700   3.294   6.736   2.734
 4934SOL    HW115701   3.270   6.770   2.825
 4934SOL    HW215702   3.385   6.768   2.709
 4935SOL     OW15703   0.354   0.865   5.104
 4935SOL    HW115704   0.337   0.908   5.193
 4935SOL    HW215705   0.303   0.779   5.099
 4936SOL     OW15706   4.743   2.332   0.787
 4936SOL    HW115707   4.660   2.375   0.822
 4936SOL    HW215708   4.773   2.261   0.851
 4937SOL     OW15709   4.340   2.931   5.315
 4937SOL    HW115710   4.268   2.868   5.282
 4937SOL    HW215711   4.303   3.023   5.320
 4938SOL     OW15712   3.913   4.194   6.807
 4938SOL    HW115713   3.866   4.116   6.767
 4938SOL    HW215714   4.009   4.172   6.822
 4939SOL     OW15715   4.196   4.033   6.566
 4939SOL    HW115716   4.277   4.008   6.514
 4939SOL    HW215717   4.136   4.089   6.509
 4940SOL     OW15718   2.282   5.669   3.678
 4940SOL    HW115719   2.332   5.717   3.749
 4940SOL    HW215720   2.337   5.593   3.644
 4941SOL     OW15721   5.662   0.663   1.015
 4941SOL    HW115722   5.717   0.656   1.098
 4941SOL    HW215723   5.692   0.743   0.962
 4942SOL     OW15724   4.793   2.597   5.978
 4942SOL    HW115725   4.830   2.620   5.888
 4942SOL    HW215726   4.768   2.681   6.026
 4943SOL     OW15727   5.446   2.609   1.069
 4943SOL    HW115728   5.411   2.662   0.992
 4943SOL    HW215729   5.431   2.661   1.154
 4944SOL     OW15730   2.109   3.663   2.100
 4944SOL    HW115731   2.152   3.581   2.062
 4944SOL    HW215732   2.178   3.720   2.144
 4945SOL     OW15733   0.085   6.049   4.074
 4945SOL    HW115734   0.016   5.978   4.083
 4945SOL    HW215735   0.176   6.008   4.065
 4946SOL     OW15736   0.119   3.895   2.127
 4946SOL    HW115737   0.046   3.963   2.123
 4946SOL    HW215738   0.165   3.890   2.039
 4947SOL     OW15739   6.125   0.909   0.835
 4947SOL    HW115740   6.072   0.828   0.808
 4947SOL    HW215741   6.222   0.890   0.821
 4948SOL     OW15742   2.314   1.542   2.445
 4948SOL    HW115743   2.387   1.557   2.511
 4948SOL    HW215744   2.332   1.598   2.363
 4949SOL     OW15745   5.378   2.442   4.542
 4949SOL    HW115746   5.457   2.440   4.604
 4949SOL    HW215747   5.303   2.493   4.585
 4950SOL     OW15748   3.259   5.298   4.937
 4950SOL    HW115749   3.187   5.367   4.953
 4950SOL    HW215750   3.310   5.283   5.021
 4951SOL     OW15751   4.283   1.744   4.429
 4951SOL    HW115752   4.258   1.797   4.510
 4951SOL    HW215753   4.215   1.761   4.357
 4952SOL     OW15754   6.736   4.647   4.282
 4952SOL    HW115755   6.751   4.647   4.183
 4952SOL    HW215756   6.786   4.723   4.323
 4953SOL     OW15757   1.212   4.648   1.994
 4953SOL    HW115758   1.238   4.577   1.928
 4953SOL    HW215759   1.134   4.615   2.048
 4954SOL     OW15760   6.337   6.394   0.018
 4954SOL    HW115761   6.397   6.429   6.969
 4954SOL    HW215762   6.280   6.469   0.052
 4955SOL     OW15763   1.971   0.595   1.542
 4955SOL    HW115764   1.973   0.694   1.555
 4955SOL    HW215765   2.056   0.566   1.498
 4956SOL     OW15766   6.284   6.405   3.667
 4956SOL    HW115767   6.198   6.423   3.715
 4956SOL    HW215768   6.277   6.438   3.573
 4957SOL     OW15769   1.813   5.439   3.731
 4957SOL    HW115770   1.868   5.520   3.709
 4957SOL    HW215771   1.862   5.357   3.703
 4958SOL     OW15772   6.998   6.700   0.047
 4958SOL    HW115773   6.935   6.739   0.115
 4958SOL    HW215774   6.954   6.701   6.981
 4959SOL     OW15775   0.555   1.910   6.921
 4959SOL    HW115776   0.624   1.856   6.872
 4959SOL    HW215777   0.477   1.927   6.862
 4960SOL     OW15778   4.293   7.005   5.829
 4960SOL    HW115779   4.289   6.930   5.762
 4960SOL    HW215780   4.245   6.977   5.912
 4961SOL     OW15781   5.268   0.378   5.521
 4961SOL    HW115782   5.178   0.333   5.520
 4961SOL    HW215783   5.303   0.380   5.614
 4962SOL     OW15784   0.063   2.760   2.438
 4962SOL    HW115785   0.099   2.670   2.460
 4962SOL    HW215786   0.099   2.827   2.503
 4963SOL     OW15787   6.966   4.718   1.150
 4963SOL    HW115788   6.936   4.782   1.080
 4963SOL    HW215789   0.038   4.692   1.132
 4964SOL     OW15790   3.724   6.350   3.178
 4964SOL    HW115791   3.769   6.392   3.256
 4964SOL    HW215792   3.626   6.341   3.196
 4965SOL     OW15793   0.054   6.103   4.578
 4965SOL    HW115794   7.020   6.043   4.633
 4965SOL    HW215795   0.150   6.081   4.594
 4966SOL     OW15796   4.210   5.318   4.678
 4966SOL    HW115797   4.131   5.339   4.737
 4966SOL    HW215798   4.289   5.371   4.710
 4967SOL     OW15799   5.713   1.937   6.584
 4967SOL    HW115800   5.771   1.863   6.549
 4967SOL    HW215801   5.769   2.004   6.631
 4968SOL     OW15802   5.225   4.044   0.007
 4968SOL    HW115803   5.275   4.072   0.089
 4968SOL    HW215804   5.240   4.111   6.958
 4969SOL     OW15805   1.596   1.566   1.236
 4969SOL    HW115806   1.644   1.623   1.170
 4969SOL    HW215807   1.572   1.621   1.316
 4970SOL     OW15808   2.077   2.612   5.710
 4970SOL    HW115809   2.078   2.687   5.776
 4970SOL    HW215810   1.982   2.593   5.682
 4971SOL     OW15811   6.691   5.579   3.820
 4971SOL    HW115812   6.656   5.499   3.771
 4971SOL    HW215813   6.722   5.550   3.911
 4972SOL     OW15814   1.528   2.203   5.184
 4972SOL    HW115815   1.610   2.207   5.126
 4972SOL    HW215816   1.459   2.264   5.147
 4973SOL     OW15817   5.412   5.492   2.815
 4973SOL    HW115818   5.318   5.460   2.801
 4973SOL    HW215819   5.427   5.575   2.761
 4974SOL     OW15820   3.987   6.534   6.954
 4974SOL    HW115821   4.043   6.493   0.003
 4974SOL    HW215822   3.940   6.615   6.990
 4975SOL     OW15823   3.592   6.542   0.327
 4975SOL    HW115824   3.549   6.485   0.257
 4975SOL    HW215825   3.685   6.563   0.300
 4976SOL     OW15826   2.842   0.695   4.268
 4976SOL    HW115827   2.758   0.691   4.214
 4976SOL    HW215828   2.906   0.760   4.227
 4977SOL     OW15829   3.468   2.803   0.635
 4977SOL    HW115830   3.558   2.786   0.675
 4977SOL    HW215831   3.424   2.716   0.614
 4978SOL     OW15832   6.202   4.211   6.245
 4978SOL    HW115833   6.290   4.237   6.206
 4978SOL    HW215834   6.197   4.112   6.255
 4979SOL     OW15835   2.027   2.106   4.038
 4979SOL    HW115836   2.099   2.039   4.059
 4979SOL    HW215837   2.055   2.160   3.959
 4980SOL     OW15838   2.159   4.948   2.930
 4980SOL    HW115839   2.092   4.914   2.864
 4980SOL    HW215840   2.111   4.994   3.005
 4981SOL     OW15841   5.227   6.050   5.334
 4981SOL    HW115842   5.311   6.055   5.389
 4981SOL    HW215843   5.252   6.040   5.238
 4982SOL     OW15844   2.608   2.324   6.674
 4982SOL    HW115845   2.584   2.227   6.682
 4982SOL    HW215846   2.525   2.380   6.675
 4983SOL     OW15847   6.768   2.860   4.798
 4983SOL    HW115848   6.682   2.908   4.811
 4983SOL    HW215849   6.797   2.821   4.886
 4984SOL     OW15850   4.919   3.934   3.436
 4984SOL    HW115851   4.878   3.993   3.367
 4984SOL    HW215852   4.894   3.968   3.527
 4985SOL     OW15853   6.019   3.877   2.097
 4985SOL    HW115854   5.943   3.812   2.096
 4985SOL    HW215855   6.028   3.916   2.189
 4986SOL     OW15856   4.443   4.520   2.996
 4986SOL    HW115857   4.391   4.591   3.044
 4986SOL    HW215858   4.414   4.517   2.901
 4987SOL     OW15859   0.602   3.177   0.544
 4987SOL    HW115860   0.545   3.108   0.590
 4987SOL    HW215861   0.576   3.183   0.448
 4988SOL     OW15862   1.839   2.250   5.061
 4988SOL    HW115863   1.884   2.233   4.973
 4988SOL    HW215864   1.905   2.235   5.135
 4989SOL     OW15865   6.729   1.364   0.903
 4989SOL    HW115866   6.818   1.374   0.948
 4989SOL    HW215867   6.716   1.437   0.837
 4990SOL     OW15868   1.446   2.203   6.376
 4990SOL    HW115869   1.408   2.278   6.322
 4990SOL    HW215870   1.493   2.239   6.456
 4991SOL     OW15871   2.965   1.925   5.529
 4991SOL    HW115872   2.950   1.837   5.484
 4991SOL    HW215873   2.984   1.995   5.459
 4992SOL     OW15874   4.707   6.305   4.548
 4992SOL    HW115875   4.627   6.252   4.576
 4992SOL    HW215876   4.788   6.247   4.550
 4993SOL     OW15877   1.730   6.351   4.368
 4993SOL    HW115878   1.670   6.334   4.290
 4993SOL    HW215879   1.741   6.266   4.420
 4994SOL     OW15880   0.646   6.609   3.037
 4994SOL    HW115881   0.700   6.665   2.973
 4994SOL    HW215882   0.601   6.536   2.986
 4995SOL     OW15883   5.728   3.028   5.325
 4995SOL    HW115884   5.764   2.983   5.407
 4995SOL    HW215885   5.790   3.102   5.299
 4996SOL     OW15886   0.598   1.564   3.311
 4996SOL    HW115887   0.685   1.532   3.349
 4996SOL    HW215888   0.574   1.509   3.231
 4997SOL     OW15889   0.124   2.575   3.772
 4997SOL    HW115890   0.044   2.611   3.725
 4997SOL    HW215891   0.111   2.477   3.790
 4998SOL     OW15892   0.749   5.447   5.626
 4998SOL    HW115893   0.733   5.371   5.563
 4998SOL    HW215894   0.829   5.428   5.683
 4999SOL     OW15895   6.075   4.368   0.973
 4999SOL    HW115896   6.129   4.442   1.013
 4999SOL    HW215897   6.087   4.285   1.026
 5000SOL     OW15898   6.711   5.077   4.203
 5000SOL    HW115899   6.705   5.065   4.104
 5000SOL    HW215900   6.732   4.990   4.247
 5001SOL     OW15901   5.208   4.165   5.506
 5001SOL    HW115902   5.146   4.209   5.442
 5001SOL    HW215903   5.187   4.194   5.600
 5002SOL     OW15904   1.865   2.525   1.598
 5002SOL    HW115905   1.947   2.507   1.652
 5002SOL    HW215906   1.861   2.623   1.574
 5003SOL     OW15907   6.739   4.980   3.916
 5003SOL    HW115908   6.668   4.945   3.855
 5003SOL    HW215909   6.815   5.015   3.861
 5004SOL     OW15910   2.228   4.722   6.056
 5004SOL    HW115911   2.191   4.814   6.043
 5004SOL    HW215912   2.173   4.656   6.004
 5005SOL     OW15913   4.806   1.715   0.480
 5005SOL    HW115914   4.853   1.722   0.393
 5005SOL    HW215915   4.751   1.797   0.495
 5006SOL     OW15916   5.438   4.645   2.517
 5006SOL    HW115917   5.386   4.686   2.442
 5006SOL    HW215918   5.473   4.556   2.488
 5007SOL     OW15919   4.651   1.176   5.228
 5007SOL    HW115920   4.717   1.103   5.210
 5007SOL    HW215921   4.648   1.238   5.149
 5008SOL     OW15922   6.285   0.683   3.764
 5008SOL    HW115923   6.365   0.742   3.751
 5008SOL    HW215924   6.214   0.708   3.698
 5009SOL     OW15925   2.113   6.112   2.079
 5009SOL    HW115926   2.115   6.192   2.138
 5009SOL    HW215927   2.102   6.141   1.984
 5010SOL     OW15928   3.552   3.511   5.919
 5010SOL    HW115929   3.484   3.467   5.977
 5010SOL    HW215930   3.513   3.596   5.881
 5011SOL     OW15931   1.472   1.995   3.603
 5011SOL    HW115932   1.444   2.056   3.528
 5011SOL    HW215933   1.543   1.933   3.570
 5012SOL     OW15934   5.983   3.298   6.893
 5012SOL    HW115935   5.965   3.302   6.795
 5012SOL    HW215936   5.910   3.246   6.938
 5013SOL     OW15937   4.731   2.256   5.632
 5013SOL    HW115938   4.803   2.219   5.692
 5013SOL    HW215939   4.764   2.341   5.590
 5014SOL     OW15940   0.011   5.807   6.830
 5014SOL    HW115941   7.011   5.861   6.749
 5014SOL    HW215942   6.951   5.766   6.867
 5015SOL     OW15943   5.518   1.847   3.270
 5015SOL    HW115944   5.517   1.930   3.327
 5015SOL    HW215945   5.425   1.811   3.263
 5016SOL     OW15946   2.906   6.205   2.136
 5016SOL    HW115947   2.902   6.128   2.073
 5016SOL    HW215948   2.881   6.289   2.088
 5017SOL     OW15949   1.084   2.039   1.524
 5017SOL    HW115950   1.168   2.037   1.579
 5017SOL    HW215951   1.053   2.134   1.515
 5018SOL     OW15952   6.836   4.707   3.415
 5018SOL    HW115953   6.880   4.737   3.500
 5018SOL    HW215954   6.781   4.625   3.433
 5019SOL     OW15955   2.202   5.351   5.338
 5019SOL    HW115956   2.168   5.441   5.311
 5019SOL    HW215957   2.218   5.295   5.256
 5020SOL     OW15958   4.258   5.334   6.758
 5020SOL    HW115959   4.274   5.247   6.712
 5020SOL    HW215960   4.334   5.354   6.819
 5021SOL     OW15961   2.059   4.442   5.829
 5021SOL    HW115962   2.013   4.423   5.742
 5021SOL    HW215963   2.158   4.441   5.815
 5022SOL     OW15964   2.451   3.704   0.543
 5022SOL    HW115965   2.353   3.724   0.531
 5022SOL    HW215966   2.467   3.672   0.636
 5023SOL     OW15967   0.514   3.294   4.692
 5023SOL    HW115968   0.421   3.323   4.673
 5023SOL    HW215969   0.520   3.259   4.786
 5024SOL     OW15970   4.801   3.787   5.451
 5024SOL    HW115971   4.717   3.842   5.453
 5024SOL    HW215972   4.783   3.696   5.487
 5025SOL     OW15973   6.006   0.753   4.246
 5025SOL    HW115974   6.102   0.775   4.230
 5025SOL    HW215975   5.959   0.835   4.279
 5026SOL     OW15976   0.918   5.492   2.752
 5026SOL    HW115977   0.832   5.465   2.796
 5026SOL    HW215978   0.994   5.454   2.805
 5027SOL     OW15979   1.123   5.866   3.425
 5027SOL    HW115980   1.083   5.957   3.437
 5027SOL    HW215981   1.180   5.864   3.343
 5028SOL     OW15982   1.023   6.753   2.872
 5028SOL    HW115983   1.112   6.774   2.832
 5028SOL    HW215984   1.031   6.753   2.972
 5029SOL     OW15985   6.744   1.060   3.780
 5029SOL    HW115986   6.709   1.148   3.811
 5029SOL    HW215987   6.833   1.072   3.738
 5030SOL     OW15988   1.055   6.188   6.941
 5030SOL    HW115989   1.143   6.141   6.943
 5030SOL    HW215990   1.046   6.247   7.021
 5031SOL     OW15991   5.699   0.602   6.859
 5031SOL    HW115992   5.637   0.524   6.859
 5031SOL    HW215993   5.647   0.686   6.844
 5032SOL     OW15994   1.525   5.429   2.507
 5032SOL    HW115995   1.478   5.343   2.487
 5032SOL    HW215996   1.523   5.446   2.605
 5033SOL     OW15997   0.404   4.327   4.742
 5033SOL    HW115998   0.444   4.372   4.662
 5033SOL    HW215999   0.444   4.237   4.753
 5034SOL     OW16000   7.008   3.794   6.011
 5034SOL    HW116001   6.986   3.841   6.097
 5034SOL    HW216002   0.078   3.760   6.015
 5035SOL     OW16003   6.927   3.994   1.136
 5035SOL    HW116004   6.834   4.002   1.173
 5035SOL    HW216005   6.924   4.011   1.037
 5036SOL     OW16006   1.410   0.955   2.407
 5036SOL    HW116007   1.339   0.911   2.462
 5036SOL    HW216008   1.378   1.046   2.380
 5037SOL     OW16009   4.921   3.251   2.621
 5037SOL    HW116010   4.870   3.329   2.657
 5037SOL    HW216011   5.014   3.279   2.598
 5038SOL     OW16012   3.459   5.691   5.493
 5038SOL    HW116013   3.412   5.717   5.577
 5038SOL    HW216014   3.502   5.772   5.452
 5039SOL     OW16015   1.788   2.323   2.808
 5039SOL    HW116016   1.822   2.291   2.896
 5039SOL    HW216017   1.861   2.319   2.740
 5040SOL     OW16018   3.162   3.426   6.043
 5040SOL    HW116019   3.151   3.522   6.017
 5040SOL    HW216020   3.078   3.394   6.087
 5041SOL     OW16021   0.017   5.477   0.865
 5041SOL    HW116022   6.966   5.464   0.799
 5041SOL    HW216023   7.018   5.552   0.926
 5042SOL     OW16024   5.915   1.717   5.855
 5042SOL    HW116025   5.816   1.728   5.858
 5042SOL    HW216026   5.950   1.752   5.769
 5043SOL     OW16027   5.330   6.162   4.078
 5043SOL    HW116028   5.319   6.173   4.177
 5043SOL    HW216029   5.248   6.119   4.040
 5044SOL     OW16030   6.168   4.590   1.874
 5044SOL    HW116031   6.250   4.537   1.852
 5044SOL    HW216032   6.172   4.678   1.826
 5045SOL     OW16033   6.264   3.108   5.411
 5045SOL    HW116034   6.328   3.145   5.343
 5045SOL    HW216035   6.231   3.181   5.471
 5046SOL     OW16036   3.984   3.252   5.996
 5046SOL    HW116037   4.032   3.274   6.081
 5046SOL    HW216038   3.886   3.245   6.014
 5047SOL     OW16039   0.539   1.537   2.238
 5047SOL    HW116040   0.441   1.554   2.226
 5047SOL    HW216041   0.579   1.611   2.292
 5048SOL     OW16042   5.700   3.504   0.979
 5048SOL    HW116043   5.764   3.521   1.054
 5048SOL    HW216044   5.704   3.580   0.915
 5049SOL     OW16045   1.284   1.753   1.540
 5049SOL    HW116046   1.194   1.766   1.499
 5049SOL    HW216047   1.336   1.838   1.534
 5050SOL     OW16048   1.967   4.493   6.876
 5050SOL    HW116049   1.991   4.567   6.940
 5050SOL    HW216050   1.981   4.405   6.921
 5051SOL     OW16051   2.656   3.829   6.399
 5051SOL    HW116052   2.653   3.735   6.433
 5051SOL    HW216053   2.657   3.828   6.299
 5052SOL     OW16054   5.674   3.040   0.393
 5052SOL    HW116055   5.732   3.007   0.467
 5052SOL    HW216056   5.731   3.078   0.320
 5053SOL     OW16057   1.653   3.942   1.114
 5053SOL    HW116058   1.570   3.904   1.074
 5053SOL    HW216059   1.732   3.887   1.085
 5054SOL     OW16060   3.959   6.090   5.526
 5054SOL    HW116061   3.871   6.075   5.571
 5054SOL    HW216062   4.026   6.121   5.594
 5055SOL     OW16063   1.205   0.888   4.021
 5055SOL    HW116064   1.241   0.808   3.974
 5055SOL    HW216065   1.210   0.873   4.120
 5056SOL     OW16066   3.419   2.373   5.874
 5056SOL    HW116067   3.415   2.451   5.811
 5056SOL    HW216068   3.357   2.301   5.841
 5057SOL     OW16069   0.288   4.000   3.271
 5057SOL    HW116070   0.270   3.903   3.250
 5057SOL    HW216071   0.282   4.053   3.187
 5058SOL     OW16072   3.362   1.831   0.725
 5058SOL    HW116073   3.271   1.793   0.707
 5058SOL    HW216074   3.426   1.797   0.656
 5059SOL     OW16075   5.221   2.039   2.219
 5059SOL    HW116076   5.185   2.128   2.247
 5059SOL    HW216077   5.146   1.981   2.187
 5060SOL     OW16078   0.174   3.580   5.188
 5060SOL    HW116079   0.114   3.631   5.127
 5060SOL    HW216080   0.194   3.491   5.148
 5061SOL     OW16081   3.837   2.774   6.029
 5061SOL    HW116082   3.743   2.780   5.994
 5061SOL    HW216083   3.863   2.678   6.037
 5062SOL     OW16084   5.231   1.213   3.040
 5062SOL    HW116085   5.215   1.116   3.027
 5062SOL    HW216086   5.233   1.260   2.952
 5063SOL     OW16087   0.517   1.900   1.261
 5063SOL    HW116088   0.497   1.983   1.208
 5063SOL    HW216089   0.431   1.857   1.289
 5064SOL     OW16090   5.540   4.764   1.685
 5064SOL    HW116091   5.503   4.856   1.674
 5064SOL    HW216092   5.470   4.705   1.724
 5065SOL     OW16093   2.378   1.821   2.499
 5065SOL    HW116094   2.383   1.826   2.599
 5065SOL    HW216095   2.287   1.788   2.472
 5066SOL     OW16096   1.532   5.143   2.725
 5066SOL    HW116097   1.523   5.175   2.819
 5066SOL    HW216098   1.619   5.095   2.715
 5067SOL     OW16099   5.577   2.442   1.277
 5067SOL    HW116100   5.555   2.487   1.190
 5067SOL    HW216101   5.494   2.404   1.317
 5068SOL     OW16102   1.284   6.459   1.133
 5068SOL    HW116103   1.289   6.423   1.040
 5068SOL    HW216104   1.189   6.480   1.156
 5069SOL     OW16105   4.594   5.296   5.875
 5069SOL    HW116106   4.650   5.243   5.811
 5069SOL    HW216107   4.512   5.244   5.898
 5070SOL     OW16108   6.368   3.491   6.329
 5070SOL    HW116109   6.398   3.520   6.420
 5070SOL    HW216110   6.435   3.429   6.289
 5071SOL     OW16111   2.803   5.975   3.189
 5071SOL    HW116112   2.757   6.063   3.200
 5071SOL    HW216113   2.851   5.973   3.101
 5072SOL     OW16114   0.955   1.430   1.976
 5072SOL    HW116115   1.000   1.368   1.911
 5072SOL    HW216116   0.964   1.393   2.068
 5073SOL     OW16117   1.538   1.255   3.437
 5073SOL    HW116118   1.550   1.342   3.390
 5073SOL    HW216119   1.602   1.188   3.401
 5074SOL     OW16120   3.649   1.939   1.454
 5074SOL    HW116121   3.654   1.884   1.537
 5074SOL    HW216122   3.682   2.032   1.473
 5075SOL     OW16123   6.202   2.584   0.376
 5075SOL    HW116124   6.211   2.486   0.389
 5075SOL    HW216125   6.285   2.630   0.409
 5076SOL     OW16126   0.211   0.919   5.834
 5076SOL    HW116127   0.204   0.957   5.926
 5076SOL    HW216128   0.276   0.843   5.834
 5077SOL     OW16129   0.629   4.515   3.849
 5077SOL    HW116130   0.547   4.506   3.906
 5077SOL    HW216131   0.615   4.463   3.765
 5078SOL     OW16132   6.138   2.180   3.494
 5078SOL    HW116133   6.094   2.238   3.562
 5078SOL    HW216134   6.235   2.171   3.516
 5079SOL     OW16135   1.941   3.775   4.908
 5079SOL    HW116136   1.923   3.867   4.873
 5079SOL    HW216137   2.033   3.746   4.880
 5080SOL     OW16138   6.464   5.832   0.103
 5080SOL    HW116139   6.521   5.914   0.098
 5080SOL    HW216140   6.368   5.859   0.107
 5081SOL     OW16141   2.247   5.009   5.450
 5081SOL    HW116142   2.227   4.934   5.513
 5081SOL    HW216143   2.164   5.065   5.437
 5082SOL     OW16144   5.814   6.777   1.907
 5082SOL    HW116145   5.748   6.766   1.832
 5082SOL    HW216146   5.799   6.865   1.952
 5083SOL     OW16147   1.469   0.016   3.492
 5083SOL    HW116148   1.462   0.088   3.561
 5083SOL    HW216149   1.443   0.053   3.403
 5084SOL     OW16150   3.677   4.959   5.735
 5084SOL    HW116151   3.746   4.945   5.664
 5084SOL    HW216152   3.586   4.962   5.694
 5085SOL     OW16153   0.291   4.422   5.566
 5085SOL    HW116154   0.194   4.430   5.589
 5085SOL    HW216155   0.346   4.467   5.636
 5086SOL     OW16156   0.511   4.749   2.432
 5086SOL    HW116157   0.539   4.758   2.336
 5086SOL    HW216158   0.416   4.720   2.436
 5087SOL     OW16159   0.373   5.155   1.793
 5087SOL    HW116160   0.393   5.205   1.709
 5087SOL    HW216161   0.323   5.215   1.856
 5088SOL     OW16162   4.682   5.229   2.446
 5088SOL    HW116163   4.738   5.157   2.406
 5088SOL    HW216164   4.734   5.314   2.447
 5089SOL     OW16165   5.342   6.422   6.169
 5089SOL    HW116166   5.433   6.429   6.210
 5089SOL    HW216167   5.324   6.503   6.113
 5090SOL     OW16168   2.229   6.542   4.757
 5090SOL    HW116169   2.176   6.514   4.836
 5090SOL    HW216170   2.323   6.509   4.766
 5091SOL     OW16171   6.317   6.195   6.280
 5091SOL    HW116172   6.218   6.187   6.282
 5091SOL    HW216173   6.352   6.153   6.195
 5092SOL     OW16174   4.100   3.371   4.112
 5092SOL    HW116175   4.082   3.273   4.122
 5092SOL    HW216176   4.133   3.408   4.199
 5093SOL     OW16177   3.029   2.141   3.543
 5093SOL    HW116178   3.126   2.163   3.553
 5093SOL    HW216179   2.974   2.222   3.563
 5094SOL     OW16180   2.079   5.888   5.110
 5094SOL    HW116181   2.086   5.812   5.174
 5094SOL    HW216182   2.162   5.945   5.116
 5095SOL     OW16183   0.141   1.533   3.202
 5095SOL    HW116184   0.197   1.497   3.277
 5095SOL    HW216185   0.163   1.629   3.187
 5096SOL     OW16186   6.530   3.330   6.161
 5096SOL    HW116187   6.573   3.360   6.076
 5096SOL    HW216188   6.599   3.322   6.232
 5097SOL     OW16189   0.851   1.081   5.523
 5097SOL    HW116190   0.902   1.150   5.471
 5097SOL    HW216191   0.842   0.998   5.468
 5098SOL     OW16192   2.689   2.373   0.380
 5098SOL    HW116193   2.768   2.343   0.433
 5098SOL    HW216194   2.679   2.472   0.389
 5099SOL     OW16195   2.659   5.878   2.384
 5099SOL    HW116196   2.678   5.973   2.359
 5099SOL    HW216197   2.688   5.861   2.478
 5100SOL     OW16198   5.484   3.465   2.129
 5100SOL    HW116199   5.403   3.412   2.102
 5100SOL    HW216200   5.565   3.406   2.125
 5101SOL     OW16201   3.022   1.447   5.271
 5101SOL    HW116202   2.979   1.455   5.361
 5101SOL    HW216203   3.118   1.474   5.276
 5102SOL     OW16204   5.665   4.557   4.939
 5102SOL    HW116205   5.748   4.613   4.944
 5102SOL    HW216206   5.587   4.614   4.915
 5103SOL     OW16207   0.556   0.469   5.927
 5103SOL    HW116208   0.612   0.429   5.855
 5103SOL    HW216209   0.561   0.411   6.009
 5104SOL     OW16210   4.127   3.439   3.330
 5104SOL    HW116211   4.140   3.385   3.246
 5104SOL    HW216212   4.101   3.378   3.405
 5105SOL     OW16213   4.226   3.204   6.733
 5105SOL    HW116214   4.205   3.301   6.720
 5105SOL    HW216215   4.202   3.177   6.826
 5106SOL     OW16216   3.679   1.253   1.756
 5106SOL    HW116217   3.720   1.184   1.696
 5106SOL    HW216218   3.629   1.319   1.700
 5107SOL     OW16219   6.132   5.429   0.101
 5107SOL    HW116220   6.168   5.452   0.192
 5107SOL    HW216221   6.067   5.500   0.072
 5108SOL     OW16222   3.980   4.448   1.292
 5108SOL    HW116223   4.044   4.400   1.231
 5108SOL    HW216224   3.902   4.480   1.239
 5109SOL     OW16225   1.501   2.942   2.782
 5109SOL    HW116226   1.601   2.952   2.784
 5109SOL    HW216227   1.469   2.921   2.875
 5110SOL     OW16228   3.930   6.551   5.052
 5110SOL    HW116229   3.884   6.603   5.124
 5110SOL    HW216230   4.000   6.608   5.009
 5111SOL     OW16231   1.895   5.756   5.757
 5111SOL    HW116232   1.976   5.815   5.754
 5111SOL    HW216233   1.825   5.792   5.696
 5112SOL     OW16234   1.221   5.226   2.632
 5112SOL    HW116235   1.317   5.252   2.645
 5112SOL    HW216236   1.198   5.228   2.535
 5113SOL     OW16237   1.974   4.090   0.927
 5113SOL    HW116238   2.062   4.079   0.882
 5113SOL    HW216239   1.901   4.083   0.859
 5114SOL     OW16240   4.419   4.503   1.277
 5114SOL    HW116241   4.364   4.510   1.361
 5114SOL    HW216242   4.359   4.480   1.200
 5115SOL     OW16243   1.442   4.413   0.401
 5115SOL    HW116244   1.371   4.343   0.392
 5115SOL    HW216245   1.472   4.419   0.496
 5116SOL     OW16246   0.154   6.548   5.168
 5116SOL    HW116247   0.247   6.521   5.144
 5116SOL    HW216248   0.141   6.645   5.149
 5117SOL     OW16249   0.125   3.181   3.336
 5117SOL    HW116250   0.113   3.232   3.421
 5117SOL    HW216251   0.043   3.193   3.279
 5118SOL     OW16252   3.956   5.608   6.943
 5118SOL    HW116253   3.975   5.695   6.988
 5118SOL    HW216254   4.002   5.534   6.993
 5119SOL     OW16255   6.061   1.556   0.192
 5119SOL    HW116256   6.005   1.541   0.111
 5119SOL    HW216257   6.157   1.558   0.167
 5120SOL     OW16258   5.599   6.457   6.208
 5120SOL    HW116259   5.667   6.403   6.159
 5120SOL    HW216260   5.645   6.515   6.276
 5121SOL     OW16261   1.428   3.201   6.903
 5121SOL    HW116262   1.497   3.136   6.935
 5121SOL    HW216263   1.433   3.209   6.803
 5122SOL     OW16264   4.363   4.780   3.130
 5122SOL    HW116265   4.347   4.730   3.215
 5122SOL    HW216266   4.402   4.870   3.151
 5123SOL     OW16267   4.814   2.303   1.613
 5123SOL    HW116268   4.749   2.295   1.537
 5123SOL    HW216269   4.789   2.239   1.685
 5124SOL     OW16270   0.672   6.301   4.635
 5124SOL    HW116271   0.616   6.374   4.596
 5124SOL    HW216272   0.769   6.328   4.632
 5125SOL     OW16273   6.361   2.146   3.840
 5125SOL    HW116274   6.384   2.100   3.754
 5125SOL    HW216275   6.279   2.105   3.879
 5126SOL     OW16276   2.336   1.057   1.859
 5126SOL    HW116277   2.264   1.060   1.927
 5126SOL    HW216278   2.317   0.984   1.793
 5127SOL     OW16279   2.282   6.639   6.814
 5127SOL    HW116280   2.371   6.629   6.858
 5127SOL    HW216281   2.213   6.588   6.867
 5128SOL     OW16282   4.715   0.036   1.512
 5128SOL    HW116283   4.723   0.008   1.416
 5128SOL    HW216284   4.627   0.080   1.526
 5129SOL     OW16285   6.398   5.846   0.498
 5129SOL    HW116286   6.318   5.891   0.536
 5129SOL    HW216287   6.447   5.798   0.572
 5130SOL     OW16288   5.905   4.749   2.319
 5130SOL    HW116289   5.973   4.773   2.251
 5130SOL    HW216290   5.872   4.656   2.302
 5131SOL     OW16291   2.315   2.800   2.610
 5131SOL    HW116292   2.344   2.723   2.666
 5131SOL    HW216293   2.294   2.878   2.669
 5132SOL     OW16294   2.646   5.680   5.549
 5132SOL    HW116295   2.650   5.766   5.498
 5132SOL    HW216296   2.569   5.626   5.516
 5133SOL     OW16297   3.536   6.131   5.276
 5133SOL    HW116298   3.502   6.169   5.362
 5133SOL    HW216299   3.605   6.193   5.238
 5134SOL     OW16300   6.246   4.019   6.508
 5134SOL    HW116301   6.206   4.044   6.596
 5134SOL    HW216302   6.220   3.925   6.484
 5135SOL     OW16303   6.620   1.653   4.128
 5135SOL    HW116304   6.626   1.669   4.030
 5135SOL    HW216305   6.599   1.739   4.174
 5136SOL     OW16306   3.348   2.253   6.418
 5136SOL    HW116307   3.281   2.182   6.438
 5136SOL    HW216308   3.374   2.249   6.322
 5137SOL     OW16309   3.496   3.329   0.417
 5137SOL    HW116310   3.564   3.267   0.456
 5137SOL    HW216311   3.507   3.333   0.318
 5138SOL     OW16312   2.044   3.594   6.041
 5138SOL    HW116313   2.117   3.644   6.089
 5138SOL    HW216314   1.965   3.654   6.028
 5139SOL     OW16315   0.938   6.957   3.501
 5139SOL    HW116316   1.034   6.975   3.480
 5139SOL    HW216317   0.894   0.019   3.529
 5140SOL     OW16318   3.026   2.826   1.649
 5140SOL    HW116319   2.960   2.805   1.577
 5140SOL    HW216320   2.988   2.896   1.710
 5141SOL     OW16321   0.784   4.173   5.880
 5141SOL    HW116322   0.755   4.084   5.845
 5141SOL    HW216323   0.719   4.243   5.852
 5142SOL     OW16324   5.706   3.164   2.322
 5142SOL    HW116325   5.726   3.199   2.414
 5142SOL    HW216326   5.695   3.241   2.259
 5143SOL     OW16327   0.178   5.290   5.212
 5143SOL    HW116328   0.145   5.209   5.163
 5143SOL    HW216329   0.164   5.371   5.156
 5144SOL     OW16330   2.013   1.863   4.799
 5144SOL    HW116331   2.066   1.783   4.772
 5144SOL    HW216332   1.947   1.837   4.870
 5145SOL     OW16333   3.357   5.402   5.805
 5145SOL    HW116334   3.444   5.448   5.788
 5145SOL    HW216335   3.284   5.470   5.814
 5146SOL     OW16336   2.592   4.706   0.342
 5146SOL    HW116337   2.607   4.696   0.440
 5146SOL    HW216338   2.667   4.759   0.302
 5147SOL     OW16339   7.015   5.140   6.613
 5147SOL    HW116340   6.947   5.160   6.543
 5147SOL    HW216341   6.968   5.115   6.698
 5148SOL     OW16342   0.239   0.989   0.592
 5148SOL    HW116343   0.250   1.071   0.649
 5148SOL    HW216344   0.160   0.936   0.624
 5149SOL     OW16345   0.010   0.346   5.801
 5149SOL    HW116346   6.968   0.296   5.857
 5149SOL    HW216347   0.103   0.327   5.833
 5150SOL     OW16348   1.718   5.476   4.863
 5150SOL    HW116349   1.673   5.427   4.938
 5150SOL    HW216350   1.748   5.566   4.895
 5151SOL     OW16351   4.065   1.273   5.487
 5151SOL    HW116352   4.077   1.353   5.546
 5151SOL    HW216353   3.992   1.216   5.523
 5152SOL     OW16354   0.388   4.850   0.451
 5152SOL    HW116355   0.358   4.886   0.362
 5152SOL    HW216356   0.477   4.890   0.474
 5153SOL     OW16357   2.061   2.251   1.272
 5153SOL    HW116358   2.115   2.169   1.289
 5153SOL    HW216359   1.966   2.234   1.295
 5154SOL     OW16360   1.642   4.502   4.967
 5154SOL    HW116361   1.572   4.521   5.035
 5154SOL    HW216362   1.662   4.404   4.966
 5155SOL     OW16363   3.569   0.691   2.943
 5155SOL    HW116364   3.502   0.635   2.992
 5155SOL    HW216365   3.661   0.662   2.968
 5156SOL     OW16366   5.364   2.985   5.587
 5156SOL    HW116367   5.267   2.968   5.603
 5156SOL    HW216368   5.419   2.913   5.628
 5157SOL     OW16369   6.188   2.110   4.277
 5157SOL    HW116370   6.142   2.086   4.363
 5157SOL    HW216371   6.207   2.027   4.225
 5158SOL     OW16372   3.542   0.727   0.919
 5158SOL    HW116373   3.632   0.685   0.925
 5158SOL    HW216374   3.506   0.743   1.011
 5159SOL     OW16375   2.162   3.370   4.935
 5159SOL    HW116376   2.062   3.361   4.937
 5159SOL    HW216377   2.202   3.284   4.903
 5160SOL     OW16378   2.735   2.352   4.037
 5160SOL    HW116379   2.810   2.305   4.082
 5160SOL    HW216380   2.707   2.431   4.091
 5161SOL     OW16381   2.000   3.023   6.306
 5161SOL    HW116382   2.091   3.023   6.265
 5161SOL    HW216383   1.939   3.082   6.253
 5162SOL     OW16384   6.492   5.292   4.447
 5162SOL    HW116385   6.549   5.331   4.374
 5162SOL    HW216386   6.531   5.316   4.535
 5163SOL     OW16387   5.304   4.312   1.288
 5163SOL    HW116388   5.346   4.315   1.379
 5163SOL    HW216389   5.231   4.244   1.288
 5164SOL     OW16390   6.709   5.981   5.067
 5164SOL    HW116391   6.754   6.051   5.011
 5164SOL    HW216392   6.651   6.026   5.135
 5165SOL     OW16393   5.745   3.678   4.626
 5165SOL    HW116394   5.827   3.649   4.577
 5165SOL    HW216395   5.694   3.745   4.571
 5166SOL     OW16396   1.808   0.118   2.138
 5166SOL    HW116397   1.753   0.196   2.110
 5166SOL    HW216398   1.841   0.131   2.231
 5167SOL     OW16399   2.081   0.121   5.995
 5167SOL    HW116400   2.165   0.135   6.048
 5167SOL    HW216401   2.003   0.156   6.046
 5168SOL     OW16402   3.629   2.074   3.044
 5168SOL    HW116403   3.712   2.112   3.084
 5168SOL    HW216404   3.628   2.092   2.945
 5169SOL     OW16405   4.188   4.163   6.804
 5169SOL    HW116406   4.209   4.149   6.707
 5169SOL    HW216407   4.189   4.261   6.825
 5170SOL     OW16408   4.366   5.169   4.218
 5170SOL    HW116409   4.274   5.191   4.250
 5170SOL    HW216410   4.363   5.150   4.120
 5171SOL     OW16411   2.373   4.708   4.921
 5171SOL    HW116412   2.449   4.685   4.981
 5171SOL    HW216413   2.286   4.695   4.970
 5172SOL     OW16414   1.464   4.641   6.745
 5172SOL    HW116415   1.513   4.697   6.678
 5172SOL    HW216416   1.528   4.611   6.816
 5173SOL     OW16417   0.072   2.621   5.529
 5173SOL    HW116418   0.001   2.680   5.489
 5173SOL    HW216419   0.033   2.531   5.549
 5174SOL     OW16420   2.190   5.049   5.871
 5174SOL    HW116421   2.096   5.061   5.904
 5174SOL    HW216422   2.227   5.138   5.844
 5175SOL     OW16423   0.168   5.776   6.168
 5175SOL    HW116424   0.079   5.823   6.170
 5175SOL    HW216425   0.169   5.704   6.238
 5176SOL     OW16426   5.438   3.864   6.286
 5176SOL    HW116427   5.408   3.777   6.247
 5176SOL    HW216428   5.494   3.913   6.220
 5177SOL     OW16429   5.336   5.525   6.405
 5177SOL    HW116430   5.392   5.607   6.416
 5177SOL    HW216431   5.265   5.542   6.337
 5178SOL     OW16432   2.912   3.481   1.209
 5178SOL    HW116433   2.893   3.563   1.262
 5178SOL    HW216434   3.009   3.458   1.215
 5179SOL     OW16435   3.205   6.513   5.432
 5179SOL    HW116436   3.176   6.471   5.518
 5179SOL    HW216437   3.253   6.598   5.451
 5180SOL     OW16438   3.617   1.909   0.287
 5180SOL    HW116439   3.694   1.851   0.262
 5180SOL    HW216440   3.633   2.002   0.254
 5181SOL     OW16441   2.892   6.021   2.930
 5181SOL    HW116442   2.932   6.109   2.905
 5181SOL    HW216443   2.823   5.996   2.862
 5182SOL     OW16444   4.621   4.056   1.361
 5182SOL    HW116445   4.709   4.023   1.326
 5182SOL    HW216446   4.548   4.033   1.296
 5183SOL     OW16447   3.921   0.873   3.900
 5183SOL    HW116448   3.917   0.969   3.872
 5183SOL    HW216449   3.831   0.831   3.887
 5184SOL     OW16450   1.355   2.247   3.209
 5184SOL    HW116451   1.365   2.297   3.295
 5184SOL    HW216452   1.259   2.222   3.197
 5185SOL     OW16453   3.906   6.924   0.990
 5185SOL    HW116454   3.978   6.928   1.059
 5185SOL    HW216455   3.823   6.969   1.024
 5186SOL     OW16456   4.824   4.197   0.493
 5186SOL    HW116457   4.908   4.232   0.534
 5186SOL    HW216458   4.846   4.142   0.413
 5187SOL     OW16459   4.738   2.293   3.992
 5187SOL    HW116460   4.720   2.390   3.975
 5187SOL    HW216461   4.794   2.283   4.074
 5188SOL     OW16462   0.896   1.662   3.683
 5188SOL    HW116463   0.959   1.643   3.758
 5188SOL    HW216464   0.851   1.577   3.654
 5189SOL     OW16465   4.192   6.442   6.751
 5189SOL    HW116466   4.096   6.455   6.727
 5189SOL    HW216467   4.207   6.349   6.785
 5190SOL     OW16468   2.335   2.610   2.026
 5190SOL    HW116469   2.359   2.515   2.008
 5190SOL    HW216470   2.417   2.667   2.022
 5191SOL     OW16471   5.124   6.902   2.515
 5191SOL    HW116472   5.065   6.882   2.436
 5191SOL    HW216473   5.179   6.983   2.495
 5192SOL     OW16474   6.179   3.720   1.341
 5192SOL    HW116475   6.130   3.674   1.415
 5192SOL    HW216476   6.161   3.673   1.255
 5193SOL     OW16477   4.226   4.723   2.250
 5193SOL    HW116478   4.306   4.752   2.302
 5193SOL    HW216479   4.145   4.731   2.307
 5194SOL     OW16480   5.340   1.055   0.282
 5194SOL    HW116481   5.409   1.124   0.258
 5194SOL    HW216482   5.324   1.058   0.380
 5195SOL     OW16483   6.780   6.860   5.317
 5195SOL    HW116484   6.852   6.898   5.260
 5195SOL    HW216485   6.808   6.770   5.351
 5196SOL     OW16486   6.640   3.752   2.811
 5196SOL    HW116487   6.544   3.744   2.784
 5196SOL    HW216488   6.646   3.760   2.911
 5197SOL     OW16489   3.711   5.543   5.398
 5197SOL    HW116490   3.772   5.581   5.468
 5197SOL    HW216491   3.620   5.583   5.407
 5198SOL     OW16492   3.950   1.723   4.903
 5198SOL    HW116493   3.943   1.802   4.842
 5198SOL    HW216494   3.862   1.708   4.948
 5199SOL     OW16495   6.890   5.641   1.398
 5199SOL    HW116496   6.878   5.715   1.332
 5199SOL    HW216497   6.839   5.661   1.481
 5200SOL     OW16498   6.941   0.374   4.560
 5200SOL    HW116499   7.012   0.329   4.615
 5200SOL    HW216500   6.867   0.310   4.542
 5201SOL     OW16501   5.897   4.654   5.586
 5201SOL    HW116502   5.865   4.600   5.508
 5201SOL    HW216503   5.883   4.751   5.566
 5202SOL     OW16504   3.636   2.477   6.193
 5202SOL    HW116505   3.613   2.571   6.166
 5202SOL    HW216506   3.688   2.479   6.278
 5203SOL     OW16507   1.272   0.773   6.310
 5203SOL    HW116508   1.207   0.706   6.276
 5203SOL    HW216509   1.314   0.740   6.394
 5204SOL     OW16510   1.945   0.756   1.864
 5204SOL    HW116511   1.900   0.789   1.781
 5204SOL    HW216512   2.033   0.714   1.840
 5205SOL     OW16513   6.731   0.181   1.604
 5205SOL    HW116514   6.751   0.135   1.518
 5205SOL    HW216515   6.715   0.279   1.587
 5206SOL     OW16516   0.748   5.011   3.918
 5206SOL    HW116517   0.722   5.007   3.821
 5206SOL    HW216518   0.696   4.941   3.968
 5207SOL     OW16519   5.269   0.211   5.165
 5207SOL    HW116520   5.284   0.120   5.128
 5207SOL    HW216521   5.307   0.279   5.102
 5208SOL     OW16522   0.047   2.133   0.028
 5208SOL    HW116523   6.982   2.134   0.076
 5208SOL    HW216524   0.121   2.131   0.096
 5209SOL     OW16525   5.449   6.622   3.508
 5209SOL    HW116526   5.494   6.562   3.442
 5209SOL    HW216527   5.430   6.571   3.592
 5210SOL     OW16528   5.521   4.526   1.233
 5210SOL    HW116529   5.432   4.509   1.192
 5210SOL    HW216530   5.592   4.482   1.179
 5211SOL     OW16531   5.382   3.141   5.357
 5211SOL    HW116532   5.387   3.101   5.266
 5211SOL    HW216533   5.394   3.070   5.426
 5212SOL     OW16534   6.983   4.192   0.248
 5212SOL    HW116535   6.949   4.130   0.319
 5212SOL    HW216536   6.937   4.280   0.257
 5213SOL     OW16537   3.520   2.943   3.139
 5213SOL    HW116538   3.467   2.922   3.057
 5213SOL    HW216539   3.614   2.911   3.126
 5214SOL     OW16540   5.563   3.490   6.098
 5214SOL    HW116541   5.654   3.456   6.074
 5214SOL    HW216542   5.500   3.471   6.023
 5215SOL     OW16543   0.310   5.606   5.227
 5215SOL    HW116544   0.226   5.579   5.274
 5215SOL    HW216545   0.348   5.687   5.272
 5216SOL     OW16546   6.602   3.698   1.083
 5216SOL    HW116547   6.648   3.785   1.069
 5216SOL    HW216548   6.562   3.667   0.996
 5217SOL     OW16549   4.716   7.019   2.877
 5217SOL    HW116550   4.660   6.979   2.805
 5217SOL    HW216551   4.679   0.084   2.904
 5218SOL     OW16552   5.885   6.604   0.604
 5218SOL    HW116553   5.889   6.665   0.682
 5218SOL    HW216554   5.809   6.630   0.545
 5219SOL     OW16555   3.623   1.453   5.166
 5219SOL    HW116556   3.717   1.445   5.133
 5219SOL    HW216557   3.618   1.423   5.261
 5220SOL     OW16558   2.106   4.825   4.638
 5220SOL    HW116559   2.198   4.818   4.678
 5220SOL    HW216560   2.040   4.845   4.710
 5221SOL     OW16561   5.250   6.041   1.435
 5221SOL    HW116562   5.166   6.066   1.484
 5221SOL    HW216563   5.273   6.112   1.370
 5222SOL     OW16564   6.827   3.572   2.350
 5222SOL    HW116565   6.816   3.643   2.420
 5222SOL    HW216566   6.777   3.491   2.377
 5223SOL     OW16567   6.573   2.725   0.984
 5223SOL    HW116568   6.583   2.678   0.896
 5223SOL    HW216569   6.595   2.662   1.058
 5224SOL     OW16570   1.258   1.485   4.467
 5224SOL    HW116571   1.206   1.447   4.543
 5224SOL    HW216572   1.213   1.461   4.381
 5225SOL     OW16573   6.975   2.368   5.493
 5225SOL    HW116574   6.963   2.270   5.478
 5225SOL    HW216575   6.904   2.400   5.556
 5226SOL     OW16576   0.373   6.397   4.346
 5226SOL    HW116577   0.274   6.389   4.356
 5226SOL    HW216578   0.396   6.409   4.249
 5227SOL     OW16579   1.024   3.060   5.883
 5227SOL    HW116580   1.012   3.042   5.786
 5227SOL    HW216581   1.004   2.977   5.935
 5228SOL     OW16582   1.330   2.003   5.134
 5228SOL    HW116583   1.408   2.062   5.151
 5228SOL    HW216584   1.343   1.916   5.181
 5229SOL     OW16585   3.852   2.244   6.583
 5229SOL    HW116586   3.807   2.331   6.603
 5229SOL    HW216587   3.785   2.177   6.552
 5230SOL     OW16588   6.408   6.998   1.746
 5230SOL    HW116589   6.489   0.021   1.781
 5230SOL    HW216590   6.413   6.901   1.771
 5231SOL     OW16591   6.315   3.667   2.033
 5231SOL    HW116592   6.413   3.662   2.053
 5231SOL    HW216593   6.265   3.608   2.096
 5232SOL     OW16594   1.622   2.187   5.803
 5232SOL    HW116595   1.688   2.161   5.732
 5232SOL    HW216596   1.565   2.108   5.827
 5233SOL     OW16597   3.316   7.021   3.759
 5233SOL    HW116598   3.370   7.014   3.843
 5233SOL    HW216599   3.224   0.030   3.782
 5234SOL     OW16600   2.934   2.461   6.272
 5234SOL    HW116601   2.964   2.446   6.366
 5234SOL    HW216602   2.843   2.421   6.259
 5235SOL     OW16603   2.618   2.181   1.736
 5235SOL    HW116604   2.669   2.097   1.757
 5235SOL    HW216605   2.683   2.256   1.723
 5236SOL     OW16606   3.316   5.177   2.146
 5236SOL    HW116607   3.319   5.270   2.182
 5236SOL    HW216608   3.224   5.140   2.158
 5237SOL     OW16609   1.970   1.487   2.322
 5237SOL    HW116610   2.001   1.551   2.252
 5237SOL    HW216611   1.888   1.523   2.366
 5238SOL     OW16612   6.778   0.426   2.658
 5238SOL    HW116613   6.729   0.477   2.728
 5238SOL    HW216614   6.781   0.329   2.682
 5239SOL     OW16615   2.597   4.032   1.327
 5239SOL    HW116616   2.539   4.112   1.337
 5239SOL    HW216617   2.670   4.051   1.261
 5240SOL     OW16618   2.225   4.294   6.181
 5240SOL    HW116619   2.278   4.333   6.105
 5240SOL    HW216620   2.276   4.219   6.222
 5241SOL     OW16621   1.902   6.585   3.301
 5241SOL    HW116622   1.831   6.629   3.247
 5241SOL    HW216623   1.865   6.558   3.390
 5242SOL     OW16624   4.249   6.762   5.694
 5242SOL    HW116625   4.164   6.790   5.652
 5242SOL    HW216626   4.231   6.689   5.761
 5243SOL     OW16627   3.257   5.632   3.831
 5243SOL    HW116628   3.250   5.594   3.923
 5243SOL    HW216629   3.350   5.666   3.816
 5244SOL     OW16630   4.426   1.060   6.683
 5244SOL    HW116631   4.404   1.118   6.761
 5244SOL    HW216632   4.371   0.977   6.686
 5245SOL     OW16633   2.986   3.865   2.181
 5245SOL    HW116634   2.960   3.881   2.276
 5245SOL    HW216635   2.927   3.919   2.121
 5246SOL     OW16636   6.129   3.679   6.336
 5246SOL    HW116637   6.186   3.600   6.311
 5246SOL    HW216638   6.037   3.667   6.298
 5247SOL     OW16639   4.895   1.352   5.900
 5247SOL    HW116640   4.876   1.279   5.834
 5247SOL    HW216641   4.918   1.436   5.851
 5248SOL     OW16642   4.789   1.183   3.783
 5248SOL    HW116643   4.772   1.150   3.876
 5248SOL    HW216644   4.792   1.105   3.720
 5249SOL     OW16645   6.798   5.384   1.043
 5249SOL    HW116646   6.870   5.329   1.086
 5249SOL    HW216647   6.738   5.421   1.113
 5250SOL     OW16648   2.030   5.361   0.936
 5250SOL    HW116649   1.969   5.285   0.958
 5250SOL    HW216650   2.123   5.326   0.922
 5251SOL     OW16651   0.506   4.435   6.629
 5251SOL    HW116652   0.506   4.343   6.590
 5251SOL    HW216653   0.591   4.482   6.605
 5252SOL     OW16654   3.840   5.623   2.937
 5252SOL    HW116655   3.790   5.644   2.853
 5252SOL    HW216656   3.934   5.597   2.914
 5253SOL     OW16657   0.317   6.359   4.778
 5253SOL    HW116658   0.373   6.396   4.704
 5253SOL    HW216659   0.306   6.260   4.765
 5254SOL     OW16660   4.511   6.222   2.765
 5254SOL    HW116661   4.576   6.203   2.692
 5254SOL    HW216662   4.542   6.180   2.851
 5255SOL     OW16663   6.951   1.323   6.138
 5255SOL    HW116664   6.949   1.422   6.121
 5255SOL    HW216665   0.022   1.291   6.133
 5256SOL     OW16666   5.028   1.473   2.729
 5256SOL    HW116667   5.030   1.508   2.635
 5256SOL    HW216668   4.934   1.451   2.754
 5257SOL     OW16669   4.777   1.928   6.734
 5257SOL    HW116670   4.777   1.828   6.740
 5257SOL    HW216671   4.683   1.962   6.729
 5258SOL     OW16672   5.005   1.598   5.193
 5258SOL    HW116673   5.082   1.657   5.170
 5258SOL    HW216674   4.993   1.528   5.122
 5259SOL     OW16675   5.465   5.883   4.226
 5259SOL    HW116676   5.408   5.885   4.144
 5259SOL    HW216677   5.408   5.861   4.305
 5260SOL     OW16678   2.049   5.849   1.524
 5260SOL    HW116679   2.087   5.880   1.612
 5260SOL    HW216680   2.001   5.762   1.538
 5261SOL     OW16681   6.212   4.777   6.995
 5261SOL    HW116682   6.231   4.684   6.962
 5261SOL    HW216683   6.180   4.833   6.919
 5262SOL     OW16684   1.735   2.083   1.682
 5262SOL    HW116685   1.712   2.149   1.753
 5262SOL    HW216686   1.786   2.007   1.722
 5263SOL     OW16687   1.559   5.961   3.283
 5263SOL    HW116688   1.533   5.989   3.190
 5263SOL    HW216689   1.549   6.038   3.345
 5264SOL     OW16690   0.090   2.910   2.198
 5264SOL    HW116691   0.095   3.008   2.222
 5264SOL    HW216692   0.099   2.856   2.282
 5265SOL     OW16693   6.732   6.161   5.763
 5265SOL    HW116694   6.740   6.207   5.851
 5265SOL    HW216695   6.637   6.165   5.732
 5266SOL     OW16696   1.505   6.919   5.935
 5266SOL    HW116697   1.555   6.872   6.008
 5266SOL    HW216698   1.475   6.852   5.867
 5267SOL     OW16699   5.645   1.679   4.495
 5267SOL    HW116700   5.606   1.702   4.406
 5267SOL    HW216701   5.585   1.615   4.543
 5268SOL     OW16702   5.382   0.298   6.069
 5268SOL    HW116703   5.289   0.264   6.078
 5268SOL    HW216704   5.447   0.224   6.088
 5269SOL     OW16705   1.449   0.327   4.468
 5269SOL    HW116706   1.483   0.235   4.485
 5269SOL    HW216707   1.505   0.393   4.519
 5270SOL     OW16708   0.696   2.247   6.068
 5270SOL    HW116709   0.756   2.179   6.024
 5270SOL    HW216710   0.745   2.293   6.141
 5271SOL     OW16711   1.260   5.844   4.721
 5271SOL    HW116712   1.355   5.874   4.732
 5271SOL    HW216713   1.248   5.755   4.764
 5272SOL     OW16714   4.344   0.763   6.434
 5272SOL    HW116715   4.267   0.813   6.395
 5272SOL    HW216716   4.429   0.793   6.391
 5273SOL     OW16717   2.456   1.181   3.050
 5273SOL    HW116718   2.495   1.235   3.124
 5273SOL    HW216719   2.528   1.128   3.005
 5274SOL     OW16720   5.637   4.698   1.413
 5274SOL    HW116721   5.583   4.691   1.497
 5274SOL    HW216722   5.601   4.634   1.345
 5275SOL     OW16723   4.961   1.629   6.091
 5275SOL    HW116724   5.052   1.661   6.118
 5275SOL    HW216725   4.954   1.632   5.991
 5276SOL     OW16726   3.888   6.442   1.823
 5276SOL    HW116727   3.978   6.449   1.779
 5276SOL    HW216728   3.857   6.347   1.820
 5277SOL     OW16729   2.228   3.191   1.831
 5277SOL    HW116730   2.258   3.285   1.845
 5277SOL    HW216731   2.128   3.186   1.841
 5278SOL     OW16732   3.645   3.203   2.537
 5278SOL    HW116733   3.695   3.117   2.526
 5278SOL    HW216734   3.695   3.263   2.600
 5279SOL     OW16735   1.716   5.933   2.722
 5279SOL    HW116736   1.688   5.855   2.666
 5279SOL    HW216737   1.813   5.954   2.704
 5280SOL     OW16738   4.095   1.075   4.421
 5280SOL    HW116739   4.138   1.026   4.496
 5280SOL    HW216740   4.002   1.043   4.408
 5281SOL     OW16741   6.885   2.255   3.857
 5281SOL    HW116742   6.977   2.223   3.833
 5281SOL    HW216743   6.886   2.293   3.949
 5282SOL     OW16744   5.058   2.156   1.345
 5282SOL    HW116745   5.079   2.168   1.442
 5282SOL    HW216746   4.974   2.206   1.323
 5283SOL     OW16747   4.665   4.465   6.324
 5283SOL    HW116748   4.718   4.419   6.254
 5283SOL    HW216749   4.569   4.438   6.318
 5284SOL     OW16750   4.845   3.063   4.149
 5284SOL    HW116751   4.862   3.161   4.136
 5284SOL    HW216752   4.932   3.014   4.152
 5285SOL     OW16753   4.129   6.417   2.502
 5285SOL    HW116754   4.053   6.471   2.465
 5285SOL    HW216755   4.129   6.326   2.460
 5286SOL     OW16756   2.194   5.001   1.967
 5286SOL    HW116757   2.159   5.060   2.040
 5286SOL    HW216758   2.197   5.053   1.881
 5287SOL     OW16759   1.063   1.143   2.494
 5287SOL    HW116760   1.049   1.227   2.548
 5287SOL    HW216761   1.080   1.067   2.556
 5288SOL     OW16762   4.415   0.178   0.933
 5288SOL    HW116763   4.454   0.107   0.991
 5288SOL    HW216764   4.375   0.137   0.851
 5289SOL     OW16765   1.397   6.114   1.272
 5289SOL    HW116766   1.344   6.123   1.188
 5289SOL    HW216767   1.494   6.103   1.249
 5290SOL     OW16768   5.589   6.132   0.069
 5290SOL    HW116769   5.535   6.066   0.121
 5290SOL    HW216770   5.674   6.152   0.118
 5291SOL     OW16771   0.913   5.863   6.992
 5291SOL    HW116772   0.891   5.848   0.065
 5291SOL    HW216773   0.880   5.785   6.938
 5292SOL     OW16774   5.268   1.812   0.955
 5292SOL    HW116775   5.221   1.878   1.013
 5292SOL    HW216776   5.237   1.720   0.977
 5293SOL     OW16777   2.179   1.422   4.355
 5293SOL    HW116778   2.143   1.457   4.442
 5293SOL    HW216779   2.164   1.491   4.283
 5294SOL     OW16780   4.060   2.507   6.550
 5294SOL    HW116781   4.116   2.426   6.533
 5294SOL    HW216782   4.000   2.491   6.628
 5295SOL     OW16783   6.623   1.353   2.491
 5295SOL    HW116784   6.656   1.428   2.548
 5295SOL    HW216785   6.595   1.389   2.402
 5296SOL     OW16786   0.295   2.788   6.464
 5296SOL    HW116787   0.281   2.753   6.557
 5296SOL    HW216788   0.354   2.868   6.467
 5297SOL     OW16789   0.999   2.433   2.041
 5297SOL    HW116790   1.080   2.375   2.044
 5297SOL    HW216791   0.917   2.376   2.041
 5298SOL     OW16792   1.528   4.555   1.785
 5298SOL    HW116793   1.592   4.498   1.836
 5298SOL    HW216794   1.522   4.646   1.828
 5299SOL     OW16795   3.311   0.288   0.389
 5299SOL    HW116796   3.318   0.219   0.318
 5299SOL    HW216797   3.403   0.307   0.425
 5300SOL     OW16798   0.117   5.275   3.533
 5300SOL    HW116799   0.163   5.248   3.617
 5300SOL    HW216800   0.082   5.369   3.542
 5301SOL     OW16801   5.684   0.332   6.347
 5301SOL    HW116802   5.635   0.246   6.354
 5301SOL    HW216803   5.634   0.394   6.286
 5302SOL     OW16804   6.743   3.837   4.034
 5302SOL    HW116805   6.827   3.864   4.080
 5302SOL    HW216806   6.765   3.789   3.949
 5303SOL     OW16807   1.763   4.661   3.456
 5303SOL    HW116808   1.668   4.666   3.488
 5303SOL    HW216809   1.812   4.743   3.486
 5304SOL     OW16810   4.339   2.808   5.570
 5304SOL    HW116811   4.356   2.841   5.477
 5304SOL    HW216812   4.366   2.879   5.636
 5305SOL     OW16813   3.447   1.831   5.087
 5305SOL    HW116814   3.352   1.830   5.117
 5305SOL    HW216815   3.452   1.826   4.987
 5306SOL     OW16816   2.552   6.806   3.918
 5306SOL    HW116817   2.547   6.896   3.875
 5306SOL    HW216818   2.632   6.802   3.977
 5307SOL     OW16819   5.237   6.886   0.253
 5307SOL    HW116820   5.169   6.833   0.201
 5307SOL    HW216821   5.221   6.983   0.239
 5308SOL     OW16822   6.457   1.510   1.874
 5308SOL    HW116823   6.463   1.609   1.863
 5308SOL    HW216824   6.413   1.488   1.961
 5309SOL     OW16825   4.046   3.528   5.455
 5309SOL    HW116826   3.959   3.497   5.418
 5309SOL    HW216827   4.043   3.526   5.555
 5310SOL     OW16828   5.125   2.805   0.557
 5310SOL    HW116829   5.168   2.768   0.639
 5310SOL    HW216830   5.061   2.738   0.519
 5311SOL     OW16831   6.920   6.335   0.347
 5311SOL    HW116832   6.972   6.249   0.347
 5311SOL    HW216833   6.983   6.412   0.345
 5312SOL     OW16834   0.379   3.300   1.350
 5312SOL    HW116835   0.474   3.330   1.360
 5312SOL    HW216836   0.335   3.353   1.278
 5313SOL     OW16837   0.155   6.399   0.564
 5313SOL    HW116838   0.073   6.341   0.569
 5313SOL    HW216839   0.214   6.365   0.490
 5314SOL     OW16840   3.609   5.238   1.279
 5314SOL    HW116841   3.628   5.140   1.290
 5314SOL    HW216842   3.511   5.254   1.289
 5315SOL     OW16843   5.789   1.337   1.925
 5315SOL    HW116844   5.814   1.388   1.843
 5315SOL    HW216845   5.862   1.345   1.993
 5316SOL     OW16846   5.250   5.655   4.626
 5316SOL    HW116847   5.338   5.611   4.640
 5316SOL    HW216848   5.176   5.591   4.648
 5317SOL     OW16849   6.669   5.027   2.006
 5317SOL    HW116850   6.607   5.098   1.974
 5317SOL    HW216851   6.678   4.956   1.936
 5318SOL     OW16852   6.892   2.599   3.532
 5318SOL    HW116853   6.968   2.546   3.493
 5318SOL    HW216854   6.820   2.537   3.562
 5319SOL     OW16855   3.195   6.165   3.078
 5319SOL    HW116856   3.171   6.068   3.076
 5319SOL    HW216857   3.288   6.176   3.044
 5320SOL     OW16858   6.890   3.008   6.654
 5320SOL    HW116859   6.948   3.034   6.577
 5320SOL    HW216860   6.836   3.087   6.682
 5321SOL     OW16861   2.895   4.365   6.405
 5321SOL    HW116862   2.842   4.384   6.487
 5321SOL    HW216863   2.889   4.267   6.384
 5322SOL     OW16864   2.405   5.801   0.457
 5322SOL    HW116865   2.403   5.757   0.547
 5322SOL    HW216866   2.367   5.894   0.465
 5323SOL     OW16867   5.447   3.116   0.277
 5323SOL    HW116868   5.370   3.073   0.322
 5323SOL    HW216869   5.530   3.100   0.330
 5324SOL     OW16870   4.657   3.069   1.432
 5324SOL    HW116871   4.665   3.121   1.346
 5324SOL    HW216872   4.627   2.976   1.411
 5325SOL     OW16873   3.450   6.271   5.492
 5325SOL    HW116874   3.444   6.359   5.539
 5325SOL    HW216875   3.358   6.231   5.485
 5326SOL     OW16876   0.240   0.494   2.400
 5326SOL    HW116877   0.149   0.458   2.420
 5326SOL    HW216878   0.277   0.538   2.482
 5327SOL     OW16879   6.356   0.528   4.110
 5327SOL    HW116880   6.374   0.501   4.205
 5327SOL    HW216881   6.373   0.451   4.049
 5328SOL     OW16882   3.342   5.246   6.898
 5328SOL    HW116883   3.415   5.235   6.964
 5328SOL    HW216884   3.356   5.183   6.821
 5329SOL     OW16885   0.524   5.942   6.450
 5329SOL    HW116886   0.561   5.905   6.365
 5329SOL    HW216887   0.574   5.903   6.528
 5330SOL     OW16888   3.945   5.093   0.458
 5330SOL    HW116889   3.847   5.082   0.441
 5330SOL    HW216890   3.986   5.003   0.473
 5331SOL     OW16891   5.884   1.378   6.571
 5331SOL    HW116892   5.847   1.358   6.481
 5331SOL    HW216893   5.972   1.426   6.562
 5332SOL     OW16894   6.272   2.832   6.662
 5332SOL    HW116895   6.274   2.815   6.760
 5332SOL    HW216896   6.284   2.746   6.613
 5333SOL     OW16897   1.317   0.201   3.680
 5333SOL    HW116898   1.337   0.258   3.760
 5333SOL    HW216899   1.226   0.225   3.645
 5334SOL     OW16900   3.076   6.070   1.450
 5334SOL    HW116901   3.123   5.985   1.427
 5334SOL    HW216902   3.001   6.051   1.513
 5335SOL     OW16903   6.943   5.211   1.754
 5335SOL    HW116904   6.928   5.212   1.853
 5335SOL    HW216905   6.998   5.290   1.728
 5336SOL     OW16906   1.650   3.477   5.038
 5336SOL    HW116907   1.736   3.505   5.081
 5336SOL    HW216908   1.617   3.392   5.078
 5337SOL     OW16909   6.670   3.062   0.627
 5337SOL    HW116910   6.616   3.038   0.546
 5337SOL    HW216911   6.611   3.059   0.708
 5338SOL     OW16912   0.073   3.525   0.573
 5338SOL    HW116913   0.031   3.489   0.490
 5338SOL    HW216914   0.031   3.483   0.653
 5339SOL     OW16915   5.648   2.961   2.994
 5339SOL    HW116916   5.619   2.871   2.961
 5339SOL    HW216917   5.691   2.950   3.084
 5340SOL     OW16918   4.922   3.276   1.158
 5340SOL    HW116919   4.968   3.356   1.119
 5340SOL    HW216920   4.979   3.237   1.230
 5341SOL     OW16921   5.094   4.614   3.482
 5341SOL    HW116922   5.078   4.587   3.577
 5341SOL    HW216923   5.008   4.644   3.441
 5342SOL     OW16924   6.326   5.764   4.968
 5342SOL    HW116925   6.354   5.851   4.928
 5342SOL    HW216926   6.227   5.753   4.957
 5343SOL     OW16927   3.594   3.456   6.870
 5343SOL    HW116928   3.579   3.548   6.907
 5343SOL    HW216929   3.691   3.443   6.849
 5344SOL     OW16930   6.392   2.206   6.746
 5344SOL    HW116931   6.341   2.122   6.724
 5344SOL    HW216932   6.479   2.182   6.789
 5345SOL     OW16933   3.077   1.786   0.341
 5345SOL    HW116934   3.073   1.721   0.265
 5345SOL    HW216935   3.048   1.742   0.425
 5346SOL     OW16936   2.463   6.442   3.364
 5346SOL    HW116937   2.444   6.345   3.379
 5346SOL    HW216938   2.549   6.467   3.409
 5347SOL     OW16939   5.835   1.527   5.143
 5347SOL    HW116940   5.867   1.435   5.121
 5347SOL    HW216941   5.910   1.592   5.131
 5348SOL     OW16942   4.792   3.000   5.482
 5348SOL    HW116943   4.783   3.004   5.383
 5348SOL    HW216944   4.703   2.984   5.523
 5349SOL     OW16945   0.642   4.334   0.542
 5349SOL    HW116946   0.615   4.321   0.447
 5349SOL    HW216947   0.661   4.245   0.584
 5350SOL     OW16948   1.112   6.708   6.366
 5350SOL    HW116949   1.128   6.612   6.344
 5350SOL    HW216950   1.122   6.763   6.283
 5351SOL     OW16951   0.456   5.959   3.802
 5351SOL    HW116952   0.392   5.923   3.734
 5351SOL    HW216953   0.466   6.058   3.789
 5352SOL     OW16954   0.853   2.547   6.135
 5352SOL    HW116955   0.815   2.577   6.048
 5352SOL    HW216956   0.815   2.603   6.209
 5353SOL     OW16957   3.024   6.524   3.475
 5353SOL    HW116958   3.003   6.564   3.565
 5353SOL    HW216959   3.120   6.538   3.453
 5354SOL     OW16960   3.871   5.776   1.936
 5354SOL    HW116961   3.953   5.722   1.916
 5354SOL    HW216962   3.790   5.719   1.925
 5355SOL     OW16963   5.317   5.159   5.407
 5355SOL    HW116964   5.401   5.181   5.456
 5355SOL    HW216965   5.286   5.067   5.431
 5356SOL     OW16966   0.873   6.977   1.419
 5356SOL    HW116967   0.874   6.890   1.468
 5356SOL    HW216968   0.790   0.004   1.443
 5357SOL     OW16969   6.222   3.379   2.754
 5357SOL    HW116970   6.316   3.395   2.724
 5357SOL    HW216971   6.194   3.286   2.731
 5358SOL     OW16972   6.130   1.472   6.477
 5358SOL    HW116973   6.106   1.473   6.380
 5358SOL    HW216974   6.222   1.509   6.490
 5359SOL     OW16975   2.730   2.542   6.505
 5359SOL    HW116976   2.686   2.465   6.551
 5359SOL    HW216977   2.683   2.560   6.418
 5360SOL     OW16978   5.824   5.564   3.290
 5360SOL    HW116979   5.735   5.597   3.321
 5360SOL    HW216980   5.861   5.627   3.223
 5361SOL     OW16981   1.722   3.907   2.779
 5361SOL    HW116982   1.710   3.954   2.691
 5361SOL    HW216983   1.775   3.824   2.765
 5362SOL     OW16984   6.166   1.070   3.933
 5362SOL    HW116985   6.090   1.020   3.891
 5362SOL    HW216986   6.145   1.086   4.030
 5363SOL     OW16987   6.087   5.126   4.653
 5363SOL    HW116988   6.129   5.058   4.712
 5363SOL    HW216989   6.149   5.147   4.577
 5364SOL     OW16990   4.467   2.465   1.637
 5364SOL    HW116991   4.518   2.408   1.572
 5364SOL    HW216992   4.522   2.478   1.720
 5365SOL     OW16993   3.402   3.678   5.587
 5365SOL    HW116994   3.305   3.702   5.588
 5365SOL    HW216995   3.445   3.707   5.672
 5366SOL     OW16996   0.478   4.839   3.309
 5366SOL    HW116997   0.513   4.767   3.369
 5366SOL    HW216998   0.386   4.866   3.340
 5367SOL     OW16999   6.153   6.044   1.561
 5367SOL    HW117000   6.142   6.047   1.461
 5367SOL    HW217001   6.194   5.957   1.588
 5368SOL     OW17002   0.483   5.848   4.799
 5368SOL    HW117003   0.501   5.818   4.706
 5368SOL    HW217004   0.511   5.943   4.810
 5369SOL     OW17005   4.201   6.882   2.701
 5369SOL    HW117006   4.173   6.935   2.781
 5369SOL    HW217007   4.207   6.942   2.622
 5370SOL     OW17008   2.754   2.867   0.606
 5370SOL    HW117009   2.678   2.807   0.631
 5370SOL    HW217010   2.840   2.825   0.637
 5371SOL     OW17011   6.286   5.134   3.327
 5371SOL    HW117012   6.266   5.204   3.396
 5371SOL    HW217013   6.200   5.091   3.297
 5372SOL     OW17014   1.305   6.981   3.802
 5372SOL    HW117015   1.392   6.933   3.808
 5372SOL    HW217016   1.320   0.050   3.767
 5373SOL     OW17017   3.632   0.266   0.117
 5373SOL    HW117018   3.690   0.347   0.129
 5373SOL    HW217019   3.628   0.215   0.203
 5374SOL     OW17020   1.227   4.104   1.555
 5374SOL    HW117021   1.307   4.117   1.615
 5374SOL    HW217022   1.240   4.155   1.470
 5375SOL     OW17023   2.535   4.659   5.168
 5375SOL    HW117024   2.520   4.680   5.265
 5375SOL    HW217025   2.633   4.641   5.153
 5376SOL     OW17026   0.889   0.883   1.580
 5376SOL    HW117027   0.966   0.944   1.598
 5376SOL    HW217028   0.890   0.854   1.485
 5377SOL     OW17029   1.163   2.596   2.221
 5377SOL    HW117030   1.105   2.638   2.291
 5377SOL    HW217031   1.107   2.539   2.161
 5378SOL     OW17032   5.817   6.702   3.444
 5378SOL    HW117033   5.815   6.656   3.355
 5378SOL    HW217034   5.736   6.675   3.497
 5379SOL     OW17035   2.615   2.422   4.433
 5379SOL    HW117036   2.571   2.357   4.494
 5379SOL    HW217037   2.699   2.381   4.396
 5380SOL     OW17038   5.143   6.548   1.806
 5380SOL    HW117039   5.068   6.582   1.749
 5380SOL    HW217040   5.110   6.474   1.864
 5381SOL     OW17041   3.167   1.966   2.906
 5381SOL    HW117042   3.130   1.879   2.874
 5381SOL    HW217043   3.213   1.953   2.993
 5382SOL     OW17044   4.955   0.729   2.698
 5382SOL    HW117045   5.006   0.815   2.696
 5382SOL    HW217046   5.019   0.652   2.700
 5383SOL     OW17047   2.676   3.864   5.280
 5383SOL    HW117048   2.586   3.885   5.242
 5383SOL    HW217049   2.744   3.927   5.242
 5384SOL     OW17050   4.938   6.483   6.048
 5384SOL    HW117051   4.966   6.442   5.961
 5384SOL    HW217052   4.948   6.415   6.121
 5385SOL     OW17053   3.636   3.822   0.564
 5385SOL    HW117054   3.674   3.750   0.506
 5385SOL    HW217055   3.588   3.780   0.641
 5386SOL     OW17056   4.629   4.554   3.396
 5386SOL    HW117057   4.598   4.533   3.489
 5386SOL    HW217058   4.691   4.632   3.399
 5387SOL     OW17059   0.823   2.505   3.864
 5387SOL    HW117060   0.867   2.425   3.823
 5387SOL    HW217061   0.848   2.510   3.961
 5388SOL     OW17062   6.932   6.446   3.577
 5388SOL    HW117063   7.012   6.398   3.614
 5388SOL    HW217064   6.933   6.440   3.478
 5389SOL     OW17065   5.393   1.883   4.403
 5389SOL    HW117066   5.302   1.855   4.374
 5389SOL    HW217067   5.461   1.821   4.364
 5390SOL     OW17068   5.910   2.847   3.608
 5390SOL    HW117069   5.883   2.920   3.671
 5390SOL    HW217070   5.940   2.886   3.522
 5391SOL     OW17071   4.318   2.734   1.095
 5391SOL    HW117072   4.411   2.771   1.092
 5391SOL    HW217073   4.266   2.765   1.016
 5392SOL     OW17074   5.161   0.744   4.462
 5392SOL    HW117075   5.120   0.758   4.372
 5392SOL    HW217076   5.114   0.669   4.509
 5393SOL     OW17077   3.907   2.145   2.977
 5393SOL    HW117078   3.951   2.070   3.027
 5393SOL    HW217079   3.899   2.121   2.880
 5394SOL     OW17080   0.144   2.633   2.882
 5394SOL    HW117081   0.051   2.661   2.906
 5394SOL    HW217082   0.179   2.570   2.951
 5395SOL     OW17083   6.966   1.400   1.026
 5395SOL    HW117084   6.972   1.483   1.083
 5395SOL    HW217085   0.034   1.362   1.014
 5396SOL     OW17086   4.566   2.686   0.245
 5396SOL    HW117087   4.467   2.679   0.257
 5396SOL    HW217088   4.605   2.595   0.236
 5397SOL     OW17089   0.131   6.949   2.045
 5397SOL    HW117090   0.125   0.024   2.056
 5397SOL    HW217091   0.221   6.918   2.075
 5398SOL     OW17092   5.738   1.700   3.206
 5398SOL    HW117093   5.783   1.672   3.291
 5398SOL    HW217094   5.657   1.754   3.229
 5399SOL     OW17095   2.843   2.975   0.179
 5399SOL    HW117096   2.838   3.068   0.142
 5399SOL    HW217097   2.819   2.909   0.108
 5400SOL     OW17098   5.742   2.236   1.193
 5400SOL    HW117099   5.680   2.302   1.235
 5400SOL    HW217100   5.832   2.277   1.182
 5401SOL     OW17101   4.715   3.655   1.429
 5401SOL    HW117102   4.710   3.556   1.448
 5401SOL    HW217103   4.697   3.671   1.332
 5402SOL     OW17104   1.350   6.236   1.704
 5402SOL    HW117105   1.324   6.168   1.771
 5402SOL    HW217106   1.320   6.327   1.734
 5403SOL     OW17107   5.946   2.250   5.800
 5403SOL    HW117108   5.977   2.276   5.892
 5403SOL    HW217109   6.002   2.298   5.732
 5404SOL     OW17110   4.428   6.530   0.569
 5404SOL    HW117111   4.445   6.559   0.475
 5404SOL    HW217112   4.492   6.576   0.630
 5405SOL     OW17113   6.805   5.237   6.403
 5405SOL    HW117114   6.797   5.166   6.332
 5405SOL    HW217115   6.774   5.325   6.366
 5406SOL     OW17116   2.245   1.180   5.435
 5406SOL    HW117117   2.250   1.146   5.529
 5406SOL    HW217118   2.176   1.130   5.385
 5407SOL     OW17119   2.534   0.743   2.502
 5407SOL    HW117120   2.609   0.738   2.436
 5407SOL    HW217121   2.490   0.653   2.509
 5408SOL     OW17122   1.699   2.105   4.376
 5408SOL    HW117123   1.619   2.095   4.436
 5408SOL    HW217124   1.782   2.086   4.428
 5409SOL     OW17125   0.674   3.750   2.751
 5409SOL    HW117126   0.609   3.807   2.702
 5409SOL    HW217127   0.766   3.789   2.743
 5410SOL     OW17128   6.426   1.872   0.249
 5410SOL    HW117129   6.383   1.782   0.252
 5410SOL    HW217130   6.437   1.901   0.154
 5411SOL     OW17131   3.388   5.367   1.718
 5411SOL    HW117132   3.399   5.375   1.619
 5411SOL    HW217133   3.315   5.301   1.738
 5412SOL     OW17134   1.503   2.515   6.097
 5412SOL    HW117135   1.574   2.451   6.067
 5412SOL    HW217136   1.465   2.484   6.184
 5413SOL     OW17137   6.581   5.449   5.707
 5413SOL    HW117138   6.557   5.472   5.802
 5413SOL    HW217139   6.679   5.461   5.694
 5414SOL     OW17140   5.689   5.546   6.245
 5414SOL    HW117141   5.705   5.593   6.332
 5414SOL    HW217142   5.608   5.585   6.201
 5415SOL     OW17143   1.660   1.557   6.644
 5415SOL    HW117144   1.565   1.532   6.663
 5415SOL    HW217145   1.688   1.521   6.555
 5416SOL     OW17146   3.994   5.751   6.062
 5416SOL    HW117147   4.081   5.796   6.084
 5416SOL    HW217148   4.008   5.652   6.063
 5417SOL     OW17149   5.422   6.960   2.015
 5417SOL    HW117150   5.390   6.866   2.022
 5417SOL    HW217151   5.521   6.963   2.025
 5418SOL     OW17152   0.564   3.442   5.484
 5418SOL    HW117153   0.479   3.412   5.528
 5418SOL    HW217154   0.567   3.541   5.480
 5419SOL     OW17155   4.119   1.688   6.046
 5419SOL    HW117156   4.173   1.615   6.090
 5419SOL    HW217157   4.070   1.650   5.968
 5420SOL     OW17158   2.401   1.807   1.083
 5420SOL    HW117159   2.445   1.849   1.163
 5420SOL    HW217160   2.455   1.828   1.001
 5421SOL     OW17161   4.241   4.767   1.544
 5421SOL    HW117162   4.340   4.776   1.531
 5421SOL    HW217163   4.215   4.671   1.530
 5422SOL     OW17164   2.717   6.437   3.088
 5422SOL    HW117165   2.655   6.506   3.050
 5422SOL    HW217166   2.777   6.480   3.154
 5423SOL     OW17167   4.183   0.113   2.163
 5423SOL    HW117168   4.158   0.206   2.187
 5423SOL    HW217169   4.153   0.093   2.069
 5424SOL     OW17170   3.547   3.546   5.020
 5424SOL    HW117171   3.476   3.547   5.091
 5424SOL    HW217172   3.569   3.452   4.996
 5425SOL     OW17173   1.223   5.026   5.468
 5425SOL    HW117174   1.239   4.983   5.379
 5425SOL    HW217175   1.192   5.120   5.455
 5426SOL     OW17176   0.901   4.182   0.333
 5426SOL    HW117177   0.821   4.143   0.379
 5426SOL    HW217178   0.895   4.282   0.336
 5427SOL     OW17179   4.249   1.875   6.802
 5427SOL    HW117180   4.169   1.924   6.769
 5427SOL    HW217181   4.222   1.784   6.834
 5428SOL     OW17182   4.186   5.901   2.976
 5428SOL    HW117183   4.278   5.882   3.011
 5428SOL    HW217184   4.192   5.954   2.892
 5429SOL     OW17185   2.541   6.555   4.044
 5429SOL    HW117186   2.505   6.578   4.134
 5429SOL    HW217187   2.550   6.638   3.990
 5430SOL     OW17188   1.573   4.497   5.234
 5430SOL    HW117189   1.565   4.399   5.251
 5430SOL    HW217190   1.670   4.524   5.242
 5431SOL     OW17191   5.254   4.737   1.511
 5431SOL    HW117192   5.269   4.791   1.594
 5431SOL    HW217193   5.249   4.640   1.535
 5432SOL     OW17194   0.203   5.082   6.275
 5432SOL    HW117195   0.280   5.037   6.231
 5432SOL    HW217196   0.117   5.041   6.242
 5433SOL     OW17197   2.527   0.418   1.601
 5433SOL    HW117198   2.537   0.502   1.654
 5433SOL    HW217199   2.591   0.418   1.524
 5434SOL     OW17200   5.302   5.865   4.433
 5434SOL    HW117201   5.211   5.850   4.395
 5434SOL    HW217202   5.325   5.791   4.496
 5435SOL     OW17203   6.597   3.744   6.765
 5435SOL    HW117204   6.534   3.818   6.741
 5435SOL    HW217205   6.552   3.680   6.826
 5436SOL     OW17206   1.424   4.237   1.677
 5436SOL    HW117207   1.372   4.304   1.730
 5436SOL    HW217208   1.513   4.224   1.720
 5437SOL     OW17209   3.690   6.562   6.310
 5437SOL    HW117210   3.745   6.642   6.286
 5437SOL    HW217211   3.630   6.585   6.387
 5438SOL     OW17212   5.729   6.707   2.728
 5438SOL    HW117213   5.662   6.678   2.660
 5438SOL    HW217214   5.800   6.637   2.737
 5439SOL     OW17215   1.515   3.737   1.493
 5439SOL    HW117216   1.612   3.712   1.497
 5439SOL    HW217217   1.493   3.797   1.570
 5440SOL     OW17218   6.354   6.980   4.400
 5440SOL    HW117219   6.374   6.972   4.303
 5440SOL    HW217220   6.269   0.009   4.413
 5441SOL     OW17221   5.695   1.547   4.910
 5441SOL    HW117222   5.720   1.460   4.868
 5441SOL    HW217223   5.732   1.551   5.003
 5442SOL     OW17224   2.657   0.239   6.403
 5442SOL    HW117225   2.612   0.325   6.427
 5442SOL    HW217226   2.704   0.201   6.482
 5443SOL     OW17227   5.827   0.723   3.613
 5443SOL    HW117228   5.787   0.636   3.585
 5443SOL    HW217229   5.917   0.734   3.571
 5444SOL     OW17230   1.002   0.865   6.173
 5444SOL    HW117231   1.054   0.934   6.222
 5444SOL    HW217232   1.020   0.774   6.212
 5445SOL     OW17233   5.924   6.553   5.105
 5445SOL    HW117234   5.941   6.617   5.180
 5445SOL    HW217235   5.827   6.526   5.106
 5446SOL     OW17236   1.618   5.129   5.628
 5446SOL    HW117237   1.645   5.135   5.724
 5446SOL    HW217238   1.613   5.033   5.600
 5447SOL     OW17239   6.357   1.970   1.360
 5447SOL    HW117240   6.447   1.925   1.361
 5447SOL    HW217241   6.356   2.045   1.426
 5448SOL     OW17242   6.695   4.680   1.501
 5448SOL    HW117243   6.655   4.748   1.562
 5448SOL    HW217244   6.704   4.593   1.549
 5449SOL     OW17245   2.112   0.076   2.313
 5449SOL    HW117246   2.072   0.073   2.221
 5449SOL    HW217247   2.119   7.007   2.349
 5450SOL     OW17248   4.634   5.764   1.638
 5450SOL    HW117249   4.696   5.713   1.698
 5450SOL    HW217250   4.608   5.708   1.560
 5451SOL     OW17251   0.954   6.140   4.074
 5451SOL    HW117252   0.897   6.221   4.094
 5451SOL    HW217253   0.898   6.071   4.028
 5452SOL     OW17254   2.138   3.854   2.814
 5452SOL    HW117255   2.145   3.781   2.747
 5452SOL    HW217256   2.102   3.936   2.770
 5453SOL     OW17257   6.035   4.814   4.620
 5453SOL    HW117258   6.105   4.860   4.675
 5453SOL    HW217259   5.973   4.882   4.581
 5454SOL     OW17260   6.049   3.974   2.358
 5454SOL    HW117261   6.145   3.982   2.332
 5454SOL    HW217262   6.040   3.910   2.434
 5455SOL     OW17263   2.340   2.096   3.524
 5455SOL    HW117264   2.399   2.132   3.596
 5455SOL    HW217265   2.347   2.154   3.443
 5456SOL     OW17266   5.294   2.294   0.886
 5456SOL    HW117267   5.309   2.339   0.798
 5456SOL    HW217268   5.382   2.279   0.931
 5457SOL     OW17269   6.910   1.735   0.328
 5457SOL    HW117270   6.862   1.804   0.274
 5457SOL    HW217271   6.911   1.762   0.424
 5458SOL     OW17272   5.979   5.222   5.609
 5458SOL    HW117273   6.018   5.201   5.519
 5458SOL    HW217274   6.011   5.156   5.676
 5459SOL     OW17275   2.313   3.583   5.325
 5459SOL    HW117276   2.412   3.589   5.335
 5459SOL    HW217277   2.284   3.640   5.248
 5460SOL     OW17278   0.410   0.668   1.474
 5460SOL    HW117279   0.367   0.696   1.560
 5460SOL    HW217280   0.434   0.571   1.479
 5461SOL     OW17281   5.931   1.798   6.489
 5461SOL    HW117282   5.913   1.724   6.424
 5461SOL    HW217283   5.962   1.759   6.576
 5462SOL     OW17284   5.181   5.186   6.311
 5462SOL    HW117285   5.270   5.224   6.283
 5462SOL    HW217286   5.121   5.180   6.231
 5463SOL     OW17287   1.967   5.466   6.538
 5463SOL    HW117288   2.018   5.410   6.603
 5463SOL    HW217289   2.003   5.560   6.541
 5464SOL     OW17290   1.982   5.435   4.111
 5464SOL    HW117291   2.006   5.347   4.153
 5464SOL    HW217292   2.053   5.460   4.045
 5465SOL     OW17293   0.875   0.699   4.826
 5465SOL    HW117294   0.901   0.768   4.759
 5465SOL    HW217295   0.912   0.610   4.798
 5466SOL     OW17296   4.832   2.530   5.005
 5466SOL    HW117297   4.816   2.447   4.952
 5466SOL    HW217298   4.878   2.507   5.090
 5467SOL     OW17299   6.346   3.045   3.887
 5467SOL    HW117300   6.326   2.955   3.848
 5467SOL    HW217301   6.338   3.041   3.986
 5468SOL     OW17302   0.610   2.525   1.668
 5468SOL    HW117303   0.587   2.454   1.601
 5468SOL    HW217304   0.703   2.512   1.700
 5469SOL     OW17305   3.887   1.795   3.949
 5469SOL    HW117306   3.835   1.851   3.885
 5469SOL    HW217307   3.826   1.729   3.993
 5470SOL     OW17308   2.962   4.875   3.644
 5470SOL    HW117309   3.035   4.863   3.577
 5470SOL    HW217310   3.002   4.880   3.736
 5471SOL     OW17311   5.709   0.559   3.387
 5471SOL    HW117312   5.788   0.498   3.383
 5471SOL    HW217313   5.740   0.654   3.394
 5472SOL     OW17314   2.229   4.199   6.664
 5472SOL    HW117315   2.187   4.109   6.652
 5472SOL    HW217316   2.222   4.250   6.578
 5473SOL     OW17317   2.781   4.723   2.143
 5473SOL    HW117318   2.813   4.683   2.058
 5473SOL    HW217319   2.683   4.738   2.138
 5474SOL     OW17320   1.234   4.987   1.905
 5474SOL    HW117321   1.289   4.909   1.935
 5474SOL    HW217322   1.179   4.961   1.826
 5475SOL     OW17323   1.209   0.605   5.159
 5475SOL    HW117324   1.300   0.610   5.118
 5475SOL    HW217325   1.148   0.670   5.113
 5476SOL     OW17326   1.973   0.830   5.014
 5476SOL    HW117327   2.012   0.792   5.097
 5476SOL    HW217328   1.877   0.852   5.029
 5477SOL     OW17329   2.004   3.402   2.565
 5477SOL    HW117330   2.041   3.310   2.580
 5477SOL    HW217331   1.951   3.403   2.480
 5478SOL     OW17332   6.485   3.678   5.754
 5478SOL    HW117333   6.563   3.739   5.742
 5478SOL    HW217334   6.412   3.705   5.692
 5479SOL     OW17335   5.371   3.035   3.968
 5479SOL    HW117336   5.333   2.977   4.040
 5479SOL    HW217337   5.299   3.055   3.901
 5480SOL     OW17338   1.252   3.149   4.543
 5480SOL    HW117339   1.300   3.218   4.597
 5480SOL    HW217340   1.312   3.071   4.528
 5481SOL     OW17341   4.657   1.370   6.773
 5481SOL    HW117342   4.694   1.411   6.856
 5481SOL    HW217343   4.695   1.278   6.762
 5482SOL     OW17344   5.472   4.263   2.732
 5482SOL    HW117345   5.472   4.178   2.678
 5482SOL    HW217346   5.561   4.308   2.722
 5483SOL     OW17347   6.357   2.620   6.964
 5483SOL    HW117348   6.372   2.522   6.975
 5483SOL    HW217349   6.275   2.647   7.015
 5484SOL     OW17350   6.396   0.736   5.468
 5484SOL    HW117351   6.471   0.674   5.493
 5484SOL    HW217352   6.343   0.695   5.394
 5485SOL     OW17353   3.000   0.830   4.090
 5485SOL    HW117354   3.083   0.881   4.067
 5485SOL    HW217355   2.964   0.786   4.008
 5486SOL     OW17356   1.019   0.424   3.478
 5486SOL    HW117357   0.987   0.339   3.518
 5486SOL    HW217358   0.995   0.501   3.538
 5487SOL     OW17359   4.564   5.271   1.227
 5487SOL    HW117360   4.631   5.228   1.288
 5487SOL    HW217361   4.515   5.343   1.276
 5488SOL     OW17362   5.210   1.194   5.676
 5488SOL    HW117363   5.190   1.291   5.663
 5488SOL    HW217364   5.170   1.163   5.763
 5489SOL     OW17365   0.368   3.747   2.176
 5489SOL    HW117366   0.287   3.806   2.184
 5489SOL    HW217367   0.433   3.769   2.248
 5490SOL     OW17368   3.141   2.025   6.396
 5490SOL    HW117369   3.161   2.001   6.301
 5490SOL    HW217370   3.157   1.946   6.455
 5491SOL     OW17371   6.874   5.332   2.643
 5491SOL    HW117372   6.810   5.286   2.705
 5491SOL    HW217373   6.823   5.398   2.587
 5492SOL     OW17374   1.047   1.295   4.881
 5492SOL    HW117375   1.062   1.346   4.797
 5492SOL    HW217376   1.125   1.309   4.943
 5493SOL     OW17377   3.373   1.836   1.024
 5493SOL    HW117378   3.400   1.828   0.928
 5493SOL    HW217379   3.347   1.745   1.058
 5494SOL     OW17380   5.436   2.972   2.753
 5494SOL    HW117381   5.507   2.938   2.691
 5494SOL    HW217382   5.399   3.058   2.717
 5495SOL     OW17383   3.799   2.949   3.785
 5495SOL    HW117384   3.763   2.989   3.701
 5495SOL    HW217385   3.723   2.926   3.846
 5496SOL     OW17386   4.897   5.815   1.941
 5496SOL    HW117387   4.816   5.865   1.911
 5496SOL    HW217388   4.966   5.816   1.868
 5497SOL     OW17389   5.622   0.070   0.795
 5497SOL    HW117390   5.548   0.048   0.730
 5497SOL    HW217391   5.646   0.166   0.786
 5498SOL     OW17392   4.936   1.428   4.495
 5498SOL    HW117393   4.893   1.406   4.408
 5498SOL    HW217394   5.033   1.403   4.493
 5499SOL     OW17395   0.593   0.584   5.546
 5499SOL    HW117396   0.667   0.591   5.479
 5499SOL    HW217397   0.550   0.674   5.557
 5500SOL     OW17398   2.075   6.674   1.023
 5500SOL    HW117399   1.980   6.692   0.997
 5500SOL    HW217400   2.083   6.579   1.053
 5501SOL     OW17401   3.101   0.512   2.505
 5501SOL    HW117402   3.176   0.575   2.527
 5501SOL    HW217403   3.128   0.452   2.430
 5502SOL     OW17404   4.358   3.463   0.599
 5502SOL    HW117405   4.321   3.383   0.552
 5502SOL    HW217406   4.384   3.438   0.692
 5503SOL     OW17407   0.251   6.764   3.934
 5503SOL    HW117408   0.338   6.751   3.981
 5503SOL    HW217409   0.233   6.686   3.874
 5504SOL     OW17410   2.913   2.266   4.676
 5504SOL    HW117411   2.852   2.247   4.753
 5504SOL    HW217412   2.861   2.312   4.603
 5505SOL     OW17413   3.344   4.698   0.535
 5505SOL    HW117414   3.314   4.605   0.558
 5505SOL    HW217415   3.268   4.761   0.546
 5506SOL     OW17416   0.210   6.477   5.856
 5506SOL    HW117417   0.119   6.436   5.863
 5506SOL    HW217418   0.275   6.408   5.825
 5507SOL     OW17419   3.142   5.242   5.374
 5507SOL    HW117420   3.235   5.236   5.411
 5507SOL    HW217421   3.121   5.157   5.324
 5508SOL     OW17422   1.570   0.622   5.360
 5508SOL    HW117423   1.658   0.656   5.329
 5508SOL    HW217424   1.551   0.534   5.317
 5509SOL     OW17425   6.631   0.124   6.446
 5509SOL    HW117426   6.542   0.171   6.453
 5509SOL    HW217427   6.687   0.148   6.525
 5510SOL     OW17428   6.513   0.624   6.176
 5510SOL    HW117429   6.470   0.576   6.252
 5510SOL    HW217430   6.576   0.694   6.211
 5511SOL     OW17431   0.196   2.819   1.456
 5511SOL    HW117432   0.269   2.886   1.443
 5511SOL    HW217433   0.112   2.866   1.484
 5512SOL     OW17434   6.532   0.613   0.204
 5512SOL    HW117435   6.580   0.648   0.284
 5512SOL    HW217436   6.540   0.513   0.201
 5513SOL     OW17437   2.982   6.047   5.255
 5513SOL    HW117438   3.044   5.978   5.292
 5513SOL    HW217439   3.027   6.096   5.180
 5514SOL     OW17440   6.364   5.625   3.665
 5514SOL    HW117441   6.264   5.625   3.662
 5514SOL    HW217442   6.396   5.564   3.737
 5515SOL     OW17443   6.656   3.742   3.074
 5515SOL    HW117444   6.588   3.786   3.133
 5515SOL    HW217445   6.717   3.685   3.131
 5516SOL     OW17446   1.116   2.214   0.038
 5516SOL    HW117447   1.137   2.156   6.983
 5516SOL    HW217448   1.197   2.222   0.096
 5517SOL     OW17449   2.619   0.927   2.279
 5517SOL    HW117450   2.622   0.835   2.240
 5517SOL    HW217451   2.527   0.946   2.313
 5518SOL     OW17452   5.519   4.199   5.109
 5518SOL    HW117453   5.491   4.293   5.127
 5518SOL    HW217454   5.514   4.180   5.011
 5519SOL     OW17455   5.326   3.981   2.932
 5519SOL    HW117456   5.270   3.919   2.987
 5519SOL    HW217457   5.294   4.075   2.944
 5520SOL     OW17458   1.956   2.699   0.892
 5520SOL    HW117459   1.988   2.604   0.899
 5520SOL    HW217460   1.895   2.719   0.968
 5521SOL     OW17461   5.343   5.354   6.808
 5521SOL    HW117462   5.340   5.273   6.867
 5521SOL    HW217463   5.267   5.415   6.831
 5522SOL     OW17464   2.012   2.438   2.031
 5522SOL    HW117465   2.074   2.372   2.075
 5522SOL    HW217466   2.028   2.436   1.932
 5523SOL     OW17467   3.430   0.225   1.636
 5523SOL    HW117468   3.486   0.281   1.696
 5523SOL    HW217469   3.352   0.188   1.687
 5524SOL     OW17470   5.799   5.947   5.824
 5524SOL    HW117471   5.835   5.903   5.741
 5524SOL    HW217472   5.736   6.021   5.798
 5525SOL     OW17473   6.594   5.683   3.498
 5525SOL    HW117474   6.660   5.717   3.565
 5525SOL    HW217475   6.502   5.691   3.536
 5526SOL     OW17476   5.128   2.931   4.575
 5526SOL    HW117477   5.146   2.988   4.495
 5526SOL    HW217478   5.030   2.927   4.593
 5527SOL     OW17479   1.949   3.630   6.933
 5527SOL    HW117480   1.959   3.707   6.996
 5527SOL    HW217481   1.859   3.632   6.891
 5528SOL     OW17482   6.615   3.403   2.974
 5528SOL    HW117483   6.619   3.484   2.916
 5528SOL    HW217484   6.521   3.369   2.977
 5529SOL     OW17485   1.574   0.792   3.975
 5529SOL    HW117486   1.588   0.775   3.877
 5529SOL    HW217487   1.591   0.708   4.026
 5530SOL     OW17488   6.440   3.066   6.976
 5530SOL    HW117489   6.424   3.056   0.050
 5530SOL    HW217490   6.456   3.163   6.954
 5531SOL     OW17491   2.067   3.241   6.867
 5531SOL    HW117492   1.991   3.254   6.932
 5531SOL    HW217493   2.134   3.179   6.908
 5532SOL     OW17494   2.394   2.015   1.275
 5532SOL    HW117495   2.408   2.082   1.202
 5532SOL    HW217496   2.421   2.055   1.362
 5533SOL     OW17497   3.543   0.390   0.514
 5533SOL    HW117498   3.494   0.457   0.570
 5533SOL    HW217499   3.622   0.355   0.564
 5534SOL     OW17500   0.411   4.181   5.312
 5534SOL    HW117501   0.453   4.270   5.293
 5534SOL    HW217502   0.413   4.163   5.410
 5535SOL     OW17503   5.984   3.913   3.596
 5535SOL    HW117504   5.929   3.951   3.522
 5535SOL    HW217505   5.942   3.935   3.684
 5536SOL     OW17506   3.223   0.593   4.355
 5536SOL    HW117507   3.205   0.534   4.276
 5536SOL    HW217508   3.308   0.563   4.399
 5537SOL     OW17509   4.235   1.063   5.014
 5537SOL    HW117510   4.216   0.972   5.052
 5537SOL    HW217511   4.176   1.131   5.058
 5538SOL     OW17512   5.649   2.047   2.549
 5538SOL    HW117513   5.550   2.037   2.560
 5538SOL    HW217514   5.683   1.975   2.488
 5539SOL     OW17515   2.614   0.270   6.980
 5539SOL    HW117516   2.523   0.302   7.005
 5539SOL    HW217517   2.680   0.298   0.025
 5540SOL     OW17518   5.787   6.898   5.789
 5540SOL    HW117519   5.693   6.902   5.756
 5540SOL    HW217520   5.797   6.958   5.869
 5541SOL     OW17521   4.317   3.258   0.017
 5541SOL    HW117522   4.333   3.318   6.962
 5541SOL    HW217523   4.292   3.167   7.008
 5542SOL     OW17524   4.704   4.626   0.439
 5542SOL    HW117525   4.644   4.664   0.510
 5542SOL    HW217526   4.685   4.529   0.427
 5543SOL     OW17527   1.076   0.355   6.382
 5543SOL    HW117528   1.053   0.326   6.475
 5543SOL    HW217529   1.176   0.355   6.371
 5544SOL     OW17530   3.661   5.023   0.403
 5544SOL    HW117531   3.597   5.055   0.473
 5544SOL    HW217532   3.619   4.949   0.351
 5545SOL     OW17533   4.977   1.088   3.437
 5545SOL    HW117534   4.950   1.081   3.341
 5545SOL    HW217535   4.966   1.183   3.468
 5546SOL     OW17536   0.269   5.099   4.133
 5546SOL    HW117537   0.362   5.125   4.162
 5546SOL    HW217538   0.249   5.007   4.166
 5547SOL     OW17539   4.990   2.449   4.741
 5547SOL    HW117540   5.021   2.486   4.829
 5547SOL    HW217541   5.063   2.395   4.699
 5548SOL     OW17542   0.607   4.444   5.273
 5548SOL    HW117543   0.545   4.412   5.201
 5548SOL    HW217544   0.668   4.514   5.236
 5549SOL     OW17545   3.628   3.118   0.601
 5549SOL    HW117546   3.718   3.139   0.640
 5549SOL    HW217547   3.623   3.020   0.581
 5550SOL     OW17548   2.492   4.325   1.696
 5550SOL    HW117549   2.538   4.401   1.743
 5550SOL    HW217550   2.483   4.248   1.759
 5551SOL     OW17551   2.195   5.122   2.493
 5551SOL    HW117552   2.200   5.040   2.435
 5551SOL    HW217553   2.273   5.181   2.475
 5552SOL     OW17554   1.070   0.331   0.003
 5552SOL    HW117555   1.037   0.426   0.005
 5552SOL    HW217556   1.022   0.278   0.073
 5553SOL     OW17557   5.310   0.248   6.673
 5553SOL    HW117558   5.324   0.173   6.737
 5553SOL    HW217559   5.228   0.299   6.697
 5554SOL     OW17560   6.837   2.358   1.327
 5554SOL    HW117561   6.794   2.309   1.252
 5554SOL    HW217562   6.819   2.456   1.317
 5555SOL     OW17563   1.449   4.799   2.152
 5555SOL    HW117564   1.500   4.841   2.077
 5555SOL    HW217565   1.372   4.746   2.116
 5556SOL     OW17566   0.147   1.146   4.450
 5556SOL    HW117567   0.102   1.180   4.532
 5556SOL    HW217568   0.237   1.109   4.473
 5557SOL     OW17569   4.111   6.222   3.222
 5557SOL    HW117570   4.123   6.272   3.136
 5557SOL    HW217571   4.058   6.139   3.205
 5558SOL     OW17572   4.535   4.269   0.177
 5558SOL    HW117573   4.503   4.281   0.083
 5558SOL    HW217574   4.459   4.237   0.234
 5559SOL     OW17575   3.572   0.676   2.659
 5559SOL    HW117576   3.570   0.675   2.759
 5559SOL    HW217577   3.590   0.769   2.627
 5560SOL     OW17578   0.578   5.373   3.727
 5560SOL    HW117579   0.635   5.291   3.720
 5560SOL    HW217580   0.496   5.353   3.780
 5561SOL     OW17581   3.964   6.826   3.122
 5561SOL    HW117582   4.047   6.775   3.145
 5561SOL    HW217583   3.889   6.796   3.180
 5562SOL     OW17584   3.508   3.683   0.770
 5562SOL    HW117585   3.562   3.713   0.849
 5562SOL    HW217586   3.417   3.655   0.801
 5563SOL     OW17587   2.656   4.741   2.557
 5563SOL    HW117588   2.731   4.718   2.494
 5563SOL    HW217589   2.677   4.827   2.603
 5564SOL     OW17590   4.586   6.901   6.331
 5564SOL    HW117591   4.598   6.813   6.378
 5564SOL    HW217592   4.538   6.964   6.392
 5565SOL     OW17593   3.684   1.471   6.209
 5565SOL    HW117594   3.759   1.426   6.257
 5565SOL    HW217595   3.716   1.503   6.119
 5566SOL     OW17596   1.396   4.428   5.969
 5566SOL    HW117597   1.496   4.424   5.967
 5566SOL    HW217598   1.360   4.341   6.004
 5567SOL     OW17599   0.469   4.623   0.302
 5567SOL    HW117600   0.541   4.646   0.237
 5567SOL    HW217601   0.448   4.702   0.359
 5568SOL     OW17602   4.926   4.806   1.454
 5568SOL    HW117603   4.873   4.866   1.514
 5568SOL    HW217604   5.023   4.817   1.474
 5569SOL     OW17605   2.312   2.512   2.700
 5569SOL    HW117606   2.307   2.541   2.796
 5569SOL    HW217607   2.406   2.487   2.678
 5570SOL     OW17608   6.868   3.747   1.878
 5570SOL    HW117609   6.956   3.750   1.831
 5570SOL    HW217610   6.883   3.727   1.975
 5571SOL     OW17611   6.675   4.692   1.223
 5571SOL    HW117612   6.684   4.658   1.317
 5571SOL    HW217613   6.766   4.714   1.187
 5572SOL     OW17614   1.916   4.121   5.082
 5572SOL    HW117615   1.865   4.053   5.136
 5572SOL    HW217616   1.998   4.148   5.132
 5573SOL     OW17617   3.252   5.065   3.710
 5573SOL    HW117618   3.230   5.032   3.619
 5573SOL    HW217619   3.292   5.157   3.705
 5574SOL     OW17620   0.623   2.071   4.963
 5574SOL    HW117621   0.633   2.114   4.874
 5574SOL    HW217622   0.558   2.123   5.019
 5575SOL     OW17623   0.101   0.013   1.774
 5575SOL    HW117624   0.179   0.072   1.754
 5575SOL    HW217625   0.110   6.998   1.866
 5576SOL     OW17626   1.579   5.238   2.989
 5576SOL    HW117627   1.549   5.222   3.083
 5576SOL    HW217628   1.646   5.169   2.963
 5577SOL     OW17629   1.912   2.750   6.001
 5577SOL    HW117630   1.968   2.828   5.976
 5577SOL    HW217631   1.817   2.768   5.977
 5578SOL     OW17632   3.371   4.006   3.421
 5578SOL    HW117633   3.384   4.072   3.348
 5578SOL    HW217634   3.417   4.038   3.504
 5579SOL     OW17635   6.581   2.830   2.357
 5579SOL    HW117636   6.513   2.834   2.431
 5579SOL    HW217637   6.649   2.760   2.378
 5580SOL     OW17638   5.643   2.170   5.492
 5580SOL    HW117639   5.670   2.250   5.545
 5580SOL    HW217640   5.725   2.124   5.458
 5581SOL     OW17641   1.624   2.669   6.660
 5581SOL    HW117642   1.580   2.582   6.680
 5581SOL    HW217643   1.720   2.654   6.636
 5582SOL     OW17644   2.724   2.661   5.899
 5582SOL    HW117645   2.652   2.596   5.925
 5582SOL    HW217646   2.804   2.611   5.866
 5583SOL     OW17647   5.567   7.015   1.040
 5583SOL    HW117648   5.591   0.020   0.947
 5583SOL    HW217649   5.472   0.017   1.059
 5584SOL     OW17650   1.865   3.311   4.271
 5584SOL    HW117651   1.873   3.338   4.175
 5584SOL    HW217652   1.879   3.212   4.279
 5585SOL     OW17653   5.262   5.293   1.744
 5585SOL    HW117654   5.176   5.287   1.795
 5585SOL    HW217655   5.335   5.325   1.805
 5586SOL     OW17656   0.736   4.862   0.324
 5586SOL    HW117657   0.835   4.874   0.319
 5586SOL    HW217658   0.715   4.773   0.364
 5587SOL     OW17659   6.381   0.681   5.940
 5587SOL    HW117660   6.404   0.763   5.889
 5587SOL    HW217661   6.443   0.672   6.019
 5588SOL     OW17662   3.784   6.736   1.160
 5588SOL    HW117663   3.875   6.698   1.146
 5588SOL    HW217664   3.770   6.815   1.100
 5589SOL     OW17665   6.054   4.896   6.005
 5589SOL    HW117666   6.059   4.807   5.959
 5589SOL    HW217667   6.083   4.886   6.100
 5590SOL     OW17668   6.054   5.264   3.102
 5590SOL    HW117669   6.077   5.170   3.078
 5590SOL    HW217670   5.957   5.270   3.124
 5591SOL     OW17671   5.125   1.211   1.751
 5591SOL    HW117672   5.160   1.245   1.838
 5591SOL    HW217673   5.076   1.125   1.766
 5592SOL     OW17674   0.615   4.246   3.058
 5592SOL    HW117675   0.534   4.250   3.116
 5592SOL    HW217676   0.637   4.338   3.025
 5593SOL     OW17677   0.759   3.864   0.445
 5593SOL    HW117678   0.736   3.954   0.481
 5593SOL    HW217679   0.696   3.796   0.482
 5594SOL     OW17680   6.678   2.164   5.964
 5594SOL    HW117681   6.700   2.071   5.994
 5594SOL    HW217682   6.677   2.225   6.043
 5595SOL     OW17683   0.843   2.234   6.852
 5595SOL    HW117684   0.928   2.282   6.871
 5595SOL    HW217685   0.820   2.175   6.930
 5596SOL     OW17686   3.289   5.837   3.415
 5596SOL    HW117687   3.205   5.886   3.395
 5596SOL    HW217688   3.346   5.891   3.476
 5597SOL     OW17689   5.260   3.146   2.424
 5597SOL    HW117690   5.213   3.234   2.421
 5597SOL    HW217691   5.306   3.135   2.512
 5598SOL     OW17692   5.178   1.241   5.218
 5598SOL    HW117693   5.111   1.254   5.145
 5598SOL    HW217694   5.165   1.152   5.260
 5599SOL     OW17695   1.240   0.380   3.306
 5599SOL    HW117696   1.161   0.412   3.358
 5599SOL    HW217697   1.253   0.440   3.226
 5600SOL     OW17698   1.700   2.481   5.151
 5600SOL    HW117699   1.774   2.415   5.138
 5600SOL    HW217700   1.696   2.543   5.072
 5601SOL     OW17701   2.619   1.036   6.150
 5601SOL    HW117702   2.718   1.028   6.145
 5601SOL    HW217703   2.590   1.122   6.107
 5602SOL     OW17704   1.486   0.946   0.229
 5602SOL    HW117705   1.452   0.924   0.320
 5602SOL    HW217706   1.469   0.869   0.167
 5603SOL     OW17707   5.878   5.107   5.939
 5603SOL    HW117708   5.940   5.031   5.920
 5603SOL    HW217709   5.808   5.078   6.004
 5604SOL     OW17710   5.642   1.362   5.858
 5604SOL    HW117711   5.703   1.386   5.934
 5604SOL    HW217712   5.551   1.340   5.895
 5605SOL     OW17713   1.489   2.371   6.616
 5605SOL    HW117714   1.463   2.451   6.563
 5605SOL    HW217715   1.436   2.368   6.701
 5606SOL     OW17716   5.654   0.127   3.206
 5606SOL    HW117717   5.672   0.218   3.167
 5606SOL    HW217718   5.701   0.119   3.294
 5607SOL     OW17719   5.769   0.601   1.267
 5607SOL    HW117720   5.864   0.571   1.273
 5607SOL    HW217721   5.710   0.534   1.313
 5608SOL     OW17722   3.721   6.706   5.250
 5608SOL    HW117723   3.630   6.738   5.277
 5608SOL    HW217724   3.782   6.784   5.238
 5609SOL     OW17725   1.310   5.318   5.311
 5609SOL    HW117726   1.269   5.401   5.275
 5609SOL    HW217727   1.262   5.290   5.394
 5610SOL     OW17728   4.796   0.135   6.271
 5610SOL    HW117729   4.749   0.213   6.231
 5610SOL    HW217730   4.778   0.053   6.217
 5611SOL     OW17731   1.946   4.490   3.815
 5611SOL    HW117732   1.981   4.415   3.872
 5611SOL    HW217733   1.848   4.479   3.802
 5612SOL     OW17734   2.672   0.173   4.953
 5612SOL    HW117735   2.727   0.210   4.879
 5612SOL    HW217736   2.581   0.151   4.920
 5613SOL     OW17737   3.718   5.192   1.647
 5613SOL    HW117738   3.720   5.283   1.688
 5613SOL    HW217739   3.779   5.190   1.567
 5614SOL     OW17740   4.717   2.107   3.775
 5614SOL    HW117741   4.707   2.177   3.845
 5614SOL    HW217742   4.668   2.024   3.804
 5615SOL     OW17743   1.591   1.394   1.611
 5615SOL    HW117744   1.532   1.326   1.568
 5615SOL    HW217745   1.657   1.428   1.543
 5616SOL     OW17746   2.125   0.077   4.603
 5616SOL    HW117747   2.048   0.019   4.631
 5616SOL    HW217748   2.125   0.087   4.504
 5617SOL     OW17749   0.949   0.458   5.149
 5617SOL    HW117750   0.937   0.443   5.247
 5617SOL    HW217751   1.021   0.525   5.133
 5618SOL     OW17752   6.842   4.324   3.403
 5618SOL    HW117753   6.804   4.397   3.345
 5618SOL    HW217754   6.846   4.356   3.497
 5619SOL     OW17755   2.218   3.747   5.113
 5619SOL    HW117756   2.282   3.823   5.119
 5619SOL    HW217757   2.210   3.718   5.018
 5620SOL     OW17758   4.094   1.644   6.851
 5620SOL    HW117759   4.124   1.555   6.886
 5620SOL    HW217760   4.017   1.677   6.906
 5621SOL     OW17761   2.303   1.899   6.459
 5621SOL    HW117762   2.366   1.923   6.385
 5621SOL    HW217763   2.218   1.950   6.448
 5622SOL     OW17764   5.326   0.866   5.217
 5622SOL    HW117765   5.339   0.767   5.224
 5622SOL    HW217766   5.408   0.912   5.250
 5623SOL     OW17767   0.246   6.035   0.194
 5623SOL    HW117768   0.174   6.018   0.127
 5623SOL    HW217769   0.330   5.990   0.164
 5624SOL     OW17770   0.562   4.154   2.093
 5624SOL    HW117771   0.611   4.108   2.019
 5624SOL    HW217772   0.474   4.186   2.061
 5625SOL     OW17773   6.328   2.298   5.668
 5625SOL    HW117774   6.349   2.214   5.718
 5625SOL    HW217775   6.316   2.277   5.571
 5626SOL     OW17776   4.920   6.563   4.082
 5626SOL    HW117777   4.835   6.581   4.133
 5626SOL    HW217778   4.969   6.487   4.126
 5627SOL     OW17779   1.011   6.463   1.146
 5627SOL    HW117780   0.971   6.475   1.237
 5627SOL    HW217781   0.956   6.514   1.079
 5628SOL     OW17782   1.759   1.570   4.526
 5628SOL    HW117783   1.681   1.511   4.505
 5628SOL    HW217784   1.774   1.633   4.450
 5629SOL     OW17785   3.791   2.919   3.064
 5629SOL    HW117786   3.819   2.933   2.969
 5629SOL    HW217787   3.865   2.947   3.125
 5630SOL     OW17788   6.736   4.181   1.692
 5630SOL    HW117789   6.707   4.101   1.745
 5630SOL    HW217790   6.808   4.154   1.628
 5631SOL     OW17791   5.167   0.644   6.536
 5631SOL    HW117792   5.184   0.726   6.482
 5631SOL    HW217793   5.213   0.566   6.493
 5632SOL     OW17794   3.147   3.028   0.047
 5632SOL    HW117795   3.137   2.940   7.023
 5632SOL    HW217796   3.056   3.070   0.058
 5633SOL     OW17797   6.965   3.279   5.411
 5633SOL    HW117798   6.913   3.364   5.423
 5633SOL    HW217799   6.977   3.235   5.500
 5634SOL     OW17800   5.325   5.970   4.892
 5634SOL    HW117801   5.313   5.871   4.898
 5634SOL    HW217802   5.401   5.997   4.951
 5635SOL     OW17803   3.511   1.984   5.550
 5635SOL    HW117804   3.545   1.935   5.630
 5635SOL    HW217805   3.446   2.055   5.579
 5636SOL     OW17806   3.879   6.303   4.738
 5636SOL    HW117807   3.840   6.390   4.771
 5636SOL    HW217808   3.815   6.260   4.675
 5637SOL     OW17809   6.076   0.226   3.183
 5637SOL    HW117810   6.172   0.199   3.184
 5637SOL    HW217811   6.019   0.146   3.202
 5638SOL     OW17812   5.780   4.083   6.888
 5638SOL    HW117813   5.835   4.030   6.951
 5638SOL    HW217814   5.740   4.023   6.819
 5639SOL     OW17815   3.774   0.496   0.099
 5639SOL    HW117816   3.821   0.562   0.041
 5639SOL    HW217817   3.683   0.530   0.121
 5640SOL     OW17818   1.885   0.155   2.424
 5640SOL    HW117819   1.979   0.130   2.402
 5640SOL    HW217820   1.855   0.106   2.506
 5641SOL     OW17821   6.168   5.655   4.388
 5641SOL    HW117822   6.136   5.614   4.473
 5641SOL    HW217823   6.266   5.637   4.377
 5642SOL     OW17824   1.885   1.815   0.215
 5642SOL    HW117825   1.897   1.891   0.277
 5642SOL    HW217826   1.911   1.730   0.260
 5643SOL     OW17827   5.346   2.072   5.939
 5643SOL    HW117828   5.434   2.056   5.895
 5643SOL    HW217829   5.361   2.102   6.033
 5644SOL     OW17830   2.835   0.531   6.349
 5644SOL    HW117831   2.897   0.460   6.382
 5644SOL    HW217832   2.740   0.503   6.363
 5645SOL     OW17833   5.704   3.871   4.829
 5645SOL    HW117834   5.703   3.775   4.802
 5645SOL    HW217835   5.671   3.927   4.753
 5646SOL     OW17836   1.422   4.572   2.869
 5646SOL    HW117837   1.448   4.648   2.810
 5646SOL    HW217838   1.322   4.562   2.869
 5647SOL     OW17839   6.033   6.827   2.674
 5647SOL    HW117840   5.986   6.790   2.754
 5647SOL    HW217841   6.132   6.830   2.692
 5648SOL     OW17842   4.986   5.922   3.673
 5648SOL    HW117843   5.029   6.011   3.665
 5648SOL    HW217844   5.030   5.857   3.610
 5649SOL     OW17845   1.024   6.713   4.119
 5649SOL    HW117846   1.006   6.731   4.216
 5649SOL    HW217847   1.122   6.721   4.102
 5650SOL     OW17848   6.439   4.331   6.156
 5650SOL    HW117849   6.424   4.322   6.058
 5650SOL    HW217850   6.515   4.272   6.184
 5651SOL     OW17851   2.857   1.052   0.607
 5651SOL    HW117852   2.951   1.020   0.615
 5651SOL    HW217853   2.845   1.102   0.521
 5652SOL     OW17854   0.388   5.886   2.913
 5652SOL    HW117855   0.393   5.861   2.817
 5652SOL    HW217856   0.293   5.909   2.937
 5653SOL     OW17857   0.105   0.213   2.051
 5653SOL    HW117858   0.026   0.212   1.991
 5653SOL    HW217859   0.142   0.306   2.057
 5654SOL     OW17860   2.921   6.095   4.916
 5654SOL    HW117861   3.012   6.084   4.956
 5654SOL    HW217862   2.878   6.177   4.954
 5655SOL     OW17863   5.419   2.805   5.316
 5655SOL    HW117864   5.481   2.861   5.261
 5655SOL    HW217865   5.400   2.720   5.267
 5656SOL     OW17866   6.672   3.548   0.114
 5656SOL    HW117867   6.632   3.457   0.124
 5656SOL    HW217868   6.639   3.608   0.187
 5657SOL     OW17869   4.934   5.654   4.905
 5657SOL    HW117870   4.971   5.583   4.966
 5657SOL    HW217871   4.947   5.744   4.946
 5658SOL     OW17872   2.471   2.989   5.642
 5658SOL    HW117873   2.513   2.998   5.552
 5658SOL    HW217874   2.444   3.080   5.676
 5659SOL     OW17875   2.490   4.177   6.648
 5659SOL    HW117876   2.535   4.097   6.690
 5659SOL    HW217877   2.391   4.171   6.662
 5660SOL     OW17878   4.365   0.446   5.549
 5660SOL    HW117879   4.335   0.447   5.644
 5660SOL    HW217880   4.421   0.526   5.530
 5661SOL     OW17881   0.862   5.777   5.982
 5661SOL    HW117882   0.929   5.729   5.924
 5661SOL    HW217883   0.788   5.714   6.006
 5662SOL     OW17884   3.102   6.468   1.204
 5662SOL    HW117885   3.096   6.381   1.156
 5662SOL    HW217886   3.143   6.454   1.294
 5663SOL     OW17887   1.126   3.332   5.702
 5663SOL    HW117888   1.177   3.250   5.674
 5663SOL    HW217889   1.191   3.407   5.718
 5664SOL     OW17890   4.476   4.759   4.562
 5664SOL    HW117891   4.540   4.810   4.620
 5664SOL    HW217892   4.435   4.820   4.495
 5665SOL     OW17893   1.752   1.483   0.977
 5665SOL    HW117894   1.654   1.469   0.961
 5665SOL    HW217895   1.771   1.581   0.983
 5666SOL     OW17896   6.315   2.663   4.888
 5666SOL    HW117897   6.249   2.733   4.861
 5666SOL    HW217898   6.389   2.659   4.820
 5667SOL     OW17899   2.679   4.625   4.076
 5667SOL    HW117900   2.750   4.582   4.131
 5667SOL    HW217901   2.644   4.705   4.124
 5668SOL     OW17902   4.850   3.937   3.991
 5668SOL    HW117903   4.812   3.853   4.030
 5668SOL    HW217904   4.804   4.017   4.031
 5669SOL     OW17905   5.264   4.041   6.053
 5669SOL    HW117906   5.175   3.996   6.046
 5669SOL    HW217907   5.312   4.033   5.966
 5670SOL     OW17908   1.691   2.825   3.716
 5670SOL    HW117909   1.775   2.852   3.763
 5670SOL    HW217910   1.655   2.740   3.756
 5671SOL     OW17911   6.808   5.141   3.552
 5671SOL    HW117912   6.760   5.228   3.542
 5671SOL    HW217913   6.787   5.082   3.474
 5672SOL     OW17914   5.069   3.334   4.695
 5672SOL    HW117915   5.008   3.361   4.770
 5672SOL    HW217916   5.120   3.414   4.663
 5673SOL     OW17917   1.029   1.943   0.379
 5673SOL    HW117918   1.038   1.885   0.298
 5673SOL    HW217919   1.120   1.975   0.407
 5674SOL     OW17920   2.388   5.012   4.951
 5674SOL    HW117921   2.332   4.930   4.950
 5674SOL    HW217922   2.409   5.039   4.857
 5675SOL     OW17923   2.658   2.293   1.130
 5675SOL    HW117924   2.559   2.291   1.136
 5675SOL    HW217925   2.693   2.366   1.189
 5676SOL     OW17926   3.465   1.394   2.142
 5676SOL    HW117927   3.502   1.486   2.126
 5676SOL    HW217928   3.386   1.401   2.203
 5677SOL     OW17929   0.506   1.482   6.353
 5677SOL    HW117930   0.545   1.510   6.441
 5677SOL    HW217931   0.508   1.560   6.290
 5678SOL     OW17932   3.462   2.005   2.132
 5678SOL    HW117933   3.392   1.962   2.076
 5678SOL    HW217934   3.502   2.082   2.082
 5679SOL     OW17935   6.991   4.262   5.453
 5679SOL    HW117936   6.909   4.241   5.399
 5679SOL    HW217937   0.049   4.241   5.400
 5680SOL     OW17938   0.562   5.726   5.156
 5680SOL    HW117939   0.627   5.651   5.145
 5680SOL    HW217940   0.469   5.693   5.138
 5681SOL     OW17941   1.251   3.624   3.587
 5681SOL    HW117942   1.289   3.672   3.508
 5681SOL    HW217943   1.178   3.562   3.557
 5682SOL     OW17944   1.668   4.577   1.110
 5682SOL    HW117945   1.749   4.633   1.130
 5682SOL    HW217946   1.695   4.481   1.103
 5683SOL     OW17947   6.652   0.351   6.104
 5683SOL    HW117948   6.557   0.320   6.110
 5683SOL    HW217949   6.659   0.442   6.144
 5684SOL     OW17950   2.191   3.086   4.837
 5684SOL    HW117951   2.253   3.065   4.913
 5684SOL    HW217952   2.235   3.060   4.751
 5685SOL     OW17953   2.617   1.865   2.096
 5685SOL    HW117954   2.666   1.809   2.029
 5685SOL    HW217955   2.647   1.960   2.088
 5686SOL     OW17956   4.996   5.549   5.736
 5686SOL    HW117957   4.977   5.641   5.701
 5686SOL    HW217958   4.931   5.484   5.695
 5687SOL     OW17959   1.949   6.558   6.445
 5687SOL    HW117960   1.893   6.595   6.519
 5687SOL    HW217961   1.900   6.565   6.359
 5688SOL     OW17962   1.874   2.183   3.033
 5688SOL    HW117963   1.924   2.099   3.012
 5688SOL    HW217964   1.908   2.221   3.119
 5689SOL     OW17965   0.676   2.538   1.307
 5689SOL    HW117966   0.666   2.541   1.406
 5689SOL    HW217967   0.668   2.443   1.275
 5690SOL     OW17968   2.902   5.360   6.901
 5690SOL    HW117969   2.886   5.315   6.813
 5690SOL    HW217970   2.912   5.292   6.973
 5691SOL     OW17971   4.423   2.250   3.177
 5691SOL    HW117972   4.511   2.217   3.210
 5691SOL    HW217973   4.406   2.214   3.085
 5692SOL     OW17974   6.414   4.525   1.789
 5692SOL    HW117975   6.481   4.595   1.765
 5692SOL    HW217976   6.459   4.451   1.839
 5693SOL     OW17977   4.381   0.436   2.082
 5693SOL    HW117978   4.342   0.404   1.996
 5693SOL    HW217979   4.481   0.437   2.075
 5694SOL     OW17980   0.693   0.272   1.285
 5694SOL    HW117981   0.640   0.344   1.330
 5694SOL    HW217982   0.725   0.304   1.196
 5695SOL     OW17983   2.802   1.280   1.851
 5695SOL    HW117984   2.789   1.349   1.922
 5695SOL    HW217985   2.750   1.198   1.876
 5696SOL     OW17986   0.556   0.408   4.179
 5696SOL    HW117987   0.490   0.441   4.111
 5696SOL    HW217988   0.555   0.308   4.180
 5697SOL     OW17989   6.665   2.150   6.841
 5697SOL    HW117990   6.756   2.188   6.821
 5697SOL    HW217991   6.674   2.070   6.900
 5698SOL     OW17992   3.318   2.063   4.654
 5698SOL    HW117993   3.230   2.036   4.613
 5698SOL    HW217994   3.306   2.079   4.752
 5699SOL     OW17995   2.272   2.837   2.342
 5699SOL    HW117996   2.300   2.828   2.437
 5699SOL    HW217997   2.229   2.927   2.328
 5700SOL     OW17998   6.618   0.119   2.712
 5700SOL    HW117999   6.666   0.035   2.686
 5700SOL    HW218000   6.527   0.096   2.746
 5701SOL     OW18001   1.026   0.821   0.644
 5701SOL    HW118002   0.990   0.914   0.641
 5701SOL    HW218003   1.078   0.808   0.728
 5702SOL     OW18004   1.879   6.969   4.742
 5702SOL    HW118005   1.788   6.952   4.703
 5702SOL    HW218006   1.920   6.882   4.770
 5703SOL     OW18007   0.163   3.021   5.953
 5703SOL    HW118008   0.088   3.054   6.010
 5703SOL    HW218009   0.198   3.096   5.897
 5704SOL     OW18010   3.865   5.007   4.308
 5704SOL    HW118011   3.793   5.004   4.377
 5704SOL    HW218012   3.832   4.966   4.223
 5705SOL     OW18013   6.264   0.984   5.512
 5705SOL    HW118014   6.201   0.978   5.589
 5705SOL    HW218015   6.318   0.900   5.505
 5706SOL     OW18016   5.397   2.022   1.491
 5706SOL    HW118017   5.306   2.000   1.525
 5706SOL    HW218018   5.394   2.037   1.392
 5707SOL     OW18019   6.259   5.083   1.475
 5707SOL    HW118020   6.264   5.114   1.570
 5707SOL    HW218021   6.300   4.992   1.467
 5708SOL     OW18022   5.040   6.261   2.092
 5708SOL    HW118023   5.001   6.270   2.001
 5708SOL    HW218024   5.026   6.168   2.126
 5709SOL     OW18025   0.112   2.563   2.613
 5709SOL    HW118026   0.117   2.588   2.710
 5709SOL    HW218027   0.193   2.512   2.587
 5710SOL     OW18028   4.549   1.359   0.425
 5710SOL    HW118029   4.504   1.443   0.395
 5710SOL    HW218030   4.492   1.313   0.492
 5711SOL     OW18031   4.977   1.577   2.454
 5711SOL    HW118032   4.940   1.516   2.385
 5711SOL    HW218033   4.904   1.637   2.488
 5712SOL     OW18034   5.955   5.972   0.032
 5712SOL    HW118035   5.864   5.938   0.055
 5712SOL    HW218036   5.973   6.056   0.083
 5713SOL     OW18037   1.390   0.949   0.542
 5713SOL    HW118038   1.309   0.964   0.598
 5713SOL    HW218039   1.395   0.852   0.516
 5714SOL     OW18040   6.421   0.105   0.773
 5714SOL    HW118041   6.464   0.077   0.859
 5714SOL    HW218042   6.328   0.138   0.791
 5715SOL     OW18043   0.169   6.747   1.640
 5715SOL    HW118044   0.094   6.777   1.699
 5715SOL    HW218045   0.253   6.741   1.694
 5716SOL     OW18046   0.042   4.506   5.579
 5716SOL    HW118047   7.022   4.421   5.549
 5716SOL    HW218048   0.023   4.578   5.513
 5717SOL     OW18049   0.772   5.522   3.352
 5717SOL    HW118050   0.739   5.489   3.263
 5717SOL    HW218051   0.694   5.532   3.414
 5718SOL     OW18052   1.068   3.978   6.777
 5718SOL    HW118053   1.074   3.878   6.767
 5718SOL    HW218054   1.038   4.000   6.870
 5719SOL     OW18055   2.739   3.802   0.695
 5719SOL    HW118056   2.773   3.718   0.652
 5719SOL    HW218057   2.807   3.874   0.685
 5720SOL     OW18058   3.168   4.836   5.889
 5720SOL    HW118059   3.218   4.878   5.964
 5720SOL    HW218060   3.087   4.789   5.924
 5721SOL     OW18061   1.875   3.288   0.021
 5721SOL    HW118062   1.838   3.202   0.053
 5721SOL    HW218063   1.801   3.355   0.010
 5722SOL     OW18064   1.495   6.928   6.874
 5722SOL    HW118065   1.474   6.874   6.956
 5722SOL    HW218066   1.472   0.000   6.891
 5723SOL     OW18067   4.103   3.313   0.932
 5723SOL    HW118068   4.156   3.376   0.989
 5723SOL    HW218069   4.019   3.356   0.902
 5724SOL     OW18070   5.662   2.455   5.904
 5724SOL    HW118071   5.645   2.360   5.876
 5724SOL    HW218072   5.599   2.480   5.977
 5725SOL     OW18073   0.173   4.652   5.075
 5725SOL    HW118074   0.101   4.642   5.143
 5725SOL    HW218075   0.247   4.709   5.112
 5726SOL     OW18076   5.245   4.384   2.121
 5726SOL    HW118077   5.181   4.362   2.047
 5726SOL    HW218078   5.214   4.467   2.168
 5727SOL     OW18079   1.184   2.788   5.071
 5727SOL    HW118080   1.133   2.868   5.101
 5727SOL    HW218081   1.221   2.805   4.979
 5728SOL     OW18082   3.447   6.755   5.358
 5728SOL    HW118083   3.424   6.707   5.273
 5728SOL    HW218084   3.377   6.737   5.426
 5729SOL     OW18085   2.438   2.043   5.097
 5729SOL    HW118086   2.450   2.138   5.069
 5729SOL    HW218087   2.526   2.005   5.124
 5730SOL     OW18088   6.536   4.182   4.964
 5730SOL    HW118089   6.512   4.099   4.915
 5730SOL    HW218090   6.630   4.207   4.944
 5731SOL     OW18091   0.748   6.793   2.843
 5731SOL    HW118092   0.718   6.872   2.897
 5731SOL    HW218093   0.846   6.779   2.857
 5732SOL     OW18094   6.833   0.908   3.061
 5732SOL    HW118095   6.733   0.916   3.067
 5732SOL    HW218096   6.857   0.833   2.999
 5733SOL     OW18097   3.004   0.645   4.909
 5733SOL    HW118098   3.020   0.743   4.910
 5733SOL    HW218099   3.091   0.597   4.922
 5734SOL     OW18100   1.736   6.741   3.186
 5734SOL    HW118101   1.678   6.694   3.252
 5734SOL    HW218102   1.779   6.821   3.228
 5735SOL     OW18103   3.011   0.643   1.293
 5735SOL    HW118104   2.976   0.669   1.203
 5735SOL    HW218105   3.107   0.616   1.284
 5736SOL     OW18106   1.444   5.106   0.866
 5736SOL    HW118107   1.518   5.083   0.929
 5736SOL    HW218108   1.480   5.111   0.773
 5737SOL     OW18109   5.722   3.819   0.188
 5737SOL    HW118110   5.624   3.802   0.189
 5737SOL    HW218111   5.740   3.914   0.215
 5738SOL     OW18112   0.725   4.663   4.694
 5738SOL    HW118113   0.762   4.703   4.778
 5738SOL    HW218114   0.639   4.709   4.670
 5739SOL     OW18115   0.857   2.731   1.193
 5739SOL    HW118116   0.794   2.657   1.214
 5739SOL    HW218117   0.827   2.779   1.110
 5740SOL     OW18118   4.003   5.205   6.778
 5740SOL    HW118119   4.074   5.276   6.773
 5740SOL    HW218120   3.933   5.223   6.709
 5741SOL     OW18121   0.235   3.405   1.613
 5741SOL    HW118122   0.280   3.478   1.663
 5741SOL    HW218123   0.276   3.396   1.522
 5742SOL     OW18124   0.482   5.485   4.248
 5742SOL    HW118125   0.567   5.475   4.196
 5742SOL    HW218126   0.462   5.582   4.262
 5743SOL     OW18127   1.761   6.092   5.006
 5743SOL    HW118128   1.758   6.132   5.097
 5743SOL    HW218129   1.739   5.994   5.012
 5744SOL     OW18130   5.870   0.302   1.415
 5744SOL    HW118131   5.780   0.325   1.377
 5744SOL    HW218132   5.933   0.378   1.403
 5745SOL     OW18133   1.245   3.065   3.245
 5745SOL    HW118134   1.305   3.142   3.266
 5745SOL    HW218135   1.151   3.097   3.238
 5746SOL     OW18136   6.538   4.090   6.966
 5746SOL    HW118137   6.564   4.170   7.019
 5746SOL    HW218138   6.604   4.075   6.893
 5747SOL     OW18139   1.332   6.401   3.757
 5747SOL    HW118140   1.269   6.337   3.800
 5747SOL    HW218141   1.331   6.488   3.807
 5748SOL     OW18142   1.972   6.999   3.748
 5748SOL    HW118143   1.918   6.983   3.666
 5748SOL    HW218144   1.984   0.074   3.761
 5749SOL     OW18145   1.690   1.186   2.980
 5749SOL    HW118146   1.630   1.263   2.958
 5749SOL    HW218147   1.785   1.212   2.963
 5750SOL     OW18148   6.004   6.521   2.515
 5750SOL    HW118149   6.010   6.441   2.456
 5750SOL    HW218150   5.939   6.587   2.476
 5751SOL     OW18151   0.609   2.966   6.236
 5751SOL    HW118152   0.603   2.875   6.276
 5751SOL    HW218153   0.531   2.981   6.175
 5752SOL     OW18154   1.065   1.452   6.540
 5752SOL    HW118155   1.037   1.374   6.483
 5752SOL    HW218156   1.165   1.462   6.535
 5753SOL     OW18157   4.492   1.656   0.365
 5753SOL    HW118158   4.572   1.702   0.403
 5753SOL    HW218159   4.415   1.664   0.429
 5754SOL     OW18160   5.707   5.607   0.294
 5754SOL    HW118161   5.689   5.525   0.240
 5754SOL    HW218162   5.644   5.611   0.372
 5755SOL     OW18163   3.289   3.793   1.644
 5755SOL    HW118164   3.233   3.721   1.687
 5755SOL    HW218165   3.290   3.873   1.703
 5756SOL     OW18166   6.862   6.202   4.141
 5756SOL    HW118167   6.836   6.191   4.045
 5756SOL    HW218168   6.960   6.187   4.151
 5757SOL     OW18169   6.577   6.221   2.339
 5757SOL    HW118170   6.581   6.235   2.240
 5757SOL    HW218171   6.503   6.156   2.360
 5758SOL     OW18172   2.687   1.309   5.640
 5758SOL    HW118173   2.782   1.293   5.614
 5758SOL    HW218174   2.682   1.331   5.737
 5759SOL     OW18175   0.437   1.683   5.532
 5759SOL    HW118176   0.533   1.699   5.551
 5759SOL    HW218177   0.425   1.593   5.490
 5760SOL     OW18178   0.049   6.000   0.984
 5760SOL    HW118179   0.034   5.984   0.886
 5760SOL    HW218180   0.147   5.998   1.003
 5761SOL     OW18181   4.902   0.374   5.128
 5761SOL    HW118182   4.868   0.467   5.123
 5761SOL    HW218183   4.830   0.310   5.101
 5762SOL     OW18184   5.866   6.275   1.311
 5762SOL    HW118185   5.873   6.176   1.299
 5762SOL    HW218186   5.830   6.317   1.228
 5763SOL     OW18187   2.378   1.105   0.681
 5763SOL    HW118188   2.429   1.130   0.599
 5763SOL    HW218189   2.280   1.104   0.661
 5764SOL     OW18190   4.339   3.179   6.221
 5764SOL    HW118191   4.248   3.181   6.180
 5764SOL    HW218192   4.336   3.126   6.306
 5765SOL     OW18193   6.548   5.488   0.076
 5765SOL    HW118194   6.512   5.555   0.142
 5765SOL    HW218195   6.538   5.523   7.007
 5766SOL     OW18196   2.657   1.056   3.520
 5766SOL    HW118197   2.612   1.144   3.505
 5766SOL    HW218198   2.703   1.056   3.608
 5767SOL     OW18199   5.430   0.019   0.603
 5767SOL    HW118200   5.415   0.020   0.504
 5767SOL    HW218201   5.439   6.948   0.635
 5768SOL     OW18202   6.461   0.216   2.189
 5768SOL    HW118203   6.490   0.132   2.234
 5768SOL    HW218204   6.384   0.255   2.239
 5769SOL     OW18205   2.042   5.034   3.189
 5769SOL    HW118206   1.989   5.114   3.217
 5769SOL    HW218207   2.140   5.054   3.197
 5770SOL     OW18208   5.631   2.109   1.566
 5770SOL    HW118209   5.554   2.059   1.527
 5770SOL    HW218210   5.599   2.195   1.605
 5771SOL     OW18211   1.070   1.062   1.097
 5771SOL    HW118212   0.989   1.003   1.089
 5771SOL    HW218213   1.041   1.154   1.121
 5772SOL     OW18214   6.437   5.300   5.517
 5772SOL    HW118215   6.499   5.350   5.577
 5772SOL    HW218216   6.437   5.344   5.426
 5773SOL     OW18217   5.491   5.670   5.058
 5773SOL    HW118218   5.555   5.631   4.991
 5773SOL    HW218219   5.514   5.766   5.073
 5774SOL     OW18220   2.576   4.994   2.424
 5774SOL    HW118221   2.499   4.929   2.426
 5774SOL    HW218222   2.600   5.019   2.518
 5775SOL     OW18223   0.455   0.829   0.662
 5775SOL    HW118224   0.547   0.866   0.648
 5775SOL    HW218225   0.387   0.891   0.624
 5776SOL     OW18226   4.575   0.980   5.687
 5776SOL    HW118227   4.527   0.893   5.701
 5776SOL    HW218228   4.541   1.024   5.605
 5777SOL     OW18229   5.601   6.959   5.136
 5777SOL    HW118230   5.596   6.888   5.066
 5777SOL    HW218231   5.694   6.998   5.138
 5778SOL     OW18232   2.991   6.839   3.941
 5778SOL    HW118233   2.962   6.813   3.849
 5778SOL    HW218234   3.081   6.801   3.960
 5779SOL     OW18235   4.135   0.142   1.316
 5779SOL    HW118236   4.104   0.116   1.407
 5779SOL    HW218237   4.062   0.194   1.270
 5780SOL     OW18238   6.204   4.096   0.581
 5780SOL    HW118239   6.160   4.072   0.668
 5780SOL    HW218240   6.212   4.014   0.524
 5781SOL     OW18241   3.474   4.235   5.112
 5781SOL    HW118242   3.464   4.334   5.116
 5781SOL    HW218243   3.391   4.192   5.146
 5782SOL     OW18244   4.039   1.399   3.240
 5782SOL    HW118245   4.067   1.494   3.254
 5782SOL    HW218246   3.956   1.397   3.185
 5783SOL     OW18247   3.006   6.308   2.515
 5783SOL    HW118248   2.919   6.354   2.498
 5783SOL    HW218249   2.990   6.214   2.543
 5784SOL     OW18250   1.372   6.551   0.516
 5784SOL    HW118251   1.274   6.531   0.521
 5784SOL    HW218252   1.397   6.612   0.590
 5785SOL     OW18253   2.415   2.487   6.668
 5785SOL    HW118254   2.443   2.581   6.649
 5785SOL    HW218255   2.393   2.477   6.765
 5786SOL     OW18256   0.736   2.056   5.722
 5786SOL    HW118257   0.753   1.966   5.683
 5786SOL    HW218258   0.823   2.099   5.746
 5787SOL     OW18259   0.557   2.645   4.614
 5787SOL    HW118260   0.540   2.674   4.519
 5787SOL    HW218261   0.476   2.663   4.669
 5788SOL     OW18262   0.519   1.924   1.656
 5788SOL    HW118263   0.549   2.019   1.646
 5788SOL    HW218264   0.494   1.907   1.752
 5789SOL     OW18265   2.536   6.301   6.906
 5789SOL    HW118266   2.621   6.271   6.863
 5789SOL    HW218267   2.534   6.401   6.909
 5790SOL     OW18268   0.142   6.578   2.628
 5790SOL    HW118269   0.117   6.674   2.619
 5790SOL    HW218270   0.131   6.532   2.540
 5791SOL     OW18271   4.052   0.490   0.857
 5791SOL    HW118272   4.091   0.564   0.911
 5791SOL    HW218273   4.072   0.505   0.760
 5792SOL     OW18274   4.852   2.397   2.164
 5792SOL    HW118275   4.752   2.393   2.169
 5792SOL    HW218276   4.879   2.486   2.127
 5793SOL     OW18277   4.045   1.923   0.157
 5793SOL    HW118278   4.041   1.943   0.255
 5793SOL    HW218279   4.141   1.912   0.130
 5794SOL     OW18280   2.925   5.796   0.006
 5794SOL    HW118281   2.937   5.697   0.014
 5794SOL    HW218282   2.909   5.835   0.096
 5795SOL     OW18283   1.091   0.346   0.856
 5795SOL    HW118284   1.150   0.363   0.935
 5795SOL    HW218285   1.069   0.434   0.812
 5796SOL     OW18286   4.844   0.487   6.064
 5796SOL    HW118287   4.899   0.552   6.116
 5796SOL    HW218288   4.773   0.448   6.123
 5797SOL     OW18289   6.802   2.200   0.356
 5797SOL    HW118290   6.829   2.287   0.313
 5797SOL    HW218291   6.782   2.133   0.286
 5798SOL     OW18292   1.997   2.746   4.453
 5798SOL    HW118293   1.910   2.718   4.494
 5798SOL    HW218294   2.069   2.685   4.485
 5799SOL     OW18295   2.632   0.291   3.608
 5799SOL    HW118296   2.589   0.207   3.575
 5799SOL    HW218297   2.580   0.327   3.685
 5800SOL     OW18298   0.992   6.342   1.847
 5800SOL    HW118299   0.893   6.334   1.844
 5800SOL    HW218300   1.029   6.282   1.918
 5801SOL     OW18301   1.554   1.762   2.973
 5801SOL    HW118302   1.598   1.850   2.953
 5801SOL    HW218303   1.456   1.775   2.981
 5802SOL     OW18304   0.052   6.866   2.691
 5802SOL    HW118305   0.066   6.893   2.596
 5802SOL    HW218306   0.061   6.947   2.749
 5803SOL     OW18307   0.498   6.704   4.108
 5803SOL    HW118308   0.594   6.675   4.106
 5803SOL    HW218309   0.438   6.625   4.098
 5804SOL     OW18310   6.119   1.658   3.308
 5804SOL    HW118311   6.187   1.675   3.237
 5804SOL    HW218312   6.106   1.740   3.363
 5805SOL     OW18313   0.901   2.717   1.677
 5805SOL    HW118314   0.884   2.633   1.727
 5805SOL    HW218315   0.983   2.762   1.714
 5806SOL     OW18316   6.599   4.023   2.093
 5806SOL    HW118317   6.645   4.026   2.005
 5806SOL    HW218318   6.638   4.092   2.154
 5807SOL     OW18319   1.373   1.364   1.807
 5807SOL    HW118320   1.453   1.384   1.751
 5807SOL    HW218321   1.291   1.398   1.761
 5808SOL     OW18322   6.648   0.052   5.743
 5808SOL    HW118323   6.601   6.990   5.722
 5808SOL    HW218324   6.584   0.129   5.732
 5809SOL     OW18325   0.378   3.205   4.379
 5809SOL    HW118326   0.446   3.276   4.401
 5809SOL    HW218327   0.293   3.248   4.349
 5810SOL     OW18328   1.550   6.674   5.399
 5810SOL    HW118329   1.479   6.629   5.345
 5810SOL    HW218330   1.508   6.732   5.468
 5811SOL     OW18331   3.171   5.228   0.110
 5811SOL    HW118332   3.217   5.233   0.198
 5811SOL    HW218333   3.239   5.225   0.036
 5812SOL     OW18334   6.533   3.934   6.015
 5812SOL    HW118335   6.444   3.890   6.024
 5812SOL    HW218336   6.601   3.883   6.068
 5813SOL     OW18337   6.251   4.910   1.031
 5813SOL    HW118338   6.228   4.897   0.935
 5813SOL    HW218339   6.188   4.976   1.072
 5814SOL     OW18340   5.517   1.092   2.499
 5814SOL    HW118341   5.474   1.177   2.468
 5814SOL    HW218342   5.600   1.075   2.445
 5815SOL     OW18343   6.157   3.583   4.947
 5815SOL    HW118344   6.163   3.622   5.039
 5815SOL    HW218345   6.062   3.557   4.929
 5816SOL     OW18346   6.540   4.171   0.877
 5816SOL    HW118347   6.606   4.172   0.802
 5816SOL    HW218348   6.450   4.199   0.842
 5817SOL     OW18349   6.873   2.811   3.678
 5817SOL    HW118350   6.894   2.736   3.614
 5817SOL    HW218351   6.881   2.777   3.772
 5818SOL     OW18352   2.424   0.133   4.153
 5818SOL    HW118353   2.441   0.115   4.250
 5818SOL    HW218354   2.369   0.060   4.114
 5819SOL     OW18355   3.947   4.306   1.008
 5819SOL    HW118356   3.898   4.254   0.939
 5819SOL    HW218357   4.001   4.378   0.964
 5820SOL     OW18358   0.373   6.612   2.252
 5820SOL    HW118359   0.421   6.559   2.323
 5820SOL    HW218360   0.275   6.607   2.267
 5821SOL     OW18361   6.511   6.774   2.359
 5821SOL    HW118362   6.450   6.853   2.358
 5821SOL    HW218363   6.458   6.691   2.347
 5822SOL     OW18364   0.850   4.124   2.946
 5822SOL    HW118365   0.794   4.149   3.025
 5822SOL    HW218366   0.935   4.081   2.979
 5823SOL     OW18367   2.662   6.572   4.910
 5823SOL    HW118368   2.627   6.535   4.823
 5823SOL    HW218369   2.675   6.671   4.901
 5824SOL     OW18370   2.441   5.739   2.265
 5824SOL    HW118371   2.506   5.789   2.322
 5824SOL    HW218372   2.482   5.654   2.234
 5825SOL     OW18373   4.373   2.025   5.345
 5825SOL    HW118374   4.421   1.992   5.264
 5825SOL    HW218375   4.421   2.104   5.384
 5826SOL     OW18376   1.299   6.228   4.841
 5826SOL    HW118377   1.296   6.298   4.913
 5826SOL    HW218378   1.369   6.252   4.774
 5827SOL     OW18379   2.123   3.743   3.060
 5827SOL    HW118380   2.135   3.780   2.968
 5827SOL    HW218381   2.138   3.816   3.127
 5828SOL     OW18382   4.389   6.590   4.709
 5828SOL    HW118383   4.377   6.551   4.618
 5828SOL    HW218384   4.309   6.571   4.765
 5829SOL     OW18385   2.216   1.119   2.935
 5829SOL    HW118386   2.222   1.021   2.915
 5829SOL    HW218387   2.307   1.153   2.960
 5830SOL     OW18388   4.563   5.394   4.542
 5830SOL    HW118389   4.660   5.399   4.565
 5830SOL    HW218390   4.546   5.440   4.455
 5831SOL     OW18391   2.002   1.186   4.600
 5831SOL    HW118392   1.908   1.198   4.567
 5831SOL    HW218393   2.015   1.091   4.628
 5832SOL     OW18394   2.041   4.875   4.068
 5832SOL    HW118395   2.071   4.804   4.005
 5832SOL    HW218396   2.119   4.933   4.092
 5833SOL     OW18397   3.071   4.921   0.902
 5833SOL    HW118398   3.078   4.917   1.002
 5833SOL    HW218399   3.105   5.009   0.869
 5834SOL     OW18400   5.912   2.311   6.370
 5834SOL    HW118401   5.879   2.217   6.360
 5834SOL    HW218402   5.864   2.354   6.446
 5835SOL     OW18403   4.300   1.292   3.933
 5835SOL    HW118404   4.234   1.366   3.943
 5835SOL    HW218405   4.324   1.282   3.836
 5836SOL     OW18406   5.045   5.154   1.457
 5836SOL    HW118407   4.987   5.130   1.535
 5836SOL    HW218408   5.141   5.156   1.485
 5837SOL     OW18409   2.647   4.311   0.022
 5837SOL    HW118410   2.668   4.365   6.964
 5837SOL    HW218411   2.594   4.365   0.086
 5838SOL     OW18412   3.158   2.946   0.345
 5838SOL    HW118413   3.222   3.010   0.388
 5838SOL    HW218414   3.160   2.959   0.245
 5839SOL     OW18415   2.143   1.456   1.286
 5839SOL    HW118416   2.179   1.394   1.216
 5839SOL    HW218417   2.135   1.407   1.373
 5840SOL     OW18418   6.824   3.592   2.696
 5840SOL    HW118419   6.761   3.656   2.739
 5840SOL    HW218420   6.916   3.605   2.732
 5841SOL     OW18421   5.091   2.109   0.553
 5841SOL    HW118422   4.993   2.125   0.547
 5841SOL    HW218423   5.109   2.012   0.534
 5842SOL     OW18424   3.557   2.135   2.541
 5842SOL    HW118425   3.524   2.131   2.635
 5842SOL    HW218426   3.646   2.180   2.538
 5843SOL     OW18427   3.206   3.422   1.290
 5843SOL    HW118428   3.273   3.403   1.218
 5843SOL    HW218429   3.252   3.470   1.365
 5844SOL     OW18430   0.027   5.744   5.068
 5844SOL    HW118431   0.075   5.670   5.114
 5844SOL    HW218432   6.959   5.714   5.040
 5845SOL     OW18433   1.899   6.387   2.906
 5845SOL    HW118434   1.857   6.437   2.830
 5845SOL    HW218435   1.958   6.448   2.957
 5846SOL     OW18436   0.354   4.634   5.745
 5846SOL    HW118437   0.286   4.702   5.773
 5846SOL    HW218438   0.398   4.595   5.826
 5847SOL     OW18439   1.907   4.148   6.178
 5847SOL    HW118440   1.936   4.241   6.154
 5847SOL    HW218441   1.818   4.129   6.137
 5848SOL     OW18442   2.769   6.291   1.751
 5848SOL    HW118443   2.673   6.320   1.748
 5848SOL    HW218444   2.774   6.196   1.781
 5849SOL     OW18445   3.050   6.102   6.483
 5849SOL    HW118446   3.022   6.166   6.555
 5849SOL    HW218447   2.980   6.032   6.471
 5850SOL     OW18448   5.824   2.042   1.739
 5850SOL    HW118449   5.819   2.064   1.836
 5850SOL    HW218450   5.737   2.065   1.695
 5851SOL     OW18451   0.997   3.416   4.763
 5851SOL    HW118452   0.911   3.375   4.731
 5851SOL    HW218453   0.979   3.508   4.797
 5852SOL     OW18454   5.006   4.648   2.876
 5852SOL    HW118455   5.069   4.608   2.809
 5852SOL    HW218456   4.918   4.667   2.832
 5853SOL     OW18457   4.143   5.161   0.198
 5853SOL    HW118458   4.086   5.140   0.277
 5853SOL    HW218459   4.137   5.087   0.132
 5854SOL     OW18460   2.771   4.545   5.373
 5854SOL    HW118461   2.827   4.570   5.453
 5854SOL    HW218462   2.827   4.548   5.291
 5855SOL     OW18463   1.644   2.229   4.750
 5855SOL    HW118464   1.708   2.159   4.783
 5855SOL    HW218465   1.663   2.316   4.795
 5856SOL     OW18466   0.804   0.056   2.134
 5856SOL    HW118467   0.735   0.121   2.167
 5856SOL    HW218468   0.820   7.011   2.204
 5857SOL     OW18469   5.674   5.490   0.031
 5857SOL    HW118470   5.629   5.409   7.018
 5857SOL    HW218471   5.743   5.523   6.989
 5858SOL     OW18472   2.684   1.496   2.356
 5858SOL    HW118473   2.748   1.453   2.420
 5858SOL    HW218474   2.676   1.593   2.377
 5859SOL     OW18475   5.481   5.301   1.914
 5859SOL    HW118476   5.515   5.232   1.978
 5859SOL    HW218477   5.435   5.374   1.965
 5860SOL     OW18478   1.879   3.394   2.315
 5860SOL    HW118479   1.924   3.341   2.243
 5860SOL    HW218480   1.854   3.484   2.279
 5861SOL     OW18481   5.273   0.047   5.451
 5861SOL    HW118482   5.197   0.106   5.424
 5861SOL    HW218483   5.347   0.053   5.384
 5862SOL     OW18484   6.331   5.029   2.821
 5862SOL    HW118485   6.335   4.935   2.786
 5862SOL    HW218486   6.340   5.028   2.921
 5863SOL     OW18487   3.961   0.234   5.903
 5863SOL    HW118488   3.956   0.233   5.803
 5863SOL    HW218489   3.930   0.323   5.936
 5864SOL     OW18490   3.465   3.380   3.467
 5864SOL    HW118491   3.521   3.415   3.543
 5864SOL    HW218492   3.469   3.443   3.390
 5865SOL     OW18493   6.010   6.700   1.408
 5865SOL    HW118494   5.931   6.731   1.461
 5865SOL    HW218495   6.029   6.604   1.429
 5866SOL     OW18496   3.582   3.464   3.697
 5866SOL    HW118497   3.605   3.560   3.715
 5866SOL    HW218498   3.613   3.407   3.773
 5867SOL     OW18499   4.337   1.256   0.546
 5867SOL    HW118500   4.347   1.225   0.641
 5867SOL    HW218501   4.253   1.218   0.508
 5868SOL     OW18502   0.985   1.195   0.824
 5868SOL    HW118503   0.893   1.222   0.793
 5868SOL    HW218504   0.978   1.143   0.909
 5869SOL     OW18505   2.275   5.250   3.237
 5869SOL    HW118506   2.359   5.245   3.183
 5869SOL    HW218507   2.292   5.218   3.330
 5870SOL     OW18508   4.517   6.859   4.670
 5870SOL    HW118509   4.505   6.760   4.663
 5870SOL    HW218510   4.603   6.886   4.627
 5871SOL     OW18511   4.028   3.593   3.567
 5871SOL    HW118512   3.978   3.511   3.540
 5871SOL    HW218513   4.116   3.567   3.608
 5872SOL     OW18514   3.479   5.870   1.292
 5872SOL    HW118515   3.491   5.875   1.193
 5872SOL    HW218516   3.507   5.956   1.334
 5873SOL     OW18517   4.250   6.380   1.995
 5873SOL    HW118518   4.234   6.448   2.067
 5873SOL    HW218519   4.347   6.353   1.996
 5874SOL     OW18520   6.819   3.941   4.937
 5874SOL    HW118521   6.865   4.026   4.910
 5874SOL    HW218522   6.775   3.901   4.857
 5875SOL     OW18523   3.879   2.271   1.167
 5875SOL    HW118524   3.877   2.356   1.220
 5875SOL    HW218525   3.955   2.214   1.198
 5876SOL     OW18526   3.426   3.029   2.671
 5876SOL    HW118527   3.359   3.014   2.599
 5876SOL    HW218528   3.503   3.083   2.635
 5877SOL     OW18529   5.202   4.456   1.582
 5877SOL    HW118530   5.290   4.409   1.592
 5877SOL    HW218531   5.181   4.505   1.667
 5878SOL     OW18532   1.169   3.711   2.322
 5878SOL    HW118533   1.189   3.757   2.235
 5878SOL    HW218534   1.211   3.620   2.322
 5879SOL     OW18535   2.195   4.091   4.365
 5879SOL    HW118536   2.193   4.007   4.420
 5879SOL    HW218537   2.241   4.163   4.416
 5880SOL     OW18538   2.912   5.610   6.442
 5880SOL    HW118539   2.933   5.619   6.539
 5880SOL    HW218540   2.978   5.549   6.399
 5881SOL     OW18541   1.961   6.715   4.140
 5881SOL    HW118542   2.021   6.635   4.141
 5881SOL    HW218543   1.979   6.772   4.220
 5882SOL     OW18544   4.768   0.254   2.708
 5882SOL    HW118545   4.809   0.321   2.646
 5882SOL    HW218546   4.669   0.261   2.703
 5883SOL     OW18547   1.304   2.812   4.826
 5883SOL    HW118548   1.277   2.817   4.730
 5883SOL    HW218549   1.323   2.717   4.850
 5884SOL     OW18550   0.052   1.118   2.830
 5884SOL    HW118551   0.143   1.112   2.789
 5884SOL    HW218552   0.060   1.150   2.924
 5885SOL     OW18553   5.247   6.829   0.548
 5885SOL    HW118554   5.324   6.787   0.595
 5885SOL    HW218555   5.271   6.846   0.452
 5886SOL     OW18556   5.858   1.722   6.236
 5886SOL    HW118557   5.885   1.816   6.215
 5886SOL    HW218558   5.764   1.707   6.206
 5887SOL     OW18559   3.895   6.118   2.846
 5887SOL    HW118560   3.974   6.141   2.788
 5887SOL    HW218561   3.815   6.101   2.789
 5888SOL     OW18562   6.711   6.358   2.523
 5888SOL    HW118563   6.675   6.306   2.446
 5888SOL    HW218564   6.667   6.326   2.608
 5889SOL     OW18565   2.877   0.084   6.829
 5889SOL    HW118566   2.877   0.094   6.729
 5889SOL    HW218567   2.783   0.078   6.862
 5890SOL     OW18568   4.004   5.177   6.213
 5890SOL    HW118569   3.923   5.208   6.163
 5890SOL    HW218570   3.990   5.190   6.311
 5891SOL     OW18571   1.329   3.570   5.968
 5891SOL    HW118572   1.301   3.599   5.876
 5891SOL    HW218573   1.429   3.571   5.974
 5892SOL     OW18574   2.138   6.256   2.628
 5892SOL    HW118575   2.065   6.324   2.635
 5892SOL    HW218576   2.107   6.181   2.570
 5893SOL     OW18577   1.559   2.299   2.635
 5893SOL    HW118578   1.632   2.285   2.702
 5893SOL    HW218579   1.521   2.391   2.647
 5894SOL     OW18580   1.589   3.876   4.403
 5894SOL    HW118581   1.550   3.797   4.357
 5894SOL    HW218582   1.579   3.957   4.345
 5895SOL     OW18583   5.573   4.277   3.091
 5895SOL    HW118584   5.637   4.204   3.114
 5895SOL    HW218585   5.481   4.238   3.081
 5896SOL     OW18586   5.185   3.148   5.920
 5896SOL    HW118587   5.243   3.170   5.998
 5896SOL    HW218588   5.235   3.162   5.836
 5897SOL     OW18589   4.407   5.418   0.819
 5897SOL    HW118590   4.394   5.321   0.799
 5897SOL    HW218591   4.450   5.463   0.742
 5898SOL     OW18592   2.627   6.846   3.125
 5898SOL    HW118593   2.696   6.867   3.194
 5898SOL    HW218594   2.592   6.931   3.087
 5899SOL     OW18595   5.135   0.745   3.851
 5899SOL    HW118596   5.158   0.787   3.764
 5899SOL    HW218597   5.219   0.729   3.904
 5900SOL     OW18598   4.031   5.060   1.983
 5900SOL    HW118599   3.938   5.032   1.961
 5900SOL    HW218600   4.096   5.004   1.932
 5901SOL     OW18601   2.880   6.259   4.672
 5901SOL    HW118602   2.890   6.261   4.572
 5901SOL    HW218603   2.808   6.194   4.697
 5902SOL     OW18604   5.924   2.393   0.007
 5902SOL    HW118605   5.900   2.412   6.935
 5902SOL    HW218606   5.991   2.319   0.010
 5903SOL     OW18607   0.145   2.555   6.092
 5903SOL    HW118608   0.070   2.495   6.119
 5903SOL    HW218609   0.129   2.591   6.000
 5904SOL     OW18610   1.648   2.889   2.076
 5904SOL    HW118611   1.723   2.880   2.010
 5904SOL    HW218612   1.630   2.986   2.093
 5905SOL     OW18613   0.395   4.450   2.278
 5905SOL    HW118614   0.383   4.512   2.355
 5905SOL    HW218615   0.487   4.410   2.281
 5906SOL     OW18616   0.491   0.380   2.907
 5906SOL    HW118617   0.527   0.372   3.000
 5906SOL    HW218618   0.501   0.293   2.860
 5907SOL     OW18619   2.260   0.099   2.907
 5907SOL    HW118620   2.176   0.117   2.958
 5907SOL    HW218621   2.272   0.169   2.837
 5908SOL     OW18622   0.718   2.614   5.880
 5908SOL    HW118623   0.623   2.604   5.909
 5908SOL    HW218624   0.728   2.583   5.786
 5909SOL     OW18625   5.924   4.750   0.023
 5909SOL    HW118626   5.896   4.684   0.093
 5909SOL    HW218627   6.023   4.750   0.015
 5910SOL     OW18628   1.135   1.422   3.616
 5910SOL    HW118629   1.120   1.396   3.712
 5910SOL    HW218630   1.180   1.347   3.568
 5911SOL     OW18631   6.585   6.053   7.001
 5911SOL    HW118632   6.494   6.077   0.012
 5911SOL    HW218633   6.630   6.134   6.965
 5912SOL     OW18634   0.712   0.107   3.567
 5912SOL    HW118635   0.683   0.012   3.558
 5912SOL    HW218636   0.713   0.133   3.663
 5913SOL     OW18637   6.870   2.640   1.286
 5913SOL    HW118638   6.963   2.610   1.265
 5913SOL    HW218639   6.872   2.737   1.310
 5914SOL     OW18640   0.623   6.718   0.997
 5914SOL    HW118641   0.543   6.764   1.036
 5914SOL    HW218642   0.651   6.643   1.057
 5915SOL     OW18643   3.920   0.747   5.388
 5915SOL    HW118644   3.984   0.670   5.390
 5915SOL    HW218645   3.830   0.716   5.417
 5916SOL     OW18646   1.243   0.196   2.318
 5916SOL    HW118647   1.326   0.153   2.284
 5916SOL    HW218648   1.243   0.293   2.295
 5917SOL     OW18649   3.327   2.583   0.565
 5917SOL    HW118650   3.303   2.495   0.604
 5917SOL    HW218651   3.276   2.597   0.480
 5918SOL     OW18652   3.487   6.571   3.896
 5918SOL    HW118653   3.543   6.541   3.973
 5918SOL    HW218654   3.536   6.641   3.844
 5919SOL     OW18655   3.151   3.174   4.481
 5919SOL    HW118656   3.094   3.254   4.502
 5919SOL    HW218657   3.162   3.166   4.382
 5920SOL     OW18658   0.975   0.493   5.792
 5920SOL    HW118659   0.885   0.483   5.749
 5920SOL    HW218660   1.046   0.468   5.726
 5921SOL     OW18661   2.822   4.710   6.962
 5921SOL    HW118662   2.817   4.760   6.875
 5921SOL    HW218663   2.732   4.672   6.984
 5922SOL     OW18664   5.387   2.092   2.494
 5922SOL    HW118665   5.317   2.052   2.435
 5922SOL    HW218666   5.422   2.176   2.453
 5923SOL     OW18667   5.853   0.599   3.084
 5923SOL    HW118668   5.938   0.624   3.131
 5923SOL    HW218669   5.793   0.678   3.079
 5924SOL     OW18670   6.784   6.668   3.527
 5924SOL    HW118671   6.707   6.657   3.464
 5924SOL    HW218672   6.834   6.582   3.534
 5925SOL     OW18673   4.916   0.916   0.889
 5925SOL    HW118674   4.975   0.933   0.968
 5925SOL    HW218675   4.821   0.908   0.919
 5926SOL     OW18676   5.748   3.221   2.937
 5926SOL    HW118677   5.846   3.225   2.918
 5926SOL    HW218678   5.720   3.126   2.952
 5927SOL     OW18679   0.535   6.033   1.596
 5927SOL    HW118680   0.448   6.081   1.586
 5927SOL    HW218681   0.520   5.944   1.639
 5928SOL     OW18682   2.979   0.170   0.276
 5928SOL    HW118683   2.971   0.077   0.241
 5928SOL    HW218684   2.892   0.218   0.263
 5929SOL     OW18685   1.235   0.842   0.866
 5929SOL    HW118686   1.253   0.748   0.894
 5929SOL    HW218687   1.277   0.904   0.932
 5930SOL     OW18688   1.242   3.903   1.956
 5930SOL    HW118689   1.268   3.841   2.031
 5930SOL    HW218690   1.263   3.997   1.981
 5931SOL     OW18691   4.655   6.079   3.623
 5931SOL    HW118692   4.708   6.037   3.549
 5931SOL    HW218693   4.715   6.132   3.682
 5932SOL     OW18694   3.138   6.464   0.258
 5932SOL    HW118695   3.085   6.460   0.173
 5932SOL    HW218696   3.236   6.465   0.235
 5933SOL     OW18697   6.490   5.856   4.559
 5933SOL    HW118698   6.484   5.759   4.539
 5933SOL    HW218699   6.405   5.901   4.532
 5934SOL     OW18700   2.862   3.692   0.027
 5934SOL    HW118701   2.788   3.722   0.087
 5934SOL    HW218702   2.924   3.768   0.010
 5935SOL     OW18703   1.122   0.179   5.387
 5935SOL    HW118704   1.214   0.205   5.358
 5935SOL    HW218705   1.126   0.091   5.435
 5936SOL     OW18706   3.785   3.021   2.287
 5936SOL    HW118707   3.788   2.942   2.226
 5936SOL    HW218708   3.792   3.105   2.232
 5937SOL     OW18709   0.595   3.181   0.254
 5937SOL    HW118710   0.515   3.121   0.262
 5937SOL    HW218711   0.590   3.232   0.168
 5938SOL     OW18712   0.863   3.574   4.020
 5938SOL    HW118713   0.887   3.624   3.937
 5938SOL    HW218714   0.943   3.522   4.052
 5939SOL     OW18715   4.317   1.390   5.412
 5939SOL    HW118716   4.228   1.350   5.435
 5939SOL    HW218717   4.309   1.441   5.326
 5940SOL     OW18718   4.951   5.031   1.853
 5940SOL    HW118719   5.040   5.026   1.900
 5940SOL    HW218720   4.879   5.003   1.916
 5941SOL     OW18721   0.539   2.016   3.220
 5941SOL    HW118722   0.510   2.020   3.316
 5941SOL    HW218723   0.605   1.942   3.208
 5942SOL     OW18724   4.953   2.487   6.586
 5942SOL    HW118725   4.862   2.523   6.604
 5942SOL    HW218726   4.946   2.395   6.549
 5943SOL     OW18727   1.384   4.576   1.206
 5943SOL    HW118728   1.362   4.481   1.228
 5943SOL    HW218729   1.483   4.587   1.205
 5944SOL     OW18730   6.241   3.975   5.910
 5944SOL    HW118731   6.295   4.057   5.893
 5944SOL    HW218732   6.187   3.986   5.994
 5945SOL     OW18733   6.577   6.282   4.262
 5945SOL    HW118734   6.638   6.256   4.187
 5945SOL    HW218735   6.550   6.378   4.250
 5946SOL     OW18736   2.180   3.482   6.769
 5946SOL    HW118737   2.155   3.386   6.781
 5946SOL    HW218738   2.119   3.539   6.825
 5947SOL     OW18739   3.690   3.410   4.334
 5947SOL    HW118740   3.735   3.457   4.259
 5947SOL    HW218741   3.738   3.325   4.354
 5948SOL     OW18742   4.773   3.963   1.832
 5948SOL    HW118743   4.752   3.874   1.791
 5948SOL    HW218744   4.748   4.036   1.768
 5949SOL     OW18745   0.817   4.283   3.342
 5949SOL    HW118746   0.725   4.250   3.317
 5949SOL    HW218747   0.881   4.206   3.342
 5950SOL     OW18748   2.529   6.778   4.387
 5950SOL    HW118749   2.513   6.873   4.415
 5950SOL    HW218750   2.624   6.769   4.356
 5951SOL     OW18751   6.711   3.706   6.023
 5951SOL    HW118752   6.799   3.724   6.066
 5951SOL    HW218753   6.725   3.647   5.943
 5952SOL     OW18754   3.892   3.996   2.029
 5952SOL    HW118755   3.811   4.030   2.076
 5952SOL    HW218756   3.864   3.953   1.943
 5953SOL     OW18757   6.654   3.428   5.934
 5953SOL    HW118758   6.591   3.453   5.860
 5953SOL    HW218759   6.740   3.396   5.894
 5954SOL     OW18760   2.452   5.290   3.704
 5954SOL    HW118761   2.517   5.234   3.756
 5954SOL    HW218762   2.361   5.284   3.747
 5955SOL     OW18763   4.095   3.135   0.210
 5955SOL    HW118764   4.192   3.117   0.195
 5955SOL    HW218765   4.080   3.161   0.306
 5956SOL     OW18766   4.567   2.783   5.876
 5956SOL    HW118767   4.549   2.684   5.873
 5956SOL    HW218768   4.659   2.799   5.912
 5957SOL     OW18769   6.411   1.865   3.396
 5957SOL    HW118770   6.441   1.773   3.419
 5957SOL    HW218771   6.376   1.866   3.302
 5958SOL     OW18772   2.601   6.197   3.141
 5958SOL    HW118773   2.534   6.199   3.215
 5958SOL    HW218774   2.626   6.291   3.116
 5959SOL     OW18775   5.293   3.633   3.009
 5959SOL    HW118776   5.300   3.692   3.090
 5959SOL    HW218777   5.256   3.544   3.036
 5960SOL     OW18778   5.560   0.503   6.089
 5960SOL    HW118779   5.472   0.456   6.087
 5960SOL    HW218780   5.623   0.458   6.024
 5961SOL     OW18781   3.067   2.188   3.859
 5961SOL    HW118782   3.041   2.095   3.833
 5961SOL    HW218783   3.001   2.253   3.822
 5962SOL     OW18784   4.384   4.796   0.366
 5962SOL    HW118785   4.300   4.817   0.417
 5962SOL    HW218786   4.381   4.702   0.333
 5963SOL     OW18787   1.691   4.275   0.736
 5963SOL    HW118788   1.783   4.314   0.743
 5963SOL    HW218789   1.651   4.266   0.827
 5964SOL     OW18790   2.000   0.366   3.012
 5964SOL    HW118791   1.905   0.362   2.980
 5964SOL    HW218792   2.060   0.390   2.936
 5965SOL     OW18793   2.580   0.818   1.273
 5965SOL    HW118794   2.558   0.742   1.334
 5965SOL    HW218795   2.608   0.782   1.184
 5966SOL     OW18796   2.874   1.604   5.097
 5966SOL    HW118797   2.931   1.594   5.015
 5966SOL    HW218798   2.914   1.549   5.171
 5967SOL     OW18799   4.647   2.398   5.255
 5967SOL    HW118800   4.615   2.455   5.179
 5967SOL    HW218801   4.719   2.445   5.306
 5968SOL     OW18802   5.850   2.141   2.990
 5968SOL    HW118803   5.850   2.210   2.918
 5968SOL    HW218804   5.782   2.071   2.967
 5969SOL     OW18805   4.934   6.849   1.046
 5969SOL    HW118806   4.964   6.939   1.014
 5969SOL    HW218807   4.954   6.781   0.976
 5970SOL     OW18808   6.579   2.855   0.271
 5970SOL    HW118809   6.505   2.914   0.241
 5970SOL    HW218810   6.545   2.789   0.338
 5971SOL     OW18811   6.736   5.439   3.458
 5971SOL    HW118812   6.682   5.370   3.411
 5971SOL    HW218813   6.675   5.505   3.502
 5972SOL     OW18814   6.117   5.048   1.222
 5972SOL    HW118815   6.132   5.140   1.187
 5972SOL    HW218816   6.149   5.043   1.317
 5973SOL     OW18817   3.045   1.045   2.307
 5973SOL    HW118818   3.045   0.945   2.302
 5973SOL    HW218819   3.128   1.076   2.354
 5974SOL     OW18820   5.799   1.312   4.783
 5974SOL    HW118821   5.726   1.279   4.724
 5974SOL    HW218822   5.879   1.336   4.728
 5975SOL     OW18823   4.368   5.023   1.240
 5975SOL    HW118824   4.315   4.955   1.190
 5975SOL    HW218825   4.420   5.079   1.176
 5976SOL     OW18826   1.477   4.248   5.263
 5976SOL    HW118827   1.548   4.177   5.257
 5976SOL    HW218828   1.401   4.224   5.202
 5977SOL     OW18829   6.607   5.417   1.210
 5977SOL    HW118830   6.600   5.494   1.273
 5977SOL    HW218831   6.581   5.333   1.257
 5978SOL     OW18832   3.042   3.876   6.250
 5978SOL    HW118833   3.136   3.908   6.260
 5978SOL    HW218834   3.028   3.795   6.308
 5979SOL     OW18835   6.378   6.708   1.028
 5979SOL    HW118836   6.339   6.758   0.951
 5979SOL    HW218837   6.380   6.767   1.109
 5980SOL     OW18838   3.297   2.495   0.878
 5980SOL    HW118839   3.207   2.513   0.837
 5980SOL    HW218840   3.359   2.460   0.808
 5981SOL     OW18841   3.038   2.539   1.083
 5981SOL    HW118842   3.038   2.442   1.109
 5981SOL    HW218843   3.129   2.577   1.097
 5982SOL     OW18844   5.350   2.683   1.358
 5982SOL    HW118845   5.352   2.583   1.362
 5982SOL    HW218846   5.435   2.715   1.316
 5983SOL     OW18847   6.745   1.379   3.447
 5983SOL    HW118848   6.682   1.344   3.516
 5983SOL    HW218849   6.834   1.395   3.489
 5984SOL     OW18850   5.978   5.906   3.210
 5984SOL    HW118851   5.955   5.847   3.133
 5984SOL    HW218852   6.061   5.958   3.189
 5985SOL     OW18853   0.246   3.848   2.808
 5985SOL    HW118854   0.337   3.846   2.766
 5985SOL    HW218855   0.256   3.843   2.907
 5986SOL     OW18856   3.811   3.409   3.538
 5986SOL    HW118857   3.744   3.461   3.592
 5986SOL    HW218858   3.838   3.328   3.590
 5987SOL     OW18859   0.007   5.716   4.669
 5987SOL    HW118860   0.067   5.752   4.597
 5987SOL    HW218861   0.057   5.714   4.756
 5988SOL     OW18862   1.115   3.070   0.184
 5988SOL    HW118863   1.033   3.038   0.231
 5988SOL    HW218864   1.101   3.064   0.085
 5989SOL     OW18865   1.964   6.732   5.292
 5989SOL    HW118866   1.991   6.743   5.388
 5989SOL    HW218867   1.865   6.728   5.286
 5990SOL     OW18868   2.061   4.297   1.694
 5990SOL    HW118869   2.148   4.300   1.644
 5990SOL    HW218870   1.996   4.360   1.652
 5991SOL     OW18871   5.492   1.368   0.812
 5991SOL    HW118872   5.572   1.342   0.757
 5991SOL    HW218873   5.514   1.361   0.909
 5992SOL     OW18874   2.890   5.092   3.216
 5992SOL    HW118875   2.932   5.136   3.295
 5992SOL    HW218876   2.914   4.995   3.215
 5993SOL     OW18877   5.493   2.229   0.607
 5993SOL    HW118878   5.441   2.315   0.608
 5993SOL    HW218879   5.584   2.245   0.646
 5994SOL     OW18880   0.160   3.581   0.118
 5994SOL    HW118881   0.141   3.662   0.175
 5994SOL    HW218882   0.191   3.611   0.028
 5995SOL     OW18883   5.506   3.504   1.235
 5995SOL    HW118884   5.581   3.486   1.170
 5995SOL    HW218885   5.426   3.450   1.208
 5996SOL     OW18886   2.705   6.994   1.891
 5996SOL    HW118887   2.792   0.003   1.854
 5996SOL    HW218888   2.630   7.021   1.831
 5997SOL     OW18889   6.021   0.405   3.927
 5997SOL    HW118890   6.120   0.391   3.917
 5997SOL    HW218891   6.005   0.485   3.985
 5998SOL     OW18892   6.173   6.401   6.719
 5998SOL    HW118893   6.098   6.414   6.784
 5998SOL    HW218894   6.207   6.490   6.689
 5999SOL     OW18895   5.541   3.687   1.424
 5999SOL    HW118896   5.541   3.601   1.374
 5999SOL    HW218897   5.455   3.735   1.408
 6000SOL     OW18898   1.158   4.558   1.040
 6000SOL    HW118899   1.143   4.587   0.946
 6000SOL    HW218900   1.240   4.601   1.077
 6001SOL     OW18901   6.656   5.779   5.292
 6001SOL    HW118902   6.695   5.838   5.221
 6001SOL    HW218903   6.579   5.825   5.335
 6002SOL     OW18904   5.419   4.792   4.795
 6002SOL    HW118905   5.485   4.849   4.844
 6002SOL    HW218906   5.326   4.819   4.821
 6003SOL     OW18907   2.733   2.270   5.283
 6003SOL    HW118908   2.713   2.367   5.269
 6003SOL    HW218909   2.804   2.241   5.219
 6004SOL     OW18910   5.357   3.461   5.082
 6004SOL    HW118911   5.404   3.395   5.141
 6004SOL    HW218912   5.356   3.550   5.128
 6005SOL     OW18913   3.778   4.042   0.437
 6005SOL    HW118914   3.868   4.036   0.481
 6005SOL    HW218915   3.716   3.975   0.480
 6006SOL     OW18916   3.031   6.290   6.703
 6006SOL    HW118917   3.049   6.370   6.645
 6006SOL    HW218918   3.094   6.290   6.781
 6007SOL     OW18919   2.384   6.739   5.056
 6007SOL    HW118920   2.432   6.827   5.050
 6007SOL    HW218921   2.446   6.669   5.091
 6008SOL     OW18922   2.048   3.969   6.651
 6008SOL    HW118923   2.116   3.909   6.610
 6008SOL    HW218924   2.001   4.020   6.578
 6009SOL     OW18925   3.803   5.335   2.835
 6009SOL    HW118926   3.760   5.249   2.808
 6009SOL    HW218927   3.771   5.409   2.775
 6010SOL     OW18928   0.339   5.015   4.955
 6010SOL    HW118929   0.324   5.055   4.865
 6010SOL    HW218930   0.252   5.013   5.005
 6011SOL     OW18931   5.123   1.528   3.013
 6011SOL    HW118932   5.038   1.578   2.998
 6011SOL    HW218933   5.169   1.514   2.925
 6012SOL     OW18934   6.695   1.227   6.082
 6012SOL    HW118935   6.781   1.250   6.127
 6012SOL    HW218936   6.641   1.310   6.070
 6013SOL     OW18937   5.784   1.351   2.451
 6013SOL    HW118938   5.823   1.326   2.362
 6013SOL    HW218939   5.685   1.360   2.443
 6014SOL     OW18940   3.511   3.831   4.065
 6014SOL    HW118941   3.473   3.901   4.005
 6014SOL    HW218942   3.573   3.874   4.131
 6015SOL     OW18943   5.869   6.848   4.419
 6015SOL    HW118944   5.924   6.905   4.480
 6015SOL    HW218945   5.904   6.856   4.326
 6016SOL     OW18946   4.266   2.298   4.819
 6016SOL    HW118947   4.178   2.274   4.859
 6016SOL    HW218948   4.325   2.218   4.819
 6017SOL     OW18949   1.387   1.828   5.331
 6017SOL    HW118950   1.410   1.870   5.419
 6017SOL    HW218951   1.341   1.740   5.347
 6018SOL     OW18952   2.831   1.391   3.960
 6018SOL    HW118953   2.915   1.436   3.989
 6018SOL    HW218954   2.784   1.352   4.039
 6019SOL     OW18955   6.603   4.626   6.620
 6019SOL    HW118956   6.607   4.711   6.568
 6019SOL    HW218957   6.663   4.558   6.576
 6020SOL     OW18958   0.703   5.264   5.431
 6020SOL    HW118959   0.660   5.183   5.392
 6020SOL    HW218960   0.647   5.345   5.408
 6021SOL     OW18961   5.461   0.248   3.363
 6021SOL    HW118962   5.511   0.198   3.291
 6021SOL    HW218963   5.433   0.337   3.328
 6022SOL     OW18964   6.259   2.800   1.669
 6022SOL    HW118965   6.202   2.882   1.660
 6022SOL    HW218966   6.215   2.724   1.621
 6023SOL     OW18967   5.002   6.595   2.486
 6023SOL    HW118968   4.954   6.610   2.400
 6023SOL    HW218969   4.958   6.649   2.558
 6024SOL     OW18970   0.284   5.946   6.578
 6024SOL    HW118971   0.353   5.908   6.516
 6024SOL    HW218972   0.318   5.945   6.672
 6025SOL     OW18973   2.905   0.738   5.844
 6025SOL    HW118974   2.905   0.837   5.829
 6025SOL    HW218975   2.833   0.696   5.788
 6026SOL     OW18976   6.022   5.481   3.453
 6026SOL    HW118977   6.036   5.554   3.521
 6026SOL    HW218978   5.948   5.507   3.391
 6027SOL     OW18979   5.830   5.178   6.486
 6027SOL    HW118980   5.779   5.136   6.561
 6027SOL    HW218981   5.767   5.229   6.427
 6028SOL     OW18982   5.956   6.424   6.112
 6028SOL    HW118983   6.003   6.335   6.106
 6028SOL    HW218984   5.951   6.453   6.207
 6029SOL     OW18985   3.102   1.734   2.803
 6029SOL    HW118986   3.192   1.693   2.818
 6029SOL    HW218987   3.070   1.712   2.711
 6030SOL     OW18988   6.332   3.251   4.668
 6030SOL    HW118989   6.259   3.319   4.677
 6030SOL    HW218990   6.419   3.298   4.650
 6031SOL     OW18991   0.027   6.303   4.397
 6031SOL    HW118992   6.992   6.373   4.435
 6031SOL    HW218993   0.030   6.224   4.458
 6032SOL     OW18994   3.522   6.746   3.064
 6032SOL    HW118995   3.560   6.764   2.974
 6032SOL    HW218996   3.424   6.725   3.055
 6033SOL     OW18997   0.803   1.428   2.408
 6033SOL    HW118998   0.784   1.526   2.417
 6033SOL    HW218999   0.731   1.385   2.353
 6034SOL     OW19000   0.462   0.211   0.602
 6034SOL    HW119001   0.408   0.260   0.670
 6034SOL    HW219002   0.528   0.273   0.561
 6035SOL     OW19003   2.385   0.112   2.445
 6035SOL    HW119004   2.437   0.179   2.391
 6035SOL    HW219005   2.287   0.124   2.428
 6036SOL     OW19006   6.420   3.353   0.566
 6036SOL    HW119007   6.409   3.369   0.664
 6036SOL    HW219008   6.510   3.383   0.537
 6037SOL     OW19009   4.500   1.092   5.990
 6037SOL    HW119010   4.542   1.119   5.904
 6037SOL    HW219011   4.414   1.045   5.972
 6038SOL     OW19012   1.772   1.202   6.031
 6038SOL    HW119013   1.752   1.149   5.949
 6038SOL    HW219014   1.736   1.155   6.112
 6039SOL     OW19015   3.996   3.132   3.910
 6039SOL    HW119016   4.010   3.111   4.007
 6039SOL    HW219017   3.989   3.047   3.858
 6040SOL     OW19018   0.756   2.103   0.043
 6040SOL    HW119019   0.695   2.026   0.025
 6040SOL    HW219020   0.816   2.081   0.119
 6041SOL     OW19021   0.577   3.398   5.182
 6041SOL    HW119022   0.597   3.424   5.277
 6041SOL    HW219023   0.637   3.323   5.155
 6042SOL     OW19024   2.795   5.899   3.980
 6042SOL    HW119025   2.794   5.993   3.948
 6042SOL    HW219026   2.703   5.873   4.010
 6043SOL     OW19027   2.382   6.868   2.334
 6043SOL    HW119028   2.304   6.837   2.387
 6043SOL    HW219029   2.409   6.960   2.363
 6044SOL     OW19030   0.284   3.409   0.297
 6044SOL    HW119031   0.223   3.458   0.234
 6044SOL    HW219032   0.229   3.351   0.358
 6045SOL     OW19033   5.309   1.115   4.109
 6045SOL    HW119034   5.237   1.179   4.084
 6045SOL    HW219035   5.368   1.097   4.030
 6046SOL     OW19036   3.623   3.418   2.763
 6046SOL    HW119037   3.721   3.433   2.749
 6046SOL    HW219038   3.610   3.343   2.828
 6047SOL     OW19039   0.230   1.832   0.223
 6047SOL    HW119040   0.149   1.865   0.175
 6047SOL    HW219041   0.213   1.740   0.258
 6048SOL     OW19042   5.902   5.681   3.032
 6048SOL    HW119043   5.928   5.674   2.935
 6048SOL    HW219044   5.803   5.677   3.040
 6049SOL     OW19045   4.923   4.698   6.311
 6049SOL    HW119046   4.972   4.621   6.350
 6049SOL    HW219047   4.839   4.714   6.362
 6050SOL     OW19048   2.924   5.389   2.664
 6050SOL    HW119049   2.830   5.383   2.629
 6050SOL    HW219050   2.988   5.383   2.588
 6051SOL     OW19051   0.795   1.028   2.490
 6051SOL    HW119052   0.751   1.038   2.579
 6051SOL    HW219053   0.885   1.071   2.492
 6052SOL     OW19054   5.435   5.296   0.524
 6052SOL    HW119055   5.450   5.228   0.596
 6052SOL    HW219056   5.343   5.284   0.486
 6053SOL     OW19057   4.235   2.283   6.517
 6053SOL    HW119058   4.256   2.348   6.443
 6053SOL    HW219059   4.172   2.213   6.482
 6054SOL     OW19060   4.140   3.679   0.730
 6054SOL    HW119061   4.212   3.629   0.682
 6054SOL    HW219062   4.173   3.771   0.753
 6055SOL     OW19063   3.295   3.794   1.357
 6055SOL    HW119064   3.254   3.786   1.448
 6055SOL    HW219065   3.265   3.879   1.314
 6056SOL     OW19066   5.560   5.634   3.432
 6056SOL    HW119067   5.623   5.708   3.407
 6056SOL    HW219068   5.469   5.654   3.397
 6057SOL     OW19069   5.794   1.155   3.415
 6057SOL    HW119070   5.701   1.191   3.422
 6057SOL    HW219071   5.856   1.212   3.469
 6058SOL     OW19072   0.091   2.666   5.814
 6058SOL    HW119073   0.174   2.721   5.816
 6058SOL    HW219074   0.074   2.635   5.720
 6059SOL     OW19075   4.123   2.698   0.033
 6059SOL    HW119076   4.160   2.624   7.002
 6059SOL    HW219077   4.081   2.766   6.997
 6060SOL     OW19078   2.155   2.702   0.572
 6060SOL    HW119079   2.164   2.731   0.667
 6060SOL    HW219080   2.059   2.682   0.552
 6061SOL     OW19081   3.078   4.135   0.120
 6061SOL    HW119082   3.081   4.036   0.128
 6061SOL    HW219083   2.983   4.167   0.125
 6062SOL     OW19084   2.049   2.300   6.535
 6062SOL    HW119085   2.108   2.327   6.459
 6062SOL    HW219086   1.971   2.362   6.541
 6063SOL     OW19087   4.704   4.180   6.635
 6063SOL    HW119088   4.648   4.263   6.645
 6063SOL    HW219089   4.779   4.183   6.701
 6064SOL     OW19090   5.624   6.106   0.808
 6064SOL    HW119091   5.570   6.086   0.727
 6064SOL    HW219092   5.567   6.102   0.890
 6065SOL     OW19093   2.202   6.225   1.552
 6065SOL    HW119094   2.219   6.135   1.590
 6065SOL    HW219095   2.245   6.233   1.462
 6066SOL     OW19096   5.779   5.554   2.467
 6066SOL    HW119097   5.764   5.598   2.555
 6066SOL    HW219098   5.853   5.488   2.474
 6067SOL     OW19099   0.152   5.743   5.560
 6067SOL    HW119100   0.163   5.823   5.619
 6067SOL    HW219101   0.223   5.744   5.489
 6068SOL     OW19102   4.553   2.192   4.424
 6068SOL    HW119103   4.466   2.143   4.421
 6068SOL    HW219104   4.571   2.223   4.517
 6069SOL     OW19105   0.441   4.904   6.189
 6069SOL    HW119106   0.443   4.872   6.094
 6069SOL    HW219107   0.435   4.825   6.250
 6070SOL     OW19108   2.520   1.326   0.805
 6070SOL    HW119109   2.615   1.311   0.832
 6070SOL    HW219110   2.476   1.237   0.790
 6071SOL     OW19111   5.805   1.024   6.038
 6071SOL    HW119112   5.724   1.083   6.048
 6071SOL    HW219113   5.872   1.070   5.980
 6072SOL     OW19114   6.879   3.140   0.011
 6072SOL    HW119115   6.809   3.105   0.072
 6072SOL    HW219116   6.926   3.217   0.054
 6073SOL     OW19117   4.671   3.566   0.811
 6073SOL    HW119118   4.704   3.565   0.717
 6073SOL    HW219119   4.589   3.510   0.819
 6074SOL     OW19120   0.683   6.670   2.598
 6074SOL    HW119121   0.764   6.618   2.570
 6074SOL    HW219122   0.709   6.737   2.668
 6075SOL     OW19123   5.688   0.423   0.118
 6075SOL    HW119124   5.707   0.466   0.030
 6075SOL    HW219125   5.775   0.397   0.161
 6076SOL     OW19126   0.576   6.595   3.631
 6076SOL    HW119127   0.662   6.555   3.665
 6076SOL    HW219128   0.541   6.540   3.555
 6077SOL     OW19129   5.216   5.827   2.764
 6077SOL    HW119130   5.121   5.827   2.733
 6077SOL    HW219131   5.235   5.913   2.812
 6078SOL     OW19132   5.027   4.340   0.938
 6078SOL    HW119133   4.967   4.419   0.952
 6078SOL    HW219134   5.086   4.357   0.859
 6079SOL     OW19135   3.372   2.207   0.370
 6079SOL    HW119136   3.297   2.156   0.329
 6079SOL    HW219137   3.449   2.145   0.388
 6080SOL     OW19138   0.269   3.685   5.862
 6080SOL    HW119139   0.334   3.730   5.801
 6080SOL    HW219140   0.200   3.638   5.807
 6081SOL     OW19141   1.888   3.730   3.558
 6081SOL    HW119142   1.911   3.652   3.500
 6081SOL    HW219143   1.962   3.797   3.554
 6082SOL     OW19144   5.086   1.389   1.260
 6082SOL    HW119145   5.025   1.322   1.216
 6082SOL    HW219146   5.032   1.447   1.321
 6083SOL     OW19147   5.076   0.062   6.580
 6083SOL    HW119148   5.152   0.001   6.557
 6083SOL    HW219149   5.095   0.153   6.545
 6084SOL     OW19150   6.062   5.032   2.942
 6084SOL    HW119151   5.989   5.081   2.894
 6084SOL    HW219152   6.129   4.998   2.876
 6085SOL     OW19153   0.655   6.814   0.738
 6085SOL    HW119154   0.666   6.802   0.837
 6085SOL    HW219155   0.579   6.757   0.706
 6086SOL     OW19156   3.229   3.707   6.987
 6086SOL    HW119157   3.196   3.613   6.978
 6086SOL    HW219158   3.319   3.716   6.945
 6087SOL     OW19159   4.115   6.838   0.549
 6087SOL    HW119160   4.019   6.810   0.542
 6087SOL    HW219161   4.124   6.933   0.518
 6088SOL     OW19162   4.583   5.954   2.531
 6088SOL    HW119163   4.568   5.918   2.623
 6088SOL    HW219164   4.599   6.053   2.536
 6089SOL     OW19165   6.460   3.968   2.965
 6089SOL    HW119166   6.378   4.024   2.953
 6089SOL    HW219167   6.531   3.999   2.902
 6090SOL     OW19168   3.749   5.792   5.025
 6090SOL    HW119169   3.799   5.835   4.949
 6090SOL    HW219170   3.815   5.758   5.092
 6091SOL     OW19171   0.307   2.000   2.077
 6091SOL    HW119172   0.334   2.081   2.129
 6091SOL    HW219173   0.305   2.021   1.980
 6092SOL     OW19174   2.639   6.863   1.322
 6092SOL    HW119175   2.644   6.765   1.338
 6092SOL    HW219176   2.548   6.897   1.347
 6093SOL     OW19177   2.598   2.618   1.753
 6093SOL    HW119178   2.515   2.603   1.699
 6093SOL    HW219179   2.625   2.714   1.747
 6094SOL     OW19180   0.687   6.633   5.676
 6094SOL    HW119181   0.696   6.618   5.578
 6094SOL    HW219182   0.687   6.731   5.696
 6095SOL     OW19183   5.251   5.226   2.198
 6095SOL    HW119184   5.255   5.218   2.298
 6095SOL    HW219185   5.329   5.280   2.166
 6096SOL     OW19186   5.088   6.133   2.975
 6096SOL    HW119187   5.178   6.165   3.006
 6096SOL    HW219188   5.087   6.126   2.876
 6097SOL     OW19189   3.080   5.439   2.424
 6097SOL    HW119190   3.176   5.463   2.412
 6097SOL    HW219191   3.025   5.484   2.353
 6098SOL     OW19192   6.373   0.909   5.215
 6098SOL    HW119193   6.468   0.933   5.236
 6098SOL    HW219194   6.312   0.978   5.254
 6099SOL     OW19195   4.159   0.004   5.541
 6099SOL    HW119196   4.197   0.072   5.605
 6099SOL    HW219197   4.220   7.020   5.462
 6100SOL     OW19198   0.742   5.700   5.478
 6100SOL    HW119199   0.768   5.612   5.517
 6100SOL    HW219200   0.646   5.718   5.498
 6101SOL     OW19201   0.191   2.653   1.675
 6101SOL    HW119202   0.185   2.714   1.597
 6101SOL    HW219203   0.244   2.572   1.649
 6102SOL     OW19204   3.560   0.187   2.854
 6102SOL    HW119205   3.581   0.148   2.943
 6102SOL    HW219206   3.629   0.159   2.788
 6103SOL     OW19207   6.062   0.948   2.694
 6103SOL    HW119208   6.148   0.978   2.736
 6103SOL    HW219209   6.028   1.020   2.633
 6104SOL     OW19210   6.638   1.561   4.497
 6104SOL    HW119211   6.694   1.540   4.417
 6104SOL    HW219212   6.685   1.530   4.580
 6105SOL     OW19213   4.087   4.405   5.928
 6105SOL    HW119214   4.130   4.459   6.000
 6105SOL    HW219215   4.156   4.382   5.859
 6106SOL     OW19216   6.279   4.493   5.037
 6106SOL    HW119217   6.207   4.429   5.063
 6106SOL    HW219218   6.368   4.458   5.066
 6107SOL     OW19219   5.336   4.885   5.478
 6107SOL    HW119220   5.403   4.863   5.548
 6107SOL    HW219221   5.299   4.800   5.439
 6108SOL     OW19222   2.293   1.403   6.324
 6108SOL    HW119223   2.304   1.442   6.233
 6108SOL    HW219224   2.281   1.477   6.390
 6109SOL     OW19225   0.366   6.486   4.037
 6109SOL    HW119226   0.383   6.513   3.943
 6109SOL    HW219227   0.310   6.403   4.039
 6110SOL     OW19228   1.441   1.162   4.291
 6110SOL    HW119229   1.437   1.071   4.250
 6110SOL    HW219230   1.468   1.228   4.222
 6111SOL     OW19231   2.266   3.378   0.614
 6111SOL    HW119232   2.354   3.346   0.650
 6111SOL    HW219233   2.271   3.381   0.514
 6112SOL     OW19234   4.383   6.540   3.663
 6112SOL    HW119235   4.367   6.543   3.565
 6112SOL    HW219236   4.433   6.457   3.687
 6113SOL     OW19237   3.044   5.458   0.829
 6113SOL    HW119238   3.021   5.502   0.916
 6113SOL    HW219239   3.112   5.513   0.781
 6114SOL     OW19240   4.537   2.493   0.900
 6114SOL    HW119241   4.454   2.440   0.918
 6114SOL    HW219242   4.517   2.565   0.834
 6115SOL     OW19243   0.583   0.967   5.003
 6115SOL    HW119244   0.602   0.870   4.997
 6115SOL    HW219245   0.491   0.981   5.041
 6116SOL     OW19246   5.957   3.702   0.179
 6116SOL    HW119247   5.881   3.766   0.191
 6116SOL    HW219248   5.922   3.614   0.149
 6117SOL     OW19249   2.002   2.235   1.612
 6117SOL    HW119250   1.961   2.231   1.521
 6117SOL    HW219251   2.081   2.174   1.616
 6118SOL     OW19252   5.451   0.773   1.768
 6118SOL    HW119253   5.495   0.687   1.793
 6118SOL    HW219254   5.522   0.840   1.744
 6119SOL     OW19255   0.195   1.400   0.036
 6119SOL    HW119256   0.206   1.496   0.011
 6119SOL    HW219257   0.112   1.389   0.090
 6120SOL     OW19258   3.209   0.361   4.173
 6120SOL    HW119259   3.275   0.369   4.248
 6120SOL    HW219260   3.152   0.280   4.188
 6121SOL     OW19261   2.044   1.745   5.134
 6121SOL    HW119262   1.954   1.746   5.091
 6121SOL    HW219263   2.115   1.737   5.064
 6122SOL     OW19264   4.782   4.944   4.948
 6122SOL    HW119265   4.703   4.922   4.891
 6122SOL    HW219266   4.753   4.996   5.027
 6123SOL     OW19267   6.057   1.193   5.044
 6123SOL    HW119268   6.102   1.158   5.126
 6123SOL    HW219269   5.958   1.191   5.055
 6124SOL     OW19270   2.694   5.531   3.969
 6124SOL    HW119271   2.782   5.495   3.939
 6124SOL    HW219272   2.630   5.456   3.986
 6125SOL     OW19273   3.419   1.625   5.978
 6125SOL    HW119274   3.402   1.558   6.050
 6125SOL    HW219275   3.394   1.586   5.889
 6126SOL     OW19276   6.134   3.234   6.362
 6126SOL    HW119277   6.038   3.236   6.334
 6126SOL    HW219278   6.184   3.172   6.303
 6127SOL     OW19279   5.315   1.706   2.849
 6127SOL    HW119280   5.298   1.738   2.756
 6127SOL    HW219281   5.301   1.607   2.854
 6128SOL     OW19282   5.694   5.989   6.652
 6128SOL    HW119283   5.643   6.035   6.724
 6128SOL    HW219284   5.753   5.919   6.693
 6129SOL     OW19285   3.358   5.872   2.971
 6129SOL    HW119286   3.262   5.881   2.999
 6129SOL    HW219287   3.417   5.896   3.048
 6130SOL     OW19288   5.716   3.185   6.911
 6130SOL    HW119289   5.711   3.282   6.933
 6130SOL    HW219290   5.644   3.135   6.959
 6131SOL     OW19291   6.455   2.141   3.032
 6131SOL    HW119292   6.482   2.049   3.060
 6131SOL    HW219293   6.384   2.176   3.093
 6132SOL     OW19294   4.368   6.638   6.311
 6132SOL    HW119295   4.420   6.679   6.237
 6132SOL    HW219296   4.393   6.682   6.398
 6133SOL     OW19297   0.677   2.034   2.834
 6133SOL    HW119298   0.614   1.988   2.896
 6133SOL    HW219299   0.670   2.133   2.846
 6134SOL     OW19300   0.428   6.703   5.708
 6134SOL    HW119301   0.513   6.653   5.692
 6134SOL    HW219302   0.401   6.693   5.804
 6135SOL     OW19303   6.649   0.223   0.690
 6135SOL    HW119304   6.589   0.153   0.728
 6135SOL    HW219305   6.593   0.299   0.655
 6136SOL     OW19306   1.147   1.915   3.672
 6136SOL    HW119307   1.072   1.949   3.615
 6136SOL    HW219308   1.224   1.979   3.668
 6137SOL     OW19309   0.200   4.634   1.123
 6137SOL    HW119310   0.240   4.572   1.055
 6137SOL    HW219311   0.234   4.727   1.107
 6138SOL     OW19312   5.036   0.746   2.283
 6138SOL    HW119313   5.108   0.783   2.341
 6138SOL    HW219314   4.948   0.782   2.312
 6139SOL     OW19315   1.556   1.434   4.871
 6139SOL    HW119316   1.631   1.369   4.879
 6139SOL    HW219317   1.593   1.525   4.851
 6140SOL     OW19318   1.923   6.971   2.601
 6140SOL    HW119319   1.927   6.951   2.699
 6140SOL    HW219320   2.009   6.944   2.558
 6141SOL     OW19321   1.097   1.002   6.824
 6141SOL    HW119322   1.092   0.902   6.831
 6141SOL    HW219323   1.028   1.043   6.884
 6142SOL     OW19324   6.030   0.535   1.347
 6142SOL    HW119325   6.105   0.513   1.284
 6142SOL    HW219326   6.061   0.603   1.413
 6143SOL     OW19327   0.333   3.381   5.626
 6143SOL    HW119328   0.320   3.296   5.575
 6143SOL    HW219329   0.283   3.455   5.581
 6144SOL     OW19330   3.825   5.389   2.336
 6144SOL    HW119331   3.778   5.351   2.417
 6144SOL    HW219332   3.924   5.384   2.350
 6145SOL     OW19333   5.026   3.217   3.724
 6145SOL    HW119334   5.122   3.244   3.714
 6145SOL    HW219335   4.968   3.284   3.677
 6146SOL     OW19336   5.917   0.366   5.490
 6146SOL    HW119337   6.001   0.311   5.484
 6146SOL    HW219338   5.845   0.310   5.530
 6147SOL     OW19339   1.105   2.358   5.382
 6147SOL    HW119340   1.013   2.349   5.344
 6147SOL    HW219341   1.156   2.427   5.330
 6148SOL     OW19342   3.277   5.558   6.849
 6148SOL    HW119343   3.313   5.466   6.861
 6148SOL    HW219344   3.311   5.617   6.922
 6149SOL     OW19345   3.822   1.494   1.998
 6149SOL    HW119346   3.780   1.421   1.945
 6149SOL    HW219347   3.759   1.524   2.070
 6150SOL     OW19348   0.139   4.340   4.826
 6150SOL    HW119349   0.091   4.374   4.745
 6150SOL    HW219350   0.236   4.331   4.807
 6151SOL     OW19351   4.012   4.973   2.780
 6151SOL    HW119352   3.942   4.928   2.724
 6151SOL    HW219353   4.067   4.904   2.827
 6152SOL     OW19354   1.756   4.346   3.323
 6152SOL    HW119355   1.800   4.433   3.298
 6152SOL    HW219356   1.827   4.279   3.346
 6153SOL     OW19357   4.897   5.763   0.907
 6153SOL    HW119358   4.965   5.808   0.964
 6153SOL    HW219359   4.866   5.679   0.953
 6154SOL     OW19360   5.144   3.948   2.221
 6154SOL    HW119361   5.052   3.929   2.188
 6154SOL    HW219362   5.209   3.940   2.145
 6155SOL     OW19363   2.074   1.299   3.903
 6155SOL    HW119364   1.993   1.315   3.959
 6155SOL    HW219365   2.067   1.352   3.818
 6156SOL     OW19366   5.636   4.365   2.151
 6156SOL    HW119367   5.556   4.375   2.210
 6156SOL    HW219368   5.637   4.274   2.112
 6157SOL     OW19369   0.698   3.032   1.086
 6157SOL    HW119370   0.725   2.960   1.022
 6157SOL    HW219371   0.642   2.992   1.158
 6158SOL     OW19372   2.934   1.851   5.204
 6158SOL    HW119373   3.030   1.877   5.195
 6158SOL    HW219374   2.924   1.754   5.182
 6159SOL     OW19375   5.879   2.757   0.232
 6159SOL    HW119376   5.825   2.835   0.263
 6159SOL    HW219377   5.927   2.717   0.310
 6160SOL     OW19378   0.827   0.733   1.246
 6160SOL    HW119379   0.875   0.705   1.330
 6160SOL    HW219380   0.734   0.696   1.247
 6161SOL     OW19381   4.575   3.944   0.089
 6161SOL    HW119382   4.562   4.037   0.053
 6161SOL    HW219383   4.645   3.945   0.160
 6162SOL     OW19384   6.635   5.641   2.277
 6162SOL    HW119385   6.612   5.615   2.183
 6162SOL    HW219386   6.633   5.741   2.285
 6163SOL     OW19387   6.192   5.955   2.849
 6163SOL    HW119388   6.193   5.861   2.815
 6163SOL    HW219389   6.100   5.993   2.838
 6164SOL     OW19390   3.019   3.441   4.459
 6164SOL    HW119391   2.982   3.476   4.545
 6164SOL    HW219392   3.107   3.484   4.441
 6165SOL     OW19393   3.366   1.894   0.131
 6165SOL    HW119394   3.430   1.881   0.206
 6165SOL    HW219395   3.299   1.964   0.156
 6166SOL     OW19396   2.925   2.171   6.492
 6166SOL    HW119397   2.992   2.101   6.467
 6166SOL    HW219398   2.972   2.258   6.509
 6167SOL     OW19399   1.613   3.466   3.142
 6167SOL    HW119400   1.584   3.562   3.139
 6167SOL    HW219401   1.707   3.460   3.108
 6168SOL     OW19402   0.451   3.613   3.569
 6168SOL    HW119403   0.538   3.659   3.582
 6168SOL    HW219404   0.462   3.515   3.585
 6169SOL     OW19405   2.101   0.854   6.643
 6169SOL    HW119406   2.197   0.834   6.624
 6169SOL    HW219407   2.074   0.939   6.599
 6170SOL     OW19408   2.821   4.163   0.920
 6170SOL    HW119409   2.888   4.178   0.847
 6170SOL    HW219410   2.729   4.162   0.881
 6171SOL     OW19411   2.183   3.628   1.769
 6171SOL    HW119412   2.183   3.549   1.830
 6171SOL    HW219413   2.130   3.702   1.811
 6172SOL     OW19414   2.741   5.992   2.688
 6172SOL    HW119415   2.692   5.905   2.693
 6172SOL    HW219416   2.684   6.065   2.726
 6173SOL     OW19417   1.529   5.887   2.187
 6173SOL    HW119418   1.621   5.900   2.223
 6173SOL    HW219419   1.491   5.801   2.222
 6174SOL     OW19420   6.192   4.716   2.108
 6174SOL    HW119421   6.151   4.679   2.025
 6174SOL    HW219422   6.228   4.808   2.089
 6175SOL     OW19423   5.181   0.444   3.303
 6175SOL    HW119424   5.273   0.461   3.267
 6175SOL    HW219425   5.179   0.357   3.351
 6176SOL     OW19426   4.994   3.095   6.530
 6176SOL    HW119427   5.007   3.126   6.624
 6176SOL    HW219428   4.921   3.148   6.487
 6177SOL     OW19429   6.745   3.079   2.060
 6177SOL    HW119430   6.806   3.000   2.065
 6177SOL    HW219431   6.662   3.054   2.010
 6178SOL     OW19432   5.742   3.325   2.099
 6178SOL    HW119433   5.716   3.378   2.018
 6178SOL    HW219434   5.839   3.341   2.119
 6179SOL     OW19435   0.506   2.252   5.125
 6179SOL    HW119436   0.557   2.249   5.211
 6179SOL    HW219437   0.414   2.214   5.140
 6180SOL     OW19438   3.504   0.062   6.025
 6180SOL    HW119439   3.525   6.988   6.017
 6180SOL    HW219440   3.567   0.115   5.968
 6181SOL     OW19441   4.085   5.881   6.520
 6181SOL    HW119442   4.066   5.848   6.613
 6181SOL    HW219443   4.068   5.979   6.515
 6182SOL     OW19444   4.953   6.263   6.198
 6182SOL    HW119445   4.965   6.164   6.188
 6182SOL    HW219446   5.017   6.297   6.267
 6183SOL     OW19447   3.090   0.741   2.962
 6183SOL    HW119448   3.060   0.720   3.054
 6183SOL    HW219449   3.108   0.657   2.912
 6184SOL     OW19450   6.197   0.620   6.562
 6184SOL    HW119451   6.176   0.692   6.496
 6184SOL    HW219452   6.118   0.605   6.621
 6185SOL     OW19453   1.282   3.121   5.580
 6185SOL    HW119454   1.304   3.064   5.502
 6185SOL    HW219455   1.365   3.165   5.614
 6186SOL     OW19456   5.330   6.964   4.575
 6186SOL    HW119457   5.430   6.964   4.576
 6186SOL    HW219458   5.296   6.921   4.658
 6187SOL     OW19459   2.560   4.643   4.543
 6187SOL    HW119460   2.501   4.722   4.558
 6187SOL    HW219461   2.640   4.650   4.603
 6188SOL     OW19462   2.956   0.191   1.525
 6188SOL    HW119463   3.043   0.240   1.513
 6188SOL    HW219464   2.971   0.093   1.511
 6189SOL     OW19465   5.345   4.484   2.882
 6189SOL    HW119466   5.280   4.481   2.958
 6189SOL    HW219467   5.353   4.392   2.842
 6190SOL     OW19468   5.224   2.700   5.779
 6190SOL    HW119469   5.255   2.755   5.856
 6190SOL    HW219470   5.149   2.747   5.732
 6191SOL     OW19471   6.330   2.641   6.505
 6191SOL    HW119472   6.345   2.545   6.526
 6191SOL    HW219473   6.329   2.653   6.405
 6192SOL     OW19474   2.905   2.241   0.476
 6192SOL    HW119475   2.877   2.145   0.477
 6192SOL    HW219476   2.943   2.265   0.565
 6193SOL     OW19477   5.957   6.812   1.160
 6193SOL    HW119478   6.014   6.893   1.150
 6193SOL    HW219479   5.978   6.766   1.246
 6194SOL     OW19480   1.705   0.792   0.609
 6194SOL    HW119481   1.676   0.700   0.584
 6194SOL    HW219482   1.766   0.788   0.688
 6195SOL     OW19483   2.679   6.615   6.122
 6195SOL    HW119484   2.597   6.566   6.153
 6195SOL    HW219485   2.760   6.564   6.150
 6196SOL     OW19486   0.182   1.234   6.119
 6196SOL    HW119487   0.260   1.265   6.066
 6196SOL    HW219488   0.188   1.135   6.133
 6197SOL     OW19489   2.304   3.030   0.689
 6197SOL    HW119490   2.248   2.957   0.729
 6197SOL    HW219491   2.287   3.035   0.591
 6198SOL     OW19492   4.161   5.195   2.249
 6198SOL    HW119493   4.078   5.181   2.194
 6198SOL    HW219494   4.148   5.273   2.310
 6199SOL     OW19495   1.036   0.609   6.243
 6199SOL    HW119496   0.940   0.604   6.273
 6199SOL    HW219497   1.087   0.534   6.284
 6200SOL     OW19498   3.855   0.794   6.091
 6200SOL    HW119499   3.839   0.788   6.190
 6200SOL    HW219500   3.809   0.874   6.054
 6201SOL     OW19501   2.274   4.376   3.827
 6201SOL    HW119502   2.190   4.328   3.855
 6201SOL    HW219503   2.329   4.396   3.908
 6202SOL     OW19504   3.237   2.787   1.458
 6202SOL    HW119505   3.233   2.689   1.440
 6202SOL    HW219506   3.167   2.811   1.526
 6203SOL     OW19507   5.131   1.968   5.240
 6203SOL    HW119508   5.211   2.028   5.252
 6203SOL    HW219509   5.048   2.021   5.252
 6204SOL     OW19510   1.619   6.702   5.792
 6204SOL    HW119511   1.653   6.645   5.718
 6204SOL    HW219512   1.695   6.746   5.839
 6205SOL     OW19513   5.050   6.512   0.164
 6205SOL    HW119514   5.147   6.488   0.158
 6205SOL    HW219515   5.001   6.470   0.088
 6206SOL     OW19516   5.464   0.015   3.522
 6206SOL    HW119517   5.435   6.969   3.456
 6206SOL    HW219518   5.454   0.106   3.481
 6207SOL     OW19519   1.789   4.199   4.294
 6207SOL    HW119520   1.822   4.274   4.236
 6207SOL    HW219521   1.690   4.190   4.284
 6208SOL     OW19522   5.486   5.967   6.208
 6208SOL    HW119523   5.423   6.035   6.247
 6208SOL    HW219524   5.569   5.965   6.263
 6209SOL     OW19525   3.226   5.203   0.841
 6209SOL    HW119526   3.260   5.171   0.753
 6209SOL    HW219527   3.136   5.246   0.829
 6210SOL     OW19528   6.803   4.938   3.047
 6210SOL    HW119529   6.777   4.910   2.955
 6210SOL    HW219530   6.873   4.877   3.082
 6211SOL     OW19531   2.596   0.413   5.071
 6211SOL    HW119532   2.639   0.494   5.110
 6211SOL    HW219533   2.667   0.350   5.038
 6212SOL     OW19534   6.966   6.929   3.807
 6212SOL    HW119535   7.018   6.979   3.737
 6212SOL    HW219536   6.985   6.969   3.897
 6213SOL     OW19537   6.685   0.158   0.194
 6213SOL    HW119538   6.704   0.137   0.098
 6213SOL    HW219539   6.768   0.149   0.248
 6214SOL     OW19540   5.775   4.965   2.346
 6214SOL    HW119541   5.838   4.888   2.341
 6214SOL    HW219542   5.806   5.029   2.416
 6215SOL     OW19543   2.398   5.104   1.097
 6215SOL    HW119544   2.446   5.027   1.139
 6215SOL    HW219545   2.385   5.085   0.999
 6216SOL     OW19546   6.518   1.855   2.391
 6216SOL    HW119547   6.606   1.895   2.366
 6216SOL    HW219548   6.493   1.883   2.483
 6217SOL     OW19549   5.451   2.763   1.951
 6217SOL    HW119550   5.457   2.823   1.872
 6217SOL    HW219551   5.543   2.738   1.981
 6218SOL     OW19552   3.705   4.907   4.517
 6218SOL    HW119553   3.741   4.817   4.540
 6218SOL    HW219554   3.672   4.952   4.601
 6219SOL     OW19555   0.768   1.518   4.091
 6219SOL    HW119556   0.848   1.545   4.037
 6219SOL    HW219557   0.693   1.581   4.072
 6220SOL     OW19558   1.621   4.021   5.163
 6220SOL    HW119559   1.658   3.977   5.245
 6220SOL    HW219560   1.626   3.958   5.087
 6221SOL     OW19561   4.471   5.001   4.395
 6221SOL    HW119562   4.462   5.036   4.488
 6221SOL    HW219563   4.442   5.070   4.330
 6222SOL     OW19564   0.315   1.561   1.226
 6222SOL    HW119565   0.349   1.494   1.292
 6222SOL    HW219566   0.291   1.646   1.274
 6223SOL     OW19567   5.049   3.977   4.630
 6223SOL    HW119568   5.091   3.891   4.658
 6223SOL    HW219569   5.075   4.049   4.695
 6224SOL     OW19570   2.817   0.488   4.749
 6224SOL    HW119571   2.881   0.565   4.756
 6224SOL    HW219572   2.752   0.491   4.825
 6225SOL     OW19573   4.441   2.168   6.705
 6225SOL    HW119574   4.355   2.184   6.656
 6225SOL    HW219575   4.467   2.072   6.697
 6226SOL     OW19576   6.491   6.541   4.266
 6226SOL    HW119577   6.397   6.519   4.290
 6226SOL    HW219578   6.522   6.618   4.323
 6227SOL     OW19579   2.522   4.543   6.764
 6227SOL    HW119580   2.579   4.471   6.726
 6227SOL    HW219581   2.472   4.589   6.690
 6228SOL     OW19582   0.065   1.182   2.507
 6228SOL    HW119583   0.050   1.100   2.561
 6228SOL    HW219584   0.158   1.180   2.469
 6229SOL     OW19585   1.349   2.382   2.087
 6229SOL    HW119586   1.382   2.402   1.994
 6229SOL    HW219587   1.347   2.466   2.141
 6230SOL     OW19588   1.772   2.122   3.427
 6230SOL    HW119589   1.680   2.111   3.389
 6230SOL    HW219590   1.787   2.218   3.450
 6231SOL     OW19591   6.696   5.184   1.616
 6231SOL    HW119592   6.710   5.148   1.523
 6231SOL    HW219593   6.780   5.172   1.669
 6232SOL     OW19594   1.007   1.421   6.832
 6232SOL    HW119595   1.029   1.518   6.843
 6232SOL    HW219596   1.000   1.399   6.735
 6233SOL     OW19597   4.452   1.468   6.428
 6233SOL    HW119598   4.437   1.567   6.439
 6233SOL    HW219599   4.380   1.431   6.370
 6234SOL     OW19600   1.810   2.776   3.160
 6234SOL    HW119601   1.789   2.873   3.177
 6234SOL    HW219602   1.726   2.723   3.160
 6235SOL     OW19603   2.073   6.143   2.900
 6235SOL    HW119604   2.030   6.083   2.833
 6235SOL    HW219605   2.021   6.228   2.907
 6236SOL     OW19606   6.822   3.902   0.230
 6236SOL    HW119607   6.783   3.988   0.263
 6236SOL    HW219608   6.835   3.906   0.131
 6237SOL     OW19609   3.914   6.253   0.050
 6237SOL    HW119610   3.918   6.286   6.979
 6237SOL    HW219611   4.006   6.228   0.080
 6238SOL     OW19612   4.476   3.990   1.122
 6238SOL    HW119613   4.412   4.046   1.068
 6238SOL    HW219614   4.563   3.983   1.073
 6239SOL     OW19615   2.449   0.449   3.749
 6239SOL    HW119616   2.376   0.506   3.711
 6239SOL    HW219617   2.409   0.383   3.813
 6240SOL     OW19618   2.179   3.737   0.376
 6240SOL    HW119619   2.172   3.637   0.383
 6240SOL    HW219620   2.090   3.778   0.393
 6241SOL     OW19621   4.521   0.515   1.757
 6241SOL    HW119622   4.542   0.464   1.841
 6241SOL    HW219623   4.571   0.475   1.680
 6242SOL     OW19624   3.692   2.132   3.707
 6242SOL    HW119625   3.598   2.152   3.732
 6242SOL    HW219626   3.750   2.135   3.788
 6243SOL     OW19627   5.388   5.220   3.182
 6243SOL    HW119628   5.410   5.127   3.151
 6243SOL    HW219629   5.332   5.215   3.265
 6244SOL     OW19630   2.009   2.003   2.068
 6244SOL    HW119631   2.081   2.065   2.035
 6244SOL    HW219632   1.972   2.039   2.153
 6245SOL     OW19633   2.147   3.912   0.699
 6245SOL    HW119634   2.239   3.940   0.669
 6245SOL    HW219635   2.142   3.812   0.699
 6246SOL     OW19636   4.102   0.671   0.096
 6246SOL    HW119637   4.024   0.727   0.126
 6246SOL    HW219638   4.187   0.721   0.111
 6247SOL     OW19639   6.767   5.782   2.989
 6247SOL    HW119640   6.798   5.718   2.920
 6247SOL    HW219641   6.813   5.870   2.976
 6248SOL     OW19642   1.226   4.980   1.378
 6248SOL    HW119643   1.160   5.054   1.372
 6248SOL    HW219644   1.319   5.016   1.369
 6249SOL     OW19645   5.367   4.224   6.279
 6249SOL    HW119646   5.435   4.189   6.343
 6249SOL    HW219647   5.325   4.148   6.229
 6250SOL     OW19648   5.814   5.385   5.893
 6250SOL    HW119649   5.829   5.289   5.871
 6250SOL    HW219650   5.719   5.399   5.920
 6251SOL     OW19651   4.455   1.788   0.839
 6251SOL    HW119652   4.375   1.829   0.795
 6251SOL    HW219653   4.451   1.689   0.827
 6252SOL     OW19654   1.950   6.070   5.271
 6252SOL    HW119655   2.007   6.146   5.305
 6252SOL    HW219656   2.006   6.007   5.217
 6253SOL     OW19657   2.261   4.374   1.516
 6253SOL    HW119658   2.305   4.385   1.427
 6253SOL    HW219659   2.328   4.389   1.588
 6254SOL     OW19660   5.260   0.365   0.333
 6254SOL    HW119661   5.190   0.427   0.298
 6254SOL    HW219662   5.289   0.395   0.424
 6255SOL     OW19663   6.990   2.186   2.691
 6255SOL    HW119664   6.939   2.253   2.636
 6255SOL    HW219665   6.940   2.100   2.693
 6256SOL     OW19666   3.793   5.263   3.853
 6256SOL    HW119667   3.771   5.355   3.886
 6256SOL    HW219668   3.725   5.233   3.786
 6257SOL     OW19669   4.288   2.845   0.639
 6257SOL    HW119670   4.304   2.942   0.618
 6257SOL    HW219671   4.207   2.814   0.590
 6258SOL     OW19672   4.922   2.625   2.820
 6258SOL    HW119673   4.867   2.629   2.737
 6258SOL    HW219674   4.875   2.673   2.894
 6259SOL     OW19675   3.066   2.220   1.749
 6259SOL    HW119676   3.017   2.284   1.808
 6259SOL    HW219677   3.021   2.216   1.659
 6260SOL     OW19678   3.614   3.399   0.723
 6260SOL    HW119679   3.620   3.360   0.631
 6260SOL    HW219680   3.595   3.497   0.716
 6261SOL     OW19681   4.676   0.646   6.575
 6261SOL    HW119682   4.613   0.675   6.502
 6261SOL    HW219683   4.654   0.695   6.659
 6262SOL     OW19684   0.392   5.802   5.420
 6262SOL    HW119685   0.414   5.894   5.387
 6262SOL    HW219686   0.452   5.778   5.495
 6263SOL     OW19687   6.450   1.194   0.698
 6263SOL    HW119688   6.364   1.144   0.700
 6263SOL    HW219689   6.435   1.287   0.731
 6264SOL     OW19690   2.055   1.551   6.762
 6264SOL    HW119691   2.025   1.577   6.671
 6264SOL    HW219692   1.988   1.582   6.829
 6265SOL     OW19693   4.730   3.730   1.145
 6265SOL    HW119694   4.773   3.815   1.174
 6265SOL    HW219695   4.782   3.690   1.070
 6266SOL     OW19696   2.594   7.004   2.131
 6266SOL    HW119697   2.609   6.905   2.140
 6266SOL    HW219698   2.625   0.010   2.041
 6267SOL     OW19699   2.357   0.060   6.544
 6267SOL    HW119700   2.287   7.018   6.572
 6267SOL    HW219701   2.445   0.012   6.534
 6268SOL     OW19702   3.113   5.250   2.790
 6268SOL    HW119703   3.092   5.249   2.888
 6268SOL    HW219704   3.036   5.290   2.740
 6269SOL     OW19705   5.999   4.834   0.557
 6269SOL    HW119706   6.046   4.746   0.554
 6269SOL    HW219707   6.033   4.893   0.483
 6270SOL     OW19708   0.654   1.121   4.578
 6270SOL    HW119709   0.627   1.217   4.576
 6270SOL    HW219710   0.740   1.109   4.529
 6271SOL     OW19711   6.185   1.731   1.101
 6271SOL    HW119712   6.188   1.830   1.116
 6271SOL    HW219713   6.260   1.687   1.150
 6272SOL     OW19714   1.793   1.888   3.583
 6272SOL    HW119715   1.777   1.981   3.552
 6272SOL    HW219716   1.887   1.881   3.618
 6273SOL     OW19717   4.203   0.570   2.448
 6273SOL    HW119718   4.265   0.617   2.386
 6273SOL    HW219719   4.211   0.471   2.434
 6274SOL     OW19720   2.642   6.492   6.625
 6274SOL    HW119721   2.582   6.557   6.579
 6274SOL    HW219722   2.675   6.532   6.711
 6275SOL     OW19723   2.905   0.418   4.376
 6275SOL    HW119724   2.908   0.355   4.298
 6275SOL    HW219725   2.871   0.507   4.345
 6276SOL     OW19726   1.572   4.978   3.887
 6276SOL    HW119727   1.582   4.884   3.856
 6276SOL    HW219728   1.518   4.980   3.971
 6277SOL     OW19729   5.953   3.087   3.817
 6277SOL    HW119730   5.953   3.177   3.859
 6277SOL    HW219731   5.976   3.018   3.885
 6278SOL     OW19732   4.739   0.849   4.361
 6278SOL    HW119733   4.821   0.859   4.417
 6278SOL    HW219734   4.753   0.776   4.294
 6279SOL     OW19735   4.767   1.483   6.999
 6279SOL    HW119736   4.810   1.415   0.035
 6279SOL    HW219737   4.732   1.558   0.030
 6280SOL     OW19738   0.811   5.280   5.986
 6280SOL    HW119739   0.727   5.229   6.002
 6280SOL    HW219740   0.812   5.314   5.892
 6281SOL     OW19741   2.894   6.854   5.113
 6281SOL    HW119742   2.911   6.760   5.144
 6281SOL    HW219743   2.839   6.852   5.030
 6282SOL     OW19744   1.419   0.158   3.259
 6282SOL    HW119745   1.360   0.079   3.241
 6282SOL    HW219746   1.363   0.238   3.279
 6283SOL     OW19747   0.688   3.132   5.235
 6283SOL    HW119748   0.774   3.146   5.285
 6283SOL    HW219749   0.705   3.076   5.154
 6284SOL     OW19750   2.262   4.920   6.348
 6284SOL    HW119751   2.326   4.957   6.280
 6284SOL    HW219752   2.270   4.820   6.351
 6285SOL     OW19753   2.249   4.734   2.639
 6285SOL    HW119754   2.296   4.650   2.666
 6285SOL    HW219755   2.269   4.806   2.704
 6286SOL     OW19756   5.873   0.012   5.268
 6286SOL    HW119757   5.912   0.088   5.216
 6286SOL    HW219758   5.865   0.038   5.364
 6287SOL     OW19759   3.957   4.782   2.424
 6287SOL    HW119760   3.929   4.851   2.358
 6287SOL    HW219761   3.918   4.803   2.513
 6288SOL     OW19762   5.276   3.799   1.337
 6288SOL    HW119763   5.266   3.768   1.242
 6288SOL    HW219764   5.235   3.731   1.398
 6289SOL     OW19765   1.069   6.837   2.445
 6289SOL    HW119766   1.158   6.850   2.487
 6289SOL    HW219767   1.042   6.920   2.396
 6290SOL     OW19768   6.110   3.102   3.522
 6290SOL    HW119769   6.030   3.073   3.469
 6290SOL    HW219770   6.081   3.138   3.610
 6291SOL     OW19771   4.114   3.754   3.369
 6291SOL    HW119772   4.191   3.721   3.314
 6291SOL    HW219773   4.088   3.683   3.435
 6292SOL     OW19774   7.000   1.818   1.913
 6292SOL    HW119775   0.046   1.780   1.975
 6292SOL    HW219776   6.961   1.745   1.857
 6293SOL     OW19777   5.276   5.092   0.841
 6293SOL    HW119778   5.366   5.055   0.817
 6293SOL    HW219779   5.205   5.035   0.800
 6294SOL     OW19780   3.711   5.649   2.351
 6294SOL    HW119781   3.757   5.560   2.347
 6294SOL    HW219782   3.756   5.712   2.288
 6295SOL     OW19783   6.734   6.326   5.998
 6295SOL    HW119784   6.666   6.395   5.973
 6295SOL    HW219785   6.743   6.322   6.097
 6296SOL     OW19786   0.175   0.860   2.333
 6296SOL    HW119787   0.221   0.908   2.258
 6296SOL    HW219788   0.133   0.776   2.298
 6297SOL     OW19789   5.794   0.918   5.465
 6297SOL    HW119790   5.863   0.847   5.452
 6297SOL    HW219791   5.707   0.888   5.428
 6298SOL     OW19792   0.111   1.674   3.973
 6298SOL    HW119793   0.055   1.592   3.975
 6298SOL    HW219794   0.061   1.749   3.930
 6299SOL     OW19795   6.061   3.118   0.623
 6299SOL    HW119796   6.093   3.209   0.599
 6299SOL    HW219797   6.113   3.084   0.701
 6300SOL     OW19798   5.195   1.570   3.757
 6300SOL    HW119799   5.185   1.539   3.662
 6300SOL    HW219800   5.105   1.592   3.794
 6301SOL     OW19801   3.029   0.670   0.766
 6301SOL    HW119802   3.055   0.633   0.677
 6301SOL    HW219803   2.985   0.598   0.821
 6302SOL     OW19804   0.025   0.862   2.566
 6302SOL    HW119805   0.090   0.862   2.490
 6302SOL    HW219806   6.960   0.895   2.534
 6303SOL     OW19807   1.676   5.797   5.079
 6303SOL    HW119808   1.667   5.803   4.980
 6303SOL    HW219809   1.723   5.712   5.103
 6304SOL     OW19810   4.106   1.168   5.223
 6304SOL    HW119811   4.094   1.254   5.273
 6304SOL    HW219812   4.035   1.103   5.252
 6305SOL     OW19813   5.564   1.386   2.124
 6305SOL    HW119814   5.559   1.486   2.128
 6305SOL    HW219815   5.596   1.358   2.033
 6306SOL     OW19816   6.028   2.678   4.582
 6306SOL    HW119817   5.991   2.700   4.492
 6306SOL    HW219818   6.127   2.669   4.576
 6307SOL     OW19819   2.046   4.738   0.081
 6307SOL    HW119820   2.141   4.705   0.079
 6307SOL    HW219821   2.026   4.776   0.171
 6308SOL     OW19822   3.523   2.738   5.630
 6308SOL    HW119823   3.576   2.656   5.652
 6308SOL    HW219824   3.428   2.724   5.657
 6309SOL     OW19825   5.934   2.110   4.969
 6309SOL    HW119826   6.018   2.085   5.016
 6309SOL    HW219827   5.873   2.157   5.032
 6310SOL     OW19828   0.513   5.227   4.169
 6310SOL    HW119829   0.595   5.257   4.120
 6310SOL    HW219830   0.456   5.306   4.190
 6311SOL     OW19831   6.055   6.240   4.048
 6311SOL    HW119832   6.145   6.222   4.007
 6311SOL    HW219833   6.000   6.156   4.044
 6312SOL     OW19834   5.164   4.626   5.451
 6312SOL    HW119835   5.224   4.565   5.502
 6312SOL    HW219836   5.089   4.657   5.510
 6313SOL     OW19837   2.804   5.089   3.651
 6313SOL    HW119838   2.885   5.032   3.663
 6313SOL    HW219839   2.787   5.103   3.553
 6314SOL     OW19840   1.643   6.755   3.706
 6314SOL    HW119841   1.671   6.807   3.625
 6314SOL    HW219842   1.711   6.767   3.778
 6315SOL     OW19843   2.379   4.006   0.587
 6315SOL    HW119844   2.387   4.010   0.487
 6315SOL    HW219845   2.466   3.975   0.626
 6316SOL     OW19846   4.559   1.284   5.750
 6316SOL    HW119847   4.498   1.341   5.805
 6316SOL    HW219848   4.518   1.269   5.660
 6317SOL     OW19849   6.196   5.233   4.414
 6317SOL    HW119850   6.295   5.245   4.415
 6317SOL    HW219851   6.169   5.187   4.329
 6318SOL     OW19852   1.978   2.394   4.525
 6318SOL    HW119853   1.992   2.388   4.426
 6318SOL    HW219854   2.044   2.457   4.565
 6319SOL     OW19855   0.915   1.747   2.906
 6319SOL    HW119856   0.985   1.813   2.877
 6319SOL    HW219857   0.916   1.740   3.006
 6320SOL     OW19858   0.336   1.656   3.008
 6320SOL    HW119859   0.347   1.679   3.105
 6320SOL    HW219860   0.334   1.557   2.997
 6321SOL     OW19861   2.602   3.799   5.961
 6321SOL    HW119862   2.675   3.761   5.904
 6321SOL    HW219863   2.638   3.875   6.015
 6322SOL     OW19864   1.739   0.539   6.643
 6322SOL    HW119865   1.707   0.535   6.737
 6322SOL    HW219866   1.661   0.552   6.581
 6323SOL     OW19867   4.501   1.359   1.032
 6323SOL    HW119868   4.601   1.367   1.026
 6323SOL    HW219869   4.465   1.439   1.081
 6324SOL     OW19870   3.834   2.392   5.978
 6324SOL    HW119871   3.766   2.431   6.040
 6324SOL    HW219872   3.898   2.335   6.030
 6325SOL     OW19873   1.692   2.507   3.002
 6325SOL    HW119874   1.749   2.588   3.012
 6325SOL    HW219875   1.722   2.454   2.922
 6326SOL     OW19876   4.257   6.399   1.321
 6326SOL    HW119877   4.323   6.463   1.361
 6326SOL    HW219878   4.189   6.374   1.389
 6327SOL     OW19879   3.802   5.167   5.886
 6327SOL    HW119880   3.892   5.175   5.843
 6327SOL    HW219881   3.736   5.135   5.819
 6328SOL     OW19882   2.873   4.616   6.602
 6328SOL    HW119883   2.947   4.664   6.649
 6328SOL    HW219884   2.886   4.518   6.612
 6329SOL     OW19885   1.290   1.389   2.622
 6329SOL    HW119886   1.208   1.375   2.568
 6329SOL    HW219887   1.266   1.434   2.708
 6330SOL     OW19888   3.669   0.896   0.138
 6330SOL    HW119889   3.670   0.987   0.097
 6330SOL    HW219890   3.630   0.901   0.230
 6331SOL     OW19891   5.639   2.662   2.486
 6331SOL    HW119892   5.607   2.756   2.475
 6331SOL    HW219893   5.713   2.644   2.422
 6332SOL     OW19894   5.171   6.516   2.778
 6332SOL    HW119895   5.188   6.500   2.875
 6332SOL    HW219896   5.105   6.448   2.744
 6333SOL     OW19897   2.138   5.293   2.999
 6333SOL    HW119898   2.176   5.373   2.952
 6333SOL    HW219899   2.193   5.275   3.081
 6334SOL     OW19900   2.792   1.745   2.544
 6334SOL    HW119901   2.736   1.768   2.465
 6334SOL    HW219902   2.733   1.718   2.620
 6335SOL     OW19903   0.480   1.619   0.113
 6335SOL    HW119904   0.481   1.603   0.015
 6335SOL    HW219905   0.431   1.544   0.159
 6336SOL     OW19906   1.002   3.160   4.898
 6336SOL    HW119907   1.047   3.133   4.813
 6336SOL    HW219908   1.014   3.259   4.911
 6337SOL     OW19909   6.878   4.924   4.976
 6337SOL    HW119910   6.795   4.924   5.032
 6337SOL    HW219911   6.868   4.989   4.900
 6338SOL     OW19912   3.870   1.021   4.279
 6338SOL    HW119913   3.822   1.085   4.219
 6338SOL    HW219914   3.952   0.987   4.233
 6339SOL     OW19915   0.468   2.862   4.856
 6339SOL    HW119916   0.553   2.812   4.874
 6339SOL    HW219917   0.407   2.805   4.801
 6340SOL     OW19918   2.514   5.295   4.038
 6340SOL    HW119919   2.432   5.278   4.093
 6340SOL    HW219920   2.529   5.217   3.977
 6341SOL     OW19921   6.463   5.269   2.332
 6341SOL    HW119922   6.531   5.320   2.278
 6341SOL    HW219923   6.481   5.171   2.325
 6342SOL     OW19924   1.259   3.575   0.848
 6342SOL    HW119925   1.252   3.642   0.922
 6342SOL    HW219926   1.170   3.564   0.805
 6343SOL     OW19927   4.478   1.042   0.399
 6343SOL    HW119928   4.531   0.996   0.328
 6343SOL    HW219929   4.411   1.103   0.357
 6344SOL     OW19930   6.796   4.739   4.640
 6344SOL    HW119931   6.715   4.686   4.664
 6344SOL    HW219932   6.867   4.677   4.606
 6345SOL     OW19933   2.626   2.440   2.067
 6345SOL    HW119934   2.650   2.462   1.973
 6345SOL    HW219935   2.706   2.404   2.114
 6346SOL     OW19936   0.553   5.732   4.579
 6346SOL    HW119937   0.487   5.657   4.571
 6346SOL    HW219938   0.623   5.723   4.507
 6347SOL     OW19939   2.737   0.121   0.884
 6347SOL    HW119940   2.804   0.046   0.885
 6347SOL    HW219941   2.780   0.204   0.919
 6348SOL     OW19942   0.998   2.679   4.839
 6348SOL    HW119943   1.046   2.703   4.923
 6348SOL    HW219944   0.994   2.580   4.829
 6349SOL     OW19945   1.731   0.912   0.376
 6349SOL    HW119946   1.711   0.864   0.462
 6349SOL    HW219947   1.656   0.975   0.355
 6350SOL     OW19948   0.526   5.204   3.348
 6350SOL    HW119949   0.518   5.278   3.415
 6350SOL    HW219950   0.446   5.144   3.356
 6351SOL     OW19951   6.608   1.483   3.126
 6351SOL    HW119952   6.655   1.396   3.143
 6351SOL    HW219953   6.674   1.551   3.094
 6352SOL     OW19954   0.582   5.412   2.270
 6352SOL    HW119955   0.567   5.485   2.203
 6352SOL    HW219956   0.680   5.401   2.286
 6353SOL     OW19957   0.417   6.471   2.006
 6353SOL    HW119958   0.419   6.535   2.082
 6353SOL    HW219959   0.399   6.379   2.041
 6354SOL     OW19960   7.005   6.652   4.767
 6354SOL    HW119961   6.967   6.646   4.859
 6354SOL    HW219962   6.985   6.568   4.716
 6355SOL     OW19963   0.976   2.754   2.393
 6355SOL    HW119964   0.928   2.814   2.456
 6355SOL    HW219965   0.913   2.720   2.324
 6356SOL     OW19966   3.256   2.933   0.769
 6356SOL    HW119967   3.279   3.030   0.760
 6356SOL    HW219968   3.335   2.877   0.742
 6357SOL     OW19969   4.910   1.822   0.741
 6357SOL    HW119970   5.009   1.831   0.735
 6357SOL    HW219971   4.873   1.803   0.651
 6358SOL     OW19972   0.820   3.291   3.951
 6358SOL    HW119973   0.762   3.282   4.033
 6358SOL    HW219974   0.849   3.386   3.941
 6359SOL     OW19975   0.275   1.805   6.591
 6359SOL    HW119976   0.198   1.766   6.541
 6359SOL    HW219977   0.241   1.856   6.669
 6360SOL     OW19978   3.109   5.154   4.264
 6360SOL    HW119979   3.070   5.197   4.345
 6360SOL    HW219980   3.109   5.220   4.188
 6361SOL     OW19981   3.072   6.642   6.018
 6361SOL    HW119982   3.022   6.580   5.958
 6361SOL    HW219983   3.019   6.725   6.032
 6362SOL     OW19984   6.118   5.395   6.552
 6362SOL    HW119985   6.128   5.402   6.453
 6362SOL    HW219986   6.104   5.299   6.577
 6363SOL     OW19987   0.748   5.692   4.391
 6363SOL    HW119988   0.830   5.731   4.434
 6363SOL    HW219989   0.714   5.754   4.321
 6364SOL     OW19990   1.891   2.652   6.573
 6364SOL    HW119991   1.935   2.708   6.643
 6364SOL    HW219992   1.950   2.646   6.492
 6365SOL     OW19993   4.748   5.268   2.874
 6365SOL    HW119994   4.799   5.347   2.839
 6365SOL    HW219995   4.653   5.273   2.844
 6366SOL     OW19996   0.290   4.851   5.237
 6366SOL    HW119997   0.276   4.776   5.302
 6366SOL    HW219998   0.371   4.903   5.263
 6367SOL     OW19999   6.240   6.478   2.798
 6367SOL    HW120000   6.253   6.417   2.876
 6367SOL    HW220001   6.327   6.521   2.774
 6368SOL     OW20002   3.595   0.464   3.455
 6368SOL    HW120003   3.507   0.494   3.491
 6368SOL    HW220004   3.641   0.541   3.411
 6369SOL     OW20005   2.027   5.178   5.458
 6369SOL    HW120006   2.016   5.207   5.553
 6369SOL    HW220007   2.093   5.239   5.413
 6370SOL     OW20008   5.681   2.584   2.032
 6370SOL    HW120009   5.758   2.596   1.970
 6370SOL    HW220010   5.669   2.667   2.087
 6371SOL     OW20011   4.519   1.719   4.295
 6371SOL    HW120012   4.561   1.798   4.338
 6371SOL    HW220013   4.433   1.697   4.341
 6372SOL     OW20014   3.338   6.547   2.227
 6372SOL    HW120015   3.254   6.512   2.268
 6372SOL    HW220016   3.345   6.645   2.244
 6373SOL     OW20017   3.250   5.483   0.130
 6373SOL    HW120018   3.345   5.494   0.099
 6373SOL    HW220019   3.221   5.388   0.115
 6374SOL     OW20020   3.077   3.008   2.694
 6374SOL    HW120021   3.033   2.979   2.779
 6374SOL    HW220022   3.018   3.073   2.647
 6375SOL     OW20023   1.792   5.883   2.225
 6375SOL    HW120024   1.829   5.975   2.239
 6375SOL    HW220025   1.866   5.823   2.194
 6376SOL     OW20026   0.628   2.665   5.100
 6376SOL    HW120027   0.560   2.596   5.122
 6376SOL    HW220028   0.647   2.663   5.001
 6377SOL     OW20029   0.910   2.017   3.530
 6377SOL    HW120030   0.823   1.966   3.525
 6377SOL    HW220031   0.891   2.111   3.558
 6378SOL     OW20032   4.359   5.064   3.176
 6378SOL    HW120033   4.265   5.076   3.209
 6378SOL    HW220034   4.400   5.153   3.159
 6379SOL     OW20035   2.480   4.641   2.123
 6379SOL    HW120036   2.408   4.694   2.079
 6379SOL    HW220037   2.452   4.619   2.217
 6380SOL     OW20038   1.122   0.659   5.982
 6380SOL    HW120039   1.091   0.639   6.075
 6380SOL    HW220040   1.070   0.602   5.917
 6381SOL     OW20041   2.993   3.114   2.044
 6381SOL    HW120042   2.941   3.191   2.080
 6381SOL    HW220043   2.975   3.105   1.946
 6382SOL     OW20044   0.888   4.483   5.038
 6382SOL    HW120045   0.827   4.560   5.054
 6382SOL    HW220046   0.839   4.410   4.989
 6383SOL     OW20047   4.144   1.518   3.980
 6383SOL    HW120048   4.207   1.559   4.045
 6383SOL    HW220049   4.052   1.514   4.020
 6384SOL     OW20050   6.897   4.869   2.597
 6384SOL    HW120051   6.935   4.780   2.626
 6384SOL    HW220052   6.956   4.908   2.527
 6385SOL     OW20053   0.820   5.888   4.823
 6385SOL    HW120054   0.779   5.889   4.732
 6385SOL    HW220055   0.903   5.945   4.822
 6386SOL     OW20056   2.340   5.629   1.697
 6386SOL    HW120057   2.424   5.662   1.742
 6386SOL    HW220058   2.334   5.669   1.606
 6387SOL     OW20059   6.425   1.201   5.524
 6387SOL    HW120060   6.371   1.117   5.528
 6387SOL    HW220061   6.465   1.219   5.614
 6388SOL     OW20062   2.269   5.235   2.757
 6388SOL    HW120063   2.232   5.200   2.671
 6388SOL    HW220064   2.194   5.249   2.822
 6389SOL     OW20065   0.893   4.845   1.595
 6389SOL    HW120066   0.851   4.936   1.599
 6389SOL    HW220067   0.982   4.847   1.642
 6390SOL     OW20068   0.488   2.683   4.306
 6390SOL    HW120069   0.509   2.781   4.302
 6390SOL    HW220070   0.499   2.642   4.216
 6391SOL     OW20071   3.715   1.125   7.008
 6391SOL    HW120072   3.761   1.056   6.952
 6391SOL    HW220073   3.706   1.210   6.956
 6392SOL     OW20074   1.674   6.007   4.061
 6392SOL    HW120075   1.731   6.001   4.143
 6392SOL    HW220076   1.578   6.015   4.088
 6393SOL     OW20077   5.117   1.341   0.933
 6393SOL    HW120078   5.076   1.419   0.886
 6393SOL    HW220079   5.204   1.317   0.890
 6394SOL     OW20080   3.295   4.822   1.875
 6394SOL    HW120081   3.360   4.747   1.886
 6394SOL    HW220082   3.344   4.910   1.878
 6395SOL     OW20083   6.135   2.140   0.311
 6395SOL    HW120084   6.105   2.047   0.289
 6395SOL    HW220085   6.055   2.200   0.317
 6396SOL     OW20086   6.840   3.721   5.666
 6396SOL    HW120087   6.772   3.788   5.696
 6396SOL    HW220088   6.848   3.723   5.567
 6397SOL     OW20089   6.724   1.154   0.245
 6397SOL    HW120090   6.645   1.154   0.306
 6397SOL    HW220091   6.794   1.092   0.281
 6398SOL     OW20092   3.784   0.835   1.278
 6398SOL    HW120093   3.869   0.787   1.258
 6398SOL    HW220094   3.774   0.914   1.217
 6399SOL     OW20095   2.398   6.286   6.671
 6399SOL    HW120096   2.443   6.320   6.753
 6399SOL    HW220097   2.364   6.364   6.617
 6400SOL     OW20098   2.613   4.902   4.184
 6400SOL    HW120099   2.699   4.890   4.233
 6400SOL    HW220100   2.572   4.989   4.211
 6401SOL     OW20101   0.810   4.247   4.928
 6401SOL    HW120102   0.767   4.285   4.846
 6401SOL    HW220103   0.905   4.225   4.910
 6402SOL     OW20104   1.791   2.421   3.409
 6402SOL    HW120105   1.867   2.421   3.474
 6402SOL    HW220106   1.827   2.427   3.316
 6403SOL     OW20107   1.164   6.780   1.527
 6403SOL    HW120108   1.126   6.797   1.436
 6403SOL    HW220109   1.227   6.855   1.552
 6404SOL     OW20110   4.885   0.960   3.149
 6404SOL    HW120111   4.942   0.879   3.160
 6404SOL    HW220112   4.863   0.971   3.051
 6405SOL     OW20113   3.384   0.874   1.529
 6405SOL    HW120114   3.346   0.932   1.600
 6405SOL    HW220115   3.328   0.881   1.446
 6406SOL     OW20116   2.476   2.228   3.727
 6406SOL    HW120117   2.534   2.309   3.735
 6406SOL    HW220118   2.498   2.163   3.800
 6407SOL     OW20119   5.072   5.443   5.965
 6407SOL    HW120120   5.053   5.492   5.880
 6407SOL    HW220121   4.985   5.424   6.012
 6408SOL     OW20122   5.771   2.212   0.672
 6408SOL    HW120123   5.782   2.289   0.609
 6408SOL    HW220124   5.860   2.170   0.689
 6409SOL     OW20125   0.840   4.990   2.055
 6409SOL    HW120126   0.763   5.035   2.011
 6409SOL    HW220127   0.909   5.058   2.079
 6410SOL     OW20128   1.292   1.072   2.053
 6410SOL    HW120129   1.289   1.061   1.954
 6410SOL    HW220130   1.233   1.003   2.096
 6411SOL     OW20131   1.117   1.144   3.637
 6411SOL    HW120132   1.216   1.151   3.646
 6411SOL    HW220133   1.094   1.070   3.574
 6412SOL     OW20134   6.312   2.836   4.114
 6412SOL    HW120135   6.305   2.737   4.105
 6412SOL    HW220136   6.276   2.864   4.203
 6413SOL     OW20137   0.274   4.742   0.869
 6413SOL    HW120138   0.289   4.644   0.861
 6413SOL    HW220139   0.196   4.769   0.811
 6414SOL     OW20140   6.374   6.780   2.986
 6414SOL    HW120141   6.349   6.871   3.020
 6414SOL    HW220142   6.388   6.784   2.887
 6415SOL     OW20143   1.752   1.588   2.454
 6415SOL    HW120144   1.684   1.519   2.427
 6415SOL    HW220145   1.748   1.666   2.391
 6416SOL     OW20146   2.400   6.559   6.283
 6416SOL    HW120147   2.383   6.461   6.286
 6416SOL    HW220148   2.320   6.608   6.317
 6417SOL     OW20149   0.787   6.587   4.028
 6417SOL    HW120150   0.775   6.573   3.930
 6417SOL    HW220151   0.877   6.627   4.046
 6418SOL     OW20152   6.862   5.632   2.800
 6418SOL    HW120153   6.868   5.636   2.701
 6418SOL    HW220154   6.908   5.550   2.833
 6419SOL     OW20155   2.421   3.542   1.102
 6419SOL    HW120156   2.433   3.622   1.161
 6419SOL    HW220157   2.511   3.506   1.076
 6420SOL     OW20158   0.977   3.222   6.430
 6420SOL    HW120159   0.885   3.191   6.454
 6420SOL    HW220160   0.995   3.205   6.333
 6421SOL     OW20161   5.921   2.338   0.296
 6421SOL    HW120162   5.946   2.402   0.224
 6421SOL    HW220163   5.957   2.370   0.384
 6422SOL     OW20164   5.707   2.515   3.153
 6422SOL    HW120165   5.682   2.583   3.221
 6422SOL    HW220166   5.673   2.425   3.182
 6423SOL     OW20167   4.723   4.055   0.967
 6423SOL    HW120168   4.773   4.016   0.890
 6423SOL    HW220169   4.698   4.149   0.946
 6424SOL     OW20170   6.552   4.432   5.089
 6424SOL    HW120171   6.564   4.340   5.053
 6424SOL    HW220172   6.627   4.490   5.058
 6425SOL     OW20173   0.406   5.161   0.947
 6425SOL    HW120174   0.312   5.192   0.934
 6425SOL    HW220175   0.406   5.071   0.990
 6426SOL     OW20176   6.852   3.175   3.402
 6426SOL    HW120177   6.854   3.270   3.433
 6426SOL    HW220178   6.761   3.137   3.417
 6427SOL     OW20179   1.063   2.800   5.979
 6427SOL    HW120180   0.988   2.768   6.037
 6427SOL    HW220181   1.142   2.739   5.991
 6428SOL     OW20182   6.521   3.227   4.335
 6428SOL    HW120183   6.591   3.279   4.287
 6428SOL    HW220184   6.503   3.270   4.424
 6429SOL     OW20185   0.955   0.984   4.881
 6429SOL    HW120186   0.981   1.076   4.913
 6429SOL    HW220187   0.857   0.970   4.896
 6430SOL     OW20188   6.202   3.370   0.030
 6430SOL    HW120189   6.126   3.356   6.989
 6430SOL    HW220190   6.289   3.354   7.007
 6431SOL     OW20191   5.719   1.032   3.064
 6431SOL    HW120192   5.642   1.087   3.095
 6431SOL    HW220193   5.690   0.936   3.056
 6432SOL     OW20194   6.055   3.856   0.470
 6432SOL    HW120195   6.071   3.791   0.545
 6432SOL    HW220196   6.056   3.807   0.383
 6433SOL     OW20197   2.491   3.682   1.699
 6433SOL    HW120198   2.490   3.778   1.670
 6433SOL    HW220199   2.584   3.658   1.727
 6434SOL     OW20200   1.645   4.940   0.188
 6434SOL    HW120201   1.638   4.988   0.100
 6434SOL    HW220202   1.569   4.875   0.196
 6435SOL     OW20203   4.710   3.478   0.563
 6435SOL    HW120204   4.763   3.404   0.523
 6435SOL    HW220205   4.639   3.507   0.499
 6436SOL     OW20206   1.731   2.435   2.053
 6436SOL    HW120207   1.828   2.433   2.028
 6436SOL    HW220208   1.704   2.345   2.087
 6437SOL     OW20209   0.367   0.800   6.893
 6437SOL    HW120210   0.350   0.818   6.989
 6437SOL    HW220211   0.440   0.732   6.884
 6438SOL     OW20212   1.324   3.930   4.128
 6438SOL    HW120213   1.348   3.883   4.044
 6438SOL    HW220214   1.286   3.865   4.194
 6439SOL     OW20215   0.344   6.307   2.454
 6439SOL    HW120216   0.391   6.374   2.512
 6439SOL    HW220217   0.254   6.341   2.429
 6440SOL     OW20218   0.496   0.699   1.800
 6440SOL    HW120219   0.436   0.649   1.738
 6440SOL    HW220220   0.458   0.789   1.819
 6441SOL     OW20221   4.098   1.651   3.153
 6441SOL    HW120222   4.045   1.647   3.069
 6441SOL    HW220223   4.190   1.685   3.133
 6442SOL     OW20224   3.302   0.258   3.300
 6442SOL    HW120225   3.395   0.268   3.336
 6442SOL    HW220226   3.248   0.201   3.362
 6443SOL     OW20227   2.368   0.906   0.371
 6443SOL    HW120228   2.434   0.979   0.391
 6443SOL    HW220229   2.411   0.817   0.388
 6444SOL     OW20230   0.464   0.997   2.994
 6444SOL    HW120231   0.391   0.963   3.053
 6444SOL    HW220232   0.520   1.063   3.044
 6445SOL     OW20233   3.591   4.127   5.696
 6445SOL    HW120234   3.659   4.064   5.733
 6445SOL    HW220235   3.620   4.221   5.712
 6446SOL     OW20236   6.978   2.209   0.915
 6446SOL    HW120237   6.891   2.243   0.950
 6446SOL    HW220238   7.022   2.150   0.983
 6447SOL     OW20239   1.748   0.297   2.957
 6447SOL    HW120240   1.753   0.251   3.045
 6447SOL    HW220241   1.674   0.256   2.902
 6448SOL     OW20242   6.810   2.404   2.549
 6448SOL    HW120243   6.762   2.355   2.475
 6448SOL    HW220244   6.901   2.430   2.517
 6449SOL     OW20245   3.983   2.816   1.134
 6449SOL    HW120246   4.052   2.789   1.068
 6449SOL    HW220247   3.892   2.809   1.092
 6450SOL     OW20248   0.055   3.339   0.021
 6450SOL    HW120249   0.097   3.419   0.064
 6450SOL    HW220250   0.126   3.270   0.003
 6451SOL     OW20251   2.353   6.380   3.916
 6451SOL    HW120252   2.415   6.454   3.944
 6451SOL    HW220253   2.269   6.385   3.970
 6452SOL     OW20254   4.087   5.934   4.489
 6452SOL    HW120255   4.171   5.895   4.526
 6452SOL    HW220256   4.108   6.015   4.435
 6453SOL     OW20257   1.779   5.554   6.844
 6453SOL    HW120258   1.761   5.640   6.796
 6453SOL    HW220259   1.873   5.554   6.877
 6454SOL     OW20260   3.464   1.079   4.757
 6454SOL    HW120261   3.460   0.979   4.762
 6454SOL    HW220262   3.520   1.113   4.833
 6455SOL     OW20263   5.864   3.200   6.303
 6455SOL    HW120264   5.892   3.104   6.313
 6455SOL    HW220265   5.802   3.224   6.377
 6456SOL     OW20266   7.011   1.209   4.689
 6456SOL    HW120267   7.018   1.122   4.737
 6456SOL    HW220268   6.914   1.232   4.677
 6457SOL     OW20269   5.902   2.442   2.549
 6457SOL    HW120270   5.998   2.462   2.530
 6457SOL    HW220271   5.868   2.376   2.482
 6458SOL     OW20272   1.405   6.456   3.425
 6458SOL    HW120273   1.483   6.394   3.432
 6458SOL    HW220274   1.338   6.433   3.496
 6459SOL     OW20275   5.168   4.654   0.911
 6459SOL    HW120276   5.188   4.560   0.883
 6459SOL    HW220277   5.127   4.654   1.002
 6460SOL     OW20278   3.097   4.913   1.183
 6460SOL    HW120279   3.143   4.844   1.238
 6460SOL    HW220280   3.099   5.001   1.232
 6461SOL     OW20281   3.083   6.151   5.632
 6461SOL    HW120282   3.122   6.230   5.680
 6461SOL    HW220283   3.009   6.182   5.572
 6462SOL     OW20284   1.996   3.215   3.270
 6462SOL    HW120285   2.009   3.223   3.369
 6462SOL    HW220286   2.029   3.298   3.225
 6463SOL     OW20287   0.733   3.923   5.760
 6463SOL    HW120288   0.649   3.904   5.709
 6463SOL    HW220289   0.806   3.862   5.728
 6464SOL     OW20290   1.461   5.222   2.184
 6464SOL    HW120291   1.554   5.195   2.209
 6464SOL    HW220292   1.454   5.230   2.085
 6465SOL     OW20293   6.139   0.705   2.629
 6465SOL    HW120294   6.112   0.792   2.671
 6465SOL    HW220295   6.202   0.657   2.689
 6466SOL     OW20296   6.894   2.385   5.225
 6466SOL    HW120297   6.965   2.380   5.296
 6466SOL    HW220298   6.809   2.346   5.261
 6467SOL     OW20299   3.601   0.613   6.056
 6467SOL    HW120300   3.535   0.682   6.085
 6467SOL    HW220301   3.693   0.652   6.056
 6468SOL     OW20302   5.343   4.156   1.839
 6468SOL    HW120303   5.399   4.235   1.863
 6468SOL    HW220304   5.393   4.098   1.775
 6469SOL     OW20305   6.198   1.176   5.758
 6469SOL    HW120306   6.140   1.215   5.685
 6469SOL    HW220307   6.215   1.246   5.827
 6470SOL     OW20308   6.510   6.027   4.795
 6470SOL    HW120309   6.411   6.036   4.805
 6470SOL    HW220310   6.555   6.089   4.858
 6471SOL     OW20311   5.886   5.799   5.582
 6471SOL    HW120312   5.968   5.827   5.533
 6471SOL    HW220313   5.904   5.713   5.630
 6472SOL     OW20314   1.770   5.921   1.213
 6472SOL    HW120315   1.702   5.934   1.141
 6472SOL    HW220316   1.752   5.985   1.288
 6473SOL     OW20317   2.733   0.635   5.211
 6473SOL    HW120318   2.687   0.653   5.298
 6473SOL    HW220319   2.769   0.721   5.174
 6474SOL     OW20320   2.642   3.311   5.908
 6474SOL    HW120321   2.730   3.336   5.868
 6474SOL    HW220322   2.592   3.394   5.934
 6475SOL     OW20323   4.916   5.614   3.723
 6475SOL    HW120324   4.940   5.656   3.636
 6475SOL    HW220325   4.820   5.634   3.745
 6476SOL     OW20326   5.409   4.794   2.288
 6476SOL    HW120327   5.471   4.765   2.215
 6476SOL    HW220328   5.331   4.843   2.249
 6477SOL     OW20329   6.521   6.595   0.277
 6477SOL    HW120330   6.487   6.674   0.226
 6477SOL    HW220331   6.606   6.620   0.324
 6478SOL     OW20332   5.176   6.183   1.722
 6478SOL    HW120333   5.196   6.088   1.747
 6478SOL    HW220334   5.262   6.231   1.704
 6479SOL     OW20335   3.692   6.143   2.660
 6479SOL    HW120336   3.683   6.057   2.610
 6479SOL    HW220337   3.607   6.162   2.710
 6480SOL     OW20338   2.735   1.253   1.429
 6480SOL    HW120339   2.732   1.221   1.335
 6480SOL    HW220340   2.642   1.260   1.466
 6481SOL     OW20341   4.665   0.861   1.213
 6481SOL    HW120342   4.569   0.859   1.185
 6481SOL    HW220343   4.670   0.873   1.312
 6482SOL     OW20344   6.956   0.385   6.394
 6482SOL    HW120345   6.939   0.286   6.386
 6482SOL    HW220346   6.922   0.417   6.482
 6483SOL     OW20347   1.777   5.737   1.920
 6483SOL    HW120348   1.678   5.750   1.917
 6483SOL    HW220349   1.808   5.744   2.015
 6484SOL     OW20350   5.388   6.683   3.789
 6484SOL    HW120351   5.443   6.600   3.776
 6484SOL    HW220352   5.348   6.682   3.880
 6485SOL     OW20353   0.790   3.113   3.339
 6485SOL    HW120354   0.803   3.057   3.421
 6485SOL    HW220355   0.766   3.054   3.262
 6486SOL     OW20356   1.950   3.294   3.580
 6486SOL    HW120357   1.988   3.318   3.669
 6486SOL    HW220358   1.905   3.205   3.586
 6487SOL     OW20359   5.805   5.052   3.331
 6487SOL    HW120360   5.808   5.129   3.268
 6487SOL    HW220361   5.774   4.970   3.283
 6488SOL     OW20362   3.433   5.006   5.629
 6488SOL    HW120363   3.393   4.925   5.586
 6488SOL    HW220364   3.437   5.081   5.562
 6489SOL     OW20365   2.470   1.967   6.231
 6489SOL    HW120366   2.549   2.014   6.271
 6489SOL    HW220367   2.493   1.872   6.212
 6490SOL     OW20368   4.888   1.550   0.767
 6490SOL    HW120369   4.930   1.519   0.681
 6490SOL    HW220370   4.893   1.650   0.772
 6491SOL     OW20371   4.562   1.060   6.257
 6491SOL    HW120372   4.530   1.129   6.322
 6491SOL    HW220373   4.505   1.064   6.174
 6492SOL     OW20374   5.740   6.248   6.100
 6492SOL    HW120375   5.693   6.236   6.012
 6492SOL    HW220376   5.827   6.294   6.085
 6493SOL     OW20377   1.039   6.532   5.172
 6493SOL    HW120378   0.979   6.601   5.212
 6493SOL    HW220379   1.015   6.442   5.208
 6494SOL     OW20380   1.506   0.450   3.639
 6494SOL    HW120381   1.517   0.476   3.543
 6494SOL    HW220382   1.490   0.351   3.645
 6495SOL     OW20383   5.898   4.472   2.196
 6495SOL    HW120384   5.803   4.440   2.188
 6495SOL    HW220385   5.955   4.423   2.131
 6496SOL     OW20386   0.696   6.115   3.270
 6496SOL    HW120387   0.721   6.200   3.224
 6496SOL    HW220388   0.711   6.038   3.207
 6497SOL     OW20389   0.011   5.964   0.080
 6497SOL    HW120390   6.977   5.886   0.104
 6497SOL    HW220391   0.016   5.972   7.004
 6498SOL     OW20392   1.245   4.484   3.887
 6498SOL    HW120393   1.149   4.458   3.900
 6498SOL    HW220394   1.304   4.410   3.920
 6499SOL     OW20395   6.142   1.203   3.425
 6499SOL    HW120396   6.140   1.206   3.325
 6499SOL    HW220397   6.080   1.272   3.462
 6500SOL     OW20398   5.705   4.875   3.124
 6500SOL    HW120399   5.668   4.785   3.148
 6500SOL    HW220400   5.734   4.874   3.028
 6501SOL     OW20401   7.020   3.389   0.801
 6501SOL    HW120402   6.997   3.425   0.891
 6501SOL    HW220403   0.067   3.319   0.810
 6502SOL     OW20404   1.373   5.261   1.910
 6502SOL    HW120405   1.340   5.323   1.839
 6502SOL    HW220406   1.353   5.167   1.883
 6503SOL     OW20407   4.564   0.219   4.448
 6503SOL    HW120408   4.516   0.132   4.463
 6503SOL    HW220409   4.642   0.203   4.387
 6504SOL     OW20410   1.576   1.072   0.688
 6504SOL    HW120411   1.597   0.975   0.704
 6504SOL    HW220412   1.503   1.080   0.621
 6505SOL     OW20413   5.679   5.566   0.774
 6505SOL    HW120414   5.745   5.642   0.776
 6505SOL    HW220415   5.611   5.583   0.702
 6506SOL     OW20416   2.093   1.629   0.799
 6506SOL    HW120417   1.998   1.599   0.803
 6506SOL    HW220418   2.154   1.550   0.792
 6507SOL     OW20419   3.034   0.646   2.132
 6507SOL    HW120420   2.942   0.661   2.096
 6507SOL    HW220421   3.102   0.675   2.065
 6508SOL     OW20422   2.328   1.689   2.199
 6508SOL    HW120423   2.236   1.656   2.181
 6508SOL    HW220424   2.335   1.785   2.173
 6509SOL     OW20425   0.633   2.753   4.003
 6509SOL    HW120426   0.702   2.825   4.001
 6509SOL    HW220427   0.623   2.714   3.912
 6510SOL     OW20428   6.081   4.858   6.751
 6510SOL    HW120429   6.120   4.835   6.663
 6510SOL    HW220430   5.983   4.835   6.751
 6511SOL     OW20431   6.884   6.688   5.776
 6511SOL    HW120432   6.955   6.757   5.759
 6511SOL    HW220433   6.920   6.597   5.753
 6512SOL     OW20434   5.318   5.839   3.987
 6512SOL    HW120435   5.335   5.765   3.922
 6512SOL    HW220436   5.243   5.896   3.953
 6513SOL     OW20437   1.756   6.942   3.540
 6513SOL    HW120438   1.683   7.005   3.513
 6513SOL    HW220439   1.812   6.921   3.460
 6514SOL     OW20440   3.462   7.010   3.985
 6514SOL    HW120441   3.472   0.085   3.994
 6514SOL    HW220442   3.551   6.966   4.001
 6515SOL     OW20443   0.835   1.202   3.466
 6515SOL    HW120444   0.905   1.155   3.411
 6515SOL    HW220445   0.751   1.147   3.467
 6516SOL     OW20446   1.454   1.689   5.900
 6516SOL    HW120447   1.527   1.622   5.904
 6516SOL    HW220448   1.401   1.676   5.816
 6517SOL     OW20449   1.800   1.875   0.826
 6517SOL    HW120450   1.772   1.790   0.781
 6517SOL    HW220451   1.743   1.889   0.907
 6518SOL     OW20452   5.775   6.327   1.057
 6518SOL    HW120453   5.773   6.231   1.029
 6518SOL    HW220454   5.686   6.369   1.039
 6519SOL     OW20455   1.352   2.351   3.481
 6519SOL    HW120456   1.290   2.339   3.558
 6519SOL    HW220457   1.426   2.414   3.506
 6520SOL     OW20458   5.805   5.463   1.938
 6520SOL    HW120459   5.764   5.472   2.030
 6520SOL    HW220460   5.732   5.450   1.871
 6521SOL     OW20461   1.623   2.400   5.621
 6521SOL    HW120462   1.630   2.351   5.708
 6521SOL    HW220463   1.528   2.428   5.606
 6522SOL     OW20464   2.562   5.445   4.680
 6522SOL    HW120465   2.601   5.378   4.743
 6522SOL    HW220466   2.469   5.468   4.710
 6523SOL     OW20467   1.843   2.756   6.939
 6523SOL    HW120468   1.930   2.729   6.899
 6523SOL    HW220469   1.813   2.842   6.899
 6524SOL     OW20470   4.157   3.610   4.968
 6524SOL    HW120471   4.211   3.605   5.053
 6524SOL    HW220472   4.174   3.527   4.914
 6525SOL     OW20473   0.257   2.531   4.399
 6525SOL    HW120474   0.345   2.576   4.384
 6525SOL    HW220475   0.184   2.599   4.397
 6526SOL     OW20476   1.551   5.196   3.686
 6526SOL    HW120477   1.622   5.182   3.617
 6526SOL    HW220478   1.554   5.123   3.754
 6527SOL     OW20479   2.420   1.289   4.042
 6527SOL    HW120480   2.425   1.275   3.943
 6527SOL    HW220481   2.494   1.239   4.087
 6528SOL     OW20482   0.418   0.019   3.327
 6528SOL    HW120483   0.406   0.025   3.426
 6528SOL    HW220484   0.456   6.954   3.303
 6529SOL     OW20485   6.631   3.148   2.310
 6529SOL    HW120486   6.690   3.136   2.230
 6529SOL    HW220487   6.593   3.059   2.337
 6530SOL     OW20488   0.580   2.012   0.381
 6530SOL    HW120489   0.539   2.012   0.289
 6530SOL    HW220490   0.627   1.925   0.397
 6531SOL     OW20491   5.188   2.609   4.889
 6531SOL    HW120492   5.281   2.573   4.898
 6531SOL    HW220493   5.173   2.638   4.794
 6532SOL     OW20494   1.147   2.386   6.793
 6532SOL    HW120495   1.088   2.466   6.795
 6532SOL    HW220496   1.174   2.366   6.698
 6533SOL     OW20497   4.394   0.589   0.843
 6533SOL    HW120498   4.475   0.534   0.824
 6533SOL    HW220499   4.326   0.533   0.891
 6534SOL     OW20500   2.047   3.481   0.166
 6534SOL    HW120501   2.109   3.514   0.095
 6534SOL    HW220502   1.992   3.406   0.130
 6535SOL     OW20503   2.179   3.635   5.620
 6535SOL    HW120504   2.189   3.551   5.566
 6535SOL    HW220505   2.090   3.677   5.601
 6536SOL     OW20506   6.401   2.396   6.562
 6536SOL    HW120507   6.484   2.374   6.510
 6536SOL    HW220508   6.386   2.325   6.631
 6537SOL     OW20509   1.136   0.141   6.788
 6537SOL    HW120510   1.101   0.054   6.756
 6537SOL    HW220511   1.113   0.154   6.885
 6538SOL     OW20512   1.888   3.152   6.035
 6538SOL    HW120513   1.800   3.198   6.033
 6538SOL    HW220514   1.897   3.094   5.954
 6539SOL     OW20515   3.086   1.713   6.152
 6539SOL    HW120516   3.067   1.622   6.190
 6539SOL    HW220517   3.184   1.730   6.154
 6540SOL     OW20518   3.459   2.044   4.089
 6540SOL    HW120519   3.547   2.060   4.134
 6540SOL    HW220520   3.385   2.059   4.154
 6541SOL     OW20521   2.845   2.901   5.462
 6541SOL    HW120522   2.773   2.939   5.404
 6541SOL    HW220523   2.806   2.876   5.551
 6542SOL     OW20524   6.209   4.122   3.635
 6542SOL    HW120525   6.141   4.167   3.692
 6542SOL    HW220526   6.204   4.023   3.649
 6543SOL     OW20527   0.590   5.856   6.184
 6543SOL    HW120528   0.624   5.767   6.153
 6543SOL    HW220529   0.663   5.923   6.176
 6544SOL     OW20530   0.096   6.009   2.724
 6544SOL    HW120531   0.031   5.945   2.683
 6544SOL    HW220532   0.175   6.019   2.663
 6545SOL     OW20533   5.737   3.396   5.888
 6545SOL    HW120534   5.737   3.336   5.807
 6545SOL    HW220535   5.699   3.485   5.863
 6546SOL     OW20536   3.808   4.608   5.900
 6546SOL    HW120537   3.738   4.566   5.958
 6546SOL    HW220538   3.813   4.706   5.919
 6547SOL     OW20539   5.269   0.560   6.792
 6547SOL    HW120540   5.260   0.566   6.693
 6547SOL    HW220541   5.288   0.651   6.829
 6548SOL     OW20542   6.031   4.060   5.546
 6548SOL    HW120543   6.105   4.104   5.597
 6548SOL    HW220544   6.034   4.089   5.450
 6549SOL     OW20545   2.904   1.979   2.452
 6549SOL    HW120546   2.954   2.030   2.522
 6549SOL    HW220547   2.865   1.897   2.493
 6550SOL     OW20548   1.387   5.223   3.232
 6550SOL    HW120549   1.322   5.235   3.157
 6550SOL    HW220550   1.363   5.140   3.282
 6551SOL     OW20551   2.812   5.232   1.956
 6551SOL    HW120552   2.716   5.206   1.947
 6551SOL    HW220553   2.862   5.158   2.002
 6552SOL     OW20554   4.652   5.521   6.441
 6552SOL    HW120555   4.596   5.582   6.385
 6552SOL    HW220556   4.749   5.543   6.427
 6553SOL     OW20557   0.102   2.965   2.644
 6553SOL    HW120558   0.006   2.953   2.617
 6553SOL    HW220559   0.106   2.986   2.742
 6554SOL     OW20560   0.353   3.817   4.570
 6554SOL    HW120561   0.341   3.762   4.488
 6554SOL    HW220562   0.416   3.892   4.551
 6555SOL     OW20563   0.387   1.130   2.012
 6555SOL    HW120564   0.390   1.189   1.931
 6555SOL    HW220565   0.302   1.146   2.061
 6556SOL     OW20566   4.001   0.541   4.073
 6556SOL    HW120567   4.095   0.565   4.051
 6556SOL    HW220568   3.985   0.444   4.053
 6557SOL     OW20569   5.177   6.078   0.583
 6557SOL    HW120570   5.162   6.064   0.681
 6557SOL    HW220571   5.089   6.084   0.537
 6558SOL     OW20572   6.579   6.372   6.243
 6558SOL    HW120573   6.660   6.317   6.264
 6558SOL    HW220574   6.497   6.318   6.260
 6559SOL     OW20575   3.530   3.181   1.427
 6559SOL    HW120576   3.575   3.122   1.360
 6559SOL    HW220577   3.436   3.150   1.441
 6560SOL     OW20578   3.861   1.284   0.678
 6560SOL    HW120579   3.778   1.332   0.706
 6560SOL    HW220580   3.936   1.350   0.668
 6561SOL     OW20581   3.311   3.754   4.259
 6561SOL    HW120582   3.376   3.789   4.191
 6561SOL    HW220583   3.219   3.790   4.239
 6562SOL     OW20584   6.622   4.012   5.485
 6562SOL    HW120585   6.607   4.040   5.391
 6562SOL    HW220586   6.670   3.925   5.487
 6563SOL     OW20587   0.661   5.445   2.580
 6563SOL    HW120588   0.692   5.534   2.547
 6563SOL    HW220589   0.728   5.409   2.645
 6564SOL     OW20590   1.661   5.781   2.503
 6564SOL    HW120591   1.714   5.795   2.419
 6564SOL    HW220592   1.564   5.779   2.481
 6565SOL     OW20593   6.745   3.613   5.037
 6565SOL    HW120594   6.676   3.684   5.042
 6565SOL    HW220595   6.737   3.553   5.117
 6566SOL     OW20596   3.447   0.110   0.821
 6566SOL    HW120597   3.400   0.126   0.734
 6566SOL    HW220598   3.379   0.085   0.890
 6567SOL     OW20599   6.140   3.001   0.842
 6567SOL    HW120600   6.200   3.065   0.890
 6567SOL    HW220601   6.076   2.960   0.907
 6568SOL     OW20602   4.505   3.848   1.593
 6568SOL    HW120603   4.526   3.946   1.598
 6568SOL    HW220604   4.508   3.819   1.497
 6569SOL     OW20605   0.866   5.148   6.425
 6569SOL    HW120606   0.812   5.131   6.508
 6569SOL    HW220607   0.948   5.201   6.449
 6570SOL     OW20608   6.232   3.670   1.753
 6570SOL    HW120609   6.268   3.745   1.698
 6570SOL    HW220610   6.210   3.703   1.844
 6571SOL     OW20611   2.812   6.237   3.602
 6571SOL    HW120612   2.881   6.214   3.534
 6571SOL    HW220613   2.735   6.173   3.596
 6572SOL     OW20614   1.087   4.478   5.909
 6572SOL    HW120615   1.125   4.560   5.952
 6572SOL    HW220616   1.106   4.398   5.965
 6573SOL     OW20617   1.677   2.124   2.002
 6573SOL    HW120618   1.726   2.039   1.984
 6573SOL    HW220619   1.642   2.124   2.096
 6574SOL     OW20620   1.635   4.566   4.100
 6574SOL    HW120621   1.717   4.519   4.134
 6574SOL    HW220622   1.618   4.648   4.154
 6575SOL     OW20623   2.064   1.490   2.864
 6575SOL    HW120624   2.053   1.466   2.768
 6575SOL    HW220625   2.018   1.577   2.882
 6576SOL     OW20626   1.598   6.257   3.784
 6576SOL    HW120627   1.590   6.158   3.777
 6576SOL    HW220628   1.514   6.300   3.750
 6577SOL     OW20629   0.028   3.175   5.174
 6577SOL    HW120630   0.007   3.222   5.260
 6577SOL    HW220631   0.001   3.233   5.097
 6578SOL     OW20632   6.427   5.467   3.425
 6578SOL    HW120633   6.500   5.528   3.455
 6578SOL    HW220634   6.391   5.499   3.337
 6579SOL     OW20635   1.070   4.036   3.072
 6579SOL    HW120636   1.138   4.003   3.007
 6579SOL    HW220637   1.115   4.093   3.141
 6580SOL     OW20638   5.820   2.465   1.435
 6580SOL    HW120639   5.858   2.386   1.484
 6580SOL    HW220640   5.745   2.434   1.376
 6581SOL     OW20641   2.523   2.542   5.646
 6581SOL    HW120642   2.472   2.623   5.675
 6581SOL    HW220643   2.513   2.530   5.547
 6582SOL     OW20644   6.710   0.255   2.092
 6582SOL    HW120645   6.764   0.237   2.174
 6582SOL    HW220646   6.617   0.221   2.105
 6583SOL     OW20647   5.668   2.188   5.832
 6583SOL    HW120648   5.642   2.092   5.828
 6583SOL    HW220649   5.755   2.202   5.783
 6584SOL     OW20650   5.528   2.533   0.381
 6584SOL    HW120651   5.500   2.625   0.354
 6584SOL    HW220652   5.619   2.514   0.344
 6585SOL     OW20653   3.040   0.881   1.742
 6585SOL    HW120654   3.005   0.902   1.834
 6585SOL    HW220655   3.101   0.954   1.711
 6586SOL     OW20656   6.996   1.949   6.711
 6586SOL    HW120657   0.008   2.037   6.743
 6586SOL    HW220658   7.003   1.944   6.612
 6587SOL     OW20659   1.886   6.124   2.324
 6587SOL    HW120660   1.975   6.167   2.307
 6587SOL    HW220661   1.819   6.194   2.349
 6588SOL     OW20662   2.818   2.637   0.140
 6588SOL    HW120663   2.726   2.601   0.155
 6588SOL    HW220664   2.849   2.685   0.221
 6589SOL     OW20665   5.251   1.812   5.784
 6589SOL    HW120666   5.195   1.889   5.816
 6589SOL    HW220667   5.344   1.843   5.765
 6590SOL     OW20668   0.054   1.169   5.726
 6590SOL    HW120669   0.044   1.146   5.629
 6590SOL    HW220670   0.124   1.111   5.767
 6591SOL     OW20671   5.410   0.273   3.012
 6591SOL    HW120672   5.409   0.342   3.084
 6591SOL    HW220673   5.501   0.271   2.970
 6592SOL     OW20674   5.953   5.865   4.646
 6592SOL    HW120675   5.858   5.845   4.622
 6592SOL    HW220676   5.956   5.932   4.719
 6593SOL     OW20677   4.940   1.164   2.396
 6593SOL    HW120678   4.967   1.098   2.467
 6593SOL    HW220679   5.021   1.196   2.348
 6594SOL     OW20680   5.838   0.850   6.722
 6594SOL    HW120681   5.825   0.800   6.637
 6594SOL    HW220682   5.821   0.947   6.706
 6595SOL     OW20683   1.603   3.643   0.085
 6595SOL    HW120684   1.688   3.607   0.123
 6595SOL    HW220685   1.544   3.674   0.159
 6596SOL     OW20686   2.997   6.666   5.534
 6596SOL    HW120687   3.001   6.749   5.479
 6596SOL    HW220688   2.903   6.650   5.564
 6597SOL     OW20689   6.544   4.014   6.582
 6597SOL    HW120690   6.517   3.918   6.579
 6597SOL    HW220691   6.469   4.071   6.549
 6598SOL     OW20692   2.310   5.561   4.739
 6598SOL    HW120693   2.247   5.616   4.684
 6598SOL    HW220694   2.267   5.539   4.827
 6599SOL     OW20695   4.423   2.982   5.772
 6599SOL    HW120696   4.479   2.913   5.816
 6599SOL    HW220697   4.472   3.069   5.770
 6600SOL     OW20698   4.120   5.033   4.515
 6600SOL    HW120699   4.206   5.083   4.528
 6600SOL    HW220700   4.046   5.099   4.501
 6601SOL     OW20701   1.143   0.362   1.142
 6601SOL    HW120702   1.120   0.290   1.207
 6601SOL    HW220703   1.066   0.426   1.133
 6602SOL     OW20704   6.532   1.347   1.642
 6602SOL    HW120705   6.522   1.250   1.662
 6602SOL    HW220706   6.512   1.400   1.724
 6603SOL     OW20707   2.435   2.289   2.175
 6603SOL    HW120708   2.472   2.277   2.266
 6603SOL    HW220709   2.508   2.280   2.107
 6604SOL     OW20710   4.184   5.598   3.895
 6604SOL    HW120711   4.207   5.663   3.823
 6604SOL    HW220712   4.267   5.569   3.942
 6605SOL     OW20713   5.002   6.416   0.420
 6605SOL    HW120714   5.014   6.456   0.329
 6605SOL    HW220715   5.000   6.316   0.412
 6606SOL     OW20716   6.351   1.280   3.081
 6606SOL    HW120717   6.286   1.308   3.010
 6606SOL    HW220718   6.401   1.200   3.050
 6607SOL     OW20719   1.282   1.731   2.983
 6607SOL    HW120720   1.220   1.784   2.925
 6607SOL    HW220721   1.289   1.638   2.949
 6608SOL     OW20722   5.380   4.999   5.023
 6608SOL    HW120723   5.426   4.963   5.105
 6608SOL    HW220724   5.447   5.042   4.963
 6609SOL     OW20725   5.861   1.485   7.006
 6609SOL    HW120726   5.815   1.397   6.996
 6609SOL    HW220727   5.814   1.554   6.951
 6610SOL     OW20728   3.273   1.284   0.512
 6610SOL    HW120729   3.269   1.375   0.471
 6610SOL    HW220730   3.283   1.215   0.440
 6611SOL     OW20731   5.800   2.859   3.214
 6611SOL    HW120732   5.888   2.812   3.208
 6611SOL    HW220733   5.732   2.797   3.252
 6612SOL     OW20734   0.888   6.051   6.740
 6612SOL    HW120735   0.849   5.968   6.778
 6612SOL    HW220736   0.924   6.108   6.814
 6613SOL     OW20737   4.980   5.022   1.226
 6613SOL    HW120738   4.889   4.991   1.251
 6613SOL    HW220739   5.011   5.090   1.292
 6614SOL     OW20740   5.102   5.074   5.675
 6614SOL    HW120741   5.112   5.084   5.576
 6614SOL    HW220742   5.164   5.138   5.721
 6615SOL     OW20743   0.584   3.713   5.451
 6615SOL    HW120744   0.559   3.757   5.538
 6615SOL    HW220745   0.651   3.770   5.404
 6616SOL     OW20746   5.048   1.249   4.020
 6616SOL    HW120747   5.052   1.233   3.921
 6616SOL    HW220748   5.019   1.343   4.038
 6617SOL     OW20749   4.293   0.169   5.042
 6617SOL    HW120750   4.291   0.140   5.138
 6617SOL    HW220751   4.354   0.109   4.990
 6618SOL     OW20752   0.108   5.055   1.141
 6618SOL    HW120753   0.068   4.991   1.076
 6618SOL    HW220754   0.201   5.027   1.162
 6619SOL     OW20755   6.965   6.111   1.705
 6619SOL    HW120756   6.936   6.071   1.617
 6619SOL    HW220757   6.991   6.206   1.691
 6620SOL     OW20758   4.154   3.317   5.778
 6620SOL    HW120759   4.172   3.249   5.707
 6620SOL    HW220760   4.097   3.277   5.849
 6621SOL     OW20761   2.561   3.891   0.371
 6621SOL    HW120762   2.482   3.938   0.332
 6621SOL    HW220763   2.529   3.823   0.438
 6622SOL     OW20764   6.357   5.575   1.210
 6622SOL    HW120765   6.363   5.504   1.139
 6622SOL    HW220766   6.285   5.640   1.185
 6623SOL     OW20767   3.826   3.838   2.517
 6623SOL    HW120768   3.740   3.804   2.555
 6623SOL    HW220769   3.894   3.848   2.590
 6624SOL     OW20770   4.583   5.289   4.118
 6624SOL    HW120771   4.519   5.241   4.179
 6624SOL    HW220772   4.545   5.292   4.026
 6625SOL     OW20773   5.879   0.099   6.917
 6625SOL    HW120774   5.794   0.069   6.873
 6625SOL    HW220775   5.907   0.031   6.985
 6626SOL     OW20776   3.047   5.190   3.414
 6626SOL    HW120777   3.046   5.286   3.442
 6626SOL    HW220778   3.141   5.156   3.415
 6627SOL     OW20779   2.114   6.400   1.729
 6627SOL    HW120780   2.168   6.356   1.657
 6627SOL    HW220781   2.075   6.331   1.790
 6628SOL     OW20782   4.301   6.261   3.427
 6628SOL    HW120783   4.238   6.231   3.355
 6628SOL    HW220784   4.337   6.352   3.405
 6629SOL     OW20785   3.103   3.867   0.190
 6629SOL    HW120786   3.077   3.787   0.243
 6629SOL    HW220787   3.161   3.840   0.114
 6630SOL     OW20788   3.219   1.746   6.523
 6630SOL    HW120789   3.178   1.673   6.576
 6630SOL    HW220790   3.266   1.708   6.443
 6631SOL     OW20791   3.979   0.446   1.414
 6631SOL    HW120792   3.962   0.393   1.330
 6631SOL    HW220793   4.002   0.540   1.389
 6632SOL     OW20794   6.440   2.599   2.915
 6632SOL    HW120795   6.535   2.568   2.909
 6632SOL    HW220796   6.382   2.521   2.935
 6633SOL     OW20797   0.413   6.929   1.972
 6633SOL    HW120798   0.503   6.947   1.932
 6633SOL    HW220799   0.356   6.882   1.904
 6634SOL     OW20800   6.850   2.557   5.846
 6634SOL    HW120801   6.949   2.555   5.858
 6634SOL    HW220802   6.805   2.543   5.935
 6635SOL     OW20803   4.334   4.616   2.741
 6635SOL    HW120804   4.386   4.555   2.682
 6635SOL    HW220805   4.281   4.680   2.685
 6636SOL     OW20806   1.716   2.998   4.148
 6636SOL    HW120807   1.800   3.053   4.142
 6636SOL    HW220808   1.662   3.013   4.065
 6637SOL     OW20809   6.537   2.169   1.770
 6637SOL    HW120810   6.498   2.173   1.863
 6637SOL    HW220811   6.515   2.080   1.729
 6638SOL     OW20812   2.344   0.043   6.851
 6638SOL    HW120813   2.305   7.009   6.779
 6638SOL    HW220814   2.341   0.139   6.823
 6639SOL     OW20815   4.465   5.690   6.270
 6639SOL    HW120816   4.390   5.756   6.283
 6639SOL    HW220817   4.428   5.597   6.275
 6640SOL     OW20818   6.007   2.662   3.235
 6640SOL    HW120819   5.990   2.598   3.159
 6640SOL    HW220820   6.051   2.612   3.310
 6641SOL     OW20821   2.521   4.938   6.980
 6641SOL    HW120822   2.567   4.866   0.009
 6641SOL    HW220823   2.529   4.918   6.882
 6642SOL     OW20824   6.171   6.577   0.181
 6642SOL    HW120825   6.242   6.549   0.246
 6642SOL    HW220826   6.120   6.654   0.219
 6643SOL     OW20827   3.609   5.664   0.417
 6643SOL    HW120828   3.553   5.670   0.335
 6643SOL    HW220829   3.555   5.623   0.491
 6644SOL     OW20830   2.004   4.186   2.131
 6644SOL    HW120831   1.917   4.149   2.164
 6644SOL    HW220832   2.073   4.114   2.134
 6645SOL     OW20833   6.089   4.650   5.190
 6645SOL    HW120834   6.087   4.582   5.263
 6645SOL    HW220835   6.098   4.603   5.102
 6646SOL     OW20836   1.615   6.229   3.481
 6646SOL    HW120837   1.680   6.233   3.556
 6646SOL    HW220838   1.533   6.179   3.510
 6647SOL     OW20839   4.230   1.753   2.075
 6647SOL    HW120840   4.157   1.815   2.047
 6647SOL    HW220841   4.201   1.659   2.059
 6648SOL     OW20842   4.236   5.855   1.931
 6648SOL    HW120843   4.188   5.769   1.911
 6648SOL    HW220844   4.327   5.852   1.890
 6649SOL     OW20845   4.269   2.166   6.065
 6649SOL    HW120846   4.353   2.212   6.093
 6649SOL    HW220847   4.277   2.136   5.970
 6650SOL     OW20848   3.185   0.990   3.975
 6650SOL    HW120849   3.279   0.966   3.995
 6650SOL    HW220850   3.178   1.020   3.879
 6651SOL     OW20851   1.540   1.706   0.262
 6651SOL    HW120852   1.581   1.626   0.306
 6651SOL    HW220853   1.594   1.787   0.285
 6652SOL     OW20854   1.062   5.412   3.272
 6652SOL    HW120855   1.141   5.451   3.321
 6652SOL    HW220856   0.979   5.426   3.326
 6653SOL     OW20857   3.166   3.741   3.434
 6653SOL    HW120858   3.259   3.745   3.398
 6653SOL    HW220859   3.142   3.828   3.477
 6654SOL     OW20860   1.820   3.444   1.724
 6654SOL    HW120861   1.747   3.399   1.774
 6654SOL    HW220862   1.864   3.512   1.783
 6655SOL     OW20863   2.057   0.222   0.641
 6655SOL    HW120864   1.980   0.286   0.638
 6655SOL    HW220865   2.119   0.241   0.565
 6656SOL     OW20866   6.998   2.678   1.819
 6656SOL    HW120867   6.912   2.654   1.774
 6656SOL    HW220868   0.051   2.648   1.762
 6657SOL     OW20869   2.913   4.675   5.893
 6657SOL    HW120870   2.860   4.748   5.936
 6657SOL    HW220871   2.931   4.603   5.961
 6658SOL     OW20872   6.187   6.960   5.575
 6658SOL    HW120873   6.278   6.921   5.560
 6658SOL    HW220874   6.186   7.014   5.659
 6659SOL     OW20875   1.763   2.915   6.453
 6659SOL    HW120876   1.784   2.986   6.386
 6659SOL    HW220877   1.816   2.833   6.433
 6660SOL     OW20878   0.562   6.762   2.139
 6660SOL    HW120879   0.530   6.834   2.077
 6660SOL    HW220880   0.484   6.710   2.173
 6661SOL     OW20881   0.155   6.349   3.702
 6661SOL    HW120882   0.141   6.328   3.799
 6661SOL    HW220883   0.177   6.264   3.653
 6662SOL     OW20884   1.221   3.600   5.719
 6662SOL    HW120885   1.270   3.594   5.632
 6662SOL    HW220886   1.174   3.688   5.725
 6663SOL     OW20887   0.520   5.147   2.320
 6663SOL    HW120888   0.498   5.242   2.294
 6663SOL    HW220889   0.615   5.143   2.353
 6664SOL     OW20890   0.131   1.381   2.697
 6664SOL    HW120891   0.090   1.312   2.637
 6664SOL    HW220892   0.093   1.372   2.789
 6665SOL     OW20893   2.649   6.761   2.598
 6665SOL    HW120894   2.739   6.774   2.558
 6665SOL    HW220895   2.657   6.745   2.696
 6666SOL     OW20896   5.939   0.720   0.484
 6666SOL    HW120897   5.881   0.655   0.533
 6666SOL    HW220898   5.892   0.751   0.401
 6667SOL     OW20899   6.439   5.131   4.735
 6667SOL    HW120900   6.519   5.124   4.676
 6667SOL    HW220901   6.410   5.227   4.741
 6668SOL     OW20902   0.154   6.516   1.446
 6668SOL    HW120903   0.242   6.479   1.417
 6668SOL    HW220904   0.168   6.601   1.497
 6669SOL     OW20905   1.103   5.195   3.064
 6669SOL    HW120906   1.056   5.237   3.142
 6669SOL    HW220907   1.099   5.096   3.072
 6670SOL     OW20908   3.953   4.546   0.884
 6670SOL    HW120909   3.870   4.539   0.829
 6670SOL    HW220910   3.987   4.640   0.881
 6671SOL     OW20911   0.314   3.134   5.518
 6671SOL    HW120912   0.287   3.038   5.530
 6671SOL    HW220913   0.411   3.139   5.495
 6672SOL     OW20914   0.732   0.380   5.670
 6672SOL    HW120915   0.737   0.311   5.598
 6672SOL    HW220916   0.672   0.455   5.640
 6673SOL     OW20917   5.016   5.556   1.453
 6673SOL    HW120918   5.093   5.499   1.424
 6673SOL    HW220919   4.930   5.511   1.431
 6674SOL     OW20920   0.502   6.887   5.184
 6674SOL    HW120921   0.554   6.855   5.104
 6674SOL    HW220922   0.406   6.896   5.160
 6675SOL     OW20923   6.725   6.214   0.580
 6675SOL    HW120924   6.763   6.279   0.514
 6675SOL    HW220925   6.658   6.155   0.534
 6676SOL     OW20926   0.935   1.864   0.622
 6676SOL    HW120927   0.965   1.895   0.531
 6676SOL    HW220928   0.869   1.928   0.659
 6677SOL     OW20929   6.487   4.252   0.424
 6677SOL    HW120930   6.557   4.313   0.386
 6677SOL    HW220931   6.403   4.303   0.438
 6678SOL     OW20932   0.249   3.034   4.042
 6678SOL    HW120933   0.207   3.056   3.954
 6678SOL    HW220934   0.316   2.961   4.029
 6679SOL     OW20935   1.694   1.045   4.768
 6679SOL    HW120936   1.712   1.098   4.685
 6679SOL    HW220937   1.598   1.019   4.771
 6680SOL     OW20938   2.582   0.529   6.464
 6680SOL    HW120939   2.554   0.589   6.389
 6680SOL    HW220940   2.503   0.507   6.521
 6681SOL     OW20941   5.159   6.053   0.224
 6681SOL    HW120942   5.175   5.959   0.196
 6681SOL    HW220943   5.104   6.100   0.155
 6682SOL     OW20944   6.892   5.306   2.277
 6682SOL    HW120945   6.859   5.264   2.362
 6682SOL    HW220946   6.988   5.334   2.289
 6683SOL     OW20947   5.180   1.718   4.338
 6683SOL    HW120948   5.190   1.619   4.348
 6683SOL    HW220949   5.141   1.739   4.248
 6684SOL     OW20950   2.162   1.170   2.654
 6684SOL    HW120951   2.141   1.267   2.639
 6684SOL    HW220952   2.146   1.146   2.749
 6685SOL     OW20953   5.262   3.123   6.403
 6685SOL    HW120954   5.314   3.048   6.442
 6685SOL    HW220955   5.171   3.126   6.443
 6686SOL     OW20956   5.478   3.477   4.174
 6686SOL    HW120957   5.570   3.448   4.201
 6686SOL    HW220958   5.485   3.553   4.109
 6687SOL     OW20959   1.067   0.810   0.113
 6687SOL    HW120960   1.107   0.818   0.204
 6687SOL    HW220961   0.978   0.856   0.112
 6688SOL     OW20962   0.548   5.207   2.633
 6688SOL    HW120963   0.591   5.288   2.593
 6688SOL    HW220964   0.614   5.161   2.693
 6689SOL     OW20965   4.227   4.875   0.092
 6689SOL    HW120966   4.249   4.780   0.068
 6689SOL    HW220967   4.295   4.910   0.157
 6690SOL     OW20968   1.497   1.747   0.600
 6690SOL    HW120969   1.535   1.674   0.542
 6690SOL    HW220970   1.400   1.758   0.580
 6691SOL     OW20971   1.146   5.147   0.947
 6691SOL    HW120972   1.152   5.056   0.906
 6691SOL    HW220973   1.229   5.167   0.999
 6692SOL     OW20974   3.980   4.264   6.128
 6692SOL    HW120975   3.984   4.164   6.118
 6692SOL    HW220976   4.005   4.307   6.042
 6693SOL     OW20977   4.254   3.671   5.372
 6693SOL    HW120978   4.225   3.758   5.332
 6693SOL    HW220979   4.173   3.618   5.400
 6694SOL     OW20980   2.693   6.549   0.464
 6694SOL    HW120981   2.760   6.604   0.514
 6694SOL    HW220982   2.704   6.453   0.488
 6695SOL     OW20983   1.481   1.518   6.300
 6695SOL    HW120984   1.456   1.448   6.234
 6695SOL    HW220985   1.408   1.528   6.368
 6696SOL     OW20986   1.941   3.009   1.522
 6696SOL    HW120987   2.023   3.017   1.579
 6696SOL    HW220988   1.868   3.064   1.561
 6697SOL     OW20989   5.258   2.527   3.703
 6697SOL    HW120990   5.162   2.535   3.675
 6697SOL    HW220991   5.263   2.502   3.799
 6698SOL     OW20992   3.043   4.416   0.330
 6698SOL    HW120993   2.997   4.469   0.258
 6698SOL    HW220994   3.062   4.324   0.296
 6699SOL     OW20995   1.467   3.485   6.689
 6699SOL    HW120996   1.412   3.499   6.772
 6699SOL    HW220997   1.450   3.394   6.652
 6700SOL     OW20998   6.878   6.741   6.103
 6700SOL    HW120999   6.908   6.722   6.010
 6700SOL    HW221000   6.903   6.666   6.164
 6701SOL     OW21001   0.573   2.823   1.232
 6701SOL    HW121002   0.597   2.729   1.260
 6701SOL    HW221003   0.590   2.885   1.309
 6702SOL     OW21004   1.466   3.329   0.628
 6702SOL    HW121005   1.371   3.356   0.616
 6702SOL    HW221006   1.478   3.235   0.596
 6703SOL     OW21007   0.582   2.634   6.571
 6703SOL    HW121008   0.485   2.618   6.589
 6703SOL    HW221009   0.635   2.616   6.653
 6704SOL     OW21010   4.898   2.609   3.174
 6704SOL    HW121011   4.934   2.684   3.119
 6704SOL    HW221012   4.926   2.621   3.269
 6705SOL     OW21013   6.085   1.336   1.129
 6705SOL    HW121014   6.181   1.332   1.101
 6705SOL    HW221015   6.079   1.378   1.220
 6706SOL     OW21016   0.658   6.041   0.167
 6706SOL    HW121017   0.658   5.967   0.234
 6706SOL    HW221018   0.577   6.033   0.108
 6707SOL     OW21019   1.455   5.627   2.318
 6707SOL    HW121020   1.469   5.562   2.393
 6707SOL    HW221021   1.437   5.578   2.233
 6708SOL     OW21022   2.207   5.894   1.798
 6708SOL    HW121023   2.241   5.906   1.892
 6708SOL    HW221024   2.280   5.918   1.733
 6709SOL     OW21025   4.882   1.677   3.001
 6709SOL    HW121026   4.821   1.754   3.023
 6709SOL    HW221027   4.830   1.605   2.956
 6710SOL     OW21028   1.933   1.942   0.609
 6710SOL    HW121029   1.874   1.976   0.536
 6710SOL    HW221030   1.880   1.937   0.694
 6711SOL     OW21031   5.205   3.593   0.088
 6711SOL    HW121032   5.106   3.609   0.086
 6711SOL    HW221033   5.228   3.535   0.166
 6712SOL     OW21034   3.605   6.080   1.453
 6712SOL    HW121035   3.682   6.142   1.438
 6712SOL    HW221036   3.593   6.065   1.551
 6713SOL     OW21037   1.770   1.603   3.127
 6713SOL    HW121038   1.742   1.665   3.201
 6713SOL    HW221039   1.772   1.654   3.041
 6714SOL     OW21040   6.712   0.197   4.534
 6714SOL    HW121041   6.682   0.104   4.557
 6714SOL    HW221042   6.668   0.262   4.596
 6715SOL     OW21043   6.604   2.232   0.545
 6715SOL    HW121044   6.674   2.246   0.475
 6715SOL    HW221045   6.576   2.136   0.545
 6716SOL     OW21046   2.676   5.888   0.726
 6716SOL    HW121047   2.708   5.940   0.647
 6716SOL    HW221048   2.744   5.820   0.751
 6717SOL     OW21049   4.224   1.154   6.551
 6717SOL    HW121050   4.309   1.115   6.588
 6717SOL    HW221051   4.231   1.254   6.551
 6718SOL     OW21052   3.143   6.773   0.305
 6718SOL    HW121053   3.234   6.799   0.338
 6718SOL    HW221054   3.133   6.673   0.312
 6719SOL     OW21055   0.977   0.796   5.358
 6719SOL    HW121056   0.906   0.727   5.338
 6719SOL    HW221057   1.064   0.750   5.375
 6720SOL     OW21058   1.927   4.508   1.574
 6720SOL    HW121059   1.843   4.560   1.561
 6720SOL    HW221060   2.003   4.571   1.590
 6721SOL     OW21061   0.326   6.130   3.085
 6721SOL    HW121062   0.261   6.053   3.083
 6721SOL    HW221063   0.413   6.101   3.046
 6722SOL     OW21064   4.997   4.963   6.605
 6722SOL    HW121065   5.096   4.953   6.609
 6722SOL    HW221066   4.967   5.028   6.674
 6723SOL     OW21067   4.466   0.777   3.130
 6723SOL    HW121068   4.492   0.871   3.109
 6723SOL    HW221069   4.547   0.726   3.160
 6724SOL     OW21070   3.395   4.593   5.603
 6724SOL    HW121071   3.378   4.671   5.543
 6724SOL    HW221072   3.492   4.587   5.625
 6725SOL     OW21073   6.945   5.231   1.237
 6725SOL    HW121074   6.870   5.167   1.252
 6725SOL    HW221075   0.003   5.180   1.207
 6726SOL     OW21076   2.074   2.458   1.741
 6726SOL    HW121077   2.049   2.361   1.737
 6726SOL    HW221078   2.161   2.471   1.692
 6727SOL     OW21079   3.230   3.846   0.638
 6727SOL    HW121080   3.170   3.814   0.566
 6727SOL    HW221081   3.247   3.772   0.703
 6728SOL     OW21082   4.723   1.422   4.715
 6728SOL    HW121083   4.799   1.436   4.652
 6728SOL    HW221084   4.640   1.463   4.678
 6729SOL     OW21085   5.351   6.263   3.487
 6729SOL    HW121086   5.400   6.177   3.503
 6729SOL    HW221087   5.357   6.287   3.390
 6730SOL     OW21088   1.441   0.028   2.175
 6730SOL    HW121089   1.380   6.972   2.179
 6730SOL    HW221090   1.466   0.047   2.080
 6731SOL     OW21091   2.104   4.453   2.144
 6731SOL    HW121092   2.056   4.366   2.157
 6731SOL    HW221093   2.169   4.444   2.069
 6732SOL     OW21094   2.450   5.447   0.333
 6732SOL    HW121095   2.393   5.380   0.286
 6732SOL    HW221096   2.516   5.487   0.269
 6733SOL     OW21097   6.226   6.005   4.818
 6733SOL    HW121098   6.138   6.003   4.864
 6733SOL    HW221099   6.212   6.006   4.719
 6734SOL     OW21100   2.826   3.716   5.836
 6734SOL    HW121101   2.821   3.788   5.767
 6734SOL    HW221102   2.873   3.636   5.799
 6735SOL     OW21103   0.717   6.243   6.671
 6735SOL    HW121104   0.767   6.172   6.722
 6735SOL    HW221105   0.758   6.254   6.581
 6736SOL     OW21106   2.364   4.386   2.483
 6736SOL    HW121107   2.269   4.361   2.462
 6736SOL    HW221108   2.371   4.411   2.579
 6737SOL     OW21109   2.179   0.161   1.011
 6737SOL    HW121110   2.126   0.087   0.968
 6737SOL    HW221111   2.128   0.197   1.089
 6738SOL     OW21112   4.498   1.424   1.455
 6738SOL    HW121113   4.466   1.329   1.459
 6738SOL    HW221114   4.521   1.454   1.548
 6739SOL     OW21115   4.357   6.970   5.302
 6739SOL    HW121116   4.374   6.892   5.362
 6739SOL    HW221117   4.443   7.002   5.264
 6740SOL     OW21118   5.988   3.165   5.361
 6740SOL    HW121119   6.079   3.140   5.328
 6740SOL    HW221120   5.978   3.137   5.456
 6741SOL     OW21121   0.425   6.779   6.019
 6741SOL    HW121122   0.493   6.805   6.088
 6741SOL    HW221123   0.404   6.859   5.962
 6742SOL     OW21124   6.164   6.088   5.224
 6742SOL    HW121125   6.131   6.178   5.193
 6742SOL    HW221126   6.158   6.023   5.148
 6743SOL     OW21127   6.003   2.364   1.182
 6743SOL    HW121128   5.993   2.463   1.195
 6743SOL    HW221129   6.077   2.330   1.241
 6744SOL     OW21130   5.487   6.109   4.615
 6744SOL    HW121131   5.389   6.119   4.603
 6744SOL    HW221132   5.518   6.167   4.690
 6745SOL     OW21133   1.037   3.115   2.897
 6745SOL    HW121134   0.957   3.093   2.953
 6745SOL    HW221135   1.034   3.063   2.812
 6746SOL     OW21136   0.015   1.020   1.047
 6746SOL    HW121137   6.943   0.997   1.026
 6746SOL    HW221138   0.019   1.072   1.133
 6747SOL     OW21139   4.721   5.847   6.732
 6747SOL    HW121140   4.683   5.755   6.722
 6747SOL    HW221141   4.820   5.841   6.740
 6748SOL     OW21142   0.077   6.513   1.884
 6748SOL    HW121143   0.041   6.486   1.794
 6748SOL    HW221144   0.176   6.506   1.883
 6749SOL     OW21145   3.219   5.504   1.160
 6749SOL    HW121146   3.238   5.477   1.066
 6749SOL    HW221147   3.304   5.530   1.205
 6750SOL     OW21148   2.166   2.996   5.234
 6750SOL    HW121149   2.177   3.078   5.290
 6750SOL    HW221150   2.228   3.000   5.156
 6751SOL     OW21151   3.881   1.665   5.772
 6751SOL    HW121152   3.858   1.594   5.706
 6751SOL    HW221153   3.835   1.750   5.747
 6752SOL     OW21154   6.795   2.023   0.144
 6752SOL    HW121155   6.710   2.077   0.136
 6752SOL    HW221156   6.799   1.957   0.069
 6753SOL     OW21157   6.014   1.259   6.890
 6753SOL    HW121158   5.993   1.164   6.917
 6753SOL    HW221159   6.065   1.259   6.804
 6754SOL     OW21160   4.957   1.175   6.523
 6754SOL    HW121161   5.039   1.136   6.567
 6754SOL    HW221162   4.984   1.253   6.466
 6755SOL     OW21163   4.918   1.995   3.470
 6755SOL    HW121164   4.956   2.070   3.524
 6755SOL    HW221165   4.819   2.007   3.461
 6756SOL     OW21166   4.982   3.932   3.751
 6756SOL    HW121167   5.069   3.953   3.797
 6756SOL    HW221168   4.912   3.916   3.821
 6757SOL     OW21169   6.176   4.824   1.685
 6757SOL    HW121170   6.120   4.803   1.606
 6757SOL    HW221171   6.272   4.810   1.663
 6758SOL     OW21172   5.976   1.282   2.987
 6758SOL    HW121173   5.957   1.196   3.035
 6758SOL    HW221174   5.925   1.356   3.030
 6759SOL     OW21175   1.457   4.905   2.954
 6759SOL    HW121176   1.550   4.935   2.934
 6759SOL    HW221177   1.449   4.886   3.052
 6760SOL     OW21178   0.377   3.958   5.089
 6760SOL    HW121179   0.281   3.952   5.062
 6760SOL    HW221180   0.387   4.023   5.163
 6761SOL     OW21181   6.041   2.882   6.511
 6761SOL    HW121182   6.007   2.955   6.571
 6761SOL    HW221183   6.139   2.871   6.523
 6762SOL     OW21184   6.933   3.991   3.034
 6762SOL    HW121185   6.864   3.986   2.961
 6762SOL    HW221186   6.911   3.924   3.105
 6763SOL     OW21187   5.840   6.793   4.941
 6763SOL    HW121188   5.888   6.742   5.012
 6763SOL    HW221189   5.825   6.733   4.862
 6764SOL     OW21190   2.231   3.476   6.381
 6764SOL    HW121191   2.202   3.382   6.397
 6764SOL    HW221192   2.150   3.535   6.373
 6765SOL     OW21193   5.056   5.214   2.531
 6765SOL    HW121194   5.149   5.192   2.501
 6765SOL    HW221195   5.013   5.131   2.569
 6766SOL     OW21196   1.935   2.264   6.028
 6766SOL    HW121197   1.960   2.357   6.001
 6766SOL    HW221198   1.953   2.202   5.952
 6767SOL     OW21199   0.374   2.660   6.204
 6767SOL    HW121200   0.294   2.604   6.183
 6767SOL    HW221201   0.368   2.692   6.299
 6768SOL     OW21202   6.518   1.042   6.082
 6768SOL    HW121203   6.583   1.118   6.083
 6768SOL    HW221204   6.567   0.955   6.092
 6769SOL     OW21205   1.220   2.960   6.342
 6769SOL    HW121206   1.133   2.929   6.380
 6769SOL    HW221207   1.204   3.010   6.257
 6770SOL     OW21208   6.833   1.474   4.306
 6770SOL    HW121209   6.775   1.482   4.224
 6770SOL    HW221210   6.860   1.378   4.318
 6771SOL     OW21211   6.201   1.543   2.650
 6771SOL    HW121212   6.278   1.605   2.664
 6771SOL    HW221213   6.196   1.519   2.553
 6772SOL     OW21214   1.216   0.454   2.258
 6772SOL    HW121215   1.158   0.498   2.327
 6772SOL    HW221216   1.164   0.444   2.173
 6773SOL     OW21217   1.748   0.860   2.589
 6773SOL    HW121218   1.795   0.849   2.502
 6773SOL    HW221219   1.721   0.956   2.601
 6774SOL     OW21220   3.934   1.349   5.069
 6774SOL    HW121221   3.956   1.263   5.114
 6774SOL    HW221222   3.908   1.331   4.974
 6775SOL     OW21223   0.986   2.650   4.375
 6775SOL    HW121224   0.912   2.605   4.426
 6775SOL    HW221225   0.997   2.605   4.286
 6776SOL     OW21226   3.429   3.879   3.742
 6776SOL    HW121227   3.371   3.959   3.756
 6776SOL    HW221228   3.374   3.802   3.710
 6777SOL     OW21229   0.447   6.202   6.154
 6777SOL    HW121230   0.537   6.205   6.111
 6777SOL    HW221231   0.397   6.121   6.124
 6778SOL     OW21232   6.626   5.923   2.350
 6778SOL    HW121233   6.703   5.985   2.342
 6778SOL    HW221234   6.541   5.975   2.362
 6779SOL     OW21235   4.744   4.877   6.936
 6779SOL    HW121236   4.770   4.917   6.848
 6779SOL    HW221237   4.724   4.950   7.001
 6780SOL     OW21238   4.769   0.610   2.914
 6780SOL    HW121239   4.808   0.682   2.857
 6780SOL    HW221240   4.815   0.523   2.893
 6781SOL     OW21241   6.318   3.359   3.152
 6781SOL    HW121242   6.318   3.458   3.165
 6781SOL    HW221243   6.232   3.321   3.187
 6782SOL     OW21244   0.597   1.040   3.282
 6782SOL    HW121245   0.560   1.013   3.371
 6782SOL    HW221246   0.628   0.958   3.233
 6783SOL     OW21247   0.224   6.476   6.702
 6783SOL    HW121248   0.252   6.396   6.649
 6783SOL    HW221249   0.161   6.532   6.648
 6784SOL     OW21250   1.167   5.016   0.579
 6784SOL    HW121251   1.158   5.108   0.616
 6784SOL    HW221252   1.194   4.953   0.653
 6785SOL     OW21253   5.366   4.620   1.844
 6785SOL    HW121254   5.401   4.527   1.833
 6785SOL    HW221255   5.267   4.617   1.861
 6786SOL     OW21256   6.662   1.922   5.240
 6786SOL    HW121257   6.724   1.968   5.176
 6786SOL    HW221258   6.697   1.933   5.333
 6787SOL     OW21259   3.877   1.825   1.177
 6787SOL    HW121260   3.910   1.799   1.268
 6787SOL    HW221261   3.791   1.874   1.186
 6788SOL     OW21262   1.106   4.209   1.245
 6788SOL    HW121263   1.033   4.141   1.257
 6788SOL    HW221264   1.073   4.282   1.185
 6789SOL     OW21265   5.343   3.555   2.471
 6789SOL    HW121266   5.347   3.618   2.393
 6789SOL    HW221267   5.435   3.523   2.493
 6790SOL     OW21268   0.312   5.593   0.867
 6790SOL    HW121269   0.346   5.553   0.952
 6790SOL    HW221270   0.212   5.588   0.864
 6791SOL     OW21271   2.684   6.486   3.518
 6791SOL    HW121272   2.767   6.438   3.546
 6791SOL    HW221273   2.638   6.524   3.599
 6792SOL     OW21274   3.360   6.026   6.666
 6792SOL    HW121275   3.417   6.020   6.748
 6792SOL    HW221276   3.275   5.976   6.681
 6793SOL     OW21277   2.188   4.375   6.449
 6793SOL    HW121278   2.266   4.437   6.441
 6793SOL    HW221279   2.192   4.307   6.375
 6794SOL     OW21280   4.643   2.489   4.460
 6794SOL    HW121281   4.696   2.544   4.525
 6794SOL    HW221282   4.695   2.478   4.376
 6795SOL     OW21283   0.795   1.078   2.182
 6795SOL    HW121284   0.745   0.994   2.160
 6795SOL    HW221285   0.731   1.146   2.217
 6796SOL     OW21286   6.837   2.674   2.413
 6796SOL    HW121287   6.936   2.693   2.416
 6796SOL    HW221288   6.815   2.600   2.476
 6797SOL     OW21289   1.889   3.956   1.232
 6797SOL    HW121290   1.939   4.041   1.217
 6797SOL    HW221291   1.795   3.967   1.200
 6798SOL     OW21292   4.518   1.158   1.708
 6798SOL    HW121293   4.433   1.196   1.669
 6798SOL    HW221294   4.517   1.058   1.699
 6799SOL     OW21295   5.946   6.747   2.912
 6799SOL    HW121296   5.848   6.762   2.904
 6799SOL    HW221297   5.978   6.787   2.998
 6800SOL     OW21298   6.450   2.786   2.614
 6800SOL    HW121299   6.453   2.687   2.622
 6800SOL    HW221300   6.530   2.826   2.660
 6801SOL     OW21301   1.679   5.090   4.888
 6801SOL    HW121302   1.619   5.038   4.828
 6801SOL    HW221303   1.626   5.163   4.932
 6802SOL     OW21304   2.883   4.312   1.561
 6802SOL    HW121305   2.788   4.335   1.541
 6802SOL    HW221306   2.910   4.356   1.647
 6803SOL     OW21307   5.959   5.076   6.946
 6803SOL    HW121308   5.963   4.988   6.993
 6803SOL    HW221309   6.052   5.106   6.922
 6804SOL     OW21310   3.155   5.254   1.908
 6804SOL    HW121311   3.189   5.339   1.947
 6804SOL    HW221312   3.116   5.197   1.980
 6805SOL     OW21313   0.834   4.708   3.746
 6805SOL    HW121314   0.908   4.710   3.679
 6805SOL    HW221315   0.787   4.619   3.741
 6806SOL     OW21316   5.703   3.508   2.339
 6806SOL    HW121317   5.627   3.503   2.274
 6806SOL    HW221318   5.790   3.513   2.290
 6807SOL     OW21319   3.198   3.259   2.756
 6807SOL    HW121320   3.187   3.167   2.793
 6807SOL    HW221321   3.218   3.253   2.658
 6808SOL     OW21322   3.937   6.527   3.331
 6808SOL    HW121323   4.025   6.558   3.295
 6808SOL    HW221324   3.863   6.568   3.278
 6809SOL     OW21325   5.344   2.447   0.582
 6809SOL    HW121326   5.258   2.428   0.534
 6809SOL    HW221327   5.415   2.469   0.515
 6810SOL     OW21328   2.655   6.962   4.665
 6810SOL    HW121329   2.689   0.032   4.654
 6810SOL    HW221330   2.713   6.900   4.612
 6811SOL     OW21331   6.569   1.657   1.064
 6811SOL    HW121332   6.490   1.640   1.124
 6811SOL    HW221333   6.653   1.632   1.111
 6812SOL     OW21334   3.413   4.415   5.378
 6812SOL    HW121335   3.453   4.480   5.443
 6812SOL    HW221336   3.315   4.406   5.397
 6813SOL     OW21337   0.288   3.624   1.824
 6813SOL    HW121338   0.322   3.705   1.873
 6813SOL    HW221339   0.201   3.595   1.864
 6814SOL     OW21340   4.704   2.139   1.796
 6814SOL    HW121341   4.646   2.197   1.853
 6814SOL    HW221342   4.788   2.118   1.846
 6815SOL     OW21343   0.903   5.824   0.245
 6815SOL    HW121344   0.963   5.841   0.323
 6815SOL    HW221345   0.808   5.814   0.277
 6816SOL     OW21346   6.240   6.516   4.296
 6816SOL    HW121347   6.163   6.554   4.245
 6816SOL    HW221348   6.206   6.453   4.365
 6817SOL     OW21349   5.377   0.867   2.115
 6817SOL    HW121350   5.421   0.793   2.166
 6817SOL    HW221351   5.432   0.950   2.124
 6818SOL     OW21352   0.173   7.000   5.380
 6818SOL    HW121353   0.231   6.928   5.418
 6818SOL    HW221354   0.120   0.019   5.454
 6819SOL     OW21355   5.468   4.076   0.900
 6819SOL    HW121356   5.448   4.079   0.998
 6819SOL    HW221357   5.457   3.982   0.867
 6820SOL     OW21358   2.487   3.937   1.602
 6820SOL    HW121359   2.403   3.988   1.622
 6820SOL    HW221360   2.510   3.946   1.506
 6821SOL     OW21361   3.187   3.082   5.936
 6821SOL    HW121362   3.104   3.126   5.970
 6821SOL    HW221363   3.178   2.983   5.944
 6822SOL     OW21364   6.484   4.059   5.221
 6822SOL    HW121365   6.394   4.083   5.257
 6822SOL    HW221366   6.492   4.088   5.126
 6823SOL     OW21367   6.626   3.263   5.660
 6823SOL    HW121368   6.536   3.259   5.704
 6823SOL    HW221369   6.672   3.175   5.672
 6824SOL     OW21370   0.760   0.533   3.862
 6824SOL    HW121371   0.699   0.612   3.869
 6824SOL    HW221372   0.792   0.507   3.953
 6825SOL     OW21373   4.593   4.305   1.246
 6825SOL    HW121374   4.599   4.222   1.301
 6825SOL    HW221375   4.509   4.354   1.268
 6826SOL     OW21376   5.963   1.083   3.184
 6826SOL    HW121377   5.876   1.051   3.146
 6826SOL    HW221378   5.949   1.116   3.277
 6827SOL     OW21379   4.879   5.706   5.528
 6827SOL    HW121380   4.864   5.679   5.433
 6827SOL    HW221381   4.936   5.788   5.531
 6828SOL     OW21382   2.613   2.467   2.547
 6828SOL    HW121383   2.685   2.446   2.481
 6828SOL    HW221384   2.552   2.537   2.509
 6829SOL     OW21385   5.395   6.387   4.406
 6829SOL    HW121386   5.494   6.386   4.397
 6829SOL    HW221387   5.361   6.293   4.410
 6830SOL     OW21388   4.447   6.316   2.328
 6830SOL    HW121389   4.448   6.412   2.299
 6830SOL    HW221390   4.364   6.298   2.380
 6831SOL     OW21391   1.882   0.917   6.848
 6831SOL    HW121392   1.885   1.012   6.881
 6831SOL    HW221393   1.965   0.898   6.795
 6832SOL     OW21394   2.979   3.464   0.098
 6832SOL    HW121395   2.964   3.396   0.027
 6832SOL    HW221396   2.932   3.549   0.073
 6833SOL     OW21397   4.664   5.137   6.635
 6833SOL    HW121398   4.665   5.037   6.634
 6833SOL    HW221399   4.674   5.171   6.541
 6834SOL     OW21400   5.699   5.593   5.292
 6834SOL    HW121401   5.716   5.539   5.374
 6834SOL    HW221402   5.615   5.561   5.247
 6835SOL     OW21403   3.735   6.832   3.444
 6835SOL    HW121404   3.658   6.859   3.500
 6835SOL    HW221405   3.813   6.893   3.462
 6836SOL     OW21406   0.588   4.685   0.046
 6836SOL    HW121407   0.536   4.608   0.009
 6836SOL    HW221408   0.524   4.756   0.076
 6837SOL     OW21409   6.463   1.902   1.677
 6837SOL    HW121410   6.379   1.956   1.670
 6837SOL    HW221411   6.453   1.818   1.623
 6838SOL     OW21412   2.509   4.229   6.111
 6838SOL    HW121413   2.572   4.306   6.121
 6838SOL    HW221414   2.494   4.185   6.200
 6839SOL     OW21415   5.702   2.616   5.417
 6839SOL    HW121416   5.684   2.553   5.492
 6839SOL    HW221417   5.646   2.590   5.338
 6840SOL     OW21418   3.340   6.767   4.677
 6840SOL    HW121419   3.360   6.820   4.595
 6840SOL    HW221420   3.318   6.673   4.651
 6841SOL     OW21421   4.180   6.449   0.602
 6841SOL    HW121422   4.180   6.377   0.671
 6841SOL    HW221423   4.268   6.496   0.602
 6842SOL     OW21424   1.290   3.190   3.664
 6842SOL    HW121425   1.358   3.224   3.599
 6842SOL    HW221426   1.222   3.261   3.682
 6843SOL     OW21427   4.944   2.979   1.816
 6843SOL    HW121428   4.884   2.965   1.895
 6843SOL    HW221429   4.894   3.030   1.745
 6844SOL     OW21430   3.220   6.819   5.193
 6844SOL    HW121431   3.305   6.857   5.230
 6844SOL    HW221432   3.242   6.739   5.136
 6845SOL     OW21433   3.826   3.852   0.119
 6845SOL    HW121434   3.893   3.778   0.126
 6845SOL    HW221435   3.738   3.821   0.154
 6846SOL     OW21436   4.071   3.278   3.698
 6846SOL    HW121437   4.051   3.224   3.779
 6846SOL    HW221438   4.100   3.370   3.725
 6847SOL     OW21439   5.442   2.512   2.602
 6847SOL    HW121440   5.368   2.568   2.638
 6847SOL    HW221441   5.504   2.568   2.548
 6848SOL     OW21442   0.714   5.952   5.081
 6848SOL    HW121443   0.666   5.873   5.119
 6848SOL    HW221444   0.746   5.930   4.989
 6849SOL     OW21445   3.531   0.579   5.316
 6849SOL    HW121446   3.587   0.597   5.397
 6849SOL    HW221447   3.465   0.507   5.336
 6850SOL     OW21448   6.639   3.693   1.735
 6850SOL    HW121449   6.599   3.604   1.760
 6850SOL    HW221450   6.728   3.703   1.781
 6851SOL     OW21451   1.378   5.870   6.382
 6851SOL    HW121452   1.328   5.943   6.335
 6851SOL    HW221453   1.368   5.882   6.481
 6852SOL     OW21454   6.100   4.984   2.276
 6852SOL    HW121455   6.167   4.955   2.207
 6852SOL    HW221456   6.132   4.958   2.367
 6853SOL     OW21457   6.125   4.432   4.737
 6853SOL    HW121458   6.203   4.443   4.799
 6853SOL    HW221459   6.080   4.345   4.757
 6854SOL     OW21460   6.540   1.476   6.871
 6854SOL    HW121461   6.580   1.459   6.961
 6854SOL    HW221462   6.441   1.486   6.880
 6855SOL     OW21463   3.250   6.833   2.248
 6855SOL    HW121464   3.193   6.843   2.165
 6855SOL    HW221465   3.345   6.853   2.225
 6856SOL     OW21466   0.862   5.983   5.794
 6856SOL    HW121467   0.783   6.042   5.806
 6856SOL    HW221468   0.845   5.894   5.836
 6857SOL     OW21469   4.577   0.997   6.927
 6857SOL    HW121470   4.505   1.067   6.926
 6857SOL    HW221471   4.654   1.028   6.871
 6858SOL     OW21472   3.550   2.983   6.853
 6858SOL    HW121473   3.487   2.942   6.787
 6858SOL    HW221474   3.497   3.029   6.925
 6859SOL     OW21475   3.892   1.130   0.188
 6859SOL    HW121476   3.837   1.166   0.113
 6859SOL    HW221477   3.915   1.034   0.170
 6860SOL     OW21478   4.927   3.566   0.071
 6860SOL    HW121479   4.886   3.581   7.005
 6860SOL    HW221480   4.856   3.567   0.141
 6861SOL     OW21481   5.776   3.695   0.778
 6861SOL    HW121482   5.773   3.780   0.726
 6861SOL    HW221483   5.783   3.617   0.716
 6862SOL     OW21484   2.597   5.155   4.316
 6862SOL    HW121485   2.641   5.225   4.261
 6862SOL    HW221486   2.515   5.192   4.359
 6863SOL     OW21487   1.085   3.351   3.767
 6863SOL    HW121488   1.126   3.436   3.799
 6863SOL    HW221489   1.081   3.285   3.842
 6864SOL     OW21490   3.886   5.516   6.337
 6864SOL    HW121491   3.957   5.475   6.394
 6864SOL    HW221492   3.848   5.596   6.383
 6865SOL     OW21493   0.122   2.988   4.442
 6865SOL    HW121494   0.215   2.954   4.460
 6865SOL    HW221495   0.128   3.072   4.389
 6866SOL     OW21496   0.940   3.444   2.160
 6866SOL    HW121497   1.039   3.440   2.148
 6866SOL    HW221498   0.918   3.512   2.230
 6867SOL     OW21499   1.904   5.304   3.246
 6867SOL    HW121500   1.859   5.389   3.274
 6867SOL    HW221501   1.934   5.312   3.151
 6868SOL     OW21502   1.923   5.277   4.861
 6868SOL    HW121503   1.881   5.205   4.915
 6868SOL    HW221504   1.858   5.352   4.848
 6869SOL     OW21505   0.275   3.323   5.178
 6869SOL    HW121506   0.233   3.238   5.210
 6869SOL    HW221507   0.363   3.336   5.223
 6870SOL     OW21508   6.069   3.585   2.684
 6870SOL    HW121509   6.135   3.512   2.703
 6870SOL    HW221510   5.984   3.546   2.651
 6871SOL     OW21511   4.939   5.932   1.630
 6871SOL    HW121512   5.030   5.935   1.672
 6871SOL    HW221513   4.874   5.980   1.688
 6872SOL     OW21514   2.974   3.966   0.667
 6872SOL    HW121515   3.074   3.963   0.670
 6872SOL    HW221516   2.944   4.036   0.603
 6873SOL     OW21517   5.775   4.640   4.592
 6873SOL    HW121518   5.756   4.565   4.655
 6873SOL    HW221519   5.863   4.682   4.616
 6874SOL     OW21520   0.768   1.801   5.872
 6874SOL    HW121521   0.781   1.733   5.944
 6874SOL    HW221522   0.738   1.754   5.788
 6875SOL     OW21523   4.209   0.783   4.644
 6875SOL    HW121524   4.278   0.729   4.598
 6875SOL    HW221525   4.118   0.751   4.618
 6876SOL     OW21526   3.393   5.744   4.654
 6876SOL    HW121527   3.476   5.741   4.598
 6876SOL    HW221528   3.398   5.822   4.717
 6877SOL     OW21529   1.538   3.863   6.084
 6877SOL    HW121530   1.583   3.842   6.171
 6877SOL    HW221531   1.583   3.812   6.011
 6878SOL     OW21532   1.014   1.204   4.237
 6878SOL    HW121533   1.047   1.292   4.273
 6878SOL    HW221534   1.074   1.174   4.163
 6879SOL     OW21535   6.795   1.188   5.465
 6879SOL    HW121536   6.780   1.222   5.558
 6879SOL    HW221537   6.749   1.248   5.400
 6880SOL     OW21538   1.644   4.179   4.671
 6880SOL    HW121539   1.554   4.149   4.705
 6880SOL    HW221540   1.634   4.267   4.624
 6881SOL     OW21541   5.502   5.865   1.731
 6881SOL    HW121542   5.485   5.881   1.828
 6881SOL    HW221543   5.543   5.774   1.719
 6882SOL     OW21544   2.418   5.926   5.499
 6882SOL    HW121545   2.383   6.007   5.546
 6882SOL    HW221546   2.518   5.930   5.496
 6883SOL     OW21547   3.288   6.209   2.058
 6883SOL    HW121548   3.229   6.244   2.131
 6883SOL    HW221549   3.293   6.277   1.985
 6884SOL     OW21550   1.933   5.104   2.530
 6884SOL    HW121551   1.869   5.171   2.493
 6884SOL    HW221552   2.026   5.125   2.498
 6885SOL     OW21553   3.985   4.861   5.103
 6885SOL    HW121554   4.008   4.814   5.188
 6885SOL    HW221555   4.012   4.804   5.025
 6886SOL     OW21556   5.389   1.088   1.610
 6886SOL    HW121557   5.346   1.093   1.700
 6886SOL    HW221558   5.321   1.061   1.542
 6887SOL     OW21559   6.074   0.776   4.876
 6887SOL    HW121560   6.110   0.869   4.884
 6887SOL    HW221561   5.994   0.776   4.816
 6888SOL     OW21562   5.921   0.235   4.373
 6888SOL    HW121563   5.897   0.331   4.390
 6888SOL    HW221564   5.856   0.176   4.420
 6889SOL     OW21565   1.710   4.897   6.278
 6889SOL    HW121566   1.777   4.823   6.275
 6889SOL    HW221567   1.754   4.983   6.254
 6890SOL     OW21568   2.092   0.600   1.186
 6890SOL    HW121569   2.011   0.618   1.130
 6890SOL    HW221570   2.130   0.687   1.219
 6891SOL     OW21571   4.089   5.490   5.561
 6891SOL    HW121572   4.050   5.520   5.474
 6891SOL    HW221573   4.187   5.477   5.552
 6892SOL     OW21574   3.067   1.529   4.871
 6892SOL    HW121575   3.040   1.459   4.804
 6892SOL    HW221576   3.152   1.501   4.916
 6893SOL     OW21577   5.638   0.844   1.268
 6893SOL    HW121578   5.692   0.761   1.279
 6893SOL    HW221579   5.553   0.836   1.321
 6894SOL     OW21580   5.910   4.545   6.520
 6894SOL    HW121581   5.900   4.558   6.619
 6894SOL    HW221582   5.982   4.477   6.503
 6895SOL     OW21583   4.113   5.445   6.092
 6895SOL    HW121584   4.064   5.358   6.095
 6895SOL    HW221585   4.114   5.479   5.998
 6896SOL     OW21586   4.768   1.433   2.916
 6896SOL    HW121587   4.670   1.420   2.900
 6896SOL    HW221588   4.805   1.352   2.960
 6897SOL     OW21589   3.773   0.519   0.850
 6897SOL    HW121590   3.722   0.437   0.879
 6897SOL    HW221591   3.867   0.513   0.884
 6898SOL     OW21592   3.882   1.092   2.804
 6898SOL    HW121593   3.882   1.064   2.708
 6898SOL    HW221594   3.936   1.176   2.814
 6899SOL     OW21595   5.515   6.232   6.371
 6899SOL    HW121596   5.516   6.291   6.290
 6899SOL    HW221597   5.598   6.177   6.374
 6900SOL     OW21598   4.709   1.073   6.710
 6900SOL    HW121599   4.614   1.071   6.678
 6900SOL    HW221600   4.770   1.086   6.632
 6901SOL     OW21601   1.735   0.759   0.038
 6901SOL    HW121602   1.784   0.825   7.005
 6901SOL    HW221603   1.799   0.716   0.102
 6902SOL     OW21604   6.474   5.642   2.492
 6902SOL    HW121605   6.502   5.694   2.573
 6902SOL    HW221606   6.537   5.663   2.417
 6903SOL     OW21607   4.436   4.538   0.290
 6903SOL    HW121608   4.362   4.483   0.251
 6903SOL    HW221609   4.486   4.483   0.358
 6904SOL     OW21610   0.716   0.743   2.877
 6904SOL    HW121611   0.790   0.770   2.815
 6904SOL    HW221612   0.747   0.666   2.933
 6905SOL     OW21613   3.801   5.818   1.004
 6905SOL    HW121614   3.786   5.787   1.098
 6905SOL    HW221615   3.823   5.915   1.004
 6906SOL     OW21616   6.216   6.482   3.414
 6906SOL    HW121617   6.281   6.553   3.388
 6906SOL    HW221618   6.231   6.401   3.357
 6907SOL     OW21619   3.262   0.542   1.206
 6907SOL    HW121620   3.256   0.477   1.130
 6907SOL    HW221621   3.335   0.513   1.268
 6908SOL     OW21622   5.756   6.852   7.020
 6908SOL    HW121623   5.694   6.927   6.997
 6908SOL    HW221624   5.704   6.775   0.034
 6909SOL     OW21625   2.338   2.391   6.923
 6909SOL    HW121626   2.363   2.309   6.975
 6909SOL    HW221627   2.294   2.456   6.983
 6910SOL     OW21628   5.268   1.155   1.268
 6910SOL    HW121629   5.209   1.110   1.334
 6910SOL    HW221630   5.231   1.245   1.245
 6911SOL     OW21631   4.545   0.780   4.948
 6911SOL    HW121632   4.487   0.754   5.025
 6911SOL    HW221633   4.639   0.753   4.967
 6912SOL     OW21634   4.459   4.503   2.155
 6912SOL    HW121635   4.359   4.506   2.162
 6912SOL    HW221636   4.487   4.421   2.106
 6913SOL     OW21637   4.392   5.524   5.519
 6913SOL    HW121638   4.453   5.530   5.598
 6913SOL    HW221639   4.438   5.478   5.444
 6914SOL     OW21640   6.262   5.137   6.894
 6914SOL    HW121641   6.301   5.133   6.987
 6914SOL    HW221642   6.331   5.173   6.831
 6915SOL     OW21643   0.336   6.060   0.929
 6915SOL    HW121644   0.389   6.132   0.974
 6915SOL    HW221645   0.332   5.980   0.989
 6916SOL     OW21646   6.186   0.650   5.643
 6916SOL    HW121647   6.181   0.729   5.704
 6916SOL    HW221648   6.263   0.661   5.580
 6917SOL     OW21649   4.976   0.316   6.434
 6917SOL    HW121650   4.933   0.325   6.524
 6917SOL    HW221651   4.918   0.262   6.373
 6918SOL     OW21652   2.266   2.946   3.867
 6918SOL    HW121653   2.222   2.856   3.867
 6918SOL    HW221654   2.245   2.993   3.781
 6919SOL     OW21655   1.146   6.307   3.409
 6919SOL    HW121656   1.065   6.249   3.413
 6919SOL    HW221657   1.226   6.256   3.438
 6920SOL     OW21658   5.708   5.804   4.544
 6920SOL    HW121659   5.661   5.890   4.520
 6920SOL    HW221660   5.650   5.751   4.605
 6921SOL     OW21661   1.322   5.878   3.625
 6921SOL    HW121662   1.273   5.883   3.712
 6921SOL    HW221663   1.259   5.852   3.552
 6922SOL     OW21664   1.891   6.827   0.625
 6922SOL    HW121665   1.811   6.885   0.636
 6922SOL    HW221666   1.879   6.743   0.677
 6923SOL     OW21667   5.081   6.025   3.980
 6923SOL    HW121668   4.997   5.979   3.953
 6923SOL    HW221669   5.108   6.090   3.909
 6924SOL     OW21670   6.353   5.770   2.218
 6924SOL    HW121671   6.361   5.681   2.261
 6924SOL    HW221672   6.440   5.794   2.173
 6925SOL     OW21673   5.530   5.426   2.519
 6925SOL    HW121674   5.513   5.471   2.606
 6925SOL    HW221675   5.616   5.460   2.480
 6926SOL     OW21676   2.941   3.967   5.352
 6926SOL    HW121677   2.908   4.059   5.373
 6926SOL    HW221678   3.034   3.973   5.314
 6927SOL     OW21679   4.274   3.444   1.105
 6927SOL    HW121680   4.298   3.541   1.115
 6927SOL    HW221681   4.303   3.394   1.186
 6928SOL     OW21682   0.157   0.586   6.649
 6928SOL    HW121683   0.077   0.622   6.602
 6928SOL    HW221684   0.240   0.625   6.608
 6929SOL     OW21685   2.858   5.106   1.262
 6929SOL    HW121686   2.829   5.034   1.325
 6929SOL    HW221687   2.955   5.126   1.278
 6930SOL     OW21688   0.602   0.327   3.148
 6930SOL    HW121689   0.658   0.267   3.204
 6930SOL    HW221690   0.510   0.332   3.187
 6931SOL     OW21691   2.120   0.013   6.997
 6931SOL    HW121692   2.210   7.019   6.956
 6931SOL    HW221693   2.113   0.109   7.022
 6932SOL     OW21694   2.237   2.438   0.657
 6932SOL    HW121695   2.326   2.445   0.702
 6932SOL    HW221696   2.224   2.517   0.597
 6933SOL     OW21697   2.414   5.610   5.211
 6933SOL    HW121698   2.458   5.571   5.292
 6933SOL    HW221699   2.320   5.634   5.233
 6934SOL     OW21700   5.466   5.077   6.454
 6934SOL    HW121701   5.550   5.084   6.507
 6934SOL    HW221702   5.449   5.165   6.408
 6935SOL     OW21703   4.558   5.688   3.123
 6935SOL    HW121704   4.520   5.595   3.122
 6935SOL    HW221705   4.645   5.688   3.172
 6936SOL     OW21706   0.719   4.607   0.538
 6936SOL    HW121707   0.668   4.662   0.604
 6936SOL    HW221708   0.697   4.510   0.553
 6937SOL     OW21709   4.450   6.467   5.665
 6937SOL    HW121710   4.529   6.428   5.617
 6937SOL    HW221711   4.477   6.551   5.711
 6938SOL     OW21712   5.580   2.387   4.977
 6938SOL    HW121713   5.602   2.441   4.896
 6938SOL    HW221714   5.481   2.376   4.985
 6939SOL     OW21715   6.894   4.809   2.185
 6939SOL    HW121716   6.799   4.782   2.197
 6939SOL    HW221717   6.916   4.808   2.088
 6940SOL     OW21718   4.224   0.392   4.900
 6940SOL    HW121719   4.283   0.375   4.821
 6940SOL    HW221720   4.232   0.316   4.965
 6941SOL     OW21721   4.139   3.405   4.720
 6941SOL    HW121722   4.125   3.307   4.711
 6941SOL    HW221723   4.157   3.444   4.630
 6942SOL     OW21724   6.220   1.759   0.004
 6942SOL    HW121725   6.246   1.669   6.992
 6942SOL    HW221726   6.142   1.749   0.066
 6943SOL     OW21727   5.741   5.749   6.805
 6943SOL    HW121728   5.788   5.674   6.852
 6943SOL    HW221729   5.664   5.713   6.752
 6944SOL     OW21730   1.115   6.454   0.512
 6944SOL    HW121731   1.040   6.419   0.457
 6944SOL    HW221732   1.080   6.480   0.602
 6945SOL     OW21733   4.863   2.140   5.878
 6945SOL    HW121734   4.817   2.181   5.957
 6945SOL    HW221735   4.903   2.052   5.904
 6946SOL     OW21736   6.112   3.679   3.564
 6946SOL    HW121737   6.143   3.646   3.653
 6946SOL    HW221738   6.056   3.761   3.577
 6947SOL     OW21739   3.890   0.126   1.598
 6947SOL    HW121740   3.796   0.132   1.563
 6947SOL    HW221741   3.913   0.031   1.618
 6948SOL     OW21742   3.855   2.453   5.509
 6948SOL    HW121743   3.896   2.544   5.513
 6948SOL    HW221744   3.926   2.385   5.491
 6949SOL     OW21745   4.784   1.045   2.726
 6949SOL    HW121746   4.708   1.104   2.700
 6949SOL    HW221747   4.870   1.088   2.699
 6950SOL     OW21748   3.149   1.469   3.674
 6950SOL    HW121749   3.243   1.435   3.668
 6950SOL    HW221750   3.136   1.514   3.763
 6951SOL     OW21751   4.847   4.858   5.384
 6951SOL    HW121752   4.886   4.893   5.299
 6951SOL    HW221753   4.844   4.758   5.381
 6952SOL     OW21754   0.002   4.346   5.041
 6952SOL    HW121755   0.077   4.319   5.101
 6952SOL    HW221756   0.035   4.351   4.946
 6953SOL     OW21757   5.290   2.608   5.184
 6953SOL    HW121758   5.258   2.565   5.268
 6953SOL    HW221759   5.226   2.679   5.156
 6954SOL     OW21760   0.365   4.434   1.794
 6954SOL    HW121761   0.462   4.430   1.817
 6954SOL    HW221762   0.332   4.527   1.806
 6955SOL     OW21763   6.780   0.206   2.920
 6955SOL    HW121764   6.734   0.189   2.833
 6955SOL    HW221765   6.878   0.215   2.904
 6956SOL     OW21766   2.480   4.255   1.240
 6956SOL    HW121767   2.399   4.218   1.195
 6956SOL    HW221768   2.531   4.312   1.176
 6957SOL     OW21769   0.945   4.340   6.641
 6957SOL    HW121770   0.884   4.263   6.625
 6957SOL    HW221771   1.040   4.310   6.633
 6958SOL     OW21772   2.490   3.519   5.979
 6958SOL    HW121773   2.397   3.497   5.949
 6958SOL    HW221774   2.498   3.618   5.988
 6959SOL     OW21775   3.712   1.176   4.088
 6959SOL    HW121776   3.731   1.250   4.023
 6959SOL    HW221777   3.620   1.139   4.070
 6960SOL     OW21778   0.487   5.215   0.028
 6960SOL    HW121779   0.555   5.144   0.047
 6960SOL    HW221780   0.495   5.246   6.957
 6961SOL     OW21781   6.343   1.593   3.116
 6961SOL    HW121782   6.418   1.531   3.138
 6961SOL    HW221783   6.275   1.544   3.061
 6962SOL     OW21784   3.914   3.449   1.213
 6962SOL    HW121785   3.890   3.478   1.121
 6962SOL    HW221786   3.938   3.352   1.212
 6963SOL     OW21787   6.186   6.254   2.597
 6963SOL    HW121788   6.151   6.253   2.503
 6963SOL    HW221789   6.135   6.321   2.651
 6964SOL     OW21790   3.202   5.881   5.377
 6964SOL    HW121791   3.236   5.873   5.283
 6964SOL    HW221792   3.274   5.918   5.436
 6965SOL     OW21793   6.226   1.695   5.423
 6965SOL    HW121794   6.163   1.715   5.499
 6965SOL    HW221795   6.315   1.670   5.460
 6966SOL     OW21796   5.095   2.350   4.078
 6966SOL    HW121797   5.143   2.362   4.165
 6966SOL    HW221798   5.098   2.435   4.026
 6967SOL     OW21799   2.515   2.492   5.950
 6967SOL    HW121800   2.417   2.491   5.934
 6967SOL    HW221801   2.560   2.430   5.885
 6968SOL     OW21802   4.331   0.134   4.099
 6968SOL    HW121803   4.367   0.204   4.038
 6968SOL    HW221804   4.237   0.110   4.071
 6969SOL     OW21805   3.037   2.792   0.645
 6969SOL    HW121806   3.037   2.722   0.716
 6969SOL    HW221807   3.106   2.861   0.667
 6970SOL     OW21808   4.384   4.226   0.893
 6970SOL    HW121809   4.483   4.242   0.891
 6970SOL    HW221810   4.339   4.291   0.831
 6971SOL     OW21811   6.020   0.639   2.125
 6971SOL    HW121812   5.970   0.620   2.041
 6971SOL    HW221813   6.064   0.556   2.157
 6972SOL     OW21814   5.454   5.052   4.541
 6972SOL    HW121815   5.366   5.007   4.550
 6972SOL    HW221816   5.488   5.039   4.448
 6973SOL     OW21817   1.657   4.149   3.125
 6973SOL    HW121818   1.728   4.127   3.193
 6973SOL    HW221819   1.695   4.210   3.056
 6974SOL     OW21820   3.512   3.961   5.190
 6974SOL    HW121821   3.474   3.914   5.270
 6974SOL    HW221822   3.520   4.059   5.210
 6975SOL     OW21823   3.258   0.023   6.591
 6975SOL    HW121824   3.181   6.985   6.608
 6975SOL    HW221825   3.226   0.102   6.538
 6976SOL     OW21826   0.873   6.430   0.899
 6976SOL    HW121827   0.775   6.438   0.918
 6976SOL    HW221828   0.911   6.353   0.950
 6977SOL     OW21829   4.851   2.763   2.103
 6977SOL    HW121830   4.811   2.854   2.095
 6977SOL    HW221831   4.845   2.732   2.198
 6978SOL     OW21832   4.363   1.727   3.078
 6978SOL    HW121833   4.399   1.757   2.989
 6978SOL    HW221834   4.389   1.794   3.148
 6979SOL     OW21835   0.723   4.058   3.566
 6979SOL    HW121836   0.801   4.022   3.514
 6979SOL    HW221837   0.651   4.085   3.503
 6980SOL     OW21838   4.332   1.221   4.572
 6980SOL    HW121839   4.370   1.289   4.635
 6980SOL    HW221840   4.285   1.150   4.625
 6981SOL     OW21841   2.776   3.937   0.222
 6981SOL    HW121842   2.832   3.861   0.254
 6981SOL    HW221843   2.685   3.932   0.262
 6982SOL     OW21844   0.654   6.942   5.416
 6982SOL    HW121845   0.590   6.970   5.344
 6982SOL    HW221846   0.661   6.842   5.416
 6983SOL     OW21847   6.701   0.833   2.619
 6983SOL    HW121848   6.737   0.822   2.711
 6983SOL    HW221849   6.693   0.931   2.598
 6984SOL     OW21850   1.593   1.473   5.656
 6984SOL    HW121851   1.633   1.385   5.630
 6984SOL    HW221852   1.665   1.536   5.684
 6985SOL     OW21853   5.128   0.166   3.968
 6985SOL    HW121854   5.201   0.192   3.906
 6985SOL    HW221855   5.059   0.114   3.919
 6986SOL     OW21856   1.417   6.828   4.818
 6986SOL    HW121857   1.395   6.799   4.725
 6986SOL    HW221858   1.421   6.928   4.822
 6987SOL     OW21859   6.764   3.556   6.349
 6987SOL    HW121860   6.772   3.463   6.313
 6987SOL    HW221861   6.852   3.585   6.386
 6988SOL     OW21862   5.315   1.604   6.027
 6988SOL    HW121863   5.274   1.663   5.957
 6988SOL    HW221864   5.304   1.508   6.000
 6989SOL     OW21865   2.159   3.049   3.626
 6989SOL    HW121866   2.061   3.033   3.614
 6989SOL    HW221867   2.188   3.122   3.564
 6990SOL     OW21868   4.106   3.061   1.017
 6990SOL    HW121869   4.126   3.151   0.977
 6990SOL    HW221870   4.088   3.071   1.115
 6991SOL     OW21871   4.119   4.475   5.489
 6991SOL    HW121872   4.060   4.458   5.567
 6991SOL    HW221873   4.115   4.397   5.427
 6992SOL     OW21874   6.300   6.672   4.548
 6992SOL    HW121875   6.200   6.669   4.551
 6992SOL    HW221876   6.329   6.733   4.474
 6993SOL     OW21877   0.320   0.041   3.587
 6993SOL    HW121878   0.226   0.051   3.620
 6993SOL    HW221879   0.368   6.999   3.644
 6994SOL     OW21880   1.638   2.714   0.282
 6994SOL    HW121881   1.540   2.716   0.263
 6994SOL    HW221882   1.677   2.626   0.254
 6995SOL     OW21883   1.070   5.315   3.999
 6995SOL    HW121884   1.084   5.409   4.030
 6995SOL    HW221885   0.983   5.281   4.034
 6996SOL     OW21886   1.896   0.081   6.377
 6996SOL    HW121887   1.797   0.070   6.365
 6996SOL    HW221888   1.918   0.178   6.383
 6997SOL     OW21889   4.767   5.682   4.155
 6997SOL    HW121890   4.861   5.651   4.137
 6997SOL    HW221891   4.730   5.725   4.073
 6998SOL     OW21892   2.824   1.799   3.651
 6998SOL    HW121893   2.822   1.736   3.574
 6998SOL    HW221894   2.738   1.792   3.702
 6999SOL     OW21895   5.450   2.023   7.016
 6999SOL    HW121896   5.451   1.994   0.088
 6999SOL    HW221897   5.374   2.086   7.001
 7000SOL     OW21898   6.549   0.284   1.381
 7000SOL    HW121899   6.462   0.293   1.428
 7000SOL    HW221900   6.561   0.359   1.316
 7001SOL     OW21901   2.610   1.727   6.209
 7001SOL    HW121902   2.627   1.719   6.308
 7001SOL    HW221903   2.697   1.742   6.162
 7002SOL     OW21904   2.015   4.707   2.166
 7002SOL    HW121905   2.049   4.613   2.168
 7002SOL    HW221906   2.073   4.763   2.107
 7003SOL     OW21907   1.507   5.997   5.727
 7003SOL    HW121908   1.450   6.078   5.711
 7003SOL    HW221909   1.463   5.939   5.796
 7004SOL     OW21910   1.649   3.935   6.770
 7004SOL    HW121911   1.614   3.927   6.677
 7004SOL    HW221912   1.585   3.894   6.834
 7005SOL     OW21913   6.547   6.891   6.098
 7005SOL    HW121914   6.556   6.793   6.116
 7005SOL    HW221915   6.630   6.924   6.052
 7006SOL     OW21916   4.672   4.766   3.705
 7006SOL    HW121917   4.596   4.705   3.725
 7006SOL    HW221918   4.639   4.843   3.651
 7007SOL     OW21919   4.836   5.034   2.928
 7007SOL    HW121920   4.831   5.132   2.913
 7007SOL    HW221921   4.743   4.997   2.936
 7008SOL     OW21922   1.007   5.105   4.331
 7008SOL    HW121923   0.966   5.019   4.302
 7008SOL    HW221924   1.104   5.106   4.306
 7009SOL     OW21925   0.311   4.045   2.381
 7009SOL    HW121926   0.326   4.091   2.294
 7009SOL    HW221927   0.229   3.988   2.375
 7010SOL     OW21928   5.095   4.546   6.553
 7010SOL    HW121929   4.997   4.539   6.571
 7010SOL    HW221930   5.121   4.482   6.481
 7011SOL     OW21931   1.213   0.997   5.380
 7011SOL    HW121932   1.300   0.954   5.358
 7011SOL    HW221933   1.138   0.941   5.342
 7012SOL     OW21934   1.210   1.374   1.389
 7012SOL    HW121935   1.274   1.302   1.414
 7012SOL    HW221936   1.230   1.406   1.297
 7013SOL     OW21937   6.750   1.981   1.687
 7013SOL    HW121938   6.652   1.962   1.696
 7013SOL    HW221939   6.788   2.003   1.777
 7014SOL     OW21940   2.268   5.146   0.451
 7014SOL    HW121941   2.265   5.065   0.510
 7014SOL    HW221942   2.362   5.181   0.448
 7015SOL     OW21943   4.875   2.017   2.384
 7015SOL    HW121944   4.876   2.117   2.380
 7015SOL    HW221945   4.919   1.979   2.302
 7016SOL     OW21946   4.237   4.485   1.493
 7016SOL    HW121947   4.251   4.430   1.575
 7016SOL    HW221948   4.157   4.451   1.443
 7017SOL     OW21949   4.923   1.789   4.852
 7017SOL    HW121950   4.922   1.860   4.781
 7017SOL    HW221951   4.986   1.716   4.825
 7018SOL     OW21952   0.842   3.432   3.090
 7018SOL    HW121953   0.750   3.393   3.085
 7018SOL    HW221954   0.840   3.515   3.146
 7019SOL     OW21955   1.111   5.599   1.177
 7019SOL    HW121956   1.026   5.639   1.210
 7019SOL    HW221957   1.184   5.668   1.183
 7020SOL     OW21958   0.046   6.630   6.563
 7020SOL    HW121959   0.084   6.624   6.471
 7020SOL    HW221960   6.975   6.661   6.559
 7021SOL     OW21961   4.037   0.041   6.089
 7021SOL    HW121962   4.081   0.122   6.053
 7021SOL    HW221963   4.103   6.989   6.095
 7022SOL     OW21964   4.303   5.437   6.280
 7022SOL    HW121965   4.228   5.456   6.216
 7022SOL    HW221966   4.269   5.379   6.354
 7023SOL     OW21967   5.355   4.160   2.290
 7023SOL    HW121968   5.321   4.245   2.251
 7023SOL    HW221969   5.278   4.102   2.315
 7024SOL     OW21970   6.194   6.093   1.284
 7024SOL    HW121971   6.277   6.044   1.261
 7024SOL    HW221972   6.180   6.167   1.218
 7025SOL     OW21973   2.443   0.670   7.007
 7025SOL    HW121974   2.372   0.739   6.993
 7025SOL    HW221975   2.404   0.579   6.994
 7026SOL     OW21976   3.768   1.526   1.500
 7026SOL    HW121977   3.837   1.476   1.552
 7026SOL    HW221978   3.677   1.495   1.527
 7027SOL     OW21979   5.297   5.596   3.878
 7027SOL    HW121980   5.387   5.557   3.856
 7027SOL    HW221981   5.253   5.540   3.949
 7028SOL     OW21982   3.086   0.321   4.587
 7028SOL    HW121983   3.164   0.271   4.550
 7028SOL    HW221984   3.042   0.372   4.513
 7029SOL     OW21985   4.791   1.560   4.946
 7029SOL    HW121986   4.832   1.648   4.924
 7029SOL    HW221987   4.780   1.506   4.862
 7030SOL     OW21988   1.957   3.104   4.059
 7030SOL    HW121989   1.938   3.181   3.998
 7030SOL    HW221990   2.045   3.118   4.104
 7031SOL     OW21991   1.540   1.423   4.438
 7031SOL    HW121992   1.449   1.448   4.473
 7031SOL    HW221993   1.531   1.379   4.349
 7032SOL     OW21994   5.840   2.230   3.803
 7032SOL    HW121995   5.746   2.194   3.805
 7032SOL    HW221996   5.872   2.234   3.708
 7033SOL     OW21997   0.420   0.253   4.797
 7033SOL    HW121998   0.453   0.253   4.892
 7033SOL    HW221999   0.476   0.189   4.744
 7034SOL     OW22000   0.156   5.302   3.158
 7034SOL    HW122001   0.144   5.285   3.256
 7034SOL    HW222002   0.110   5.230   3.106
 7035SOL     OW22003   6.644   4.836   2.475
 7035SOL    HW122004   6.579   4.784   2.529
 7035SOL    HW222005   6.725   4.856   2.531
 7036SOL     OW22006   6.505   4.632   1.038
 7036SOL    HW122007   6.566   4.647   1.116
 7036SOL    HW222008   6.550   4.571   0.972
 7037SOL     OW22009   1.309   0.589   6.565
 7037SOL    HW122010   1.308   0.553   6.658
 7037SOL    HW222011   1.216   0.611   6.536
 7038SOL     OW22012   2.163   3.183   4.243
 7038SOL    HW122013   2.133   3.175   4.338
 7038SOL    HW222014   2.209   3.099   4.215
 7039SOL     OW22015   3.605   2.544   6.886
 7039SOL    HW122016   3.539   2.581   6.952
 7039SOL    HW222017   3.653   2.619   6.842
 7040SOL     OW22018   5.197   2.885   6.748
 7040SOL    HW122019   5.277   2.874   6.807
 7040SOL    HW222020   5.196   2.812   6.680
 7041SOL     OW22021   2.030   1.351   3.637
 7041SOL    HW122022   1.955   1.380   3.579
 7041SOL    HW222023   2.044   1.252   3.627
 7042SOL     OW22024   1.372   0.781   5.978
 7042SOL    HW122025   1.279   0.743   5.975
 7042SOL    HW222026   1.370   0.874   5.943
 7043SOL     OW22027   1.760   1.978   2.322
 7043SOL    HW122028   1.820   2.054   2.299
 7043SOL    HW222029   1.669   2.013   2.346
 7044SOL     OW22030   6.370   6.338   1.893
 7044SOL    HW122031   6.288   6.307   1.942
 7044SOL    HW222032   6.345   6.360   1.798
 7045SOL     OW22033   6.516   4.796   0.004
 7045SOL    HW122034   6.422   4.776   0.032
 7045SOL    HW222035   6.537   4.892   0.025
 7046SOL     OW22036   3.109   1.259   4.103
 7046SOL    HW122037   3.190   1.263   4.161
 7046SOL    HW222038   3.120   1.187   4.035
 7047SOL     OW22039   1.469   0.275   2.654
 7047SOL    HW122040   1.515   0.320   2.578
 7047SOL    HW222041   1.383   0.321   2.673
 7048SOL     OW22042   6.707   5.440   0.313
 7048SOL    HW122043   6.633   5.502   0.338
 7048SOL    HW222044   6.707   5.427   0.213
 7049SOL     OW22045   2.026   1.058   6.502
 7049SOL    HW122046   2.009   1.071   6.404
 7049SOL    HW222047   2.073   1.138   6.538
 7050SOL     OW22048   4.065   3.706   4.714
 7050SOL    HW122049   4.137   3.698   4.784
 7050SOL    HW222050   3.987   3.754   4.753
 7051SOL     OW22051   6.650   6.541   3.294
 7051SOL    HW122052   6.605   6.547   3.205
 7051SOL    HW222053   6.593   6.488   3.357
 7052SOL     OW22054   0.013   0.992   4.850
 7052SOL    HW122055   0.013   0.905   4.800
 7052SOL    HW222056   6.954   0.998   4.906
 7053SOL     OW22057   6.697   4.701   6.168
 7053SOL    HW122058   6.770   4.727   6.105
 7053SOL    HW222059   6.721   4.731   6.260
 7054SOL     OW22060   6.513   1.666   1.463
 7054SOL    HW122061   6.496   1.584   1.408
 7054SOL    HW222062   6.610   1.686   1.462
 7055SOL     OW22063   4.714   1.359   4.319
 7055SOL    HW122064   4.619   1.389   4.331
 7055SOL    HW222065   4.716   1.262   4.297
 7056SOL     OW22066   4.289   5.227   3.974
 7056SOL    HW122067   4.194   5.251   3.995
 7056SOL    HW222068   4.327   5.294   3.910
 7057SOL     OW22069   6.219   5.778   2.578
 7057SOL    HW122070   6.263   5.698   2.538
 7057SOL    HW222071   6.272   5.860   2.557
 7058SOL     OW22072   6.989   4.523   4.601
 7058SOL    HW122073   7.012   4.550   4.695
 7058SOL    HW222074   6.932   4.441   4.603
 7059SOL     OW22075   2.054   0.994   2.480
 7059SOL    HW122076   2.087   0.921   2.541
 7059SOL    HW222077   2.073   1.083   2.521
 7060SOL     OW22078   3.179   6.648   0.974
 7060SOL    HW122079   3.155   6.735   1.017
 7060SOL    HW222080   3.167   6.573   1.040
 7061SOL     OW22081   0.329   1.063   2.753
 7061SOL    HW122082   0.366   1.149   2.717
 7061SOL    HW222083   0.376   1.041   2.839
 7062SOL     OW22084   0.033   1.105   5.448
 7062SOL    HW122085   6.958   1.109   5.434
 7062SOL    HW222086   0.081   1.138   5.366
 7063SOL     OW22087   2.323   6.890   2.050
 7063SOL    HW122088   2.402   6.934   2.094
 7063SOL    HW222089   2.284   6.823   2.113
 7064SOL     OW22090   4.083   2.753   0.496
 7064SOL    HW122091   3.993   2.795   0.503
 7064SOL    HW222092   4.077   2.656   0.517
 7065SOL     OW22093   3.478   3.212   2.174
 7065SOL    HW122094   3.575   3.186   2.176
 7065SOL    HW222095   3.422   3.130   2.158
 7066SOL     OW22096   2.519   5.354   1.143
 7066SOL    HW122097   2.520   5.405   1.057
 7066SOL    HW222098   2.457   5.276   1.134
 7067SOL     OW22099   0.480   3.866   4.327
 7067SOL    HW122100   0.429   3.906   4.250
 7067SOL    HW222101   0.531   3.786   4.295
 7068SOL     OW22102   1.011   0.073   2.948
 7068SOL    HW122103   1.026   0.028   2.860
 7068SOL    HW222104   0.923   0.046   2.986
 7069SOL     OW22105   1.004   4.403   5.266
 7069SOL    HW122106   0.947   4.433   5.190
 7069SOL    HW222107   1.026   4.481   5.324
 7070SOL     OW22108   5.407   5.344   3.521
 7070SOL    HW122109   5.481   5.354   3.588
 7070SOL    HW222110   5.425   5.404   3.443
 7071SOL     OW22111   1.676   0.059   5.181
 7071SOL    HW122112   1.653   0.067   5.084
 7071SOL    HW222113   1.696   6.987   5.203
 7072SOL     OW22114   0.678   6.842   6.954
 7072SOL    HW122115   0.649   6.772   6.890
 7072SOL    HW222116   0.707   6.799   0.016
 7073SOL     OW22117   1.591   1.788   6.326
 7073SOL    HW122118   1.628   1.819   6.238
 7073SOL    HW222119   1.564   1.692   6.319
 7074SOL     OW22120   3.071   1.637   0.115
 7074SOL    HW122121   3.004   1.568   0.088
 7074SOL    HW222122   3.142   1.644   0.045
 7075SOL     OW22123   0.802   5.554   2.120
 7075SOL    HW122124   0.832   5.564   2.025
 7075SOL    HW222125   0.849   5.476   2.162
 7076SOL     OW22126   3.600   1.646   6.400
 7076SOL    HW122127   3.533   1.713   6.368
 7076SOL    HW222128   3.625   1.585   6.325
 7077SOL     OW22129   1.626   4.790   6.530
 7077SOL    HW122130   1.632   4.705   6.476
 7077SOL    HW222131   1.654   4.867   6.473
 7078SOL     OW22132   6.507   0.452   2.462
 7078SOL    HW122133   6.473   0.473   2.371
 7078SOL    HW222134   6.545   0.534   2.504
 7079SOL     OW22135   5.475   6.025   5.524
 7079SOL    HW122136   5.550   6.047   5.462
 7079SOL    HW222137   5.511   5.995   5.612
 7080SOL     OW22138   5.977   0.127   4.097
 7080SOL    HW122139   5.944   0.164   4.184
 7080SOL    HW222140   5.997   0.202   4.034
 7081SOL     OW22141   4.917   0.614   5.441
 7081SOL    HW122142   4.942   0.711   5.443
 7081SOL    HW222143   5.000   0.558   5.430
 7082SOL     OW22144   6.137   1.251   6.655
 7082SOL    HW122145   6.126   1.313   6.576
 7082SOL    HW222146   6.234   1.243   6.678
 7083SOL     OW22147   3.234   0.380   6.017
 7083SOL    HW122148   3.333   0.367   6.021
 7083SOL    HW222149   3.200   0.355   5.927
 7084SOL     OW22150   6.118   6.069   0.354
 7084SOL    HW122151   6.119   6.169   0.350
 7084SOL    HW222152   6.148   6.039   0.444
 7085SOL     OW22153   3.553   1.162   0.954
 7085SOL    HW122154   3.611   1.238   0.985
 7085SOL    HW222155   3.487   1.195   0.887
 7086SOL     OW22156   1.006   1.532   6.089
 7086SOL    HW122157   1.026   1.435   6.076
 7086SOL    HW222158   0.910   1.550   6.068
 7087SOL     OW22159   2.276   2.772   4.911
 7087SOL    HW122160   2.313   2.843   4.970
 7087SOL    HW222161   2.288   2.797   4.816
 7088SOL     OW22162   0.695   2.230   5.500
 7088SOL    HW122163   0.622   2.291   5.530
 7088SOL    HW222164   0.745   2.196   5.579
 7089SOL     OW22165   2.853   1.719   1.606
 7089SOL    HW122166   2.940   1.686   1.569
 7089SOL    HW222167   2.782   1.650   1.590
 7090SOL     OW22168   2.331   2.390   4.723
 7090SOL    HW122169   2.385   2.328   4.666
 7090SOL    HW222170   2.390   2.432   4.792
 7091SOL     OW22171   6.786   6.514   1.040
 7091SOL    HW122172   6.865   6.480   0.991
 7091SOL    HW222173   6.814   6.546   1.130
 7092SOL     OW22174   2.631   2.643   0.380
 7092SOL    HW122175   2.718   2.692   0.386
 7092SOL    HW222176   2.555   2.709   0.385
 7093SOL     OW22177   4.582   3.195   5.699
 7093SOL    HW122178   4.531   3.255   5.762
 7093SOL    HW222179   4.676   3.185   5.732
 7094SOL     OW22180   6.977   0.830   6.279
 7094SOL    HW122181   6.949   0.747   6.231
 7094SOL    HW222182   7.021   0.806   6.365
 7095SOL     OW22183   0.505   4.428   6.908
 7095SOL    HW122184   0.480   4.332   6.924
 7095SOL    HW222185   0.529   4.440   6.812
 7096SOL     OW22186   5.177   0.278   2.802
 7096SOL    HW122187   5.167   0.289   2.703
 7096SOL    HW222188   5.249   0.212   2.820
 7097SOL     OW22189   1.632   0.984   1.773
 7097SOL    HW122190   1.663   0.910   1.713
 7097SOL    HW222191   1.705   1.052   1.783
 7098SOL     OW22192   1.083   0.313   5.989
 7098SOL    HW122193   1.044   0.381   5.927
 7098SOL    HW222194   1.018   0.295   6.064
 7099SOL     OW22195   0.131   0.833   5.542
 7099SOL    HW122196   0.100   0.908   5.484
 7099SOL    HW222197   0.187   0.869   5.617
 7100SOL     OW22198   5.693   1.991   1.313
 7100SOL    HW122199   5.666   2.004   1.409
 7100SOL    HW222200   5.709   2.080   1.270
 7101SOL     OW22201   1.405   0.440   4.216
 7101SOL    HW122202   1.327   0.496   4.242
 7101SOL    HW222203   1.421   0.371   4.287
 7102SOL     OW22204   5.002   3.012   0.731
 7102SOL    HW122205   5.049   2.969   0.655
 7102SOL    HW222206   4.937   2.948   0.771
 7103SOL     OW22207   2.815   0.304   6.046
 7103SOL    HW122208   2.753   0.239   6.089
 7103SOL    HW222209   2.852   0.264   5.962
 7104SOL     OW22210   0.509   2.211   1.801
 7104SOL    HW122211   0.575   2.287   1.799
 7104SOL    HW222212   0.422   2.241   1.762
 7105SOL     OW22213   1.938   3.768   5.582
 7105SOL    HW122214   1.990   3.852   5.564
 7105SOL    HW222215   1.918   3.723   5.496
 7106SOL     OW22216   3.214   2.645   5.383
 7106SOL    HW122217   3.290   2.694   5.340
 7106SOL    HW222218   3.192   2.564   5.329
 7107SOL     OW22219   1.968   1.057   0.427
 7107SOL    HW122220   1.886   1.000   0.426
 7107SOL    HW222221   2.041   1.012   0.375
 7108SOL     OW22222   4.591   6.517   1.894
 7108SOL    HW122223   4.520   6.516   1.824
 7108SOL    HW222224   4.681   6.529   1.851
 7109SOL     OW22225   3.660   6.320   6.181
 7109SOL    HW122226   3.571   6.277   6.195
 7109SOL    HW222227   3.657   6.415   6.213
 7110SOL     OW22228   3.219   4.944   3.455
 7110SOL    HW122229   3.308   4.901   3.472
 7110SOL    HW222230   3.195   4.933   3.359
 7111SOL     OW22231   1.565   2.525   3.544
 7111SOL    HW122232   1.650   2.492   3.503
 7111SOL    HW222233   1.575   2.526   3.644
 7112SOL     OW22234   2.125   6.286   2.274
 7112SOL    HW122235   2.127   6.386   2.283
 7112SOL    HW222236   2.206   6.247   2.316
 7113SOL     OW22237   3.884   3.688   4.992
 7113SOL    HW122238   3.973   3.645   4.977
 7113SOL    HW222239   3.873   3.709   5.089
 7114SOL     OW22240   3.886   6.486   0.683
 7114SOL    HW122241   3.801   6.445   0.651
 7114SOL    HW222242   3.964   6.439   0.641
 7115SOL     OW22243   3.993   1.438   1.627
 7115SOL    HW122244   4.003   1.344   1.659
 7115SOL    HW222245   4.080   1.470   1.590
 7116SOL     OW22246   6.047   3.714   2.927
 7116SOL    HW122247   5.950   3.734   2.940
 7116SOL    HW222248   6.059   3.659   2.844
 7117SOL     OW22249   6.305   6.871   2.643
 7117SOL    HW122250   6.335   6.776   2.647
 7117SOL    HW222251   6.334   6.911   2.556
 7118SOL     OW22252   6.870   3.030   2.531
 7118SOL    HW122253   6.794   3.006   2.471
 7118SOL    HW222254   6.834   3.067   2.617
 7119SOL     OW22255   1.235   2.229   2.831
 7119SOL    HW122256   1.327   2.255   2.859
 7119SOL    HW222257   1.208   2.283   2.751
 7120SOL     OW22258   4.931   6.214   3.400
 7120SOL    HW122259   4.942   6.311   3.423
 7120SOL    HW222260   4.979   6.158   3.468
 7121SOL     OW22261   3.019   6.952   1.489
 7121SOL    HW122262   3.092   6.936   1.423
 7121SOL    HW222263   3.044   6.909   1.576
 7122SOL     OW22264   6.396   0.066   0.512
 7122SOL    HW122265   6.488   0.061   0.473
 7122SOL    HW222266   6.401   0.088   0.609
 7123SOL     OW22267   2.188   5.296   0.247
 7123SOL    HW122268   2.092   5.296   0.219
 7123SOL    HW222269   2.201   5.233   0.323
 7124SOL     OW22270   0.428   6.036   0.457
 7124SOL    HW122271   0.440   6.099   0.380
 7124SOL    HW222272   0.346   6.062   0.509
 7125SOL     OW22273   0.406   6.755   3.049
 7125SOL    HW122274   0.384   6.746   3.146
 7125SOL    HW222275   0.494   6.711   3.030
 7126SOL     OW22276   1.605   4.668   0.720
 7126SOL    HW122277   1.628   4.714   0.634
 7126SOL    HW222278   1.529   4.604   0.705
 7127SOL     OW22279   2.774   0.168   4.523
 7127SOL    HW122280   2.863   0.145   4.563
 7127SOL    HW222281   2.750   0.262   4.548
 7128SOL     OW22282   3.203   4.005   1.826
 7128SOL    HW122283   3.109   4.038   1.829
 7128SOL    HW222284   3.239   3.998   1.919
 7129SOL     OW22285   2.657   1.934   1.568
 7129SOL    HW122286   2.746   1.913   1.608
 7129SOL    HW222287   2.584   1.897   1.625
 7130SOL     OW22288   2.787   0.012   2.406
 7130SOL    HW122289   2.714   0.045   2.466
 7130SOL    HW222290   2.794   0.073   2.326
 7131SOL     OW22291   2.932   1.306   3.706
 7131SOL    HW122292   2.993   1.371   3.661
 7131SOL    HW222293   2.912   1.338   3.799
 7132SOL     OW22294   3.291   4.103   2.834
 7132SOL    HW122295   3.216   4.081   2.897
 7132SOL    HW222296   3.253   4.133   2.747
 7133SOL     OW22297   5.936   4.141   2.020
 7133SOL    HW122298   5.970   4.053   2.053
 7133SOL    HW222299   5.838   4.148   2.037
 7134SOL     OW22300   5.419   4.735   2.787
 7134SOL    HW122301   5.425   4.724   2.688
 7134SOL    HW222302   5.364   4.660   2.826
 7135SOL     OW22303   0.948   2.227   5.796
 7135SOL    HW122304   0.991   2.299   5.741
 7135SOL    HW222305   1.014   2.154   5.812
 7136SOL     OW22306   2.288   1.938   6.967
 7136SOL    HW122307   2.244   1.909   6.882
 7136SOL    HW222308   2.305   1.859   0.002
 7137SOL     OW22309   4.184   1.793   5.097
 7137SOL    HW122310   4.260   1.854   5.119
 7137SOL    HW222311   4.120   1.839   5.036
 7138SOL     OW22312   1.942   3.334   6.635
 7138SOL    HW122313   1.880   3.412   6.632
 7138SOL    HW222314   1.960   3.309   6.730
 7139SOL     OW22315   2.779   1.777   0.136
 7139SOL    HW122316   2.843   1.829   0.080
 7139SOL    HW222317   2.819   1.688   0.159
 7140SOL     OW22318   0.121   3.975   5.009
 7140SOL    HW122319   0.130   4.002   4.913
 7140SOL    HW222320   0.094   3.879   5.014
 7141SOL     OW22321   1.304   6.842   2.245
 7141SOL    HW122322   1.238   6.767   2.248
 7141SOL    HW222323   1.391   6.812   2.284
 7142SOL     OW22324   3.700   6.529   3.626
 7142SOL    HW122325   3.791   6.553   3.591
 7142SOL    HW222326   3.710   6.473   3.708
 7143SOL     OW22327   2.454   2.230   4.184
 7143SOL    HW122328   2.459   2.199   4.089
 7143SOL    HW222329   2.469   2.329   4.188
 7144SOL     OW22330   1.421   3.256   3.905
 7144SOL    HW122331   1.476   3.176   3.931
 7144SOL    HW222332   1.400   3.251   3.807
 7145SOL     OW22333   4.473   6.407   5.971
 7145SOL    HW122334   4.555   6.459   5.950
 7145SOL    HW222335   4.462   6.401   6.071
 7146SOL     OW22336   2.792   5.404   1.738
 7146SOL    HW122337   2.839   5.341   1.800
 7146SOL    HW222338   2.817   5.382   1.644
 7147SOL     OW22339   0.229   0.957   3.085
 7147SOL    HW122340   0.176   0.992   3.163
 7147SOL    HW222341   0.175   0.890   3.035
 7148SOL     OW22342   0.233   1.359   0.456
 7148SOL    HW122343   0.313   1.346   0.515
 7148SOL    HW222344   0.157   1.303   0.490
 7149SOL     OW22345   6.950   0.886   4.448
 7149SOL    HW122346   7.012   0.964   4.445
 7149SOL    HW222347   6.993   0.808   4.402
 7150SOL     OW22348   6.243   4.016   6.786
 7150SOL    HW122349   6.280   3.993   6.876
 7150SOL    HW222350   6.144   4.029   6.793
 7151SOL     OW22351   2.204   6.773   1.299
 7151SOL    HW122352   2.197   6.674   1.290
 7151SOL    HW222353   2.255   6.810   1.221
 7152SOL     OW22354   0.884   2.729   3.717
 7152SOL    HW122355   0.964   2.754   3.771
 7152SOL    HW222356   0.833   2.656   3.764
 7153SOL     OW22357   3.304   1.778   3.482
 7153SOL    HW122358   3.232   1.712   3.460
 7153SOL    HW222359   3.289   1.862   3.430
 7154SOL     OW22360   4.350   6.142   4.784
 7154SOL    HW122361   4.343   6.075   4.711
 7154SOL    HW222362   4.320   6.102   4.871
 7155SOL     OW22363   2.353   1.267   3.386
 7155SOL    HW122364   2.348   1.167   3.385
 7155SOL    HW222365   2.303   1.303   3.307
 7156SOL     OW22366   1.300   5.531   4.811
 7156SOL    HW122367   1.236   5.511   4.885
 7156SOL    HW222368   1.283   5.468   4.735
 7157SOL     OW22369   5.007   4.102   0.822
 7157SOL    HW122370   5.090   4.125   0.771
 7157SOL    HW222371   4.984   4.177   0.884
 7158SOL     OW22372   4.917   6.839   4.396
 7158SOL    HW122373   5.015   6.853   4.382
 7158SOL    HW222374   4.869   6.848   4.309
 7159SOL     OW22375   0.790   5.346   0.266
 7159SOL    HW122376   0.802   5.386   0.175
 7159SOL    HW222377   0.835   5.257   0.269
 7160SOL     OW22378   6.464   1.081   1.855
 7160SOL    HW122379   6.395   1.015   1.825
 7160SOL    HW222380   6.418   1.160   1.896
 7161SOL     OW22381   3.301   4.084   4.130
 7161SOL    HW122382   3.230   4.022   4.163
 7161SOL    HW222383   3.316   4.157   4.198
 7162SOL     OW22384   3.333   5.154   3.970
 7162SOL    HW122385   3.247   5.199   3.996
 7162SOL    HW222386   3.340   5.151   3.871
 7163SOL     OW22387   1.553   6.331   2.757
 7163SOL    HW122388   1.476   6.384   2.790
 7163SOL    HW222389   1.633   6.390   2.745
 7164SOL     OW22390   2.690   2.060   4.235
 7164SOL    HW122391   2.597   2.082   4.205
 7164SOL    HW222392   2.747   2.043   4.155
 7165SOL     OW22393   5.385   6.095   2.789
 7165SOL    HW122394   5.333   6.058   2.712
 7165SOL    HW222395   5.442   6.171   2.758
 7166SOL     OW22396   4.738   5.592   2.297
 7166SOL    HW122397   4.662   5.647   2.264
 7166SOL    HW222398   4.821   5.616   2.247
 7167SOL     OW22399   5.333   3.411   5.936
 7167SOL    HW122400   5.279   3.488   5.901
 7167SOL    HW222401   5.358   3.351   5.860
 7168SOL     OW22402   0.483   1.635   4.380
 7168SOL    HW122403   0.453   1.564   4.443
 7168SOL    HW222404   0.413   1.650   4.311
 7169SOL     OW22405   2.119   2.610   6.794
 7169SOL    HW122406   2.187   2.576   6.729
 7169SOL    HW222407   2.063   2.534   6.826
 7170SOL     OW22408   6.156   4.955   3.710
 7170SOL    HW122409   6.077   4.953   3.648
 7170SOL    HW222410   6.202   4.867   3.709
 7171SOL     OW22411   4.140   2.991   5.813
 7171SOL    HW122412   4.138   2.972   5.911
 7171SOL    HW222413   4.235   3.007   5.785
 7172SOL     OW22414   0.483   0.393   1.513
 7172SOL    HW122415   0.417   0.321   1.494
 7172SOL    HW222416   0.535   0.370   1.595
 7173SOL     OW22417   6.029   6.434   5.428
 7173SOL    HW122418   6.123   6.464   5.419
 7173SOL    HW222419   5.993   6.408   5.339
 7174SOL     OW22420   0.850   5.978   6.153
 7174SOL    HW122421   0.899   5.942   6.233
 7174SOL    HW222422   0.864   5.917   6.075
 7175SOL     OW22423   6.262   3.585   5.479
 7175SOL    HW122424   6.263   3.523   5.401
 7175SOL    HW222425   6.333   3.654   5.467
 7176SOL     OW22426   0.081   3.236   1.345
 7176SOL    HW122427   0.057   3.217   1.440
 7176SOL    HW222428   0.180   3.250   1.339
 7177SOL     OW22429   1.238   5.476   1.781
 7177SOL    HW122430   1.306   5.475   1.707
 7177SOL    HW222431   1.201   5.568   1.791
 7178SOL     OW22432   6.830   1.589   6.304
 7178SOL    HW122433   6.869   1.575   6.213
 7178SOL    HW222434   6.904   1.604   6.370
 7179SOL     OW22435   1.626   4.572   6.367
 7179SOL    HW122436   1.714   4.580   6.319
 7179SOL    HW222437   1.552   4.585   6.301
 7180SOL     OW22438   0.452   0.135   2.812
 7180SOL    HW122439   0.462   0.036   2.806
 7180SOL    HW222440   0.367   0.163   2.768
 7181SOL     OW22441   5.659   6.401   2.777
 7181SOL    HW122442   5.609   6.471   2.726
 7181SOL    HW222443   5.757   6.422   2.774
 7182SOL     OW22444   3.903   3.701   5.937
 7182SOL    HW122445   3.988   3.737   5.977
 7182SOL    HW222446   3.923   3.663   5.846
 7183SOL     OW22447   1.760   3.953   3.784
 7183SOL    HW122448   1.777   3.877   3.847
 7183SOL    HW222449   1.783   3.925   3.690
 7184SOL     OW22450   2.661   5.780   2.980
 7184SOL    HW122451   2.717   5.697   2.974
 7184SOL    HW222452   2.661   5.811   3.075
 7185SOL     OW22453   4.231   3.022   6.957
 7185SOL    HW122454   4.288   2.941   6.948
 7185SOL    HW222455   4.135   2.995   6.964
 7186SOL     OW22456   0.211   0.178   4.436
 7186SOL    HW122457   0.183   0.209   4.527
 7186SOL    HW222458   0.203   0.078   4.432
 7187SOL     OW22459   1.546   5.181   1.197
 7187SOL    HW122460   1.627   5.149   1.149
 7187SOL    HW222461   1.488   5.234   1.135
 7188SOL     OW22462   5.366   0.011   1.651
 7188SOL    HW122463   5.387   7.017   1.555
 7188SOL    HW222464   5.300   0.086   1.658
 7189SOL     OW22465   6.791   0.995   4.998
 7189SOL    HW122466   6.700   1.011   4.960
 7189SOL    HW222467   6.784   0.931   5.075
 7190SOL     OW22468   4.443   5.013   2.892
 7190SOL    HW122469   4.514   4.945   2.910
 7190SOL    HW222470   4.382   5.020   2.971
 7191SOL     OW22471   1.141   3.282   1.185
 7191SOL    HW122472   1.121   3.216   1.257
 7191SOL    HW222473   1.177   3.234   1.105
 7192SOL     OW22474   3.645   4.927   6.740
 7192SOL    HW122475   3.693   4.942   6.827
 7192SOL    HW222476   3.660   4.833   6.709
 7193SOL     OW22477   5.448   1.846   4.030
 7193SOL    HW122478   5.357   1.805   4.036
 7193SOL    HW222479   5.501   1.800   3.958
 7194SOL     OW22480   3.286   1.587   1.458
 7194SOL    HW122481   3.288   1.686   1.470
 7194SOL    HW222482   3.213   1.562   1.394
 7195SOL     OW22483   0.306   6.160   1.638
 7195SOL    HW122484   0.300   6.255   1.669
 7195SOL    HW222485   0.306   6.099   1.717
 7196SOL     OW22486   3.627   2.972   1.295
 7196SOL    HW122487   3.625   2.887   1.243
 7196SOL    HW222488   3.685   2.961   1.376
 7197SOL     OW22489   1.262   1.592   4.105
 7197SOL    HW122490   1.280   1.646   4.024
 7197SOL    HW222491   1.330   1.613   4.175
 7198SOL     OW22492   0.148   6.118   5.925
 7198SOL    HW122493   0.241   6.088   5.941
 7198SOL    HW222494   0.093   6.104   6.008
 7199SOL     OW22495   5.394   6.858   3.342
 7199SOL    HW122496   5.437   6.854   3.252
 7199SOL    HW222497   5.396   6.767   3.384
 7200SOL     OW22498   2.329   1.975   2.198
 7200SOL    HW122499   2.294   2.065   2.172
 7200SOL    HW222500   2.371   1.980   2.289
 7201SOL     OW22501   2.457   5.027   2.897
 7201SOL    HW122502   2.429   5.095   2.828
 7201SOL    HW222503   2.377   4.993   2.945
 7202SOL     OW22504   3.441   0.083   5.550
 7202SOL    HW122505   3.345   0.111   5.544
 7202SOL    HW222506   3.458   0.039   5.639
 7203SOL     OW22507   6.106   0.070   6.783
 7203SOL    HW122508   6.116   0.054   6.685
 7203SOL    HW222509   6.017   0.114   6.800
 7204SOL     OW22510   5.871   1.543   3.035
 7204SOL    HW122511   5.817   1.596   3.100
 7204SOL    HW222512   5.947   1.597   3.002
 7205SOL     OW22513   1.535   4.077   1.352
 7205SOL    HW122514   1.608   4.075   1.421
 7205SOL    HW222515   1.575   4.063   1.262
 7206SOL     OW22516   5.791   1.769   1.668
 7206SOL    HW122517   5.826   1.805   1.755
 7206SOL    HW222518   5.691   1.768   1.669
 7207SOL     OW22519   4.162   6.674   2.020
 7207SOL    HW122520   4.238   6.706   1.963
 7207SOL    HW222521   4.076   6.702   1.979
 7208SOL     OW22522   2.896   0.417   5.047
 7208SOL    HW122523   2.855   0.490   5.100
 7208SOL    HW222524   2.923   0.452   4.957
 7209SOL     OW22525   2.988   3.257   4.244
 7209SOL    HW122526   3.009   3.347   4.285
 7209SOL    HW222527   2.914   3.214   4.296
 7210SOL     OW22528   4.809   0.108   4.327
 7210SOL    HW122529   4.891   0.164   4.316
 7210SOL    HW222530   4.816   0.026   4.270
 7211SOL     OW22531   0.789   5.096   2.396
 7211SOL    HW122532   0.825   5.117   2.486
 7211SOL    HW222533   0.827   5.010   2.364
 7212SOL     OW22534   4.902   6.983   3.501
 7212SOL    HW122535   4.967   0.029   3.532
 7212SOL    HW222536   4.830   0.002   3.446
 7213SOL     OW22537   5.232   6.761   4.771
 7213SOL    HW122538   5.257   6.689   4.706
 7213SOL    HW222539   5.135   6.783   4.761
 7214SOL     OW22540   0.498   4.848   5.606
 7214SOL    HW122541   0.424   4.782   5.624
 7214SOL    HW222542   0.487   4.884   5.513
 7215SOL     OW22543   1.151   3.199   1.954
 7215SOL    HW122544   1.161   3.298   1.949
 7215SOL    HW222545   1.074   3.170   1.896
 7216SOL     OW22546   2.916   1.390   2.492
 7216SOL    HW122547   2.935   1.406   2.395
 7216SOL    HW222548   2.946   1.298   2.517
 7217SOL     OW22549   0.601   3.064   1.810
 7217SOL    HW122550   0.507   3.090   1.787
 7217SOL    HW222551   0.607   2.964   1.816
 7218SOL     OW22552   6.168   2.559   5.643
 7218SOL    HW122553   6.240   2.588   5.580
 7218SOL    HW222554   6.080   2.592   5.609
 7219SOL     OW22555   3.441   0.761   1.156
 7219SOL    HW122556   3.415   0.857   1.166
 7219SOL    HW222557   3.361   0.703   1.170
 7220SOL     OW22558   6.816   1.073   2.788
 7220SOL    HW122559   6.916   1.075   2.783
 7220SOL    HW222560   6.787   1.001   2.851
 7221SOL     OW22561   5.868   4.509   5.358
 7221SOL    HW122562   5.834   4.448   5.286
 7221SOL    HW222563   5.957   4.477   5.389
 7222SOL     OW22564   6.730   6.845   3.734
 7222SOL    HW122565   6.739   6.787   3.652
 7222SOL    HW222566   6.821   6.870   3.766
 7223SOL     OW22567   4.813   0.930   5.146
 7223SOL    HW122568   4.903   0.932   5.191
 7223SOL    HW222569   4.826   0.935   5.047
 7224SOL     OW22570   5.970   0.902   3.868
 7224SOL    HW122571   6.005   0.826   3.924
 7224SOL    HW222572   5.965   0.873   3.772
 7225SOL     OW22573   2.629   0.667   1.691
 7225SOL    HW122574   2.576   0.751   1.681
 7225SOL    HW222575   2.726   0.688   1.695
 7226SOL     OW22576   5.773   6.603   5.556
 7226SOL    HW122577   5.712   6.569   5.627
 7226SOL    HW222578   5.848   6.654   5.597
 7227SOL     OW22579   6.667   2.566   6.090
 7227SOL    HW122580   6.580   2.605   6.060
 7227SOL    HW222581   6.713   2.629   6.152
 7228SOL     OW22582   2.732   0.584   3.023
 7228SOL    HW122583   2.652   0.538   3.063
 7228SOL    HW222584   2.703   0.669   2.979
 7229SOL     OW22585   6.625   0.064   3.391
 7229SOL    HW122586   6.701   0.000   3.392
 7229SOL    HW222587   6.603   0.089   3.297
 7230SOL     OW22588   6.266   5.602   1.478
 7230SOL    HW122589   6.254   5.513   1.522
 7230SOL    HW222590   6.289   5.588   1.381
 7231SOL     OW22591   5.927   0.676   7.019
 7231SOL    HW122592   5.850   0.650   6.961
 7231SOL    HW222593   6.010   0.683   6.964
 7232SOL     OW22594   3.655   3.821   0.987
 7232SOL    HW122595   3.738   3.831   1.042
 7232SOL    HW222596   3.637   3.907   0.939
 7233SOL     OW22597   0.548   2.051   5.347
 7233SOL    HW122598   0.602   1.975   5.311
 7233SOL    HW222599   0.605   2.107   5.408
 7234SOL     OW22600   4.865   2.228   2.991
 7234SOL    HW122601   4.943   2.279   2.955
 7234SOL    HW222602   4.890   2.132   3.001
 7235SOL     OW22603   6.137   2.890   4.377
 7235SOL    HW122604   6.139   2.953   4.455
 7235SOL    HW222605   6.201   2.815   4.395
 7236SOL     OW22606   1.811   1.449   3.491
 7236SOL    HW122607   1.723   1.496   3.487
 7236SOL    HW222608   1.863   1.466   3.407
 7237SOL     OW22609   5.565   5.049   4.797
 7237SOL    HW122610   5.543   5.096   4.712
 7237SOL    HW222611   5.653   5.002   4.787
 7238SOL     OW22612   1.787   0.797   1.623
 7238SOL    HW122613   1.713   0.735   1.650
 7238SOL    HW222614   1.769   0.831   1.531
 7239SOL     OW22615   3.633   0.858   1.799
 7239SOL    HW122616   3.592   0.948   1.793
 7239SOL    HW222617   3.677   0.835   1.712
 7240SOL     OW22618   3.104   2.958   2.228
 7240SOL    HW122619   3.033   2.891   2.207
 7240SOL    HW222620   3.091   3.039   2.172
 7241SOL     OW22621   4.720   6.963   4.551
 7241SOL    HW122622   4.727   0.007   4.477
 7241SOL    HW222623   4.756   6.875   4.520
 7242SOL     OW22624   6.178   5.092   0.827
 7242SOL    HW122625   6.127   5.157   0.884
 7242SOL    HW222626   6.275   5.098   0.849
 7243SOL     OW22627   0.360   5.684   0.504
 7243SOL    HW122628   0.402   5.732   0.581
 7243SOL    HW222629   0.274   5.643   0.533
 7244SOL     OW22630   4.837   1.786   1.006
 7244SOL    HW122631   4.918   1.746   1.049
 7244SOL    HW222632   4.854   1.798   0.908
 7245SOL     OW22633   5.927   2.112   4.041
 7245SOL    HW122634   5.903   2.176   4.114
 7245SOL    HW222635   5.905   2.153   3.952
 7246SOL     OW22636   1.093   5.781   5.460
 7246SOL    HW122637   1.021   5.848   5.448
 7246SOL    HW222638   1.081   5.734   5.548
 7247SOL     OW22639   3.711   5.394   4.246
 7247SOL    HW122640   3.670   5.485   4.235
 7247SOL    HW222641   3.807   5.404   4.272
 7248SOL     OW22642   3.602   0.753   4.393
 7248SOL    HW122643   3.675   0.714   4.336
 7248SOL    HW222644   3.579   0.844   4.358
 7249SOL     OW22645   5.094   3.614   5.752
 7249SOL    HW122646   5.149   3.668   5.817
 7249SOL    HW222647   5.024   3.673   5.712
 7250SOL     OW22648   2.862   3.512   6.640
 7250SOL    HW122649   2.808   3.563   6.707
 7250SOL    HW222650   2.800   3.461   6.580
 7251SOL     OW22651   5.600   1.035   5.216
 7251SOL    HW122652   5.654   1.008   5.296
 7251SOL    HW222653   5.608   0.965   5.145
 7252SOL     OW22654   4.512   3.714   5.329
 7252SOL    HW122655   4.418   3.684   5.313
 7252SOL    HW222656   4.576   3.651   5.284
 7253SOL     OW22657   5.242   4.855   1.255
 7253SOL    HW122658   5.277   4.818   1.342
 7253SOL    HW222659   5.197   4.943   1.273
 7254SOL     OW22660   5.915   6.281   4.879
 7254SOL    HW122661   5.906   6.364   4.824
 7254SOL    HW222662   5.835   6.270   4.937
 7255SOL     OW22663   4.045   3.187   2.785
 7255SOL    HW122664   4.107   3.188   2.706
 7255SOL    HW222665   4.002   3.097   2.792
 7256SOL     OW22666   3.202   5.554   4.102
 7256SOL    HW122667   3.144   5.635   4.111
 7256SOL    HW222668   3.224   5.519   4.192
 7257SOL     OW22669   6.450   4.403   2.706
 7257SOL    HW122670   6.368   4.360   2.669
 7257SOL    HW222671   6.514   4.333   2.736
 7258SOL     OW22672   2.827   0.178   5.788
 7258SOL    HW122673   2.729   0.176   5.806
 7258SOL    HW222674   2.856   0.090   5.750
 7259SOL     OW22675   3.269   4.867   6.472
 7259SOL    HW122676   3.253   4.824   6.383
 7259SOL    HW222677   3.304   4.798   6.537
 7260SOL     OW22678   4.588   2.143   2.753
 7260SOL    HW122679   4.518   2.186   2.696
 7260SOL    HW222680   4.675   2.190   2.738
 7261SOL     OW22681   2.013   5.096   0.842
 7261SOL    HW122682   2.002   5.076   0.744
 7261SOL    HW222683   2.110   5.110   0.862
 7262SOL     OW22684   6.612   0.907   4.689
 7262SOL    HW122685   6.670   0.884   4.610
 7262SOL    HW222686   6.545   0.977   4.662
 7263SOL     OW22687   4.936   6.240   1.827
 7263SOL    HW122688   5.032   6.235   1.800
 7263SOL    HW222689   4.879   6.255   1.747
 7264SOL     OW22690   0.736   6.647   4.583
 7264SOL    HW122691   0.820   6.598   4.557
 7264SOL    HW222692   0.741   6.741   4.549
 7265SOL     OW22693   4.525   3.447   6.651
 7265SOL    HW122694   4.486   3.418   6.564
 7265SOL    HW222695   4.582   3.373   6.688
 7266SOL     OW22696   4.077   1.478   2.134
 7266SOL    HW122697   4.096   1.386   2.101
 7266SOL    HW222698   3.992   1.511   2.093
 7267SOL     OW22699   5.411   2.848   4.342
 7267SOL    HW122700   5.459   2.850   4.430
 7267SOL    HW222701   5.473   2.813   4.271
 7268SOL     OW22702   3.687   0.616   0.562
 7268SOL    HW122703   3.691   0.534   0.505
 7268SOL    HW222704   3.711   0.591   0.656
 7269SOL     OW22705   1.355   0.537   1.773
 7269SOL    HW122706   1.297   0.462   1.804
 7269SOL    HW222707   1.340   0.617   1.831
 7270SOL     OW22708   3.279   2.034   2.451
 7270SOL    HW122709   3.264   2.048   2.353
 7270SOL    HW222710   3.370   2.066   2.476
 7271SOL     OW22711   6.041   5.384   3.793
 7271SOL    HW122712   6.014   5.450   3.723
 7271SOL    HW222713   5.965   5.322   3.811
 7272SOL     OW22714   6.244   2.688   0.769
 7272SOL    HW122715   6.155   2.727   0.790
 7272SOL    HW222716   6.244   2.590   0.788
 7273SOL     OW22717   5.640   5.481   5.533
 7273SOL    HW122718   5.727   5.505   5.577
 7273SOL    HW222719   5.628   5.382   5.536
 7274SOL     OW22720   5.398   4.706   4.515
 7274SOL    HW122721   5.422   4.755   4.599
 7274SOL    HW222722   5.453   4.739   4.439
 7275SOL     OW22723   5.783   6.393   1.748
 7275SOL    HW122724   5.698   6.344   1.732
 7275SOL    HW222725   5.861   6.332   1.735
 7276SOL     OW22726   3.411   2.140   3.833
 7276SOL    HW122727   3.441   2.098   3.919
 7276SOL    HW222728   3.342   2.210   3.851
 7277SOL     OW22729   6.311   1.792   3.941
 7277SOL    HW122730   6.250   1.871   3.936
 7277SOL    HW222731   6.349   1.772   3.851
 7278SOL     OW22732   3.838   2.114   3.919
 7278SOL    HW122733   3.930   2.152   3.917
 7278SOL    HW222734   3.807   2.108   4.015
 7279SOL     OW22735   4.289   3.290   1.369
 7279SOL    HW122736   4.217   3.268   1.434
 7279SOL    HW222737   4.338   3.372   1.399
 7280SOL     OW22738   6.869   2.104   5.169
 7280SOL    HW122739   6.900   2.073   5.079
 7280SOL    HW222740   6.816   2.188   5.159
 7281SOL     OW22741   3.470   6.140   2.951
 7281SOL    HW122742   3.550   6.093   2.988
 7281SOL    HW222743   3.499   6.224   2.906
 7282SOL     OW22744   0.108   2.965   1.132
 7282SOL    HW122745   0.188   2.995   1.184
 7282SOL    HW222746   0.032   2.948   1.195
 7283SOL     OW22747   3.388   5.667   2.801
 7283SOL    HW122748   3.380   5.738   2.871
 7283SOL    HW222749   3.374   5.577   2.842
 7284SOL     OW22750   0.557   0.579   2.708
 7284SOL    HW122751   0.524   0.529   2.788
 7284SOL    HW222752   0.627   0.645   2.736
 7285SOL     OW22753   4.977   2.565   1.934
 7285SOL    HW122754   4.913   2.634   1.969
 7285SOL    HW222755   5.059   2.563   1.992
 7286SOL     OW22756   6.047   1.519   3.938
 7286SOL    HW122757   5.999   1.606   3.926
 7286SOL    HW222758   6.140   1.537   3.971
 7287SOL     OW22759   3.600   1.555   4.477
 7287SOL    HW122760   3.529   1.623   4.493
 7287SOL    HW222761   3.562   1.478   4.427
 7288SOL     OW22762   3.168   1.751   1.899
 7288SOL    HW122763   3.116   1.836   1.892
 7288SOL    HW222764   3.263   1.768   1.875
 7289SOL     OW22765   6.311   2.530   1.845
 7289SOL    HW122766   6.311   2.444   1.897
 7289SOL    HW222767   6.270   2.515   1.755
 7290SOL     OW22768   3.584   2.127   4.658
 7290SOL    HW122769   3.619   2.129   4.752
 7290SOL    HW222770   3.485   2.140   4.659
 7291SOL     OW22771   1.125   1.093   0.598
 7291SOL    HW122772   1.066   1.127   0.671
 7291SOL    HW222773   1.093   1.128   0.510
 7292SOL     OW22774   3.634   0.917   2.533
 7292SOL    HW122775   3.582   0.989   2.485
 7292SOL    HW222776   3.724   0.952   2.557
 7293SOL     OW22777   6.502   0.890   4.314
 7293SOL    HW122778   6.550   0.841   4.387
 7293SOL    HW222779   6.552   0.975   4.293
 7294SOL     OW22780   3.629   0.381   3.143
 7294SOL    HW122781   3.550   0.423   3.098
 7294SOL    HW222782   3.632   0.409   3.239
 7295SOL     OW22783   5.333   4.063   1.484
 7295SOL    HW122784   5.376   4.012   1.409
 7295SOL    HW222785   5.263   4.006   1.526
 7296SOL     OW22786   3.650   6.163   2.264
 7296SOL    HW122787   3.622   6.107   2.185
 7296SOL    HW222788   3.669   6.103   2.342
 7297SOL     OW22789   3.851   6.748   0.556
 7297SOL    HW122790   3.836   6.656   0.593
 7297SOL    HW222791   3.785   6.811   0.596
 7298SOL     OW22792   4.023   4.957   1.344
 7298SOL    HW122793   3.979   4.868   1.357
 7298SOL    HW222794   4.118   4.951   1.376
 7299SOL     OW22795   0.869   3.373   6.774
 7299SOL    HW122796   0.891   3.421   6.859
 7299SOL    HW222797   0.939   3.395   6.705
 7300SOL     OW22798   0.763   3.588   1.400
 7300SOL    HW122799   0.807   3.591   1.310
 7300SOL    HW222800   0.832   3.572   1.470
 7301SOL     OW22801   4.310   1.956   0.063
 7301SOL    HW122802   4.314   1.935   6.989
 7301SOL    HW222803   4.402   1.947   0.103
 7302SOL     OW22804   5.371   2.208   6.198
 7302SOL    HW122805   5.363   2.164   6.287
 7302SOL    HW222806   5.402   2.302   6.209
 7303SOL     OW22807   2.935   2.183   1.512
 7303SOL    HW122808   2.970   2.223   1.428
 7303SOL    HW222809   2.862   2.118   1.490
 7304SOL     OW22810   2.225   6.908   0.214
 7304SOL    HW122811   2.162   6.914   0.292
 7304SOL    HW222812   2.173   6.898   0.130
 7305SOL     OW22813   6.386   0.318   6.144
 7305SOL    HW122814   6.352   0.262   6.219
 7305SOL    HW222815   6.328   0.399   6.134
 7306SOL     OW22816   1.441   3.286   1.332
 7306SOL    HW122817   1.355   3.333   1.310
 7306SOL    HW222818   1.499   3.283   1.251
 7307SOL     OW22819   3.486   6.593   1.659
 7307SOL    HW122820   3.431   6.519   1.699
 7307SOL    HW222821   3.514   6.567   1.567
 7308SOL     OW22822   3.834   1.382   3.066
 7308SOL    HW122823   3.855   1.310   2.999
 7308SOL    HW222824   3.833   1.471   3.020
 7309SOL     OW22825   2.318   4.945   3.948
 7309SOL    HW122826   2.299   4.847   3.950
 7309SOL    HW222827   2.328   4.975   3.853
 7310SOL     OW22828   2.802   3.200   0.035
 7310SOL    HW122829   2.826   3.243   6.971
 7310SOL    HW222830   2.704   3.210   0.051
 7311SOL     OW22831   0.560   6.520   6.069
 7311SOL    HW122832   0.565   6.459   5.990
 7311SOL    HW222833   0.499   6.597   6.048
 7312SOL     OW22834   6.315   2.069   4.756
 7312SOL    HW122835   6.218   2.096   4.761
 7312SOL    HW222836   6.324   1.988   4.700
 7313SOL     OW22837   3.258   0.897   2.689
 7313SOL    HW122838   3.220   0.954   2.761
 7313SOL    HW222839   3.241   0.801   2.709
 7314SOL     OW22840   2.058   5.540   5.149
 7314SOL    HW122841   1.960   5.543   5.168
 7314SOL    HW222842   2.073   5.520   5.052
 7315SOL     OW22843   3.059   5.520   2.947
 7315SOL    HW122844   3.085   5.424   2.959
 7315SOL    HW222845   3.070   5.546   2.852
 7316SOL     OW22846   3.798   0.586   1.947
 7316SOL    HW122847   3.787   0.589   1.848
 7316SOL    HW222848   3.709   0.573   1.991
 7317SOL     OW22849   5.868   1.923   0.895
 7317SOL    HW122850   5.831   1.852   0.835
 7317SOL    HW222851   5.885   1.884   0.986
 7318SOL     OW22852   5.287   6.225   1.257
 7318SOL    HW122853   5.382   6.256   1.266
 7318SOL    HW222854   5.238   6.286   1.195
 7319SOL     OW22855   5.106   5.762   6.501
 7319SOL    HW122856   5.089   5.800   6.591
 7319SOL    HW222857   5.193   5.796   6.465
 7320SOL     OW22858   0.943   3.365   0.081
 7320SOL    HW122859   0.953   3.361   0.181
 7320SOL    HW222860   0.951   3.273   0.043
 7321SOL     OW22861   2.347   2.362   5.289
 7321SOL    HW122862   2.375   2.286   5.347
 7321SOL    HW222863   2.284   2.421   5.341
 7322SOL     OW22864   2.098   1.946   4.390
 7322SOL    HW122865   2.038   2.001   4.450
 7322SOL    HW222866   2.056   1.939   4.300
 7323SOL     OW22867   1.726   2.044   1.052
 7323SOL    HW122868   1.785   2.080   0.979
 7323SOL    HW222869   1.716   2.114   1.124
 7324SOL     OW22870   4.876   3.695   4.537
 7324SOL    HW122871   4.872   3.598   4.512
 7324SOL    HW222872   4.899   3.704   4.633
 7325SOL     OW22873   4.224   1.382   6.263
 7325SOL    HW122874   4.171   1.300   6.241
 7325SOL    HW222875   4.163   1.454   6.296
 7326SOL     OW22876   3.654   6.380   0.580
 7326SOL    HW122877   3.575   6.378   0.642
 7326SOL    HW222878   3.627   6.415   0.491
 7327SOL     OW22879   1.489   4.415   3.298
 7327SOL    HW122880   1.481   4.501   3.249
 7327SOL    HW222881   1.583   4.380   3.288
 7328SOL     OW22882   4.919   5.298   6.375
 7328SOL    HW122883   5.002   5.250   6.401
 7328SOL    HW222884   4.929   5.395   6.393
 7329SOL     OW22885   2.709   3.696   0.939
 7329SOL    HW122886   2.712   3.744   0.851
 7329SOL    HW222887   2.765   3.746   1.006
 7330SOL     OW22888   2.937   3.394   0.813
 7330SOL    HW122889   2.887   3.332   0.752
 7330SOL    HW222890   2.872   3.449   0.865
 7331SOL     OW22891   5.143   1.394   2.147
 7331SOL    HW122892   5.045   1.406   2.134
 7331SOL    HW222893   5.186   1.483   2.161
 7332SOL     OW22894   2.663   6.923   5.518
 7332SOL    HW122895   2.635   6.849   5.457
 7332SOL    HW222896   2.617   6.914   5.606
 7333SOL     OW22897   5.918   1.286   0.913
 7333SOL    HW122898   5.869   1.373   0.907
 7333SOL    HW222899   5.977   1.287   0.994
 7334SOL     OW22900   1.275   4.372   4.772
 7334SOL    HW122901   1.253   4.385   4.869
 7334SOL    HW222902   1.203   4.412   4.716
 7335SOL     OW22903   0.609   3.269   2.815
 7335SOL    HW122904   0.700   3.234   2.795
 7335SOL    HW222905   0.560   3.203   2.872
 7336SOL     OW22906   2.609   0.197   0.477
 7336SOL    HW122907   2.614   0.249   0.563
 7336SOL    HW222908   2.593   0.101   0.497
 7337SOL     OW22909   3.357   1.350   3.538
 7337SOL    HW122910   3.430   1.364   3.471
 7337SOL    HW222911   3.270   1.334   3.490
 7338SOL     OW22912   5.284   3.642   1.054
 7338SOL    HW122913   5.205   3.693   1.021
 7338SOL    HW222914   5.359   3.705   1.075
 7339SOL     OW22915   0.028   6.761   4.141
 7339SOL    HW122916   0.107   6.768   4.079
 7339SOL    HW222917   0.017   6.666   4.170
 7340SOL     OW22918   2.144   6.129   0.038
 7340SOL    HW122919   2.230   6.116   7.012
 7340SOL    HW222920   2.144   6.075   0.122
 7341SOL     OW22921   6.260   5.309   3.552
 7341SOL    HW122922   6.189   5.360   3.600
 7341SOL    HW222923   6.333   5.372   3.525
 7342SOL     OW22924   0.488   5.396   0.504
 7342SOL    HW122925   0.432   5.468   0.463
 7342SOL    HW222926   0.579   5.432   0.524
 7343SOL     OW22927   6.960   2.378   3.083
 7343SOL    HW122928   0.033   2.373   3.058
 7343SOL    HW222929   6.905   2.391   3.000
 7344SOL     OW22930   2.346   1.000   6.732
 7344SOL    HW122931   2.385   0.911   6.707
 7344SOL    HW222932   2.342   1.058   6.651
 7345SOL     OW22933   1.970   6.915   6.557
 7345SOL    HW122934   1.904   6.845   6.584
 7345SOL    HW222935   1.925   6.983   6.498
 7346SOL     OW22936   3.530   5.103   3.275
 7346SOL    HW122937   3.450   5.150   3.237
 7346SOL    HW222938   3.598   5.171   3.304
 7347SOL     OW22939   6.452   3.167   3.004
 7347SOL    HW122940   6.400   3.085   2.979
 7347SOL    HW222941   6.409   3.210   3.084
 7348SOL     OW22942   6.251   1.034   5.997
 7348SOL    HW122943   6.245   1.089   5.914
 7348SOL    HW222944   6.347   1.016   6.018
 7349SOL     OW22945   3.810   1.553   1.183
 7349SOL    HW122946   3.787   1.651   1.179
 7349SOL    HW222947   3.821   1.526   1.279
 7350SOL     OW22948   2.340   0.966   3.252
 7350SOL    HW122949   2.379   0.876   3.227
 7350SOL    HW222950   2.340   1.025   3.171
 7351SOL     OW22951   4.358   4.646   0.728
 7351SOL    HW122952   4.272   4.667   0.681
 7351SOL    HW222953   4.434   4.686   0.678
 7352SOL     OW22954   6.745   0.690   3.489
 7352SOL    HW122955   6.808   0.760   3.524
 7352SOL    HW222956   6.716   0.631   3.565
 7353SOL     OW22957   5.455   1.457   5.663
 7353SOL    HW122958   5.535   1.418   5.708
 7353SOL    HW222959   5.445   1.416   5.572
 7354SOL     OW22960   5.698   4.360   4.732
 7354SOL    HW122961   5.695   4.417   4.814
 7354SOL    HW222962   5.620   4.298   4.731
 7355SOL     OW22963   6.844   5.856   1.233
 7355SOL    HW122964   6.907   5.838   1.158
 7355SOL    HW222965   6.757   5.811   1.214
 7356SOL     OW22966   0.047   1.997   6.016
 7356SOL    HW122967   0.081   2.007   5.922
 7356SOL    HW222968   0.116   2.030   6.080
 7357SOL     OW22969   1.038   1.484   0.671
 7357SOL    HW122970   0.995   1.394   0.666
 7357SOL    HW222971   1.060   1.515   0.578
 7358SOL     OW22972   3.685   0.752   3.802
 7358SOL    HW122973   3.614   0.721   3.866
 7358SOL    HW222974   3.643   0.811   3.733
 7359SOL     OW22975   2.987   3.295   3.766
 7359SOL    HW122976   2.935   3.355   3.828
 7359SOL    HW222977   2.964   3.318   3.671
 7360SOL     OW22978   0.757   4.161   6.595
 7360SOL    HW122979   0.814   4.080   6.581
 7360SOL    HW222980   0.674   4.155   6.540
 7361SOL     OW22981   4.460   6.822   1.448
 7361SOL    HW122982   4.497   6.887   1.381
 7361SOL    HW222983   4.496   6.845   1.539
 7362SOL     OW22984   1.578   6.073   6.373
 7362SOL    HW122985   1.550   6.128   6.452
 7362SOL    HW222986   1.511   6.000   6.358
 7363SOL     OW22987   4.294   2.475   6.312
 7363SOL    HW122988   4.237   2.498   6.233
 7363SOL    HW222989   4.375   2.533   6.314
 7364SOL     OW22990   4.804   0.195   0.822
 7364SOL    HW122991   4.843   0.148   0.901
 7364SOL    HW222992   4.832   0.148   0.738
 7365SOL     OW22993   4.616   0.081   1.137
 7365SOL    HW122994   4.651   0.007   1.194
 7365SOL    HW222995   4.622   0.167   1.188
 7366SOL     OW22996   1.526   0.142   0.377
 7366SOL    HW122997   1.465   0.143   0.298
 7366SOL    HW222998   1.502   0.217   0.439
 7367SOL     OW22999   4.391   2.801   6.940
 7367SOL    HW123000   4.477   2.851   6.942
 7367SOL    HW223001   4.380   2.748   0.001
 7368SOL     OW23002   3.441   3.189   4.545
 7368SOL    HW123003   3.464   3.141   4.629
 7368SOL    HW223004   3.342   3.190   4.533
 7369SOL     OW23005   5.839   0.793   6.202
 7369SOL    HW123006   5.831   0.858   6.127
 7369SOL    HW223007   5.846   0.700   6.166
 7370SOL     OW23008   0.672   5.918   0.786
 7370SOL    HW123009   0.580   5.880   0.791
 7370SOL    HW223010   0.693   5.943   0.692
 7371SOL     OW23011   1.179   4.846   4.623
 7371SOL    HW123012   1.122   4.772   4.661
 7371SOL    HW223013   1.192   4.917   4.693
 7372SOL     OW23014   3.207   0.692   5.218
 7372SOL    HW123015   3.116   0.728   5.195
 7372SOL    HW223016   3.277   0.758   5.192
 7373SOL     OW23017   3.632   0.301   1.212
 7373SOL    HW123018   3.613   0.279   1.116
 7373SOL    HW223019   3.577   0.379   1.240
 7374SOL     OW23020   2.573   3.595   6.528
 7374SOL    HW123021   2.541   3.541   6.450
 7374SOL    HW223022   2.506   3.590   6.602
 7375SOL     OW23023   2.942   6.254   3.117
 7375SOL    HW123024   3.033   6.252   3.077
 7375SOL    HW223025   2.884   6.318   3.066
 7376SOL     OW23026   3.275   3.811   6.490
 7376SOL    HW123027   3.307   3.818   6.396
 7376SOL    HW223028   3.189   3.760   6.492
 7377SOL     OW23029   6.262   5.864   1.845
 7377SOL    HW123030   6.307   5.954   1.837
 7377SOL    HW223031   6.290   5.807   1.768
 7378SOL     OW23032   0.421   2.514   5.147
 7378SOL    HW123033   0.440   2.426   5.102
 7378SOL    HW223034   0.367   2.498   5.229
 7379SOL     OW23035   4.540   0.705   0.498
 7379SOL    HW123036   4.629   0.724   0.455
 7379SOL    HW223037   4.526   0.769   0.574
 7380SOL     OW23038   6.589   3.188   6.548
 7380SOL    HW123039   6.500   3.144   6.552
 7380SOL    HW223040   6.614   3.222   6.639
 7381SOL     OW23041   5.072   2.021   0.103
 7381SOL    HW123042   5.119   2.105   0.129
 7381SOL    HW223043   5.034   2.030   0.011
 7382SOL     OW23044   1.244   5.166   3.803
 7382SOL    HW123045   1.166   5.219   3.837
 7382SOL    HW223046   1.314   5.159   3.875
 7383SOL     OW23047   1.720   4.596   3.016
 7383SOL    HW123048   1.783   4.573   3.090
 7383SOL    HW223049   1.649   4.657   3.051
 7384SOL     OW23050   6.505   1.980   0.510
 7384SOL    HW123051   6.423   1.994   0.565
 7384SOL    HW223052   6.480   1.937   0.424
 7385SOL     OW23053   5.150   0.717   2.043
 7385SOL    HW123054   5.236   0.767   2.051
 7385SOL    HW223055   5.094   0.735   2.124
 7386SOL     OW23056   6.735   1.896   5.848
 7386SOL    HW123057   6.810   1.891   5.782
 7386SOL    HW223058   6.772   1.885   5.941
 7387SOL     OW23059   5.149   6.343   3.849
 7387SOL    HW123060   5.230   6.387   3.811
 7387SOL    HW223061   5.068   6.400   3.829
 7388SOL     OW23062   5.487   3.817   4.988
 7388SOL    HW123063   5.414   3.762   4.949
 7388SOL    HW223064   5.525   3.877   4.917
 7389SOL     OW23065   0.744   3.335   4.961
 7389SOL    HW123066   0.682   3.396   4.911
 7389SOL    HW223067   0.749   3.247   4.914
 7390SOL     OW23068   3.996   0.689   6.643
 7390SOL    HW123069   3.898   0.674   6.653
 7390SOL    HW223070   4.013   0.780   6.605
 7391SOL     OW23071   0.370   4.903   0.153
 7391SOL    HW123072   0.306   4.912   0.078
 7391SOL    HW223073   0.446   4.968   0.140
 7392SOL     OW23074   2.295   4.866   2.355
 7392SOL    HW123075   2.280   4.862   2.256
 7392SOL    HW223076   2.322   4.776   2.388
 7393SOL     OW23077   0.787   3.826   6.858
 7393SOL    HW123078   0.809   3.871   6.945
 7393SOL    HW223079   0.870   3.787   6.818
 7394SOL     OW23080   2.362   2.795   6.026
 7394SOL    HW123081   2.424   2.726   6.065
 7394SOL    HW223082   2.375   2.798   5.927
 7395SOL     OW23083   2.576   0.544   0.218
 7395SOL    HW123084   2.504   0.473   0.221
 7395SOL    HW223085   2.566   0.596   0.134
 7396SOL     OW23086   6.812   6.868   1.839
 7396SOL    HW123087   6.822   6.829   1.747
 7396SOL    HW223088   6.740   6.937   1.838
 7397SOL     OW23089   6.328   4.118   4.649
 7397SOL    HW123090   6.383   4.147   4.570
 7397SOL    HW223091   6.379   4.049   4.701
 7398SOL     OW23092   4.567   6.646   3.253
 7398SOL    HW123093   4.560   6.739   3.217
 7398SOL    HW223094   4.658   6.609   3.234
 7399SOL     OW23095   5.127   4.620   4.532
 7399SOL    HW123096   5.101   4.531   4.494
 7399SOL    HW223097   5.225   4.635   4.518
 7400SOL     OW23098   2.503   4.371   0.520
 7400SOL    HW123099   2.581   4.318   0.488
 7400SOL    HW223100   2.534   4.459   0.556
 7401SOL     OW23101   5.946   2.443   5.045
 7401SOL    HW123102   5.885   2.383   5.098
 7401SOL    HW223103   5.892   2.493   4.978
 7402SOL     OW23104   2.227   6.075   4.147
 7402SOL    HW123105   2.185   6.066   4.238
 7402SOL    HW223106   2.186   6.009   4.085
 7403SOL     OW23107   2.614   2.884   1.702
 7403SOL    HW123108   2.655   2.968   1.666
 7403SOL    HW223109   2.526   2.906   1.745
 7404SOL     OW23110   1.178   1.920   2.802
 7404SOL    HW123111   1.190   2.008   2.849
 7404SOL    HW223112   1.247   1.910   2.731
 7405SOL     OW23113   4.222   4.606   6.454
 7405SOL    HW123114   4.273   4.533   6.499
 7405SOL    HW223115   4.281   4.687   6.446
 7406SOL     OW23116   0.510   6.465   2.586
 7406SOL    HW123117   0.467   6.485   2.675
 7406SOL    HW223118   0.583   6.531   2.570
 7407SOL     OW23119   2.878   0.981   6.082
 7407SOL    HW123120   2.897   0.981   5.984
 7407SOL    HW223121   2.868   0.886   6.113
 7408SOL     OW23122   1.076   3.799   5.431
 7408SOL    HW123123   1.080   3.830   5.526
 7408SOL    HW223124   1.004   3.848   5.382
 7409SOL     OW23125   2.530   6.985   5.147
 7409SOL    HW123126   2.504   0.051   5.112
 7409SOL    HW223127   2.506   6.979   5.244
 7410SOL     OW23128   4.321   5.691   5.877
 7410SOL    HW123129   4.246   5.635   5.841
 7410SOL    HW223130   4.285   5.756   5.944
 7411SOL     OW23131   5.131   4.224   5.761
 7411SOL    HW123132   5.128   4.135   5.806
 7411SOL    HW223133   5.195   4.284   5.808
 7412SOL     OW23134   1.630   1.262   6.742
 7412SOL    HW123135   1.615   1.360   6.724
 7412SOL    HW223136   1.670   1.219   6.661
 7413SOL     OW23137   6.979   3.420   4.010
 7413SOL    HW123138   6.953   3.489   4.078
 7413SOL    HW223139   0.015   3.461   3.941
 7414SOL     OW23140   0.535   4.977   1.441
 7414SOL    HW123141   0.534   4.927   1.354
 7414SOL    HW223142   0.482   4.927   1.509
 7415SOL     OW23143   3.143   1.562   3.428
 7415SOL    HW123144   3.151   1.514   3.515
 7415SOL    HW223145   3.088   1.507   3.365
 7416SOL     OW23146   6.611   0.096   3.118
 7416SOL    HW123147   6.665   0.133   3.042
 7416SOL    HW223148   6.590   7.023   3.099
 7417SOL     OW23149   0.373   4.911   1.071
 7417SOL    HW123150   0.389   4.867   0.983
 7417SOL    HW223151   0.423   4.862   1.142
 7418SOL     OW23152   1.050   3.602   0.033
 7418SOL    HW123153   1.136   3.605   0.084
 7418SOL    HW223154   1.004   3.514   0.050
 7419SOL     OW23155   6.228   2.276   5.409
 7419SOL    HW123156   6.253   2.273   5.312
 7419SOL    HW223157   6.147   2.333   5.420
 7420SOL     OW23158   6.749   5.530   2.501
 7420SOL    HW123159   6.694   5.506   2.582
 7420SOL    HW223160   6.687   5.553   2.426
 7421SOL     OW23161   4.189   1.784   1.488
 7421SOL    HW123162   4.092   1.763   1.475
 7421SOL    HW223163   4.207   1.878   1.456
 7422SOL     OW23164   0.668   1.666   0.549
 7422SOL    HW123165   0.756   1.666   0.598
 7422SOL    HW223166   0.681   1.703   0.457
 7423SOL     OW23167   2.190   4.270   0.324
 7423SOL    HW123168   2.253   4.209   0.371
 7423SOL    HW223169   2.187   4.358   0.371
 7424SOL     OW23170   5.148   0.348   4.627
 7424SOL    HW123171   5.206   0.408   4.680
 7424SOL    HW223172   5.096   0.288   4.688
 7425SOL     OW23173   3.425   0.126   4.888
 7425SOL    HW123174   3.432   0.181   4.806
 7425SOL    HW223175   3.508   0.135   4.942
 7426SOL     OW23176   0.318   1.107   6.501
 7426SOL    HW123177   0.347   1.092   6.595
 7426SOL    HW223178   0.397   1.134   6.445
 7427SOL     OW23179   5.267   5.509   5.138
 7427SOL    HW123180   5.324   5.429   5.158
 7427SOL    HW223181   5.319   5.573   5.083
 7428SOL     OW23182   4.213   1.041   5.491
 7428SOL    HW123183   4.240   1.046   5.395
 7428SOL    HW223184   4.174   1.129   5.519
 7429SOL     OW23185   6.365   6.144   4.042
 7429SOL    HW123186   6.400   6.235   4.062
 7429SOL    HW223187   6.367   6.088   4.125
 7430SOL     OW23188   0.447   4.130   4.133
 7430SOL    HW123189   0.529   4.147   4.187
 7430SOL    HW223190   0.435   4.031   4.120
 7431SOL     OW23191   0.601   4.064   2.433
 7431SOL    HW123192   0.636   4.156   2.449
 7431SOL    HW223193   0.505   4.069   2.407
 7432SOL     OW23194   1.845   6.334   5.119
 7432SOL    HW123195   1.843   6.278   5.202
 7432SOL    HW223196   1.786   6.414   5.131
 7433SOL     OW23197   0.217   6.477   1.054
 7433SOL    HW123198   0.239   6.546   1.122
 7433SOL    HW223199   0.222   6.517   0.963
 7434SOL     OW23200   3.838   6.664   0.292
 7434SOL    HW123201   3.834   6.679   0.391
 7434SOL    HW223202   3.901   6.728   0.251
 7435SOL     OW23203   1.404   5.712   0.059
 7435SOL    HW123204   1.388   5.620   0.092
 7435SOL    HW223205   1.332   5.773   0.092
 7436SOL     OW23206   4.164   3.781   0.409
 7436SOL    HW123207   4.244   3.827   0.448
 7436SOL    HW223208   4.183   3.753   0.315
 7437SOL     OW23209   0.071   6.398   5.389
 7437SOL    HW123210   0.029   6.307   5.385
 7437SOL    HW223211   0.056   6.445   5.303
 7438SOL     OW23212   5.709   4.072   1.370
 7438SOL    HW123213   5.793   4.123   1.351
 7438SOL    HW223214   5.722   4.015   1.451
 7439SOL     OW23215   1.438   6.183   2.413
 7439SOL    HW123216   1.485   6.096   2.429
 7439SOL    HW223217   1.345   6.177   2.449
 7440SOL     OW23218   0.785   1.396   3.695
 7440SOL    HW123219   0.834   1.368   3.613
 7440SOL    HW223220   0.782   1.320   3.760
 7441SOL     OW23221   6.361   0.011   3.771
 7441SOL    HW123222   6.452   0.051   3.787
 7441SOL    HW223223   6.348   7.021   3.673
 7442SOL     OW23224   1.737   0.811   5.954
 7442SOL    HW123225   1.718   0.768   5.865
 7442SOL    HW223226   1.659   0.796   6.015
 7443SOL     OW23227   6.641   2.499   2.040
 7443SOL    HW123228   6.675   2.466   1.951
 7443SOL    HW223229   6.648   2.599   2.043
 7444SOL     OW23230   0.803   2.881   5.065
 7444SOL    HW123231   0.900   2.861   5.071
 7444SOL    HW223232   0.751   2.796   5.068
 7445SOL     OW23233   6.076   2.979   1.631
 7445SOL    HW123234   6.001   2.920   1.659
 7445SOL    HW223235   6.049   3.033   1.552
 7446SOL     OW23236   5.990   3.474   3.171
 7446SOL    HW123237   6.001   3.416   3.090
 7446SOL    HW223238   6.074   3.528   3.185
 7447SOL     OW23239   0.331   3.956   6.454
 7447SOL    HW123240   0.418   3.910   6.473
 7447SOL    HW223241   0.289   3.986   6.540
 7448SOL     OW23242   0.111   6.982   6.408
 7448SOL    HW123243   0.155   6.892   6.413
 7448SOL    HW223244   0.016   6.971   6.380
 7449SOL     OW23245   4.164   0.148   1.846
 7449SOL    HW123246   4.186   0.082   1.774
 7449SOL    HW223247   4.199   0.238   1.820
 7450SOL     OW23248   3.674   1.214   2.044
 7450SOL    HW123249   3.602   1.270   2.084
 7450SOL    HW223250   3.675   1.226   1.945
 7451SOL     OW23251   1.253   0.480   2.919
 7451SOL    HW123252   1.310   0.399   2.932
 7451SOL    HW223253   1.290   0.556   2.972
 7452SOL     OW23254   1.943   5.934   3.562
 7452SOL    HW123255   1.907   6.021   3.527
 7452SOL    HW223256   2.019   5.904   3.505
 7453SOL     OW23257   6.235   4.727   5.494
 7453SOL    HW123258   6.199   4.646   5.447
 7453SOL    HW223259   6.191   4.809   5.458
 7454SOL     OW23260   1.096   3.099   6.637
 7454SOL    HW123261   1.058   3.143   6.556
 7454SOL    HW223262   1.030   3.035   6.675
 7455SOL     OW23263   5.273   0.682   0.787
 7455SOL    HW123264   5.288   0.776   0.818
 7455SOL    HW223265   5.314   0.670   0.697
 7456SOL     OW23266   1.226   3.932   6.420
 7456SOL    HW123267   1.156   4.001   6.401
 7456SOL    HW223268   1.199   3.844   6.379
 7457SOL     OW23269   6.657   6.815   5.800
 7457SOL    HW123270   6.729   6.747   5.790
 7457SOL    HW223271   6.698   6.906   5.811
 7458SOL     OW23272   2.336   0.670   0.950
 7458SOL    HW123273   2.315   0.597   0.884
 7458SOL    HW223274   2.417   0.644   1.003
 7459SOL     OW23275   4.183   6.266   4.402
 7459SOL    HW123276   4.101   6.221   4.366
 7459SOL    HW223277   4.156   6.344   4.458
 7460SOL     OW23278   1.092   5.333   0.015
 7460SOL    HW123279   1.174   5.280   0.038
 7460SOL    HW223280   1.100   5.425   0.053
 7461SOL     OW23281   4.318   0.955   4.285
 7461SOL    HW123282   4.235   0.996   4.323
 7461SOL    HW223283   4.361   1.020   4.223
 7462SOL     OW23284   2.247   1.384   3.140
 7462SOL    HW123285   2.232   1.464   3.082
 7462SOL    HW223286   2.298   1.315   3.087
 7463SOL     OW23287   3.766   3.808   2.258
 7463SOL    HW123288   3.818   3.840   2.338
 7463SOL    HW223289   3.826   3.806   2.178
 7464SOL     OW23290   4.700   6.586   0.042
 7464SOL    HW123291   4.680   6.490   0.057
 7464SOL    HW223292   4.689   6.637   0.128
 7465SOL     OW23293   3.801   0.525   2.996
 7465SOL    HW123294   3.768   0.464   3.068
 7465SOL    HW223295   3.892   0.496   2.967
 7466SOL     OW23296   5.953   0.188   0.315
 7466SOL    HW123297   5.864   0.147   0.334
 7466SOL    HW223298   5.960   0.209   0.217
 7467SOL     OW23299   4.832   2.116   0.949
 7467SOL    HW123300   4.750   2.084   0.901
 7467SOL    HW223301   4.913   2.094   0.895
 7468SOL     OW23302   5.876   3.877   4.255
 7468SOL    HW123303   5.893   3.974   4.239
 7468SOL    HW223304   5.954   3.824   4.222
 7469SOL     OW23305   5.328   0.998   1.869
 7469SOL    HW123306   5.366   0.909   1.844
 7469SOL    HW223307   5.248   0.984   1.928
 7470SOL     OW23308   6.805   3.512   3.140
 7470SOL    HW123309   6.886   3.472   3.098
 7470SOL    HW223310   6.723   3.480   3.092
 7471SOL     OW23311   6.349   4.900   5.741
 7471SOL    HW123312   6.378   4.932   5.831
 7471SOL    HW223313   6.391   4.811   5.721
 7472SOL     OW23314   4.097   5.115   3.267
 7472SOL    HW123315   4.055   5.123   3.177
 7472SOL    HW223316   4.044   5.053   3.324
 7473SOL     OW23317   1.127   3.401   5.077
 7473SOL    HW123318   1.118   3.468   5.150
 7473SOL    HW223319   1.142   3.449   4.990
 7474SOL     OW23320   2.575   1.390   3.246
 7474SOL    HW123321   2.495   1.342   3.280
 7474SOL    HW223322   2.567   1.488   3.268
 7475SOL     OW23323   4.856   1.050   6.283
 7475SOL    HW123324   4.880   1.098   6.368
 7475SOL    HW223325   4.757   1.051   6.272
 7476SOL     OW23326   1.943   6.685   4.831
 7476SOL    HW123327   1.949   6.586   4.815
 7476SOL    HW223328   1.997   6.709   4.911
 7477SOL     OW23329   5.051   3.627   4.217
 7477SOL    HW123330   5.041   3.581   4.129
 7477SOL    HW223331   4.968   3.679   4.238
 7478SOL     OW23332   0.680   4.465   1.607
 7478SOL    HW123333   0.761   4.490   1.554
 7478SOL    HW223334   0.695   4.487   1.703
 7479SOL     OW23335   4.000   0.395   5.202
 7479SOL    HW123336   3.953   0.454   5.137
 7479SOL    HW223337   3.952   0.307   5.208
 7480SOL     OW23338   6.224   5.376   0.355
 7480SOL    HW123339   6.301   5.316   0.335
 7480SOL    HW223340   6.161   5.331   0.418
 7481SOL     OW23341   5.796   6.235   0.224
 7481SOL    HW123342   5.752   6.218   0.312
 7481SOL    HW223343   5.883   6.283   0.238
 7482SOL     OW23344   4.988   6.903   4.680
 7482SOL    HW123345   4.958   6.928   4.588
 7482SOL    HW223346   5.015   6.986   4.730
 7483SOL     OW23347   3.500   0.473   6.297
 7483SOL    HW123348   3.494   0.531   6.216
 7483SOL    HW223349   3.412   0.428   6.313
 7484SOL     OW23350   3.673   0.288   1.767
 7484SOL    HW123351   3.707   0.300   1.861
 7484SOL    HW223352   3.720   0.352   1.706
 7485SOL     OW23353   0.917   6.730   5.297
 7485SOL    HW123354   0.961   6.759   5.383
 7485SOL    HW223355   0.929   6.802   5.229
 7486SOL     OW23356   0.838   1.988   5.295
 7486SOL    HW123357   0.917   2.047   5.283
 7486SOL    HW223358   0.826   1.931   5.214
 7487SOL     OW23359   3.679   5.298   3.313
 7487SOL    HW123360   3.741   5.360   3.267
 7487SOL    HW223361   3.640   5.343   3.393
 7488SOL     OW23362   4.792   0.601   5.174
 7488SOL    HW123363   4.693   0.589   5.160
 7488SOL    HW223364   4.811   0.604   5.272
 7489SOL     OW23365   6.606   3.680   3.818
 7489SOL    HW123366   6.591   3.581   3.819
 7489SOL    HW223367   6.584   3.717   3.727
 7490SOL     OW23368   5.716   0.342   3.073
 7490SOL    HW123369   5.750   0.435   3.089
 7490SOL    HW223370   5.728   0.317   2.977
 7491SOL     OW23371   0.468   6.639   0.329
 7491SOL    HW123372   0.439   6.586   0.249
 7491SOL    HW223373   0.467   6.737   0.306
 7492SOL     OW23374   2.164   2.174   3.750
 7492SOL    HW123375   2.221   2.243   3.796
 7492SOL    HW223376   2.215   2.133   3.675
 7493SOL     OW23377   5.282   5.072   6.915
 7493SOL    HW123378   5.270   5.050   6.818
 7493SOL    HW223379   5.347   5.009   6.956
 7494SOL     OW23380   5.135   1.909   1.415
 7494SOL    HW123381   5.151   2.004   1.391
 7494SOL    HW223382   5.051   1.877   1.370
 7495SOL     OW23383   0.821   1.916   2.626
 7495SOL    HW123384   0.912   1.957   2.628
 7495SOL    HW223385   0.776   1.929   2.715
 7496SOL     OW23386   0.465   5.229   5.774
 7496SOL    HW123387   0.549   5.175   5.772
 7496SOL    HW223388   0.453   5.268   5.865
 7497SOL     OW23389   1.677   4.952   2.515
 7497SOL    HW123390   1.658   4.976   2.420
 7497SOL    HW223391   1.768   4.987   2.541
 7498SOL     OW23392   5.614   2.075   4.366
 7498SOL    HW123393   5.560   1.993   4.385
 7498SOL    HW223394   5.664   2.101   4.449
 7499SOL     OW23395   3.899   4.818   3.792
 7499SOL    HW123396   3.865   4.882   3.862
 7499SOL    HW223397   3.890   4.724   3.826
 7500SOL     OW23398   4.931   4.338   1.665
 7500SOL    HW123399   5.013   4.365   1.614
 7500SOL    HW223400   4.849   4.358   1.610
 7501SOL     OW23401   0.602   4.846   3.672
 7501SOL    HW123402   0.556   4.789   3.604
 7501SOL    HW223403   0.698   4.818   3.679
 7502SOL     OW23404   1.829   2.108   3.814
 7502SOL    HW123405   1.857   2.138   3.905
 7502SOL    HW223406   1.907   2.063   3.768
 7503SOL     OW23407   2.278   3.115   6.988
 7503SOL    HW123408   2.365   3.163   6.994
 7503SOL    HW223409   2.288   3.033   6.932
 7504SOL     OW23410   4.051   5.376   4.038
 7504SOL    HW123411   3.958   5.387   4.004
 7504SOL    HW223412   4.111   5.444   3.997
 7505SOL     OW23413   1.717   1.006   4.411
 7505SOL    HW123414   1.637   0.975   4.361
 7505SOL    HW223415   1.777   0.928   4.429
 7506SOL     OW23416   3.586   1.245   3.362
 7506SOL    HW123417   3.638   1.330   3.359
 7506SOL    HW223418   3.645   1.168   3.339
 7507SOL     OW23419   2.098   6.681   5.877
 7507SOL    HW123420   2.057   6.629   5.803
 7507SOL    HW223421   2.134   6.618   5.946
 7508SOL     OW23422   5.385   5.012   3.745
 7508SOL    HW123423   5.310   4.959   3.785
 7508SOL    HW223424   5.355   5.055   3.660
 7509SOL     OW23425   4.166   3.834   6.036
 7509SOL    HW123426   4.236   3.859   6.103
 7509SOL    HW223427   4.133   3.916   5.990
 7510SOL     OW23428   3.549   3.637   4.685
 7510SOL    HW123429   3.543   3.563   4.618
 7510SOL    HW223430   3.457   3.669   4.706
 7511SOL     OW23431   0.957   1.297   2.238
 7511SOL    HW123432   0.916   1.206   2.229
 7511SOL    HW223433   0.906   1.350   2.306
 7512SOL     OW23434   1.793   2.817   1.664
 7512SOL    HW123435   1.857   2.863   1.603
 7512SOL    HW223436   1.825   2.824   1.758
 7513SOL     OW23437   1.365   3.676   6.481
 7513SOL    HW123438   1.406   3.634   6.563
 7513SOL    HW223439   1.306   3.752   6.508
 7514SOL     OW23440   3.751   5.623   3.671
 7514SOL    HW123441   3.744   5.629   3.572
 7514SOL    HW223442   3.844   5.597   3.697
 7515SOL     OW23443   0.621   4.998   3.049
 7515SOL    HW123444   0.546   5.064   3.057
 7515SOL    HW223445   0.595   4.912   3.092
 7516SOL     OW23446   1.288   2.199   1.755
 7516SOL    HW123447   1.227   2.156   1.821
 7516SOL    HW223448   1.366   2.239   1.803
 7517SOL     OW23449   0.511   4.756   1.229
 7517SOL    HW123450   0.483   4.666   1.197
 7517SOL    HW223451   0.603   4.751   1.267
 7518SOL     OW23452   5.242   4.392   3.392
 7518SOL    HW123453   5.209   4.477   3.433
 7518SOL    HW223454   5.215   4.315   3.449
 7519SOL     OW23455   1.978   0.116   4.088
 7519SOL    HW123456   1.989   0.127   3.989
 7519SOL    HW223457   1.919   0.188   4.123
 7520SOL     OW23458   2.538   0.030   3.702
 7520SOL    HW123459   2.450   0.076   3.714
 7520SOL    HW223460   2.539   7.009   3.612
 7521SOL     OW23461   4.167   3.146   5.565
 7521SOL    HW123462   4.206   3.170   5.476
 7521SOL    HW223463   4.101   3.071   5.553
 7522SOL     OW23464   1.484   0.424   2.410
 7522SOL    HW123465   1.392   0.419   2.372
 7522SOL    HW223466   1.544   0.475   2.348
 7523SOL     OW23467   6.567   6.645   6.213
 7523SOL    HW123468   6.543   6.548   6.218
 7523SOL    HW223469   6.666   6.655   6.222
 7524SOL     OW23470   6.076   1.136   4.570
 7524SOL    HW123471   6.158   1.194   4.572
 7524SOL    HW223472   6.103   1.041   4.556
 7525SOL     OW23473   0.760   0.045   0.689
 7525SOL    HW123474   0.704   0.077   0.612
 7525SOL    HW223475   0.744   6.971   0.703
 7526SOL     OW23476   3.289   3.386   4.826
 7526SOL    HW123477   3.369   3.388   4.885
 7526SOL    HW223478   3.263   3.291   4.808
 7527SOL     OW23479   4.201   5.836   2.218
 7527SOL    HW123480   4.194   5.858   2.121
 7527SOL    HW223481   4.261   5.902   2.264
 7528SOL     OW23482   5.634   3.341   6.660
 7528SOL    HW123483   5.684   3.263   6.700
 7528SOL    HW223484   5.700   3.405   6.620
 7529SOL     OW23485   2.386   7.014   4.581
 7529SOL    HW123486   2.441   7.002   4.663
 7529SOL    HW223487   2.301   0.039   4.604
 7530SOL     OW23488   6.751   3.101   3.052
 7530SOL    HW123489   6.717   3.007   3.042
 7530SOL    HW223490   6.674   3.165   3.053
 7531SOL     OW23491   2.726   1.645   4.648
 7531SOL    HW123492   2.720   1.725   4.588
 7531SOL    HW223493   2.717   1.674   4.743
 7532SOL     OW23494   4.692   4.936   2.261
 7532SOL    HW123495   4.711   4.940   2.163
 7532SOL    HW223496   4.774   4.905   2.309
 7533SOL     OW23497   3.603   0.725   5.076
 7533SOL    HW123498   3.673   0.794   5.064
 7533SOL    HW223499   3.613   0.682   5.165
 7534SOL     OW23500   5.255   6.537   4.232
 7534SOL    HW123501   5.301   6.489   4.307
 7534SOL    HW223502   5.170   6.490   4.209
 7535SOL     OW23503   2.796   4.825   0.686
 7535SOL    HW123504   2.877   4.829   0.744
 7535SOL    HW223505   2.816   4.867   0.597
 7536SOL     OW23506   3.759   5.257   5.601
 7536SOL    HW123507   3.781   5.264   5.698
 7536SOL    HW223508   3.842   5.244   5.548
 7537SOL     OW23509   1.988   4.668   5.561
 7537SOL    HW123510   1.975   4.574   5.592
 7537SOL    HW223511   1.987   4.670   5.461
 7538SOL     OW23512   3.038   3.935   4.151
 7538SOL    HW123513   3.024   3.941   4.250
 7538SOL    HW223514   2.996   3.851   4.117
 7539SOL     OW23515   1.033   2.086   4.515
 7539SOL    HW123516   0.960   2.051   4.457
 7539SOL    HW223517   1.059   2.015   4.581
 7540SOL     OW23518   2.153   1.208   0.012
 7540SOL    HW123519   2.092   1.212   6.957
 7540SOL    HW223520   2.221   1.137   7.021
 7541SOL     OW23521   6.724   2.853   5.219
 7541SOL    HW123522   6.792   2.827   5.288
 7541SOL    HW223523   6.704   2.775   5.160
 7542SOL     OW23524   1.651   0.199   5.881
 7542SOL    HW123525   1.630   0.105   5.855
 7542SOL    HW223526   1.576   0.236   5.936
 7543SOL     OW23527   3.385   2.306   0.650
 7543SOL    HW123528   3.333   2.233   0.693
 7543SOL    HW223529   3.388   2.292   0.551
 7544SOL     OW23530   1.385   1.860   2.570
 7544SOL    HW123531   1.365   1.941   2.514
 7544SOL    HW223532   1.484   1.850   2.580
 7545SOL     OW23533   4.344   0.374   3.916
 7545SOL    HW123534   4.408   0.372   3.839
 7545SOL    HW223535   4.251   0.387   3.881
 7546SOL     OW23536   5.438   6.936   5.878
 7546SOL    HW123537   5.339   6.922   5.876
 7546SOL    HW223538   5.464   6.999   5.805
 7547SOL     OW23539   3.052   0.296   6.834
 7547SOL    HW123540   2.990   0.218   6.842
 7547SOL    HW223541   3.146   0.263   6.827
 7548SOL     OW23542   1.420   2.885   1.330
 7548SOL    HW123543   1.347   2.928   1.383
 7548SOL    HW223544   1.436   2.937   1.247
 7549SOL     OW23545   5.883   1.105   2.582
 7549SOL    HW123546   5.882   1.191   2.531
 7549SOL    HW223547   5.858   1.123   2.678
 7550SOL     OW23548   1.349   5.366   1.068
 7550SOL    HW123549   1.301   5.337   1.152
 7550SOL    HW223550   1.285   5.414   1.009
 7551SOL     OW23551   5.224   3.968   6.424
 7551SOL    HW123552   5.179   3.885   6.455
 7551SOL    HW223553   5.299   3.944   6.363
 7552SOL     OW23554   3.715   5.522   3.940
 7552SOL    HW123555   3.696   5.566   3.852
 7552SOL    HW223556   3.785   5.574   3.989
 7553SOL     OW23557   4.024   4.030   5.866
 7553SOL    HW123558   4.072   4.075   5.791
 7553SOL    HW223559   3.926   4.028   5.847
 7554SOL     OW23560   0.072   1.699   1.065
 7554SOL    HW123561   6.997   1.710   1.054
 7554SOL    HW223562   0.097   1.708   1.162
 7555SOL     OW23563   1.349   5.824   5.895
 7555SOL    HW123564   1.389   5.738   5.927
 7555SOL    HW223565   1.250   5.822   5.909
 7556SOL     OW23566   6.486   4.351   3.403
 7556SOL    HW123567   6.456   4.256   3.397
 7556SOL    HW223568   6.499   4.388   3.311
 7557SOL     OW23569   4.002   3.914   0.820
 7557SOL    HW123570   3.953   3.829   0.801
 7557SOL    HW223571   4.065   3.900   0.897
 7558SOL     OW23572   1.563   2.692   3.204
 7558SOL    HW123573   1.489   2.628   3.183
 7558SOL    HW223574   1.545   2.734   3.294
 7559SOL     OW23575   1.262   5.060   0.029
 7559SOL    HW123576   1.187   5.058   6.986
 7559SOL    HW223577   1.263   4.975   0.081
 7560SOL     OW23578   4.718   0.414   5.486
 7560SOL    HW123579   4.781   0.490   5.473
 7560SOL    HW223580   4.710   0.394   5.584
 7561SOL     OW23581   0.403   3.995   0.509
 7561SOL    HW123582   0.436   3.923   0.448
 7561SOL    HW223583   0.364   4.070   0.454
 7562SOL     OW23584   4.735   6.014   4.897
 7562SOL    HW123585   4.733   5.934   4.837
 7562SOL    HW223586   4.724   5.984   4.992
 7563SOL     OW23587   2.327   1.217   3.779
 7563SOL    HW123588   2.324   1.281   3.702
 7563SOL    HW223589   2.245   1.229   3.835
 7564SOL     OW23590   5.603   5.456   4.153
 7564SOL    HW123591   5.628   5.551   4.167
 7564SOL    HW223592   5.555   5.447   4.065
 7565SOL     OW23593   4.780   5.446   6.852
 7565SOL    HW123594   4.718   5.495   6.792
 7565SOL    HW223595   4.762   5.471   6.947
 7566SOL     OW23596   1.396   6.021   4.143
 7566SOL    HW123597   1.309   5.974   4.131
 7566SOL    HW223598   1.445   5.982   4.221
 7567SOL     OW23599   2.786   3.227   0.648
 7567SOL    HW123600   2.850   3.174   0.593
 7567SOL    HW223601   2.692   3.206   0.620
 7568SOL     OW23602   4.187   4.773   2.579
 7568SOL    HW123603   4.241   4.850   2.545
 7568SOL    HW223604   4.099   4.771   2.531
 7569SOL     OW23605   3.906   0.049   1.953
 7569SOL    HW123606   3.993   0.089   1.923
 7569SOL    HW223607   3.848   0.121   1.990
 7570SOL     OW23608   5.878   4.734   4.933
 7570SOL    HW123609   5.854   4.821   4.890
 7570SOL    HW223610   5.977   4.724   4.935
 7571SOL     OW23611   5.878   4.291   1.265
 7571SOL    HW123612   5.944   4.349   1.313
 7571SOL    HW223613   5.809   4.348   1.221
 7572SOL     OW23614   0.052   1.338   3.039
 7572SOL    HW123615   0.041   1.256   3.095
 7572SOL    HW223616   0.075   1.415   3.097
 7573SOL     OW23617   2.665   5.215   5.425
 7573SOL    HW123618   2.765   5.212   5.433
 7573SOL    HW223619   2.639   5.197   5.330
 7574SOL     OW23620   4.883   6.491   2.235
 7574SOL    HW123621   4.794   6.505   2.278
 7574SOL    HW223622   4.890   6.396   2.203
 7575SOL     OW23623   4.827   2.619   4.610
 7575SOL    HW123624   4.811   2.702   4.663
 7575SOL    HW223625   4.859   2.546   4.671
 7576SOL     OW23626   0.017   3.769   1.446
 7576SOL    HW123627   7.015   3.676   1.421
 7576SOL    HW223628   0.110   3.788   1.415
 7577SOL     OW23629   4.615   0.983   4.779
 7577SOL    HW123630   4.575   0.960   4.691
 7577SOL    HW223631   4.575   0.925   4.850
 7578SOL     OW23632   2.473   5.087   4.708
 7578SOL    HW123633   2.573   5.085   4.714
 7578SOL    HW223634   2.445   5.142   4.629
 7579SOL     OW23635   4.343   2.352   3.582
 7579SOL    HW123636   4.271   2.306   3.632
 7579SOL    HW223637   4.404   2.400   3.646
 7580SOL     OW23638   2.031   3.293   2.115
 7580SOL    HW123639   2.092   3.354   2.066
 7580SOL    HW223640   1.995   3.224   2.052
 7581SOL     OW23641   5.466   0.890   0.870
 7581SOL    HW123642   5.460   0.924   0.964
 7581SOL    HW223643   5.562   0.873   0.846
 7582SOL     OW23644   3.339   2.296   1.065
 7582SOL    HW123645   3.437   2.291   1.082
 7582SOL    HW223646   3.320   2.366   0.996
 7583SOL     OW23647   0.083   4.203   2.786
 7583SOL    HW123648   0.042   4.117   2.754
 7583SOL    HW223649   0.089   4.202   2.885
 7584SOL     OW23650   2.273   1.828   1.553
 7584SOL    HW123651   2.266   1.789   1.462
 7584SOL    HW223652   2.368   1.828   1.583
 7585SOL     OW23653   1.493   4.903   6.098
 7585SOL    HW123654   1.580   4.902   6.146
 7585SOL    HW223655   1.447   4.815   6.109
 7586SOL     OW23656   2.116   1.922   3.014
 7586SOL    HW123657   2.184   1.849   3.013
 7586SOL    HW223658   2.107   1.960   2.922
 7587SOL     OW23659   2.312   1.138   6.049
 7587SOL    HW123660   2.257   1.095   5.979
 7587SOL    HW223661   2.308   1.238   6.038
 7588SOL     OW23662   0.909   4.150   1.856
 7588SOL    HW123663   0.900   4.137   1.757
 7588SOL    HW223664   0.991   4.204   1.875
 7589SOL     OW23665   5.148   6.290   6.829
 7589SOL    HW123666   5.229   6.316   6.882
 7589SOL    HW223667   5.176   6.248   6.743
 7590SOL     OW23668   1.869   0.561   6.076
 7590SOL    HW123669   1.878   0.556   6.176
 7590SOL    HW223670   1.810   0.638   6.052
 7591SOL     OW23671   6.560   5.678   6.904
 7591SOL    HW123672   6.502   5.659   6.825
 7591SOL    HW223673   6.507   5.728   6.973
 7592SOL     OW23674   4.728   4.822   6.114
 7592SOL    HW123675   4.772   4.911   6.125
 7592SOL    HW223676   4.773   4.755   6.173
 7593SOL     OW23677   5.809   4.674   0.851
 7593SOL    HW123678   5.867   4.600   0.817
 7593SOL    HW223679   5.747   4.703   0.778
 7594SOL     OW23680   1.035   6.977   3.871
 7594SOL    HW123681   1.126   6.960   3.834
 7594SOL    HW223682   1.003   6.896   3.920
 7595SOL     OW23683   5.803   2.807   6.813
 7595SOL    HW123684   5.830   2.892   6.859
 7595SOL    HW223685   5.881   2.746   6.807
 7596SOL     OW23686   4.488   4.863   1.883
 7596SOL    HW123687   4.421   4.869   1.956
 7596SOL    HW223688   4.520   4.768   1.875
 7597SOL     OW23689   2.398   5.964   1.617
 7597SOL    HW123690   2.368   5.881   1.571
 7597SOL    HW223691   2.406   6.038   1.550
 7598SOL     OW23692   6.582   0.635   2.202
 7598SOL    HW123693   6.630   0.642   2.289
 7598SOL    HW223694   6.643   0.593   2.134
 7599SOL     OW23695   6.170   2.716   2.279
 7599SOL    HW123696   6.130   2.797   2.321
 7599SOL    HW223697   6.224   2.743   2.199
 7600SOL     OW23698   2.390   2.258   3.016
 7600SOL    HW123699   2.451   2.331   2.985
 7600SOL    HW223700   2.374   2.195   2.941
 7601SOL     OW23701   1.916   0.434   5.131
 7601SOL    HW123702   1.953   0.383   5.053
 7601SOL    HW223703   1.952   0.397   5.216
 7602SOL     OW23704   2.192   3.385   5.473
 7602SOL    HW123705   2.225   3.291   5.464
 7602SOL    HW223706   2.245   3.445   5.413
 7603SOL     OW23707   6.750   0.903   1.608
 7603SOL    HW123708   6.687   0.944   1.543
 7603SOL    HW223709   6.767   0.965   1.684
 7604SOL     OW23710   5.059   5.470   6.941
 7604SOL    HW123711   5.005   5.410   6.881
 7604SOL    HW223712   5.003   5.498   7.019
 7605SOL     OW23713   5.863   3.681   6.176
 7605SOL    HW123714   5.855   3.583   6.156
 7605SOL    HW223715   5.781   3.711   6.225
 7606SOL     OW23716   5.873   1.602   3.446
 7606SOL    HW123717   5.903   1.508   3.460
 7606SOL    HW223718   5.952   1.660   3.427
 7607SOL     OW23719   4.967   6.756   5.995
 7607SOL    HW123720   4.938   6.747   5.900
 7607SOL    HW223721   4.944   6.672   6.045
 7608SOL     OW23722   3.707   3.221   4.726
 7608SOL    HW123723   3.630   3.212   4.789
 7608SOL    HW223724   3.701   3.149   4.656
 7609SOL     OW23725   1.909   2.991   3.564
 7609SOL    HW123726   1.874   2.960   3.653
 7609SOL    HW223727   1.854   2.951   3.491
 7610SOL     OW23728   5.529   0.616   2.188
 7610SOL    HW123729   5.608   0.640   2.131
 7610SOL    HW223730   5.520   0.517   2.192
 7611SOL     OW23731   2.207   2.070   1.648
 7611SOL    HW123732   2.210   1.973   1.626
 7611SOL    HW223733   2.288   2.115   1.611
 7612SOL     OW23734   4.468   1.765   2.829
 7612SOL    HW123735   4.398   1.760   2.759
 7612SOL    HW223736   4.532   1.839   2.807
 7613SOL     OW23737   5.665   0.794   3.172
 7613SOL    HW123738   5.663   0.836   3.262
 7613SOL    HW223739   5.579   0.747   3.155
 7614SOL     OW23740   4.104   1.234   0.392
 7614SOL    HW123741   4.049   1.208   0.312
 7614SOL    HW223742   4.064   1.314   0.435
 7615SOL     OW23743   3.990   4.679   6.342
 7615SOL    HW123744   3.943   4.591   6.337
 7615SOL    HW223745   4.080   4.666   6.385
 7616SOL     OW23746   6.981   4.786   3.180
 7616SOL    HW123747   0.051   4.822   3.189
 7616SOL    HW223748   6.951   4.752   3.269
 7617SOL     OW23749   3.480   5.849   3.214
 7617SOL    HW123750   3.388   5.855   3.251
 7617SOL    HW223751   3.522   5.762   3.240
 7618SOL     OW23752   2.119   2.083   0.800
 7618SOL    HW123753   2.126   2.014   0.872
 7618SOL    HW223754   2.054   2.051   0.730
 7619SOL     OW23755   6.297   3.518   5.870
 7619SOL    HW123756   6.215   3.572   5.891
 7619SOL    HW223757   6.366   3.578   5.829
 7620SOL     OW23758   3.148   6.427   1.471
 7620SOL    HW123759   3.051   6.447   1.487
 7620SOL    HW223760   3.173   6.344   1.522
 7621SOL     OW23761   2.173   2.719   1.123
 7621SOL    HW123762   2.075   2.739   1.118
 7621SOL    HW223763   2.186   2.623   1.146
 7622SOL     OW23764   4.610   1.690   1.119
 7622SOL    HW123765   4.527   1.733   1.085
 7622SOL    HW223766   4.689   1.744   1.089
 7623SOL     OW23767   5.538   0.088   5.361
 7623SOL    HW123768   5.602   0.152   5.405
 7623SOL    HW223769   5.564   0.076   5.265
 7624SOL     OW23770   0.134   1.207   4.142
 7624SOL    HW123771   0.152   1.196   4.240
 7624SOL    HW223772   0.087   1.127   4.107
 7625SOL     OW23773   3.583   5.902   0.709
 7625SOL    HW123774   3.681   5.902   0.688
 7625SOL    HW223775   3.541   5.985   0.673
 7626SOL     OW23776   2.274   4.348   4.940
 7626SOL    HW123777   2.278   4.248   4.940
 7626SOL    HW223778   2.354   4.385   4.892
 7627SOL     OW23779   6.754   1.461   0.027
 7627SOL    HW123780   6.843   1.417   0.030
 7627SOL    HW223781   6.708   1.450   0.116
 7628SOL     OW23782   4.733   1.461   0.976
 7628SOL    HW123783   4.721   1.543   1.032
 7628SOL    HW223784   4.798   1.480   0.903
 7629SOL     OW23785   6.181   5.690   3.143
 7629SOL    HW123786   6.082   5.694   3.130
 7629SOL    HW223787   6.209   5.595   3.158
 7630SOL     OW23788   6.413   1.247   2.149
 7630SOL    HW123789   6.333   1.270   2.094
 7630SOL    HW223790   6.423   1.148   2.155
 7631SOL     OW23791   1.297   1.069   3.254
 7631SOL    HW123792   1.356   1.000   3.210
 7631SOL    HW223793   1.325   1.080   3.349
 7632SOL     OW23794   4.526   0.664   5.528
 7632SOL    HW123795   4.618   0.648   5.564
 7632SOL    HW223796   4.532   0.697   5.434
 7633SOL     OW23797   5.347   4.169   6.604
 7633SOL    HW123798   5.291   4.111   6.545
 7633SOL    HW223799   5.435   4.187   6.560
 7634SOL     OW23800   0.807   2.577   2.232
 7634SOL    HW123801   0.787   2.480   2.248
 7634SOL    HW223802   0.742   2.614   2.166
 7635SOL     OW23803   2.657   4.746   5.745
 7635SOL    HW123804   2.666   4.714   5.839
 7635SOL    HW223805   2.692   4.839   5.738
 7636SOL     OW23806   2.057   0.197   3.440
 7636SOL    HW123807   2.112   0.123   3.480
 7636SOL    HW223808   1.972   0.207   3.493
 7637SOL     OW23809   2.858   6.394   3.809
 7637SOL    HW123810   2.825   6.357   3.723
 7637SOL    HW223811   2.788   6.383   3.879
 7638SOL     OW23812   4.245   4.503   1.805
 7638SOL    HW123813   4.276   4.422   1.855
 7638SOL    HW223814   4.320   4.538   1.749
 7639SOL     OW23815   6.840   1.995   4.447
 7639SOL    HW123816   6.921   1.962   4.399
 7639SOL    HW223817   6.790   1.918   4.486
 7640SOL     OW23818   2.449   3.245   5.704
 7640SOL    HW123819   2.455   3.303   5.785
 7640SOL    HW223820   2.501   3.288   5.629
 7641SOL     OW23821   6.232   2.835   3.232
 7641SOL    HW123822   6.187   2.924   3.235
 7641SOL    HW223823   6.164   2.763   3.217
 7642SOL     OW23824   1.765   1.378   2.676
 7642SOL    HW123825   1.702   1.444   2.716
 7642SOL    HW223826   1.795   1.410   2.586
 7643SOL     OW23827   5.500   2.905   3.612
 7643SOL    HW123828   5.416   2.960   3.615
 7643SOL    HW223829   5.579   2.963   3.632
 7644SOL     OW23830   6.327   3.869   3.684
 7644SOL    HW123831   6.277   3.788   3.713
 7644SOL    HW223832   6.406   3.843   3.630
 7645SOL     OW23833   3.603   3.054   0.302
 7645SOL    HW123834   3.611   3.110   0.385
 7645SOL    HW223835   3.693   3.042   0.261
 7646SOL     OW23836   0.750   1.008   1.798
 7646SOL    HW123837   0.769   0.969   1.708
 7646SOL    HW223838   0.750   1.108   1.792
 7647SOL     OW23839   2.321   4.748   0.413
 7647SOL    HW123840   2.312   4.822   0.345
 7647SOL    HW223841   2.408   4.702   0.400
 7648SOL     OW23842   3.472   0.636   3.981
 7648SOL    HW123843   3.452   0.591   4.068
 7648SOL    HW223844   3.388   0.640   3.927
 7649SOL     OW23845   3.073   1.517   1.633
 7649SOL    HW123846   3.044   1.422   1.620
 7649SOL    HW223847   3.158   1.533   1.583
 7650SOL     OW23848   5.891   4.411   0.770
 7650SOL    HW123849   5.850   4.322   0.749
 7650SOL    HW223850   5.954   4.401   0.847
 7651SOL     OW23851   4.967   2.489   6.199
 7651SOL    HW123852   4.988   2.395   6.225
 7651SOL    HW223853   4.889   2.522   6.252
 7652SOL     OW23854   1.233   3.452   3.197
 7652SOL    HW123855   1.167   3.377   3.198
 7652SOL    HW223856   1.281   3.453   3.110
 7653SOL     OW23857   4.161   2.185   2.431
 7653SOL    HW123858   4.233   2.200   2.499
 7653SOL    HW223859   4.194   2.125   2.359
 7654SOL     OW23860   5.400   3.678   3.976
 7654SOL    HW123861   5.472   3.708   3.914
 7654SOL    HW223862   5.333   3.624   3.925
 7655SOL     OW23863   5.134   5.361   5.395
 7655SOL    HW123864   5.204   5.292   5.373
 7655SOL    HW223865   5.171   5.452   5.376
 7656SOL     OW23866   1.069   7.018   4.575
 7656SOL    HW123867   0.989   0.007   4.634
 7656SOL    HW223868   1.052   0.039   4.486
 7657SOL     OW23869   4.496   1.636   4.015
 7657SOL    HW123870   4.513   1.672   4.106
 7657SOL    HW223871   4.552   1.556   3.998
 7658SOL     OW23872   4.452   0.199   6.276
 7658SOL    HW123873   4.478   0.282   6.325
 7658SOL    HW223874   4.353   0.195   6.266
 7659SOL     OW23875   4.959   6.117   0.051
 7659SOL    HW123876   4.891   6.141   0.121
 7659SOL    HW223877   4.954   6.183   6.999
 7660SOL     OW23878   5.630   4.792   4.383
 7660SOL    HW123879   5.685   4.757   4.308
 7660SOL    HW223880   5.653   4.743   4.467
 7661SOL     OW23881   5.967   3.229   4.234
 7661SOL    HW123882   6.062   3.212   4.259
 7661SOL    HW223883   5.962   3.262   4.140
 7662SOL     OW23884   6.395   5.467   2.907
 7662SOL    HW123885   6.451   5.415   2.973
 7662SOL    HW223886   6.299   5.459   2.933
 7663SOL     OW23887   6.707   5.828   0.367
 7663SOL    HW123888   6.725   5.904   0.304
 7663SOL    HW223889   6.742   5.851   0.457
 7664SOL     OW23890   2.502   5.717   4.943
 7664SOL    HW123891   2.474   5.684   5.034
 7664SOL    HW223892   2.454   5.665   4.873
 7665SOL     OW23893   2.782   5.290   4.151
 7665SOL    HW123894   2.707   5.304   4.086
 7665SOL    HW223895   2.834   5.209   4.124
 7666SOL     OW23896   2.802   0.959   1.595
 7666SOL    HW123897   2.896   0.937   1.621
 7666SOL    HW223898   2.794   1.058   1.582
 7667SOL     OW23899   5.124   6.067   5.728
 7667SOL    HW123900   5.203   6.111   5.686
 7667SOL    HW223901   5.150   6.027   5.816
 7668SOL     OW23902   3.169   4.192   1.597
 7668SOL    HW123903   3.167   4.139   1.512
 7668SOL    HW223904   3.161   4.129   1.675
 7669SOL     OW23905   4.596   6.241   4.841
 7669SOL    HW123906   4.501   6.213   4.823
 7669SOL    HW223907   4.656   6.162   4.832
 7670SOL     OW23908   1.120   5.502   0.928
 7670SOL    HW123909   1.083   5.557   1.003
 7670SOL    HW223910   1.054   5.498   0.853
 7671SOL     OW23911   5.621   2.469   4.701
 7671SOL    HW123912   5.712   2.428   4.692
 7671SOL    HW223913   5.625   2.565   4.675
 7672SOL     OW23914   6.225   0.476   1.746
 7672SOL    HW123915   6.272   0.526   1.818
 7672SOL    HW223916   6.170   0.403   1.786
 7673SOL     OW23917   0.088   3.986   6.878
 7673SOL    HW123918   0.155   4.022   6.812
 7673SOL    HW223919   0.136   3.956   6.960
 7674SOL     OW23920   6.255   0.597   5.252
 7674SOL    HW123921   6.276   0.639   5.164
 7674SOL    HW223922   6.274   0.499   5.248
 7675SOL     OW23923   5.204   0.024   3.332
 7675SOL    HW123924   5.154   0.028   3.245
 7675SOL    HW223925   5.262   6.967   3.334
 7676SOL     OW23926   1.563   0.597   1.624
 7676SOL    HW123927   1.513   0.594   1.538
 7676SOL    HW223928   1.502   0.569   1.699
 7677SOL     OW23929   1.663   1.982   2.873
 7677SOL    HW123930   1.642   2.058   2.935
 7677SOL    HW223931   1.757   1.990   2.840
 7678SOL     OW23932   5.337   6.684   6.044
 7678SOL    HW123933   5.415   6.735   6.006
 7678SOL    HW223934   5.318   6.717   6.136
 7679SOL     OW23935   1.269   5.306   4.637
 7679SOL    HW123936   1.319   5.314   4.550
 7679SOL    HW223937   1.171   5.300   4.618
 7680SOL     OW23938   5.437   0.956   6.567
 7680SOL    HW123939   5.504   1.024   6.536
 7680SOL    HW223940   5.392   0.916   6.487
 7681SOL     OW23941   2.726   2.010   6.305
 7681SOL    HW123942   2.754   1.955   6.226
 7681SOL    HW223943   2.807   2.049   6.348
 7682SOL     OW23944   2.902   6.750   1.206
 7682SOL    HW123945   2.852   6.680   1.154
 7682SOL    HW223946   2.839   6.794   1.270
 7683SOL     OW23947   6.888   2.089   2.958
 7683SOL    HW123948   6.881   2.041   2.871
 7683SOL    HW223949   6.876   2.025   3.033
 7684SOL     OW23950   4.087   2.536   6.155
 7684SOL    HW123951   4.016   2.465   6.158
 7684SOL    HW223952   4.068   2.604   6.226
 7685SOL     OW23953   4.282   3.841   1.320
 7685SOL    HW123954   4.244   3.812   1.407
 7685SOL    HW223955   4.241   3.928   1.293
 7686SOL     OW23956   3.369   0.922   3.519
 7686SOL    HW123957   3.276   0.911   3.552
 7686SOL    HW223958   3.370   0.911   3.419
 7687SOL     OW23959   4.425   4.795   6.481
 7687SOL    HW123960   4.422   4.884   6.436
 7687SOL    HW223961   4.410   4.808   6.579
 7688SOL     OW23962   6.824   0.499   3.022
 7688SOL    HW123963   6.861   0.519   3.113
 7688SOL    HW223964   6.810   0.400   3.012
 7689SOL     OW23965   3.352   5.934   4.861
 7689SOL    HW123966   3.394   5.983   4.937
 7689SOL    HW223967   3.282   5.991   4.818
 7690SOL     OW23968   0.877   5.303   2.194
 7690SOL    HW123969   0.842   5.238   2.262
 7690SOL    HW223970   0.954   5.261   2.145
 7691SOL     OW23971   6.230   3.822   5.687
 7691SOL    HW123972   6.237   3.875   5.772
 7691SOL    HW223973   6.147   3.848   5.638
 7692SOL     OW23974   1.537   6.560   1.148
 7692SOL    HW123975   1.444   6.528   1.130
 7692SOL    HW223976   1.597   6.481   1.161
 7693SOL     OW23977   5.507   1.546   0.446
 7693SOL    HW123978   5.507   1.627   0.506
 7693SOL    HW223979   5.539   1.572   0.355
 7694SOL     OW23980   5.923   5.370   4.049
 7694SOL    HW123981   5.965   5.430   3.981
 7694SOL    HW223982   5.824   5.377   4.043
 7695SOL     OW23983   4.388   0.473   6.367
 7695SOL    HW123984   4.385   0.564   6.408
 7695SOL    HW223985   4.295   0.437   6.357
 7696SOL     OW23986   1.337   4.390   5.477
 7696SOL    HW123987   1.309   4.352   5.564
 7696SOL    HW223988   1.381   4.319   5.422
 7697SOL     OW23989   4.558   1.718   2.493
 7697SOL    HW123990   4.556   1.629   2.539
 7697SOL    HW223991   4.465   1.748   2.474
 7698SOL     OW23992   7.002   2.886   5.458
 7698SOL    HW123993   7.006   2.949   5.535
 7698SOL    HW223994   0.053   2.906   5.394
 7699SOL     OW23995   2.756   4.345   0.421
 7699SOL    HW123996   2.804   4.428   0.447
 7699SOL    HW223997   2.808   4.297   0.351
 7700SOL     OW23998   5.616   6.753   4.475
 7700SOL    HW123999   5.708   6.785   4.452
 7700SOL    HW224000   5.566   6.731   4.392
 7701SOL     OW24001   6.653   2.296   5.351
 7701SOL    HW124002   6.578   2.314   5.288
 7701SOL    HW224003   6.640   2.206   5.394
 7702SOL     OW24004   2.080   6.220   6.074
 7702SOL    HW124005   2.094   6.148   6.142
 7702SOL    HW224006   1.988   6.258   6.084
 7703SOL     OW24007   0.726   2.532   5.334
 7703SOL    HW124008   0.710   2.581   5.248
 7703SOL    HW224009   0.787   2.454   5.317
 7704SOL     OW24010   3.057   4.564   1.213
 7704SOL    HW124011   3.080   4.552   1.116
 7704SOL    HW224012   3.127   4.618   1.258
 7705SOL     OW24013   3.688   4.108   5.004
 7705SOL    HW124014   3.618   4.163   5.049
 7705SOL    HW224015   3.650   4.018   4.982
 7706SOL     OW24016   6.764   0.919   5.526
 7706SOL    HW124017   6.793   1.015   5.521
 7706SOL    HW224018   6.664   0.915   5.525
 7707SOL     OW24019   0.278   5.836   6.866
 7707SOL    HW124020   0.275   5.737   6.852
 7707SOL    HW224021   0.186   5.870   6.881
 7708SOL     OW24022   5.328   1.404   4.376
 7708SOL    HW124023   5.370   1.417   4.466
 7708SOL    HW224024   5.274   1.320   4.376
 7709SOL     OW24025   3.919   2.237   1.707
 7709SOL    HW124026   3.841   2.264   1.763
 7709SOL    HW224027   3.997   2.296   1.728
 7710SOL     OW24028   3.075   2.420   6.496
 7710SOL    HW124029   3.069   2.416   6.596
 7710SOL    HW224030   3.171   2.423   6.469
 7711SOL     OW24031   4.750   5.788   4.754
 7711SOL    HW124032   4.747   5.792   4.654
 7711SOL    HW224033   4.822   5.724   4.782
 7712SOL     OW24034   5.009   4.832   0.115
 7712SOL    HW124035   4.993   4.923   0.078
 7712SOL    HW224036   5.008   4.765   0.041
 7713SOL     OW24037   0.386   5.566   6.514
 7713SOL    HW124038   0.290   5.574   6.489
 7713SOL    HW224039   0.422   5.478   6.482
 7714SOL     OW24040   5.302   3.559   4.357
 7714SOL    HW124041   5.368   3.507   4.303
 7714SOL    HW224042   5.213   3.558   4.311
 7715SOL     OW24043   3.962   2.124   2.052
 7715SOL    HW124044   3.879   2.176   2.031
 7715SOL    HW224045   3.992   2.146   2.145
 7716SOL     OW24046   4.459   2.405   4.071
 7716SOL    HW124047   4.467   2.308   4.050
 7716SOL    HW224048   4.441   2.417   4.169
 7717SOL     OW24049   3.185   0.534   6.643
 7717SOL    HW124050   3.192   0.555   6.545
 7717SOL    HW224051   3.130   0.451   6.655
 7718SOL     OW24052   2.876   6.455   4.136
 7718SOL    HW124053   2.814   6.390   4.093
 7718SOL    HW224054   2.840   6.548   4.124
 7719SOL     OW24055   6.033   2.997   5.078
 7719SOL    HW124056   6.010   3.090   5.106
 7719SOL    HW224057   6.054   2.941   5.159
 7720SOL     OW24058   5.840   6.496   1.990
 7720SOL    HW124059   5.836   6.596   1.998
 7720SOL    HW224060   5.816   6.469   1.897
 7721SOL     OW24061   0.851   4.878   2.701
 7721SOL    HW124062   0.794   4.856   2.622
 7721SOL    HW224063   0.913   4.801   2.720
 7722SOL     OW24064   0.617   6.155   4.317
 7722SOL    HW124065   0.580   6.244   4.342
 7722SOL    HW224066   0.716   6.155   4.330
 7723SOL     OW24067   0.011   2.090   0.472
 7723SOL    HW124068   0.031   2.155   0.545
 7723SOL    HW224069   6.946   2.112   0.431
 7724SOL     OW24070   1.653   6.165   0.593
 7724SOL    HW124071   1.749   6.185   0.613
 7724SOL    HW224072   1.648   6.088   0.529
 7725SOL     OW24073   4.923   3.326   4.154
 7725SOL    HW124074   5.021   3.310   4.161
 7725SOL    HW224075   4.906   3.393   4.082
 7726SOL     OW24076   5.599   4.231   3.559
 7726SOL    HW124077   5.612   4.319   3.513
 7726SOL    HW224078   5.518   4.186   3.523
 7727SOL     OW24079   5.696   2.847   2.122
 7727SOL    HW124080   5.642   2.931   2.123
 7727SOL    HW224081   5.726   2.826   2.215
 7728SOL     OW24082   2.453   2.545   2.334
 7728SOL    HW124083   2.358   2.575   2.334
 7728SOL    HW224084   2.498   2.576   2.250
 7729SOL     OW24085   4.634   2.425   0.003
 7729SOL    HW124086   4.655   2.518   6.996
 7729SOL    HW224087   4.575   2.429   0.084
 7730SOL     OW24088   4.633   0.469   2.007
 7730SOL    HW124089   4.625   0.567   1.990
 7730SOL    HW224090   4.724   0.448   2.043
 7731SOL     OW24091   0.016   1.545   4.735
 7731SOL    HW124092   0.097   1.571   4.786
 7731SOL    HW224093   0.040   1.528   4.639
 7732SOL     OW24094   4.158   5.261   0.471
 7732SOL    HW124095   4.095   5.183   0.478
 7732SOL    HW224096   4.252   5.227   0.465
 7733SOL     OW24097   2.530   6.442   0.787
 7733SOL    HW124098   2.546   6.487   0.875
 7733SOL    HW224099   2.578   6.491   0.715
 7734SOL     OW24100   1.768   2.940   2.393
 7734SOL    HW124101   1.713   3.024   2.388
 7734SOL    HW224102   1.849   2.950   2.335
 7735SOL     OW24103   4.930   4.279   1.221
 7735SOL    HW124104   4.973   4.270   1.131
 7735SOL    HW224105   4.964   4.361   1.267
 7736SOL     OW24106   5.660   4.346   6.012
 7736SOL    HW124107   5.654   4.439   6.049
 7736SOL    HW224108   5.666   4.280   6.087
 7737SOL     OW24109   4.703   2.679   0.512
 7737SOL    HW124110   4.800   2.653   0.507
 7737SOL    HW224111   4.691   2.768   0.467
 7738SOL     OW24112   2.112   4.933   6.903
 7738SOL    HW124113   2.089   4.902   6.996
 7738SOL    HW224114   2.063   4.876   6.837
 7739SOL     OW24115   5.520   3.655   2.861
 7739SOL    HW124116   5.489   3.724   2.796
 7739SOL    HW224117   5.447   3.637   2.928
 7740SOL     OW24118   0.655   6.153   3.740
 7740SOL    HW124119   0.684   6.060   3.718
 7740SOL    HW224120   0.639   6.204   3.655
 7741SOL     OW24121   2.940   5.671   4.734
 7741SOL    HW124122   3.032   5.631   4.733
 7741SOL    HW224123   2.912   5.690   4.828
 7742SOL     OW24124   6.804   1.074   4.150
 7742SOL    HW124125   6.769   0.981   4.155
 7742SOL    HW224126   6.880   1.078   4.085
 7743SOL     OW24127   4.956   3.144   2.176
 7743SOL    HW124128   4.891   3.096   2.117
 7743SOL    HW224129   5.049   3.118   2.150
 7744SOL     OW24130   0.414   6.398   5.035
 7744SOL    HW124131   0.358   6.397   4.952
 7744SOL    HW224132   0.423   6.305   5.070
 7745SOL     OW24133   4.725   3.352   5.272
 7745SOL    HW124134   4.713   3.444   5.237
 7745SOL    HW224135   4.792   3.303   5.216
 7746SOL     OW24136   1.349   0.333   6.356
 7746SOL    HW124137   1.416   0.386   6.303
 7746SOL    HW224138   1.397   0.280   6.426
 7747SOL     OW24139   4.911   4.962   0.971
 7747SOL    HW124140   4.885   5.056   0.946
 7747SOL    HW224141   4.944   4.961   1.065
 7748SOL     OW24142   2.408   4.151   6.354
 7748SOL    HW124143   2.358   4.071   6.386
 7748SOL    HW224144   2.481   4.172   6.418
 7749SOL     OW24145   5.612   3.964   6.088
 7749SOL    HW124146   5.711   3.982   6.094
 7749SOL    HW224147   5.582   3.978   5.994
 7750SOL     OW24148   5.093   5.387   2.783
 7750SOL    HW124149   5.043   5.370   2.698
 7750SOL    HW224150   5.137   5.303   2.814
 7751SOL     OW24151   0.475   2.748   0.986
 7751SOL    HW124152   0.521   2.772   1.071
 7751SOL    HW224153   0.528   2.780   0.908
 7752SOL     OW24154   3.917   1.452   3.548
 7752SOL    HW124155   3.843   1.444   3.481
 7752SOL    HW224156   3.879   1.449   3.641
 7753SOL     OW24157   3.900   1.605   5.413
 7753SOL    HW124158   3.906   1.684   5.352
 7753SOL    HW224159   3.965   1.616   5.489
 7754SOL     OW24160   5.642   5.391   1.719
 7754SOL    HW124161   5.572   5.340   1.768
 7754SOL    HW224162   5.669   5.339   1.638
 7755SOL     OW24163   0.470   5.172   5.134
 7755SOL    HW124164   0.419   5.119   5.066
 7755SOL    HW224165   0.496   5.260   5.094
 7756SOL     OW24166   2.442   4.636   2.387
 7756SOL    HW124167   2.421   4.539   2.386
 7756SOL    HW224168   2.511   4.655   2.457
 7757SOL     OW24169   0.348   4.088   0.951
 7757SOL    HW124170   0.320   4.167   1.007
 7757SOL    HW224171   0.437   4.056   0.982
 7758SOL     OW24172   0.189   1.632   5.368
 7758SOL    HW124173   0.242   1.717   5.375
 7758SOL    HW224174   0.216   1.583   5.286
 7759SOL     OW24175   3.571   1.116   2.359
 7759SOL    HW124176   3.523   1.088   2.276
 7759SOL    HW224177   3.520   1.187   2.406
 7760SOL     OW24178   4.989   2.952   6.881
 7760SOL    HW124179   5.075   2.909   6.852
 7760SOL    HW224180   4.990   3.049   6.856
 7761SOL     OW24181   5.268   5.106   3.522
 7761SOL    HW124182   5.235   5.095   3.429
 7761SOL    HW224183   5.301   5.199   3.535
 7762SOL     OW24184   5.253   1.774   1.944
 7762SOL    HW124185   5.268   1.869   1.917
 7762SOL    HW224186   5.206   1.726   1.869
 7763SOL     OW24187   2.138   0.198   3.192
 7763SOL    HW124188   2.094   0.200   3.282
 7763SOL    HW224189   2.098   0.269   3.134
 7764SOL     OW24190   3.295   4.805   5.494
 7764SOL    HW124191   3.211   4.842   5.532
 7764SOL    HW224192   3.294   4.816   5.395
 7765SOL     OW24193   5.116   4.357   4.569
 7765SOL    HW124194   5.026   4.322   4.595
 7765SOL    HW224195   5.170   4.283   4.528
 7766SOL     OW24196   6.355   2.486   6.252
 7766SOL    HW124197   6.382   2.428   6.329
 7766SOL    HW224198   6.256   2.497   6.251
 7767SOL     OW24199   4.694   0.309   4.091
 7767SOL    HW124200   4.660   0.232   4.145
 7767SOL    HW224201   4.754   0.366   4.147
 7768SOL     OW24202   3.744   6.051   4.783
 7768SOL    HW124203   3.783   5.991   4.712
 7768SOL    HW224204   3.818   6.090   4.838
 7769SOL     OW24205   3.669   2.799   0.041
 7769SOL    HW124206   3.682   2.895   0.014
 7769SOL    HW224207   3.572   2.781   0.053
 7770SOL     OW24208   1.251   3.614   3.863
 7770SOL    HW124209   1.327   3.670   3.897
 7770SOL    HW224210   1.248   3.620   3.763
 7771SOL     OW24211   1.116   3.925   5.106
 7771SOL    HW124212   1.174   3.844   5.119
 7771SOL    HW224213   1.111   3.976   5.192
 7772SOL     OW24214   5.388   6.275   2.453
 7772SOL    HW124215   5.462   6.297   2.388
 7772SOL    HW224216   5.301   6.307   2.416
 7773SOL     OW24217   2.940   0.330   6.508
 7773SOL    HW124218   2.910   0.234   6.512
 7773SOL    HW224219   2.917   0.375   6.594
 7774SOL     OW24220   5.280   1.108   2.282
 7774SOL    HW124221   5.260   1.199   2.248
 7774SOL    HW224222   5.374   1.083   2.258
 7775SOL     OW24223   3.345   1.589   1.118
 7775SOL    HW124224   3.418   1.541   1.167
 7775SOL    HW224225   3.259   1.581   1.169
 7776SOL     OW24226   3.296   0.888   4.325
 7776SOL    HW124227   3.243   0.805   4.343
 7776SOL    HW224228   3.256   0.964   4.376
 7777SOL     OW24229   5.777   5.314   3.192
 7777SOL    HW124230   5.790   5.403   3.236
 7777SOL    HW224231   5.701   5.320   3.127
 7778SOL     OW24232   0.898   4.320   2.429
 7778SOL    HW124233   0.943   4.281   2.509
 7778SOL    HW224234   0.857   4.408   2.453
 7779SOL     OW24235   3.584   6.442   2.174
 7779SOL    HW124236   3.487   6.457   2.193
 7779SOL    HW224237   3.616   6.361   2.223
 7780SOL     OW24238   6.787   5.749   4.302
 7780SOL    HW124239   6.702   5.788   4.266
 7780SOL    HW224240   6.809   5.665   4.252
 7781SOL     OW24241   2.581   3.098   0.504
 7781SOL    HW124242   2.509   3.033   0.529
 7781SOL    HW224243   2.669   3.051   0.501
 7782SOL     OW24244   6.075   4.148   4.535
 7782SOL    HW124245   6.169   4.135   4.569
 7782SOL    HW224246   6.018   4.184   4.608
 7783SOL     OW24247   1.466   6.585   4.195
 7783SOL    HW124248   1.501   6.619   4.283
 7783SOL    HW224249   1.429   6.493   4.207
 7784SOL     OW24250   1.922   2.024   2.731
 7784SOL    HW124251   1.913   2.118   2.698
 7784SOL    HW224252   1.948   1.964   2.656
 7785SOL     OW24253   6.576   6.300   2.763
 7785SOL    HW124254   6.512   6.226   2.742
 7785SOL    HW224255   6.613   6.287   2.855
 7786SOL     OW24256   5.209   0.891   6.119
 7786SOL    HW124257   5.155   0.975   6.111
 7786SOL    HW224258   5.242   0.863   6.029
 7787SOL     OW24259   2.013   2.511   1.353
 7787SOL    HW124260   2.046   2.429   1.307
 7787SOL    HW224261   1.938   2.487   1.414
 7788SOL     OW24262   0.955   3.530   1.571
 7788SOL    HW124263   0.907   3.534   1.658
 7788SOL    HW224264   0.989   3.436   1.557
 7789SOL     OW24265   3.750   1.053   6.027
 7789SOL    HW124266   3.691   1.123   5.988
 7789SOL    HW224267   3.792   1.000   5.953
 7790SOL     OW24268   4.047   4.883   4.083
 7790SOL    HW124269   4.104   4.892   4.002
 7790SOL    HW224270   3.967   4.944   4.074
 7791SOL     OW24271   2.796   5.751   1.585
 7791SOL    HW124272   2.881   5.716   1.624
 7791SOL    HW224273   2.773   5.700   1.502
 7792SOL     OW24274   1.509   1.411   2.387
 7792SOL    HW124275   1.444   1.428   2.313
 7792SOL    HW224276   1.461   1.412   2.474
 7793SOL     OW24277   5.117   1.614   1.112
 7793SOL    HW124278   5.143   1.603   1.208
 7793SOL    HW224279   5.085   1.527   1.075
 7794SOL     OW24280   1.652   1.007   3.490
 7794SOL    HW124281   1.692   0.981   3.402
 7794SOL    HW224282   1.569   0.953   3.506
 7795SOL     OW24283   3.972   3.898   1.483
 7795SOL    HW124284   4.037   3.835   1.525
 7795SOL    HW224285   3.914   3.938   1.555
 7796SOL     OW24286   3.492   1.724   0.465
 7796SOL    HW124287   3.551   1.646   0.487
 7796SOL    HW224288   3.533   1.777   0.392
 7797SOL     OW24289   1.237   6.243   2.791
 7797SOL    HW124290   1.323   6.193   2.788
 7797SOL    HW224291   1.253   6.336   2.825
 7798SOL     OW24292   2.033   3.586   0.908
 7798SOL    HW124293   2.098   3.609   0.836
 7798SOL    HW224294   1.974   3.511   0.878
 7799SOL     OW24295   2.411   6.276   4.427
 7799SOL    HW124296   2.434   6.369   4.454
 7799SOL    HW224297   2.449   6.257   4.336
 7800SOL     OW24298   1.686   1.252   2.257
 7800SOL    HW124299   1.618   1.305   2.310
 7800SOL    HW224300   1.654   1.241   2.163
 7801SOL     OW24301   1.675   2.126   0.685
 7801SOL    HW124302   1.640   2.052   0.742
 7801SOL    HW224303   1.663   2.103   0.588
 7802SOL     OW24304   6.468   4.722   3.603
 7802SOL    HW124305   6.494   4.784   3.677
 7802SOL    HW224306   6.370   4.705   3.605
 7803SOL     OW24307   3.032   2.584   5.814
 7803SOL    HW124308   3.036   2.532   5.900
 7803SOL    HW224309   2.992   2.526   5.743
 7804SOL     OW24310   2.681   1.989   5.194
 7804SOL    HW124311   2.770   1.958   5.161
 7804SOL    HW224312   2.693   2.071   5.250
 7805SOL     OW24313   5.384   3.170   6.719
 7805SOL    HW124314   5.302   3.217   6.751
 7805SOL    HW224315   5.465   3.227   6.735
 7806SOL     OW24316   6.315   1.871   5.232
 7806SOL    HW124317   6.393   1.932   5.237
 7806SOL    HW224318   6.311   1.816   5.316
 7807SOL     OW24319   1.696   5.389   5.680
 7807SOL    HW124320   1.794   5.371   5.689
 7807SOL    HW224321   1.653   5.311   5.635
 7808SOL     OW24322   0.107   3.631   3.921
 7808SOL    HW124323   0.027   3.658   3.867
 7808SOL    HW224324   0.189   3.676   3.885
 7809SOL     OW24325   4.700   6.602   2.438
 7809SOL    HW124326   4.602   6.586   2.445
 7809SOL    HW224327   4.732   6.649   2.520
 7810SOL     OW24328   1.865   6.950   5.675
 7810SOL    HW124329   1.840   6.889   5.750
 7810SOL    HW224330   1.935   7.014   5.706
 7811SOL     OW24331   1.123   5.772   3.120
 7811SOL    HW124332   1.149   5.676   3.116
 7811SOL    HW224333   1.196   5.828   3.079
 7812SOL     OW24334   2.611   1.392   5.901
 7812SOL    HW124335   2.518   1.408   5.932
 7812SOL    HW224336   2.665   1.354   5.976
 7813SOL     OW24337   5.699   1.275   0.641
 7813SOL    HW124338   5.765   1.303   0.572
 7813SOL    HW224339   5.676   1.178   0.628
 7814SOL     OW24340   6.032   2.393   1.757
 7814SOL    HW124341   5.991   2.333   1.688
 7814SOL    HW224342   6.099   2.341   1.810
 7815SOL     OW24343   4.849   5.131   3.714
 7815SOL    HW124344   4.760   5.107   3.675
 7815SOL    HW224345   4.864   5.229   3.704
 7816SOL     OW24346   1.182   1.215   5.193
 7816SOL    HW124347   1.212   1.131   5.237
 7816SOL    HW224348   1.211   1.215   5.097
 7817SOL     OW24349   4.364   1.772   6.407
 7817SOL    HW124350   4.292   1.776   6.476
 7817SOL    HW224351   4.327   1.803   6.319
 7818SOL     OW24352   6.161   0.902   3.060
 7818SOL    HW124353   6.111   0.962   3.122
 7818SOL    HW224354   6.208   0.956   2.991
 7819SOL     OW24355   1.476   2.645   4.655
 7819SOL    HW124356   1.439   2.634   4.747
 7819SOL    HW224357   1.576   2.640   4.659
 7820SOL     OW24358   1.094   1.221   5.805
 7820SOL    HW124359   1.073   1.127   5.830
 7820SOL    HW224360   1.131   1.224   5.712
 7821SOL     OW24361   3.985   5.540   6.662
 7821SOL    HW124362   3.915   5.591   6.612
 7821SOL    HW224363   3.978   5.561   6.759
 7822SOL     OW24364   0.590   1.432   4.594
 7822SOL    HW124365   0.642   1.509   4.557
 7822SOL    HW224366   0.542   1.461   4.677
 7823SOL     OW24367   2.791   2.873   6.048
 7823SOL    HW124368   2.757   2.796   5.994
 7823SOL    HW224369   2.802   2.845   6.143
 7824SOL     OW24370   5.808   4.111   3.109
 7824SOL    HW124371   5.858   4.029   3.139
 7824SOL    HW224372   5.835   4.134   3.016
 7825SOL     OW24373   3.983   3.285   3.029
 7825SOL    HW124374   3.936   3.209   3.075
 7825SOL    HW224375   4.019   3.253   2.941
 7826SOL     OW24376   6.169   0.153   0.886
 7826SOL    HW124377   6.171   0.245   0.925
 7826SOL    HW224378   6.167   0.086   0.961
 7827SOL     OW24379   4.079   3.506   0.452
 7827SOL    HW124380   4.120   3.451   0.379
 7827SOL    HW224381   4.125   3.594   0.457
 7828SOL     OW24382   1.439   6.818   1.085
 7828SOL    HW124383   1.470   6.738   1.135
 7828SOL    HW224384   1.340   6.812   1.070
 7829SOL     OW24385   3.582   3.731   2.582
 7829SOL    HW124386   3.597   3.634   2.600
 7829SOL    HW224387   3.488   3.746   2.553
 7830SOL     OW24388   6.592   3.904   0.649
 7830SOL    HW124389   6.654   3.875   0.576
 7830SOL    HW224390   6.498   3.885   0.622
 7831SOL     OW24391   1.921   2.593   0.368
 7831SOL    HW124392   1.931   2.494   0.380
 7831SOL    HW224393   1.894   2.634   0.455
 7832SOL     OW24394   3.704   2.981   6.218
 7832SOL    HW124395   3.753   2.895   6.204
 7832SOL    HW224396   3.716   3.040   6.138
 7833SOL     OW24397   6.614   6.508   1.823
 7833SOL    HW124398   6.567   6.434   1.871
 7833SOL    HW224399   6.564   6.593   1.836
 7834SOL     OW24400   5.504   1.281   1.059
 7834SOL    HW124401   5.574   1.252   1.124
 7834SOL    HW224402   5.438   1.207   1.046
 7835SOL     OW24403   1.988   2.309   4.255
 7835SOL    HW124404   1.890   2.324   4.241
 7835SOL    HW224405   2.022   2.245   4.186
 7836SOL     OW24406   2.061   0.561   0.167
 7836SOL    HW124407   1.975   0.586   0.212
 7836SOL    HW224408   2.119   0.511   0.231
 7837SOL     OW24409   5.473   5.831   2.361
 7837SOL    HW124410   5.528   5.912   2.341
 7837SOL    HW224411   5.376   5.852   2.346
 7838SOL     OW24412   3.964   6.141   4.003
 7838SOL    HW124413   4.049   6.138   3.951
 7838SOL    HW224414   3.897   6.079   3.961
 7839SOL     OW24415   6.884   4.338   3.686
 7839SOL    HW124416   6.819   4.389   3.742
 7839SOL    HW224417   6.967   4.391   3.674
 7840SOL     OW24418   5.027   3.346   6.233
 7840SOL    HW124419   4.982   3.335   6.144
 7840SOL    HW224420   4.975   3.297   6.303
 7841SOL     OW24421   1.067   2.169   6.272
 7841SOL    HW124422   1.072   2.093   6.207
 7841SOL    HW224423   1.084   2.255   6.224
 7842SOL     OW24424   2.594   0.330   2.685
 7842SOL    HW124425   2.621   0.316   2.590
 7842SOL    HW224426   2.674   0.324   2.744
 7843SOL     OW24427   0.223   2.600   2.238
 7843SOL    HW124428   0.285   2.662   2.286
 7843SOL    HW224429   0.272   2.557   2.162
 7844SOL     OW24430   4.165   2.183   3.727
 7844SOL    HW124431   4.222   2.102   3.741
 7844SOL    HW224432   4.153   2.230   3.815
 7845SOL     OW24433   0.749   1.255   4.175
 7845SOL    HW124434   0.738   1.342   4.127
 7845SOL    HW224435   0.836   1.255   4.224
 7846SOL     OW24436   4.495   6.839   2.319
 7846SOL    HW124437   4.507   6.901   2.396
 7846SOL    HW224438   4.578   6.839   2.263
 7847SOL     OW24439   0.603   0.033   0.142
 7847SOL    HW124440   0.553   7.005   0.212
 7847SOL    HW224441   0.665   6.995   0.093
 7848SOL     OW24442   3.673   3.879   1.561
 7848SOL    HW124443   3.679   3.891   1.661
 7848SOL    HW224444   3.606   3.944   1.524
 7849SOL     OW24445   5.108   4.159   4.849
 7849SOL    HW124446   5.200   4.181   4.881
 7849SOL    HW224447   5.052   4.242   4.852
 7850SOL     OW24448   1.112   2.764   4.599
 7850SOL    HW124449   1.072   2.717   4.520
 7850SOL    HW224450   1.056   2.749   4.680
 7851SOL     OW24451   4.033   6.612   1.162
 7851SOL    HW124452   4.103   6.637   1.095
 7851SOL    HW224453   3.986   6.529   1.132
 7852SOL     OW24454   2.491   6.959   0.129
 7852SOL    HW124455   2.399   6.937   0.161
 7852SOL    HW224456   2.557   6.936   0.200
 7853SOL     OW24457   1.994   2.654   0.124
 7853SOL    HW124458   1.945   2.629   0.208
 7853SOL    HW224459   1.928   2.684   0.056
 7854SOL     OW24460   3.491   4.155   3.631
 7854SOL    HW124461   3.424   4.227   3.613
 7854SOL    HW224462   3.486   4.129   3.728
 7855SOL     OW24463   3.178   0.031   5.040
 7855SOL    HW124464   3.161   6.982   5.107
 7855SOL    HW224465   3.253   0.005   4.980
 7856SOL     OW24466   3.025   3.930   6.814
 7856SOL    HW124467   3.037   3.841   6.770
 7856SOL    HW224468   2.928   3.947   6.831
 7857SOL     OW24469   0.255   2.830   5.508
 7857SOL    HW124470   0.228   2.897   5.438
 7857SOL    HW224471   0.177   2.770   5.527
 7858SOL     OW24472   5.617   3.415   2.792
 7858SOL    HW124473   5.559   3.493   2.813
 7858SOL    HW224474   5.664   3.385   2.875
 7859SOL     OW24475   0.410   6.737   0.590
 7859SOL    HW124476   0.431   6.682   0.509
 7859SOL    HW224477   0.346   6.810   0.566
 7860SOL     OW24478   4.318   6.600   1.510
 7860SOL    HW124479   4.383   6.670   1.480
 7860SOL    HW224480   4.314   6.599   1.610
 7861SOL     OW24481   5.499   3.782   0.740
 7861SOL    HW124482   5.571   3.738   0.794
 7861SOL    HW224483   5.421   3.720   0.733
 7862SOL     OW24484   3.134   4.448   1.661
 7862SOL    HW124485   3.072   4.450   1.739
 7862SOL    HW224486   3.143   4.354   1.627
 7863SOL     OW24487   4.494   5.851   2.793
 7863SOL    HW124488   4.561   5.777   2.801
 7863SOL    HW224489   4.463   5.878   2.884
 7864SOL     OW24490   0.884   5.607   5.071
 7864SOL    HW124491   0.931   5.695   5.068
 7864SOL    HW224492   0.812   5.605   5.001
 7865SOL     OW24493   4.685   0.642   3.187
 7865SOL    HW124494   4.696   0.620   3.090
 7865SOL    HW224495   4.775   0.654   3.229
 7866SOL     OW24496   2.659   2.343   5.752
 7866SOL    HW124497   2.603   2.408   5.701
 7866SOL    HW224498   2.696   2.275   5.689
 7867SOL     OW24499   5.872   3.421   1.558
 7867SOL    HW124500   5.952   3.365   1.535
 7867SOL    HW224501   5.789   3.374   1.529
 7868SOL     OW24502   4.842   0.709   0.449
 7868SOL    HW124503   4.817   0.613   0.456
 7868SOL    HW224504   4.854   0.734   0.353
 7869SOL     OW24505   6.267   1.814   4.253
 7869SOL    HW124506   6.316   1.818   4.166
 7869SOL    HW224507   6.332   1.825   4.328
 7870SOL     OW24508   0.014   0.236   2.892
 7870SOL    HW124509   0.063   0.315   2.929
 7870SOL    HW224510   0.045   0.217   2.799
 7871SOL     OW24511   5.710   3.123   4.226
 7871SOL    HW124512   5.804   3.151   4.205
 7871SOL    HW224513   5.682   3.052   4.161
 7872SOL     OW24514   0.165   4.117   4.163
 7872SOL    HW124515   0.151   4.066   4.248
 7872SOL    HW224516   0.263   4.128   4.147
 7873SOL     OW24517   6.614   5.771   4.815
 7873SOL    HW124518   6.541   5.826   4.773
 7873SOL    HW224519   6.679   5.832   4.860
 7874SOL     OW24520   5.936   0.422   0.507
 7874SOL    HW124521   5.965   0.498   0.449
 7874SOL    HW224522   5.898   0.350   0.450
 7875SOL     OW24523   4.543   3.302   0.172
 7875SOL    HW124524   4.543   3.275   0.268
 7875SOL    HW224525   4.453   3.283   0.131
 7876SOL     OW24526   0.456   1.271   5.020
 7876SOL    HW124527   0.424   1.318   4.937
 7876SOL    HW224528   0.529   1.323   5.063
 7877SOL     OW24529   5.692   3.217   2.579
 7877SOL    HW124530   5.695   3.132   2.630
 7877SOL    HW224531   5.695   3.295   2.642
 7878SOL     OW24532   3.772   3.604   1.379
 7878SOL    HW124533   3.751   3.551   1.461
 7878SOL    HW224534   3.835   3.553   1.321
 7879SOL     OW24535   6.421   1.081   4.602
 7879SOL    HW124536   6.378   1.171   4.610
 7879SOL    HW224537   6.478   1.079   4.520
 7880SOL     OW24538   1.663   6.592   6.347
 7880SOL    HW124539   1.620   6.593   6.437
 7880SOL    HW224540   1.619   6.522   6.290
 7881SOL     OW24541   0.870   5.501   4.243
 7881SOL    HW124542   0.958   5.493   4.290
 7881SOL    HW224543   0.808   5.556   4.299
 7882SOL     OW24544   1.805   4.788   1.822
 7882SOL    HW124545   1.818   4.784   1.723
 7882SOL    HW224546   1.815   4.696   1.861
 7883SOL     OW24547   3.332   1.396   2.741
 7883SOL    HW124548   3.247   1.408   2.792
 7883SOL    HW224549   3.350   1.299   2.728
 7884SOL     OW24550   0.675   3.036   4.243
 7884SOL    HW124551   0.587   2.993   4.262
 7884SOL    HW224552   0.737   3.021   4.320
 7885SOL     OW24553   6.391   5.366   2.565
 7885SOL    HW124554   6.394   5.334   2.470
 7885SOL    HW224555   6.421   5.461   2.570
 7886SOL     OW24556   4.775   4.697   2.767
 7886SOL    HW124557   4.736   4.741   2.686
 7886SOL    HW224558   4.743   4.603   2.772
 7887SOL     OW24559   0.901   3.003   0.782
 7887SOL    HW124560   0.893   3.101   0.800
 7887SOL    HW224561   0.956   2.960   0.854
 7888SOL     OW24562   6.428   1.430   4.903
 7888SOL    HW124563   6.424   1.514   4.849
 7888SOL    HW224564   6.521   1.418   4.938
 7889SOL     OW24565   5.533   5.066   0.764
 7889SOL    HW124566   5.605   5.112   0.817
 7889SOL    HW224567   5.573   4.991   0.711
 7890SOL     OW24568   2.285   2.824   3.035
 7890SOL    HW124569   2.258   2.874   3.117
 7890SOL    HW224570   2.256   2.875   2.954
 7891SOL     OW24571   6.364   1.574   4.471
 7891SOL    HW124572   6.443   1.632   4.488
 7891SOL    HW224573   6.371   1.532   4.381
 7892SOL     OW24574   1.120   1.638   4.848
 7892SOL    HW124575   1.150   1.732   4.835
 7892SOL    HW224576   1.159   1.601   4.932
 7893SOL     OW24577   6.234   6.369   0.791
 7893SOL    HW124578   6.282   6.363   0.879
 7893SOL    HW224579   6.298   6.347   0.717
 7894SOL     OW24580   3.333   1.012   6.575
 7894SOL    HW124581   3.303   0.918   6.563
 7894SOL    HW224582   3.258   1.074   6.554
 7895SOL     OW24583   6.482   6.593   2.734
 7895SOL    HW124584   6.567   6.551   2.768
 7895SOL    HW224585   6.455   6.548   2.649
 7896SOL     OW24586   2.420   1.359   0.400
 7896SOL    HW124587   2.341   1.333   0.454
 7896SOL    HW224588   2.406   1.450   0.361
 7897SOL     OW24589   4.100   1.432   0.735
 7897SOL    HW124590   4.055   1.469   0.817
 7897SOL    HW224591   4.199   1.427   0.751
 7898SOL     OW24592   5.061   6.712   3.600
 7898SOL    HW124593   5.013   6.681   3.683
 7898SOL    HW224594   5.154   6.739   3.624
 7899SOL     OW24595   6.271   4.376   3.557
 7899SOL    HW124596   6.224   4.289   3.542
 7899SOL    HW224597   6.357   4.377   3.507
 7900SOL     OW24598   0.523   3.501   0.396
 7900SOL    HW124599   0.477   3.491   0.485
 7900SOL    HW224600   0.460   3.474   0.323
 7901SOL     OW24601   0.378   2.198   0.032
 7901SOL    HW124602   0.291   2.204   0.081
 7901SOL    HW224603   0.438   2.133   0.077
 7902SOL     OW24604   1.568   6.732   1.365
 7902SOL    HW124605   1.536   6.651   1.317
 7902SOL    HW224606   1.628   6.705   1.440
 7903SOL     OW24607   3.206   1.814   5.631
 7903SOL    HW124608   3.233   1.822   5.727
 7903SOL    HW224609   3.107   1.830   5.623
 7904SOL     OW24610   4.876   2.752   2.428
 7904SOL    HW124611   4.816   2.726   2.504
 7904SOL    HW224612   4.875   2.852   2.418
 7905SOL     OW24613   6.310   2.382   0.909
 7905SOL    HW124614   6.388   2.342   0.860
 7905SOL    HW224615   6.340   2.409   1.001
 7906SOL     OW24616   0.673   5.586   6.710
 7906SOL    HW124617   0.764   5.573   6.749
 7906SOL    HW224618   0.662   5.527   6.630
 7907SOL     OW24619   6.203   6.571   3.113
 7907SOL    HW124620   6.241   6.659   3.082
 7907SOL    HW224621   6.109   6.562   3.080
 7908SOL     OW24622   1.867   0.281   6.047
 7908SOL    HW124623   1.860   0.381   6.056
 7908SOL    HW224624   1.797   0.249   5.984
 7909SOL     OW24625   6.420   3.188   1.238
 7909SOL    HW124626   6.494   3.248   1.208
 7909SOL    HW224627   6.454   3.128   1.311
 7910SOL     OW24628   1.210   4.418   5.063
 7910SOL    HW124629   1.134   4.422   5.127
 7910SOL    HW224630   1.271   4.343   5.089
 7911SOL     OW24631   5.768   4.738   5.854
 7911SOL    HW124632   5.760   4.697   5.945
 7911SOL    HW224633   5.864   4.739   5.826
 7912SOL     OW24634   5.840   5.800   0.729
 7912SOL    HW124635   5.823   5.899   0.729
 7912SOL    HW224636   5.882   5.774   0.641
 7913SOL     OW24637   1.655   5.172   6.591
 7913SOL    HW124638   1.641   5.271   6.579
 7913SOL    HW224639   1.712   5.156   6.671
 7914SOL     OW24640   1.111   6.815   4.847
 7914SOL    HW124641   1.192   6.862   4.882
 7914SOL    HW224642   1.046   6.883   4.813
 7915SOL     OW24643   2.838   5.029   2.339
 7915SOL    HW124644   2.888   4.945   2.357
 7915SOL    HW224645   2.741   5.015   2.357
 7916SOL     OW24646   1.153   0.104   3.375
 7916SOL    HW124647   1.183   0.197   3.397
 7916SOL    HW224648   1.079   0.109   3.308
 7917SOL     OW24649   5.059   1.928   1.749
 7917SOL    HW124650   4.981   1.893   1.801
 7917SOL    HW224651   5.056   1.892   1.656
 7918SOL     OW24652   2.168   2.962   2.781
 7918SOL    HW124653   2.102   2.976   2.707
 7918SOL    HW224654   2.170   3.042   2.840
 7919SOL     OW24655   0.804   6.665   4.891
 7919SOL    HW124656   0.792   6.577   4.935
 7919SOL    HW224657   0.766   6.662   4.798
 7920SOL     OW24658   4.560   0.602   1.319
 7920SOL    HW124659   4.605   0.656   1.248
 7920SOL    HW224660   4.622   0.593   1.397
 7921SOL     OW24661   5.282   2.621   0.776
 7921SOL    HW124662   5.293   2.547   0.710
 7921SOL    HW224663   5.229   2.588   0.855
 7922SOL     OW24664   2.890   6.951   2.785
 7922SOL    HW124665   2.808   6.980   2.735
 7922SOL    HW224666   2.917   6.859   2.754
 7923SOL     OW24667   4.361   0.853   0.081
 7923SOL    HW124668   4.383   0.909   0.001
 7923SOL    HW224669   4.425   0.875   0.155
 7924SOL     OW24670   5.457   5.942   0.243
 7924SOL    HW124671   5.428   6.014   0.306
 7924SOL    HW224672   5.380   5.881   0.224
 7925SOL     OW24673   1.094   5.281   6.473
 7925SOL    HW124674   1.058   5.338   6.547
 7925SOL    HW224675   1.126   5.194   6.510
 7926SOL     OW24676   5.040   6.367   5.838
 7926SOL    HW124677   5.010   6.278   5.805
 7926SOL    HW224678   5.043   6.432   5.762
 7927SOL     OW24679   4.449   0.048   3.289
 7927SOL    HW124680   4.431   0.145   3.270
 7927SOL    HW224681   4.410   0.024   3.378
 7928SOL     OW24682   5.494   1.824   3.749
 7928SOL    HW124683   5.405   1.865   3.729
 7928SOL    HW224684   5.533   1.786   3.665
 7929SOL     OW24685   4.833   4.267   5.855
 7929SOL    HW124686   4.917   4.251   5.802
 7929SOL    HW224687   4.790   4.179   5.876
 7930SOL     OW24688   4.372   6.238   6.520
 7930SOL    HW124689   4.448   6.181   6.488
 7930SOL    HW224690   4.377   6.247   6.619
 7931SOL     OW24691   4.357   1.135   0.798
 7931SOL    HW124692   4.339   1.043   0.763
 7931SOL    HW224693   4.451   1.140   0.833
 7932SOL     OW24694   1.164   3.753   1.494
 7932SOL    HW124695   1.200   3.842   1.466
 7932SOL    HW224696   1.066   3.761   1.513
 7933SOL     OW24697   1.104   1.662   6.851
 7933SOL    HW124698   1.200   1.690   6.859
 7933SOL    HW224699   1.045   1.742   6.863
 7934SOL     OW24700   0.142   5.230   0.881
 7934SOL    HW124701   0.106   5.322   0.897
 7934SOL    HW224702   0.066   5.164   0.881
 7935SOL     OW24703   6.408   3.359   3.586
 7935SOL    HW124704   6.407   3.443   3.532
 7935SOL    HW224705   6.459   3.288   3.538
 7936SOL     OW24706   2.163   5.788   3.441
 7936SOL    HW124707   2.193   5.756   3.530
 7936SOL    HW224708   2.123   5.712   3.390
 7937SOL     OW24709   4.452   1.095   1.069
 7937SOL    HW124710   4.486   1.185   1.040
 7937SOL    HW224711   4.353   1.100   1.084
 7938SOL     OW24712   2.555   0.394   3.120
 7938SOL    HW124713   2.629   0.340   3.079
 7938SOL    HW224714   2.487   0.333   3.160
 7939SOL     OW24715   1.206   0.662   2.680
 7939SOL    HW124716   1.196   0.590   2.749
 7939SOL    HW224717   1.300   0.697   2.682
 7940SOL     OW24718   5.854   1.764   4.819
 7940SOL    HW124719   5.885   1.741   4.727
 7940SOL    HW224720   5.782   1.700   4.846
 7941SOL     OW24721   3.438   6.822   1.022
 7941SOL    HW124722   3.417   6.902   1.079
 7941SOL    HW224723   3.353   6.785   0.985
 7942SOL     OW24724   1.335   4.348   0.945
 7942SOL    HW124725   1.247   4.393   0.934
 7942SOL    HW224726   1.320   4.254   0.978
 7943SOL     OW24727   1.411   6.431   6.225
 7943SOL    HW124728   1.411   6.518   6.175
 7943SOL    HW224729   1.335   6.429   6.289
 7944SOL     OW24730   1.455   2.023   1.308
 7944SOL    HW124731   1.531   1.980   1.357
 7944SOL    HW224732   1.456   2.121   1.325
 7945SOL     OW24733   6.049   3.305   2.967
 7945SOL    HW124734   6.101   3.342   2.891
 7945SOL    HW224735   6.067   3.207   2.976
 7946SOL     OW24736   4.520   1.998   6.191
 7946SOL    HW124737   4.434   1.956   6.161
 7946SOL    HW224738   4.510   2.098   6.189
 7947SOL     OW24739   6.911   3.959   6.210
 7947SOL    HW124740   6.999   3.991   6.246
 7947SOL    HW224741   6.841   3.965   6.281
 7948SOL     OW24742   1.313   5.789   1.182
 7948SOL    HW124743   1.367   5.863   1.142
 7948SOL    HW224744   1.360   5.754   1.263
 7949SOL     OW24745   2.485   5.473   5.439
 7949SOL    HW124746   2.393   5.447   5.472
 7949SOL    HW224747   2.537   5.391   5.418
 7950SOL     OW24748   6.426   4.676   6.032
 7950SOL    HW124749   6.507   4.647   6.082
 7950SOL    HW224750   6.421   4.776   6.030
 7951SOL     OW24751   4.121   6.990   2.951
 7951SOL    HW124752   4.144   0.050   3.000
 7951SOL    HW224753   4.053   6.938   3.004
 7952SOL     OW24754   6.944   3.771   5.122
 7952SOL    HW124755   6.891   3.839   5.072
 7952SOL    HW224756   6.912   3.679   5.099
 7953SOL     OW24757   1.757   0.143   0.257
 7953SOL    HW124758   1.671   0.132   0.306
 7953SOL    HW224759   1.741   0.190   0.171
 7954SOL     OW24760   3.519   3.401   0.147
 7954SOL    HW124761   3.615   3.425   0.128
 7954SOL    HW224762   3.473   3.381   0.061
 7955SOL     OW24763   0.542   1.192   6.383
 7955SOL    HW124764   0.638   1.186   6.411
 7955SOL    HW224765   0.522   1.285   6.353
 7956SOL     OW24766   0.187   6.806   0.310
 7956SOL    HW124767   0.173   6.778   0.405
 7956SOL    HW224768   0.268   6.865   0.304
 7957SOL     OW24769   5.177   1.471   5.656
 7957SOL    HW124770   5.271   1.460   5.688
 7957SOL    HW224771   5.177   1.494   5.559
 7958SOL     OW24772   4.268   2.493   6.919
 7958SOL    HW124773   4.270   2.410   6.975
 7958SOL    HW224774   4.217   2.475   6.835
 7959SOL     OW24775   5.051   2.857   0.102
 7959SOL    HW124776   5.030   2.892   0.011
 7959SOL    HW224777   5.042   2.758   0.103
 7960SOL     OW24778   0.773   1.693   4.562
 7960SOL    HW124779   0.711   1.769   4.543
 7960SOL    HW224780   0.799   1.694   4.658
 7961SOL     OW24781   5.877   0.021   0.698
 7961SOL    HW124782   5.805   0.041   0.765
 7961SOL    HW224783   5.933   0.103   0.684
 7962SOL     OW24784   5.963   6.766   5.270
 7962SOL    HW124785   5.887   6.736   5.327
 7962SOL    HW224786   5.967   6.866   5.269
 7963SOL     OW24787   5.894   6.199   3.094
 7963SOL    HW124788   5.923   6.191   2.998
 7963SOL    HW224789   5.964   6.160   3.153
 7964SOL     OW24790   6.292   3.406   1.252
 7964SOL    HW124791   6.331   3.463   1.325
 7964SOL    HW224792   6.336   3.316   1.252
 7965SOL     OW24793   5.191   1.858   6.408
 7965SOL    HW124794   5.098   1.826   6.425
 7965SOL    HW224795   5.198   1.889   6.313
 7966SOL     OW24796   5.912   3.541   4.826
 7966SOL    HW124797   5.863   3.492   4.898
 7966SOL    HW224798   5.846   3.575   4.758
 7967SOL     OW24799   1.379   4.730   0.497
 7967SOL    HW124800   1.477   4.748   0.496
 7967SOL    HW224801   1.352   4.699   0.588
 7968SOL     OW24802   2.088   2.699   3.825
 7968SOL    HW124803   2.118   2.669   3.734
 7968SOL    HW224804   2.055   2.619   3.876
 7969SOL     OW24805   2.925   4.213   6.860
 7969SOL    HW124806   2.981   4.132   6.839
 7969SOL    HW224807   2.984   4.292   6.875
 7970SOL     OW24808   6.304   2.530   4.151
 7970SOL    HW124809   6.354   2.444   4.140
 7970SOL    HW224810   6.241   2.522   4.228
 7971SOL     OW24811   3.151   1.079   6.887
 7971SOL    HW124812   3.145   1.024   6.804
 7971SOL    HW224813   3.077   1.055   6.949
 7972SOL     OW24814   3.499   4.127   4.495
 7972SOL    HW124815   3.418   4.116   4.437
 7972SOL    HW224816   3.471   4.138   4.590
 7973SOL     OW24817   6.291   4.956   2.089
 7973SOL    HW124818   6.264   5.050   2.066
 7973SOL    HW224819   6.387   4.956   2.118
 7974SOL     OW24820   0.790   3.291   4.620
 7974SOL    HW124821   0.847   3.212   4.596
 7974SOL    HW224822   0.699   3.261   4.647
 7975SOL     OW24823   4.466   0.533   6.943
 7975SOL    HW124824   4.443   0.581   0.004
 7975SOL    HW224825   4.510   0.596   6.880
 7976SOL     OW24826   0.861   0.447   0.375
 7976SOL    HW124827   0.883   0.373   0.311
 7976SOL    HW224828   0.818   0.522   0.326
 7977SOL     OW24829   5.545   5.398   3.060
 7977SOL    HW124830   5.489   5.331   3.108
 7977SOL    HW224831   5.517   5.404   2.964
 7978SOL     OW24832   0.245   3.641   1.305
 7978SOL    HW124833   0.251   3.563   1.243
 7978SOL    HW224834   0.336   3.661   1.341
 7979SOL     OW24835   2.845   2.655   5.329
 7979SOL    HW124836   2.823   2.745   5.366
 7979SOL    HW224837   2.765   2.595   5.335
 7980SOL     OW24838   3.770   5.442   1.755
 7980SOL    HW124839   3.849   5.403   1.801
 7980SOL    HW224840   3.689   5.431   1.813
 7981SOL     OW24841   1.846   3.615   4.258
 7981SOL    HW124842   1.808   3.524   4.242
 7981SOL    HW224843   1.847   3.633   4.356
 7982SOL     OW24844   6.931   1.109   6.331
 7982SOL    HW124845   6.925   1.017   6.293
 7982SOL    HW224846   6.908   1.176   6.260
 7983SOL     OW24847   3.446   0.604   1.863
 7983SOL    HW124848   3.478   0.535   1.927
 7983SOL    HW224849   3.518   0.673   1.850
 7984SOL     OW24850   6.363   2.906   2.970
 7984SOL    HW124851   6.380   2.845   2.892
 7984SOL    HW224852   6.353   2.852   3.053
 7985SOL     OW24853   3.083   2.876   5.335
 7985SOL    HW124854   3.123   2.784   5.331
 7985SOL    HW224855   2.991   2.870   5.374
 7986SOL     OW24856   4.058   0.908   4.140
 7986SOL    HW124857   4.020   0.884   4.050
 7986SOL    HW224858   4.111   0.831   4.175
 7987SOL     OW24859   1.092   3.123   6.174
 7987SOL    HW124860   1.017   3.057   6.177
 7987SOL    HW224861   1.098   3.163   6.082
 7988SOL     OW24862   6.396   0.724   1.001
 7988SOL    HW124863   6.425   0.628   0.995
 7988SOL    HW224864   6.370   0.756   0.910
 7989SOL     OW24865   0.736   4.668   0.902
 7989SOL    HW124866   0.663   4.691   0.836
 7989SOL    HW224867   0.740   4.569   0.914
 7990SOL     OW24868   4.863   5.063   4.711
 7990SOL    HW124869   4.866   5.002   4.791
 7990SOL    HW224870   4.848   5.157   4.743
 7991SOL     OW24871   5.813   0.788   4.586
 7991SOL    HW124872   5.858   0.871   4.620
 7991SOL    HW224873   5.845   0.709   4.638
 7992SOL     OW24874   1.971   0.395   6.668
 7992SOL    HW124875   1.967   0.300   6.700
 7992SOL    HW224876   1.879   0.435   6.669
 7993SOL     OW24877   6.163   5.965   0.631
 7993SOL    HW124878   6.198   6.001   0.718
 7993SOL    HW224879   6.063   5.960   0.636
 7994SOL     OW24880   6.703   0.820   4.463
 7994SOL    HW124881   6.711   0.726   4.498
 7994SOL    HW224882   6.793   0.858   4.447
 7995SOL     OW24883   0.120   5.790   1.549
 7995SOL    HW124884   0.119   5.887   1.527
 7995SOL    HW224885   0.031   5.749   1.525
 7996SOL     OW24886   2.104   6.435   3.514
 7996SOL    HW124887   2.111   6.434   3.414
 7996SOL    HW224888   2.101   6.341   3.548
 7997SOL     OW24889   2.388   1.794   5.892
 7997SOL    HW124890   2.292   1.783   5.919
 7997SOL    HW224891   2.395   1.797   5.793
 7998SOL     OW24892   2.348   0.922   1.160
 7998SOL    HW124893   2.391   0.924   1.070
 7998SOL    HW224894   2.417   0.906   1.230
 7999SOL     OW24895   0.782   0.221   3.327
 7999SOL    HW124896   0.828   0.308   3.346
 7999SOL    HW224897   0.750   0.181   3.413
 8000SOL     OW24898   4.222   5.832   0.907
 8000SOL    HW124899   4.215   5.733   0.905
 8000SOL    HW224900   4.280   5.863   0.832
 8001SOL     OW24901   4.767   4.457   1.496
 8001SOL    HW124902   4.690   4.414   1.543
 8001SOL    HW224903   4.738   4.487   1.405
 8002SOL     OW24904   1.202   0.374   4.493
 8002SOL    HW124905   1.296   0.352   4.469
 8002SOL    HW224906   1.140   0.329   4.429
 8003SOL     OW24907   3.031   5.594   3.216
 8003SOL    HW124908   3.000   5.581   3.122
 8003SOL    HW224909   3.021   5.509   3.266
 8004SOL     OW24910   1.684   3.807   4.078
 8004SOL    HW124911   1.715   3.731   4.135
 8004SOL    HW224912   1.731   3.891   4.104
 8005SOL     OW24913   2.683   0.064   4.103
 8005SOL    HW124914   2.694   7.001   4.151
 8005SOL    HW224915   2.592   0.101   4.122
 8006SOL     OW24916   4.827   5.364   6.050
 8006SOL    HW124917   4.747   5.348   5.992
 8006SOL    HW224918   4.798   5.375   6.145
 8007SOL     OW24919   6.954   0.700   1.060
 8007SOL    HW124920   6.896   0.767   1.013
 8007SOL    HW224921   6.979   0.735   1.150
 8008SOL     OW24922   4.418   5.174   0.446
 8008SOL    HW124923   4.500   5.119   0.462
 8008SOL    HW224924   4.434   5.268   0.474
 8009SOL     OW24925   6.696   1.546   0.722
 8009SOL    HW124926   6.691   1.643   0.696
 8009SOL    HW224927   6.736   1.493   0.648
 8010SOL     OW24928   3.580   1.163   5.860
 8010SOL    HW124929   3.500   1.213   5.891
 8010SOL    HW224930   3.551   1.084   5.806
 8011SOL     OW24931   4.201   1.775   2.735
 8011SOL    HW124932   4.205   1.836   2.814
 8011SOL    HW224933   4.187   1.828   2.652
 8012SOL     OW24934   6.339   0.809   4.724
 8012SOL    HW124935   6.286   0.843   4.802
 8012SOL    HW224936   6.423   0.862   4.715
 8013SOL     OW24937   3.731   0.224   3.435
 8013SOL    HW124938   3.660   0.160   3.466
 8013SOL    HW224939   3.703   0.317   3.456
 8014SOL     OW24940   2.844   2.322   3.219
 8014SOL    HW124941   2.781   2.381   3.169
 8014SOL    HW224942   2.897   2.267   3.154
 8015SOL     OW24943   3.230   6.880   4.435
 8015SOL    HW124944   3.157   6.862   4.369
 8015SOL    HW224945   3.313   6.832   4.406
 8016SOL     OW24946   3.539   2.755   5.296
 8016SOL    HW124947   3.532   2.805   5.382
 8016SOL    HW224948   3.546   2.657   5.315
 8017SOL     OW24949   5.929   6.020   1.241
 8017SOL    HW124950   5.900   5.935   1.285
 8017SOL    HW224951   6.026   6.036   1.260
 8018SOL     OW24952   3.009   3.828   0.902
 8018SOL    HW124953   2.968   3.883   0.829
 8018SOL    HW224954   3.064   3.755   0.861
 8019SOL     OW24955   2.746   3.508   0.562
 8019SOL    HW124956   2.736   3.409   0.562
 8019SOL    HW224957   2.686   3.547   0.632
 8020SOL     OW24958   0.087   0.354   6.781
 8020SOL    HW124959   0.115   0.274   6.727
 8020SOL    HW224960   0.082   0.434   6.721
 8021SOL     OW24961   1.162   3.303   0.617
 8021SOL    HW124962   1.081   3.349   0.653
 8021SOL    HW224963   1.187   3.227   0.677
 8022SOL     OW24964   4.420   0.001   2.060
 8022SOL    HW124965   4.447   6.956   2.127
 8022SOL    HW224966   4.336   0.046   2.090
 8023SOL     OW24967   4.102   5.422   2.389
 8023SOL    HW124968   4.075   5.427   2.485
 8023SOL    HW224969   4.166   5.496   2.368
 8024SOL     OW24970   2.328   1.000   6.988
 8024SOL    HW124971   2.326   1.011   6.888
 8024SOL    HW224972   2.261   0.931   7.015
 8025SOL     OW24973   0.946   6.320   1.543
 8025SOL    HW124974   1.028   6.333   1.487
 8025SOL    HW224975   0.973   6.314   1.639
 8026SOL     OW24976   0.815   6.317   6.414
 8026SOL    HW124977   0.718   6.293   6.402
 8026SOL    HW224978   0.840   6.387   6.347
 8027SOL     OW24979   3.731   0.658   6.608
 8027SOL    HW124980   3.638   0.693   6.623
 8027SOL    HW224981   3.726   0.567   6.568
 8028SOL     OW24982   3.435   6.209   6.277
 8028SOL    HW124983   3.402   6.227   6.369
 8028SOL    HW224984   3.366   6.159   6.225
 8029SOL     OW24985   0.940   0.469   1.767
 8029SOL    HW124986   0.978   0.441   1.679
 8029SOL    HW224987   0.871   0.540   1.752
 8030SOL     OW24988   0.722   4.391   0.975
 8030SOL    HW124989   0.652   4.327   0.943
 8030SOL    HW224990   0.807   4.342   0.990
 8031SOL     OW24991   0.171   0.479   2.029
 8031SOL    HW124992   0.113   0.511   2.104
 8031SOL    HW224993   0.263   0.517   2.040
 8032SOL     OW24994   0.235   2.736   0.204
 8032SOL    HW124995   0.160   2.738   0.138
 8032SOL    HW224996   0.306   2.800   0.176
 8033SOL     OW24997   3.846   4.131   1.642
 8033SOL    HW124998   3.795   4.102   1.560
 8033SOL    HW224999   3.781   4.150   1.716
 8034SOL     OW25000   0.760   0.057   5.953
 8034SOL    HW125001   0.762   7.009   6.024
 8034SOL    HW225002   0.684   0.120   5.972
 8035SOL     OW25003   6.262   6.946   4.688
 8035SOL    HW125004   6.296   6.942   4.594
 8035SOL    HW225005   6.167   6.978   4.687
 8036SOL     OW25006   5.240   3.483   3.792
 8036SOL    HW125007   5.282   3.511   3.706
 8036SOL    HW225008   5.302   3.422   3.841
 8037SOL     OW25009   2.660   1.445   6.161
 8037SOL    HW125010   2.606   1.522   6.128
 8037SOL    HW225011   2.644   1.432   6.259
 8038SOL     OW25012   6.649   5.347   2.131
 8038SOL    HW125013   6.657   5.360   2.032
 8038SOL    HW225014   6.730   5.382   2.176
 8039SOL     OW25015   2.085   2.320   4.875
 8039SOL    HW125016   2.074   2.385   4.950
 8039SOL    HW225017   2.157   2.353   4.814
 8040SOL     OW25018   0.562   6.245   6.413
 8040SOL    HW125019   0.514   6.252   6.326
 8040SOL    HW225020   0.512   6.183   6.473
 8041SOL     OW25021   3.248   1.395   3.056
 8041SOL    HW125022   3.317   1.467   3.042
 8041SOL    HW225023   3.193   1.384   2.974
 8042SOL     OW25024   3.608   3.975   6.096
 8042SOL    HW125025   3.651   3.958   6.185
 8042SOL    HW225026   3.514   4.005   6.110
 8043SOL     OW25027   4.742   5.372   0.384
 8043SOL    HW125028   4.771   5.463   0.356
 8043SOL    HW225029   4.773   5.304   0.318
 8044SOL     OW25030   1.161   3.029   1.456
 8044SOL    HW125031   1.097   2.954   1.475
 8044SOL    HW225032   1.208   3.054   1.540
 8045SOL     OW25033   6.166   3.514   4.667
 8045SOL    HW125034   6.150   3.527   4.765
 8045SOL    HW225035   6.249   3.562   4.639
 8046SOL     OW25036   0.271   4.150   1.321
 8046SOL    HW125037   0.324   4.065   1.321
 8046SOL    HW225038   0.283   4.197   1.234
 8047SOL     OW25039   2.773   6.154   6.736
 8047SOL    HW125040   2.853   6.204   6.702
 8047SOL    HW225041   2.794   6.056   6.737
 8048SOL     OW25042   3.881   1.847   6.501
 8048SOL    HW125043   3.860   1.799   6.415
 8048SOL    HW225044   3.812   1.917   6.518
 8049SOL     OW25045   1.733   1.262   0.558
 8049SOL    HW125046   1.818   1.213   0.537
 8049SOL    HW225047   1.672   1.202   0.609
 8050SOL     OW25048   0.574   5.162   6.045
 8050SOL    HW125049   0.510   5.235   6.072
 8050SOL    HW225050   0.525   5.092   5.993
 8051SOL     OW25051   4.720   6.686   2.918
 8051SOL    HW125052   4.630   6.726   2.908
 8051SOL    HW225053   4.762   6.717   3.003
 8052SOL     OW25054   2.673   1.793   2.809
 8052SOL    HW125055   2.640   1.781   2.903
 8052SOL    HW225056   2.713   1.884   2.800
 8053SOL     OW25057   1.376   2.655   6.972
 8053SOL    HW125058   1.384   2.664   0.047
 8053SOL    HW225059   1.425   2.729   6.927
 8054SOL     OW25060   5.258   3.655   4.877
 8054SOL    HW125061   5.191   3.627   4.946
 8054SOL    HW225062   5.241   3.606   4.792
 8055SOL     OW25063   6.235   0.343   0.066
 8055SOL    HW125064   6.240   0.262   0.125
 8055SOL    HW225065   6.323   0.358   0.021
 8056SOL     OW25066   2.649   1.666   3.923
 8056SOL    HW125067   2.662   1.721   4.006
 8056SOL    HW225068   2.687   1.574   3.938
 8057SOL     OW25069   2.985   2.078   2.187
 8057SOL    HW125070   2.987   2.177   2.171
 8057SOL    HW225071   2.967   2.060   2.283
 8058SOL     OW25072   4.187   6.169   2.401
 8058SOL    HW125073   4.259   6.110   2.365
 8058SOL    HW225074   4.104   6.116   2.418
 8059SOL     OW25075   3.675   3.200   5.749
 8059SOL    HW125076   3.614   3.133   5.708
 8059SOL    HW225077   3.770   3.179   5.724
 8060SOL     OW25078   0.166   0.963   6.120
 8060SOL    HW125079   0.255   0.928   6.148
 8060SOL    HW225080   0.094   0.915   6.170
 8061SOL     OW25081   0.000   1.080   1.768
 8061SOL    HW125082   7.007   1.097   1.671
 8061SOL    HW225083   6.937   1.062   1.814
 8062SOL     OW25084   4.500   4.606   5.964
 8062SOL    HW125085   4.525   4.645   5.875
 8062SOL    HW225086   4.582   4.574   6.011
 8063SOL     OW25087   2.313   4.759   3.079
 8063SOL    HW125088   2.349   4.830   3.140
 8063SOL    HW225089   2.252   4.801   3.012
 8064SOL     OW25090   0.057   2.287   0.653
 8064SOL    HW125091   0.008   2.270   0.738
 8064SOL    HW225092   0.071   2.385   0.642
 8065SOL     OW25093   4.720   0.129   6.540
 8065SOL    HW125094   4.748   0.220   6.569
 8065SOL    HW225095   4.751   0.113   6.446
 8066SOL     OW25096   0.442   0.079   6.231
 8066SOL    HW125097   0.398   0.095   6.319
 8066SOL    HW225098   0.374   0.051   6.163
 8067SOL     OW25099   5.395   0.622   4.382
 8067SOL    HW125100   5.377   0.537   4.333
 8067SOL    HW225101   5.311   0.675   4.389
 8068SOL     OW25102   6.817   3.401   1.808
 8068SOL    HW125103   6.895   3.362   1.856
 8068SOL    HW225104   6.837   3.405   1.710
 8069SOL     OW25105   1.035   2.545   2.617
 8069SOL    HW125106   1.074   2.585   2.534
 8069SOL    HW225107   0.941   2.579   2.629
 8070SOL     OW25108   5.487   3.808   1.129
 8070SOL    HW125109   5.581   3.814   1.096
 8070SOL    HW225110   5.465   3.889   1.183
 8071SOL     OW25111   3.023   0.410   6.171
 8071SOL    HW125112   3.095   0.392   6.104
 8071SOL    HW225113   2.934   0.388   6.131
 8072SOL     OW25114   2.071   2.272   5.229
 8072SOL    HW125115   2.134   2.201   5.261
 8072SOL    HW225116   2.122   2.342   5.179
 8073SOL     OW25117   5.364   0.439   6.490
 8073SOL    HW125118   5.456   0.472   6.509
 8073SOL    HW225119   5.336   0.375   6.563
 8074SOL     OW25120   6.693   0.689   0.397
 8074SOL    HW125121   6.770   0.626   0.386
 8074SOL    HW225122   6.659   0.683   0.491
 8075SOL     OW25123   0.315   0.173   1.394
 8075SOL    HW125124   0.302   0.074   1.387
 8075SOL    HW225125   0.315   0.213   1.302
 8076SOL     OW25126   6.515   6.110   0.388
 8076SOL    HW125127   6.478   6.139   0.300
 8076SOL    HW225128   6.476   6.021   0.413
 8077SOL     OW25129   6.049   4.491   1.378
 8077SOL    HW125130   6.135   4.488   1.430
 8077SOL    HW225131   6.050   4.569   1.316
 8078SOL     OW25132   6.336   1.111   1.347
 8078SOL    HW125133   6.352   1.018   1.380
 8078SOL    HW225134   6.280   1.108   1.265
 8079SOL     OW25135   0.413   1.041   6.765
 8079SOL    HW125136   0.357   1.106   6.816
 8079SOL    HW225137   0.411   0.952   6.812
 8080SOL     OW25138   1.588   3.626   3.458
 8080SOL    HW125139   1.518   3.617   3.387
 8080SOL    HW225140   1.675   3.591   3.424
 8081SOL     OW25141   6.429   0.160   5.066
 8081SOL    HW125142   6.401   0.141   4.971
 8081SOL    HW225143   6.513   0.109   5.086
 8082SOL     OW25144   4.001   2.188   4.420
 8082SOL    HW125145   4.044   2.144   4.342
 8082SOL    HW225146   4.068   2.246   4.467
 8083SOL     OW25147   6.542   2.955   4.332
 8083SOL    HW125148   6.525   3.052   4.346
 8083SOL    HW225149   6.583   2.940   4.242
 8084SOL     OW25150   4.789   1.526   6.301
 8084SOL    HW125151   4.719   1.492   6.238
 8084SOL    HW225152   4.851   1.587   6.251
 8085SOL     OW25153   1.852   5.703   4.158
 8085SOL    HW125154   1.798   5.640   4.214
 8085SOL    HW225155   1.886   5.655   4.077
 8086SOL     OW25156   6.590   1.939   2.668
 8086SOL    HW125157   6.524   2.004   2.628
 8086SOL    HW225158   6.565   1.921   2.763
 8087SOL     OW25159   0.084   1.226   6.530
 8087SOL    HW125160   0.173   1.190   6.502
 8087SOL    HW225161   0.012   1.184   6.476
 8088SOL     OW25162   0.253   0.035   5.009
 8088SOL    HW125163   0.290   7.021   4.924
 8088SOL    HW225164   0.323   0.090   5.054
 8089SOL     OW25165   6.403   1.817   6.629
 8089SOL    HW125166   6.448   1.844   6.544
 8089SOL    HW225167   6.317   1.868   6.638
 8090SOL     OW25168   4.493   2.618   5.118
 8090SOL    HW125169   4.522   2.714   5.128
 8090SOL    HW225170   4.395   2.611   5.134
 8091SOL     OW25171   0.485   4.087   4.849
 8091SOL    HW125172   0.458   4.032   4.928
 8091SOL    HW225173   0.559   4.042   4.801
 8092SOL     OW25174   4.943   0.287   5.897
 8092SOL    HW125175   4.918   0.191   5.904
 8092SOL    HW225176   4.904   0.338   5.974
 8093SOL     OW25177   3.476   6.328   3.607
 8093SOL    HW125178   3.384   6.356   3.632
 8093SOL    HW225179   3.526   6.406   3.568
 8094SOL     OW25180   2.175   3.956   4.132
 8094SOL    HW125181   2.163   4.011   4.215
 8094SOL    HW225182   2.251   3.992   4.078
 8095SOL     OW25183   0.917   4.898   4.915
 8095SOL    HW125184   0.947   4.814   4.870
 8095SOL    HW225185   0.990   4.931   4.976
 8096SOL     OW25186   0.592   4.992   0.540
 8096SOL    HW125187   0.685   4.965   0.566
 8096SOL    HW225188   0.595   5.041   0.453
 8097SOL     OW25189   4.418   6.589   6.637
 8097SOL    HW125190   4.353   6.520   6.669
 8097SOL    HW225191   4.463   6.631   6.715
 8098SOL     OW25192   2.136   5.893   4.807
 8098SOL    HW125193   2.166   5.832   4.881
 8098SOL    HW225194   2.157   5.852   4.719
 8099SOL     OW25195   2.029   4.028   2.500
 8099SOL    HW125196   1.963   3.958   2.473
 8099SOL    HW225197   2.054   4.083   2.421
 8100SOL     OW25198   6.767   0.119   6.950
 8100SOL    HW125199   6.796   0.213   6.931
 8100SOL    HW225200   6.839   0.071   6.999
 8101SOL     OW25201   2.190   5.626   0.811
 8101SOL    HW125202   2.184   5.553   0.744
 8101SOL    HW225203   2.150   5.595   0.898
 8102SOL     OW25204   0.735   4.185   4.219
 8102SOL    HW125205   0.810   4.131   4.180
 8102SOL    HW225206   0.770   4.243   4.292
 8103SOL     OW25207   4.040   0.708   1.007
 8103SOL    HW125208   3.957   0.739   0.960
 8103SOL    HW225209   4.101   0.786   1.022
 8104SOL     OW25210   1.501   5.465   6.846
 8104SOL    HW125211   1.599   5.478   6.864
 8104SOL    HW225212   1.474   5.372   6.872
 8105SOL     OW25213   0.081   6.915   3.379
 8105SOL    HW125214   0.180   6.905   3.371
 8105SOL    HW225215   0.038   6.901   3.289
 8106SOL     OW25216   2.691   6.858   6.246
 8106SOL    HW125217   2.686   6.774   6.193
 8106SOL    HW225218   2.786   6.876   6.273
 8107SOL     OW25219   1.201   6.620   0.028
 8107SOL    HW125220   1.129   6.680   0.060
 8107SOL    HW225221   1.288   6.669   0.027
 8108SOL     OW25222   1.227   1.333   6.918
 8108SOL    HW125223   1.133   1.356   6.893
 8108SOL    HW225224   1.229   1.241   6.958
 8109SOL     OW25225   0.095   3.393   2.406
 8109SOL    HW125226   0.041   3.471   2.439
 8109SOL    HW225227   0.161   3.425   2.338
 8110SOL     OW25228   4.156   4.912   0.520
 8110SOL    HW125229   4.177   4.995   0.571
 8110SOL    HW225230   4.095   4.854   0.574
 8111SOL     OW25231   6.500   0.738   2.478
 8111SOL    HW125232   6.548   0.787   2.551
 8111SOL    HW225233   6.464   0.803   2.412
 8112SOL     OW25234   1.815   5.175   6.323
 8112SOL    HW125235   1.753   5.221   6.385
 8112SOL    HW225236   1.894   5.234   6.304
 8113SOL     OW25237   4.871   4.991   6.351
 8113SOL    HW125238   4.923   5.004   6.435
 8113SOL    HW225239   4.855   4.894   6.335
 8114SOL     OW25240   1.838   3.653   2.808
 8114SOL    HW125241   1.877   3.649   2.900
 8114SOL    HW225242   1.807   3.562   2.781
 8115SOL     OW25243   2.118   1.488   5.752
 8115SOL    HW125244   2.176   1.488   5.671
 8115SOL    HW225245   2.061   1.406   5.753
 8116SOL     OW25246   4.064   3.509   1.722
 8116SOL    HW125247   4.159   3.479   1.727
 8116SOL    HW225248   4.024   3.513   1.814
 8117SOL     OW25249   2.258   6.971   4.055
 8117SOL    HW125250   2.261   6.967   3.955
 8117SOL    HW225251   2.168   7.005   4.084
 8118SOL     OW25252   6.687   3.233   6.802
 8118SOL    HW125253   6.685   3.195   6.894
 8118SOL    HW225254   6.746   3.314   6.800
 8119SOL     OW25255   5.222   6.177   6.574
 8119SOL    HW125256   5.309   6.202   6.533
 8119SOL    HW225257   5.220   6.078   6.591
 8120SOL     OW25258   2.314   6.481   2.435
 8120SOL    HW125259   2.332   6.413   2.506
 8120SOL    HW225260   2.333   6.572   2.470
 8121SOL     OW25261   1.783   2.374   2.414
 8121SOL    HW125262   1.707   2.357   2.476
 8121SOL    HW225263   1.767   2.460   2.365
 8122SOL     OW25264   0.564   4.067   1.105
 8122SOL    HW125265   0.535   4.080   1.200
 8122SOL    HW225266   0.642   4.004   1.103
 8123SOL     OW25267   6.999   2.206   6.799
 8123SOL    HW125268   7.004   2.305   6.791
 8123SOL    HW225269   0.012   2.177   6.887
 8124SOL     OW25270   5.997   6.266   5.843
 8124SOL    HW125271   5.995   6.269   5.743
 8124SOL    HW225272   6.089   6.241   5.873
 8125SOL     OW25273   1.168   5.530   2.144
 8125SOL    HW125274   1.256   5.543   2.098
 8125SOL    HW225275   1.112   5.465   2.093
 8126SOL     OW25276   3.191   5.872   5.070
 8126SOL    HW125277   3.225   5.884   4.977
 8126SOL    HW225278   3.177   5.775   5.089
 8127SOL     OW25279   3.867   1.757   6.164
 8127SOL    HW125280   3.951   1.768   6.111
 8127SOL    HW225281   3.796   1.716   6.106
 8128SOL     OW25282   3.095   2.961   0.996
 8128SOL    HW125283   3.131   2.981   0.904
 8128SOL    HW225284   3.169   2.928   1.054
 8129SOL     OW25285   0.639   2.198   2.591
 8129SOL    HW125286   0.658   2.238   2.680
 8129SOL    HW225287   0.606   2.104   2.603
 8130SOL     OW25288   6.673   6.298   6.947
 8130SOL    HW125289   6.699   6.364   7.017
 8130SOL    HW225290   6.598   6.335   6.892
 8131SOL     OW25291   1.707   2.447   0.219
 8131SOL    HW125292   1.773   2.384   0.260
 8131SOL    HW225293   1.621   2.442   0.269
 8132SOL     OW25294   6.124   1.844   4.860
 8132SOL    HW125295   6.171   1.816   4.777
 8132SOL    HW225296   6.025   1.833   4.848
 8133SOL     OW25297   3.592   4.945   1.290
 8133SOL    HW125298   3.574   4.901   1.379
 8133SOL    HW225299   3.506   4.958   1.242
 8134SOL     OW25300   5.635   2.465   5.637
 8134SOL    HW125301   5.698   2.452   5.714
 8134SOL    HW225302   5.541   2.457   5.670
 8135SOL     OW25303   2.549   6.596   1.947
 8135SOL    HW125304   2.641   6.618   1.915
 8135SOL    HW225305   2.530   6.647   2.031
 8136SOL     OW25306   4.891   4.653   1.979
 8136SOL    HW125307   4.981   4.653   2.024
 8136SOL    HW225308   4.848   4.565   1.992
 8137SOL     OW25309   4.784   1.975   6.315
 8137SOL    HW125310   4.788   2.050   6.380
 8137SOL    HW225311   4.692   1.968   6.277
 8138SOL     OW25312   5.311   1.287   1.944
 8138SOL    HW125313   5.265   1.333   2.020
 8138SOL    HW225314   5.310   1.188   1.959
 8139SOL     OW25315   0.682   1.778   3.165
 8139SOL    HW125316   0.777   1.748   3.164
 8139SOL    HW225317   0.622   1.698   3.170
 8140SOL     OW25318   4.993   2.827   3.055
 8140SOL    HW125319   5.072   2.833   2.994
 8140SOL    HW225320   4.963   2.919   3.079
 8141SOL     OW25321   5.825   3.769   3.863
 8141SOL    HW125322   5.869   3.858   3.854
 8141SOL    HW225323   5.741   3.767   3.808
 8142SOL     OW25324   6.701   6.429   0.170
 8142SOL    HW125325   6.769   6.432   0.243
 8142SOL    HW225326   6.612   6.455   0.206
 8143SOL     OW25327   6.516   3.253   5.414
 8143SOL    HW125328   6.569   3.192   5.354
 8143SOL    HW225329   6.565   3.265   5.500
 8144SOL     OW25330   4.717   6.780   0.245
 8144SOL    HW125331   4.683   6.870   0.217
 8144SOL    HW225332   4.815   6.785   0.262
 8145SOL     OW25333   4.746   6.030   3.318
 8145SOL    HW125334   4.792   6.103   3.369
 8145SOL    HW225335   4.664   6.067   3.274
 8146SOL     OW25336   3.704   1.848   4.634
 8146SOL    HW125337   3.777   1.794   4.592
 8146SOL    HW225338   3.683   1.927   4.576
 8147SOL     OW25339   5.389   0.990   2.714
 8147SOL    HW125340   5.390   1.070   2.774
 8147SOL    HW225341   5.427   1.015   2.625
 8148SOL     OW25342   6.703   4.502   3.213
 8148SOL    HW125343   6.648   4.577   3.249
 8148SOL    HW225344   6.670   4.478   3.122
 8149SOL     OW25345   3.590   5.070   3.724
 8149SOL    HW125346   3.518   5.114   3.671
 8149SOL    HW225347   3.555   5.047   3.815
 8150SOL     OW25348   0.943   6.196   1.061
 8150SOL    HW125349   0.986   6.112   1.095
 8150SOL    HW225350   0.976   6.274   1.113
 8151SOL     OW25351   0.422   1.703   4.680
 8151SOL    HW125352   0.338   1.744   4.644
 8151SOL    HW225353   0.500   1.736   4.627
 8152SOL     OW25354   1.636   0.727   3.289
 8152SOL    HW125355   1.698   0.690   3.359
 8152SOL    HW225356   1.676   0.712   3.199
 8153SOL     OW25357   1.770   6.589   0.464
 8153SOL    HW125358   1.787   6.575   0.562
 8153SOL    HW225359   1.818   6.672   0.434
 8154SOL     OW25360   2.439   6.618   3.110
 8154SOL    HW125361   2.506   6.692   3.121
 8154SOL    HW225362   2.459   6.544   3.173
 8155SOL     OW25363   2.873   3.579   4.697
 8155SOL    HW125364   2.914   3.560   4.786
 8155SOL    HW225365   2.777   3.606   4.709
 8156SOL     OW25366   6.772   0.478   5.443
 8156SOL    HW125367   6.832   0.557   5.428
 8156SOL    HW225368   6.824   0.404   5.487
 8157SOL     OW25369   5.834   2.127   6.718
 8157SOL    HW125370   5.780   2.133   6.801
 8157SOL    HW225371   5.886   2.212   6.705
 8158SOL     OW25372   1.736   5.382   2.081
 8158SOL    HW125373   1.826   5.427   2.077
 8158SOL    HW225374   1.678   5.417   2.008
 8159SOL     OW25375   0.656   5.431   1.240
 8159SOL    HW125376   0.692   5.490   1.313
 8159SOL    HW225377   0.693   5.459   1.152
 8160SOL     OW25378   4.514   1.911   1.776
 8160SOL    HW125379   4.559   2.000   1.771
 8160SOL    HW225380   4.415   1.923   1.770
 8161SOL     OW25381   4.082   2.596   1.408
 8161SOL    HW125382   4.076   2.590   1.508
 8161SOL    HW225383   3.991   2.583   1.369
 8162SOL     OW25384   6.012   0.883   1.765
 8162SOL    HW125385   5.963   0.805   1.803
 8162SOL    HW225386   5.953   0.964   1.768
 8163SOL     OW25387   1.823   3.012   5.370
 8163SOL    HW125388   1.867   2.944   5.313
 8163SOL    HW225389   1.862   3.102   5.351
 8164SOL     OW25390   4.876   3.016   2.419
 8164SOL    HW125391   4.819   3.079   2.471
 8164SOL    HW225392   4.892   3.052   2.327
 8165SOL     OW25393   2.254   4.737   1.986
 8165SOL    HW125394   2.282   4.689   1.903
 8165SOL    HW225395   2.242   4.834   1.966
 8166SOL     OW25396   3.926   6.850   1.593
 8166SOL    HW125397   3.846   6.790   1.596
 8166SOL    HW225398   3.987   6.821   1.519
 8167SOL     OW25399   5.212   2.691   4.219
 8167SOL    HW125400   5.281   2.740   4.271
 8167SOL    HW225401   5.205   2.597   4.253
 8168SOL     OW25402   2.791   2.291   2.708
 8168SOL    HW125403   2.736   2.367   2.674
 8168SOL    HW225404   2.884   2.297   2.669
 8169SOL     OW25405   5.439   4.196   4.848
 8169SOL    HW125406   5.374   4.260   4.807
 8169SOL    HW225407   5.471   4.131   4.779
 8170SOL     OW25408   1.316   5.328   4.333
 8170SOL    HW125409   1.310   5.241   4.382
 8170SOL    HW225410   1.388   5.323   4.264
 8171SOL     OW25411   1.642   1.022   6.223
 8171SOL    HW125412   1.658   1.021   6.321
 8171SOL    HW225413   1.617   0.929   6.192
 8172SOL     OW25414   6.895   6.009   1.458
 8172SOL    HW125415   6.994   6.012   1.447
 8172SOL    HW225416   6.852   5.988   1.370
 8173SOL     OW25417   5.838   3.146   0.213
 8173SOL    HW125418   5.826   3.235   0.169
 8173SOL    HW225419   5.895   3.088   0.156
 8174SOL     OW25420   5.354   6.798   2.274
 8174SOL    HW125421   5.290   6.874   2.271
 8174SOL    HW225422   5.333   6.739   2.352
 8175SOL     OW25423   1.697   2.323   4.215
 8175SOL    HW125424   1.675   2.228   4.234
 8175SOL    HW225425   1.614   2.378   4.216
 8176SOL     OW25426   4.257   5.835   3.769
 8176SOL    HW125427   4.353   5.859   3.758
 8176SOL    HW225428   4.211   5.839   3.680
 8177SOL     OW25429   1.247   6.423   5.798
 8177SOL    HW125430   1.149   6.423   5.782
 8177SOL    HW225431   1.291   6.491   5.739
 8178SOL     OW25432   2.478   6.757   5.973
 8178SOL    HW125433   2.548   6.721   6.035
 8178SOL    HW225434   2.392   6.768   6.023
 8179SOL     OW25435   3.537   0.652   0.122
 8179SOL    HW125436   3.467   0.672   0.190
 8179SOL    HW225437   3.590   0.734   0.102
 8180SOL     OW25438   4.774   4.158   5.247
 8180SOL    HW125439   4.749   4.213   5.168
 8180SOL    HW225440   4.692   4.123   5.293
 8181SOL     OW25441   2.175   2.315   2.239
 8181SOL    HW125442   2.166   2.362   2.327
 8181SOL    HW225443   2.265   2.334   2.200
 8182SOL     OW25444   5.762   2.849   5.567
 8182SOL    HW125445   5.712   2.867   5.652
 8182SOL    HW225446   5.721   2.772   5.519
 8183SOL     OW25447   2.229   2.685   3.564
 8183SOL    HW125448   2.216   2.784   3.562
 8183SOL    HW225449   2.261   2.654   3.475
 8184SOL     OW25450   5.946   6.092   4.465
 8184SOL    HW125451   5.937   6.013   4.526
 8184SOL    HW225452   5.885   6.081   4.387
 8185SOL     OW25453   1.619   1.773   3.288
 8185SOL    HW125454   1.525   1.756   3.261
 8185SOL    HW225455   1.625   1.862   3.334
 8186SOL     OW25456   4.217   3.810   0.060
 8186SOL    HW125457   4.209   3.909   0.068
 8186SOL    HW225458   4.304   3.786   0.017
 8187SOL     OW25459   2.045   1.766   5.743
 8187SOL    HW125460   2.094   1.680   5.726
 8187SOL    HW225461   2.084   1.838   5.685
 8188SOL     OW25462   5.121   2.721   2.313
 8188SOL    HW125463   5.049   2.723   2.382
 8188SOL    HW225464   5.191   2.789   2.335
 8189SOL     OW25465   6.769   5.213   2.870
 8189SOL    HW125466   6.702   5.143   2.896
 8189SOL    HW225467   6.812   5.249   2.953
 8190SOL     OW25468   5.976   3.431   2.222
 8190SOL    HW125469   6.027   3.462   2.141
 8190SOL    HW225470   6.021   3.467   2.304
 8191SOL     OW25471   6.416   4.853   1.568
 8191SOL    HW125472   6.481   4.890   1.635
 8191SOL    HW225473   6.455   4.862   1.476
 8192SOL     OW25474   1.172   2.720   0.666
 8192SOL    HW125475   1.266   2.687   0.673
 8192SOL    HW225476   1.116   2.652   0.620
 8193SOL     OW25477   3.639   6.758   5.554
 8193SOL    HW125478   3.581   6.755   5.472
 8193SOL    HW225479   3.735   6.752   5.527
 8194SOL     OW25480   2.407   0.517   2.280
 8194SOL    HW125481   2.414   0.575   2.199
 8194SOL    HW225482   2.319   0.532   2.325
 8195SOL     OW25483   5.499   1.584   1.471
 8195SOL    HW125484   5.475   1.507   1.531
 8195SOL    HW225485   5.421   1.607   1.414
 8196SOL     OW25486   2.192   0.769   0.020
 8196SOL    HW125487   2.182   0.699   0.091
 8196SOL    HW225488   2.130   0.748   6.968
 8197SOL     OW25489   0.262   0.195   1.109
 8197SOL    HW125490   0.285   0.108   1.065
 8197SOL    HW225491   0.296   0.271   1.053
 8198SOL     OW25492   3.366   0.529   3.034
 8198SOL    HW125493   3.285   0.501   3.086
 8198SOL    HW225494   3.351   0.512   2.937
 8199SOL     OW25495   5.960   4.808   1.490
 8199SOL    HW125496   6.006   4.788   1.403
 8199SOL    HW225497   5.872   4.762   1.492
 8200SOL     OW25498   4.311   3.377   1.738
 8200SOL    HW125499   4.328   3.279   1.741
 8200SOL    HW225500   4.396   3.425   1.718
 8201SOL     OW25501   0.160   1.361   5.043
 8201SOL    HW125502   0.090   1.303   5.084
 8201SOL    HW225503   0.239   1.305   5.017
 8202SOL     OW25504   1.912   3.785   4.482
 8202SOL    HW125505   1.836   3.832   4.526
 8202SOL    HW225506   1.991   3.846   4.477
 8203SOL     OW25507   5.837   4.546   0.252
 8203SOL    HW125508   5.889   4.531   0.336
 8203SOL    HW225509   5.742   4.567   0.275
 8204SOL     OW25510   3.039   0.372   0.830
 8204SOL    HW125511   2.993   0.365   0.741
 8204SOL    HW225512   2.974   0.349   0.902
 8205SOL     OW25513   5.042   6.487   3.456
 8205SOL    HW125514   5.070   6.573   3.499
 8205SOL    HW225515   5.121   6.427   3.446
 8206SOL     OW25516   3.463   1.841   4.804
 8206SOL    HW125517   3.554   1.845   4.763
 8206SOL    HW225518   3.406   1.913   4.766
 8207SOL     OW25519   2.428   6.027   0.023
 8207SOL    HW125520   2.504   6.086   0.048
 8207SOL    HW225521   2.432   5.942   0.076
 8208SOL     OW25522   1.870   6.084   6.689
 8208SOL    HW125523   1.872   6.091   6.789
 8208SOL    HW225524   1.960   6.104   6.652
 8209SOL     OW25525   1.078   5.455   4.940
 8209SOL    HW125526   1.050   5.359   4.941
 8209SOL    HW225527   1.009   5.511   4.985
 8210SOL     OW25528   2.418   1.622   0.274
 8210SOL    HW125529   2.444   1.668   0.189
 8210SOL    HW225530   2.472   1.658   0.350
 8211SOL     OW25531   3.706   4.094   3.465
 8211SOL    HW125532   3.774   4.067   3.534
 8211SOL    HW225533   3.621   4.121   3.511
 8212SOL     OW25534   4.350   4.858   6.744
 8212SOL    HW125535   4.398   4.939   6.778
 8212SOL    HW225536   4.254   4.863   6.772
 8213SOL     OW25537   4.559   4.360   1.664
 8213SOL    HW125538   4.501   4.328   1.738
 8213SOL    HW225539   4.541   4.457   1.647
 8214SOL     OW25540   4.074   5.219   3.769
 8214SOL    HW125541   4.107   5.133   3.809
 8214SOL    HW225542   3.974   5.217   3.764
 8215SOL     OW25543   2.342   6.307   6.302
 8215SOL    HW125544   2.250   6.314   6.342
 8215SOL    HW225545   2.362   6.212   6.282
 8216SOL     OW25546   5.301   5.791   1.305
 8216SOL    HW125547   5.289   5.748   1.394
 8216SOL    HW225548   5.278   5.888   1.311
 8217SOL     OW25549   3.764   6.366   3.868
 8217SOL    HW125550   3.803   6.274   3.876
 8217SOL    HW225551   3.739   6.400   3.959
 8218SOL     OW25552   1.786   6.609   4.354
 8218SOL    HW125553   1.862   6.624   4.292
 8218SOL    HW225554   1.778   6.511   4.373
 8219SOL     OW25555   3.941   3.070   3.227
 8219SOL    HW125556   3.847   3.073   3.259
 8219SOL    HW225557   4.002   3.105   3.299
 8220SOL     OW25558   4.051   4.116   5.537
 8220SOL    HW125559   3.982   4.074   5.477
 8220SOL    HW225560   4.100   4.186   5.486
 8221SOL     OW25561   6.269   3.884   4.283
 8221SOL    HW125562   6.318   3.866   4.198
 8221SOL    HW225563   6.205   3.959   4.269
 8222SOL     OW25564   5.682   2.660   6.505
 8222SOL    HW125565   5.599   2.626   6.550
 8222SOL    HW225566   5.692   2.758   6.523
 8223SOL     OW25567   1.774   6.635   5.552
 8223SOL    HW125568   1.698   6.666   5.494
 8223SOL    HW225569   1.783   6.536   5.544
 8224SOL     OW25570   5.708   1.284   6.362
 8224SOL    HW125571   5.612   1.310   6.352
 8224SOL    HW225572   5.714   1.196   6.410
 8225SOL     OW25573   5.943   2.977   7.009
 8225SOL    HW125574   5.893   3.058   6.977
 8225SOL    HW225575   6.035   2.977   6.970
 8226SOL     OW25576   3.680   1.352   6.549
 8226SOL    HW125577   3.743   1.315   6.480
 8226SOL    HW225578   3.681   1.452   6.545
 8227SOL     OW25579   4.857   2.976   2.711
 8227SOL    HW125580   4.884   3.065   2.675
 8227SOL    HW225581   4.900   2.961   2.800
 8228SOL     OW25582   3.082   1.156   4.904
 8228SOL    HW125583   3.103   1.229   4.839
 8228SOL    HW225584   2.994   1.175   4.949
 8229SOL     OW25585   4.702   4.823   0.884
 8229SOL    HW125586   4.621   4.840   0.941
 8229SOL    HW225587   4.781   4.868   0.924
 8230SOL     OW25588   6.081   1.189   6.279
 8230SOL    HW125589   6.047   1.131   6.205
 8230SOL    HW225590   6.181   1.186   6.281
 8231SOL     OW25591   3.392   1.301   2.472
 8231SOL    HW125592   3.369   1.363   2.397
 8231SOL    HW225593   3.384   1.350   2.559
 8232SOL     OW25594   4.185   6.635   3.197
 8232SOL    HW125595   4.261   6.694   3.169
 8232SOL    HW225596   4.164   6.571   3.124
 8233SOL     OW25597   2.305   1.625   6.851
 8233SOL    HW125598   2.320   1.562   6.928
 8233SOL    HW225599   2.219   1.603   6.806
 8234SOL     OW25600   1.635   3.018   6.908
 8234SOL    HW125601   1.711   3.025   6.842
 8234SOL    HW225602   1.556   2.976   6.863
 8235SOL     OW25603   0.556   0.584   1.199
 8235SOL    HW125604   0.561   0.632   1.112
 8235SOL    HW225605   0.517   0.644   1.268
 8236SOL     OW25606   1.072   6.839   1.285
 8236SOL    HW125607   0.989   6.888   1.313
 8236SOL    HW225608   1.095   6.864   1.191
 8237SOL     OW25609   3.979   5.224   5.408
 8237SOL    HW125610   4.047   5.152   5.423
 8237SOL    HW225611   3.998   5.269   5.320
 8238SOL     OW25612   0.067   5.602   0.245
 8238SOL    HW125613   0.031   5.595   0.338
 8238SOL    HW225614   0.021   5.677   0.197
 8239SOL     OW25615   4.202   1.667   5.511
 8239SOL    HW125616   4.163   1.631   5.427
 8239SOL    HW225617   4.287   1.716   5.490
 8240SOL     OW25618   3.578   3.835   4.956
 8240SOL    HW125619   3.554   3.884   5.040
 8240SOL    HW225620   3.494   3.813   4.906
 8241SOL     OW25621   0.909   3.165   5.379
 8241SOL    HW125622   0.941   3.082   5.424
 8241SOL    HW225623   0.929   3.244   5.438
 8242SOL     OW25624   0.562   2.562   2.791
 8242SOL    HW125625   0.566   2.462   2.800
 8242SOL    HW225626   0.638   2.603   2.842
 8243SOL     OW25627   1.600   6.643   3.397
 8243SOL    HW125628   1.645   6.633   3.486
 8243SOL    HW225629   1.509   6.602   3.401
 8244SOL     OW25630   5.954   0.316   3.696
 8244SOL    HW125631   5.857   0.321   3.719
 8244SOL    HW225632   6.007   0.367   3.764
 8245SOL     OW25633   5.182   3.066   1.910
 8245SOL    HW125634   5.205   2.985   1.964
 8245SOL    HW225635   5.093   3.052   1.865
 8246SOL     OW25636   1.999   4.804   6.706
 8246SOL    HW125637   2.050   4.737   6.652
 8246SOL    HW225638   1.965   4.876   6.645
 8247SOL     OW25639   2.411   4.972   3.223
 8247SOL    HW125640   2.467   5.054   3.217
 8247SOL    HW225641   2.470   4.892   3.233
 8248SOL     OW25642   6.778   6.209   3.243
 8248SOL    HW125643   6.780   6.295   3.295
 8248SOL    HW225644   6.696   6.157   3.268
 8249SOL     OW25645   3.133   1.172   6.459
 8249SOL    HW125646   3.056   1.215   6.506
 8249SOL    HW225647   3.110   1.160   6.362
 8250SOL     OW25648   1.334   1.579   6.542
 8250SOL    HW125649   1.333   1.571   6.642
 8250SOL    HW225650   1.288   1.663   6.514
 8251SOL     OW25651   0.899   1.771   5.488
 8251SOL    HW125652   0.984   1.819   5.508
 8251SOL    HW225653   0.854   1.815   5.409
 8252SOL     OW25654   0.877   2.166   6.557
 8252SOL    HW125655   0.864   2.182   6.655
 8252SOL    HW225656   0.819   2.228   6.506
 8253SOL     OW25657   5.797   4.872   6.305
 8253SOL    HW125658   5.726   4.931   6.267
 8253SOL    HW225659   5.875   4.927   6.334
 8254SOL     OW25660   5.605   5.280   6.680
 8254SOL    HW125661   5.629   5.222   6.758
 8254SOL    HW225662   5.509   5.306   6.686
 8255SOL     OW25663   1.411   0.083   5.691
 8255SOL    HW125664   1.418   7.007   5.685
 8255SOL    HW225665   1.438   0.112   5.783
 8256SOL     OW25666   1.375   5.762   3.306
 8256SOL    HW125667   1.469   5.794   3.319
 8256SOL    HW225668   1.368   5.716   3.217
 8257SOL     OW25669   4.874   3.439   3.678
 8257SOL    HW125670   4.922   3.521   3.647
 8257SOL    HW225671   4.795   3.424   3.619
 8258SOL     OW25672   0.145   2.917   3.467
 8258SOL    HW125673   0.097   3.003   3.483
 8258SOL    HW225674   0.176   2.879   3.554
 8259SOL     OW25675   5.513   2.393   4.081
 8259SOL    HW125676   5.544   2.300   4.101
 8259SOL    HW225677   5.530   2.413   3.984
 8260SOL     OW25678   5.045   2.245   6.461
 8260SOL    HW125679   4.970   2.180   6.462
 8260SOL    HW225680   5.130   2.198   6.484
 8261SOL     OW25681   6.068   1.903   2.967
 8261SOL    HW125682   6.021   1.991   2.969
 8261SOL    HW225683   6.052   1.858   2.880
 8262SOL     OW25684   5.112   4.284   1.891
 8262SOL    HW125685   5.034   4.283   1.828
 8262SOL    HW225686   5.181   4.218   1.860
 8263SOL     OW25687   6.385   1.590   6.473
 8263SOL    HW125688   6.386   1.668   6.536
 8263SOL    HW225689   6.381   1.622   6.379
 8264SOL     OW25690   2.969   0.652   1.605
 8264SOL    HW125691   2.988   0.651   1.507
 8264SOL    HW225692   3.011   0.732   1.647
 8265SOL     OW25693   4.534   5.696   0.032
 8265SOL    HW125694   4.441   5.669   0.009
 8265SOL    HW225695   4.533   5.784   0.080
 8266SOL     OW25696   3.847   1.642   2.962
 8266SOL    HW125697   3.797   1.628   2.876
 8266SOL    HW225698   3.893   1.730   2.960
 8267SOL     OW25699   1.767   3.054   3.161
 8267SOL    HW125700   1.691   3.117   3.147
 8267SOL    HW225701   1.853   3.105   3.164
 8268SOL     OW25702   2.632   4.786   1.089
 8268SOL    HW125703   2.680   4.702   1.112
 8268SOL    HW225704   2.635   4.849   1.167
 8269SOL     OW25705   6.404   2.247   4.226
 8269SOL    HW125706   6.323   2.194   4.251
 8269SOL    HW225707   6.464   2.255   4.306
 8270SOL     OW25708   3.277   4.715   6.988
 8270SOL    HW125709   3.238   4.741   0.053
 8270SOL    HW225710   3.204   4.699   6.923
 8271SOL     OW25711   3.271   0.110   5.855
 8271SOL    HW125712   3.265   0.024   5.806
 8271SOL    HW225713   3.359   0.116   5.902
 8272SOL     OW25714   0.527   0.482   1.983
 8272SOL    HW125715   0.533   0.540   1.901
 8272SOL    HW225716   0.487   0.535   2.058
 8273SOL     OW25717   3.957   6.775   6.709
 8273SOL    HW125718   3.900   6.769   6.627
 8273SOL    HW225719   3.992   6.683   6.731
 8274SOL     OW25720   5.461   6.746   4.234
 8274SOL    HW125721   5.420   6.832   4.263
 8274SOL    HW225722   5.390   6.676   4.223
 8275SOL     OW25723   4.958   1.320   5.064
 8275SOL    HW125724   4.867   1.360   5.058
 8275SOL    HW225725   4.971   1.254   4.990
 8276SOL     OW25726   5.618   3.094   0.833
 8276SOL    HW125727   5.579   3.017   0.782
 8276SOL    HW225728   5.617   3.072   0.931
 8277SOL     OW25729   1.228   0.100   1.534
 8277SOL    HW125730   1.249   0.197   1.522
 8277SOL    HW225731   1.302   0.044   1.496
 8278SOL     OW25732   1.526   0.694   0.994
 8278SOL    HW125733   1.461   0.676   1.067
 8278SOL    HW225734   1.505   0.634   0.916
 8279SOL     OW25735   5.416   5.487   5.691
 8279SOL    HW125736   5.498   5.497   5.634
 8279SOL    HW225737   5.344   5.548   5.658
 8280SOL     OW25738   5.586   4.230   6.471
 8280SOL    HW125739   5.643   4.231   6.389
 8280SOL    HW225740   5.643   4.246   6.552
 8281SOL     OW25741   3.482   4.703   6.234
 8281SOL    HW125742   3.451   4.770   6.166
 8281SOL    HW225743   3.553   4.744   6.291
 8282SOL     OW25744   4.305   2.341   0.963
 8282SOL    HW125745   4.292   2.377   1.055
 8282SOL    HW225746   4.223   2.359   0.908
 8283SOL     OW25747   0.721   0.043   2.945
 8283SOL    HW125748   0.714   0.050   2.846
 8283SOL    HW225749   0.644   0.092   2.987
 8284SOL     OW25750   5.308   2.052   1.832
 8284SOL    HW125751   5.252   2.111   1.890
 8284SOL    HW225752   5.254   2.020   1.754
 8285SOL     OW25753   1.127   4.101   0.787
 8285SOL    HW125754   1.164   4.013   0.755
 8285SOL    HW225755   1.202   4.157   0.824
 8286SOL     OW25756   6.196   2.398   6.800
 8286SOL    HW125757   6.221   2.455   6.722
 8286SOL    HW225758   6.260   2.321   6.806
 8287SOL     OW25759   0.580   0.589   3.276
 8287SOL    HW125760   0.621   0.498   3.269
 8287SOL    HW225761   0.542   0.616   3.188
 8288SOL     OW25762   2.821   0.247   2.256
 8288SOL    HW125763   2.721   0.240   2.249
 8288SOL    HW225764   2.859   0.272   2.167
 8289SOL     OW25765   5.565   0.042   0.250
 8289SOL    HW125766   5.562   6.976   0.206
 8289SOL    HW225767   5.506   0.105   0.201
 8290SOL     OW25768   5.104   2.529   1.690
 8290SOL    HW125769   5.054   2.547   1.775
 8290SOL    HW225770   5.039   2.512   1.616
 8291SOL     OW25771   4.909   5.590   6.402
 8291SOL    HW125772   4.873   5.642   6.324
 8291SOL    HW225773   4.986   5.638   6.442
 8292SOL     OW25774   0.458   3.832   5.682
 8292SOL    HW125775   0.480   3.846   5.778
 8292SOL    HW225776   0.391   3.900   5.653
 8293SOL     OW25777   2.857   5.057   4.023
 8293SOL    HW125778   2.942   5.020   4.060
 8293SOL    HW225779   2.796   4.982   3.997
 8294SOL     OW25780   6.666   3.533   5.571
 8294SOL    HW125781   6.724   3.590   5.629
 8294SOL    HW225782   6.656   3.442   5.613
 8295SOL     OW25783   4.418   5.268   2.519
 8295SOL    HW125784   4.395   5.361   2.492
 8295SOL    HW225785   4.503   5.239   2.475
 8296SOL     OW25786   3.519   0.497   2.344
 8296SOL    HW125787   3.522   0.418   2.406
 8296SOL    HW225788   3.583   0.567   2.377
 8297SOL     OW25789   5.882   4.139   1.737
 8297SOL    HW125790   5.947   4.170   1.667
 8297SOL    HW225791   5.927   4.141   1.826
 8298SOL     OW25792   6.989   6.669   1.308
 8298SOL    HW125793   6.946   6.712   1.388
 8298SOL    HW225794   0.031   6.600   1.339
 8299SOL     OW25795   0.897   2.934   6.191
 8299SOL    HW125796   0.800   2.936   6.168
 8299SOL    HW225797   0.911   2.883   6.275
 8300SOL     OW25798   5.393   5.289   4.244
 8300SOL    HW125799   5.416   5.192   4.233
 8300SOL    HW225800   5.476   5.344   4.238
 8301SOL     OW25801   6.382   5.278   0.095
 8301SOL    HW125802   6.292   5.318   0.112
 8301SOL    HW225803   6.448   5.352   0.079
 8302SOL     OW25804   3.600   6.813   6.058
 8302SOL    HW125805   3.616   6.766   5.971
 8302SOL    HW225806   3.536   6.759   6.113
 8303SOL     OW25807   1.529   5.273   4.170
 8303SOL    HW125808   1.538   5.175   4.183
 8303SOL    HW225809   1.585   5.302   4.092
 8304SOL     OW25810   6.089   2.383   3.690
 8304SOL    HW125811   6.006   2.434   3.714
 8304SOL    HW225812   6.113   2.321   3.765
 8305SOL     OW25813   4.624   7.014   5.201
 8305SOL    HW125814   4.693   6.972   5.261
 8305SOL    HW225815   4.657   7.014   5.107
 8306SOL     OW25816   5.148   1.242   3.758
 8306SOL    HW125817   5.166   1.294   3.675
 8306SOL    HW225818   5.229   1.188   3.782
 8307SOL     OW25819   0.400   4.838   3.850
 8307SOL    HW125820   0.455   4.820   3.769
 8307SOL    HW225821   0.458   4.837   3.931
 8308SOL     OW25822   1.344   5.594   0.772
 8308SOL    HW125823   1.260   5.591   0.826
 8308SOL    HW225824   1.369   5.502   0.744
 8309SOL     OW25825   6.516   4.687   2.672
 8309SOL    HW125826   6.425   4.728   2.677
 8309SOL    HW225827   6.509   4.588   2.685
 8310SOL     OW25828   2.444   6.267   2.591
 8310SOL    HW125829   2.351   6.284   2.622
 8310SOL    HW225830   2.498   6.229   2.666
 8311SOL     OW25831   4.496   6.235   2.028
 8311SOL    HW125832   4.528   6.268   2.117
 8311SOL    HW225833   4.455   6.145   2.038
 8312SOL     OW25834   6.932   1.842   0.573
 8312SOL    HW125835   6.991   1.907   0.524
 8312SOL    HW225836   6.989   1.779   0.625
 8313SOL     OW25837   4.941   2.991   5.998
 8313SOL    HW125838   5.027   3.028   5.962
 8313SOL    HW225839   4.959   2.907   6.048
 8314SOL     OW25840   4.428   5.533   4.004
 8314SOL    HW125841   4.494   5.469   4.043
 8314SOL    HW225842   4.436   5.621   4.050
 8315SOL     OW25843   3.166   2.791   6.941
 8315SOL    HW125844   3.147   2.789   6.843
 8315SOL    HW225845   3.133   2.706   6.983
 8316SOL     OW25846   1.254   1.570   5.080
 8316SOL    HW125847   1.234   1.631   5.156
 8316SOL    HW225848   1.315   1.497   5.111
 8317SOL     OW25849   1.192   2.086   5.408
 8317SOL    HW125850   1.290   2.093   5.427
 8317SOL    HW225851   1.155   2.176   5.388
 8318SOL     OW25852   4.704   6.582   5.925
 8318SOL    HW125853   4.783   6.530   5.957
 8318SOL    HW225854   4.732   6.648   5.856
 8319SOL     OW25855   2.169   5.869   6.850
 8319SOL    HW125856   2.093   5.933   6.856
 8319SOL    HW225857   2.195   5.839   6.943
 8320SOL     OW25858   3.654   4.668   5.663
 8320SOL    HW125859   3.693   4.626   5.745
 8320SOL    HW225860   3.650   4.767   5.676
 8321SOL     OW25861   0.268   0.875   1.045
 8321SOL    HW125862   0.236   0.781   1.036
 8321SOL    HW225863   0.192   0.938   1.028
 8322SOL     OW25864   1.861   1.033   1.096
 8322SOL    HW125865   1.764   1.012   1.084
 8322SOL    HW225866   1.872   1.131   1.113
 8323SOL     OW25867   6.037   5.195   0.193
 8323SOL    HW125868   6.076   5.273   0.145
 8323SOL    HW225869   5.937   5.200   0.191
 8324SOL     OW25870   5.031   6.614   6.482
 8324SOL    HW125871   5.065   6.528   6.445
 8324SOL    HW225872   4.965   6.595   6.555
 8325SOL     OW25873   1.213   6.469   4.940
 8325SOL    HW125874   1.195   6.503   4.848
 8325SOL    HW225875   1.146   6.507   5.004
 8326SOL     OW25876   2.244   2.179   6.723
 8326SOL    HW125877   2.168   2.212   6.667
 8326SOL    HW225878   2.262   2.245   6.796
 8327SOL     OW25879   0.815   6.399   4.994
 8327SOL    HW125880   0.842   6.384   4.899
 8327SOL    HW225881   0.891   6.374   5.054
 8328SOL     OW25882   0.681   6.485   1.146
 8328SOL    HW125883   0.665   6.386   1.150
 8328SOL    HW225884   0.726   6.514   1.230
 8329SOL     OW25885   1.486   2.544   5.316
 8329SOL    HW125886   1.482   2.471   5.385
 8329SOL    HW225887   1.562   2.527   5.253
 8330SOL     OW25888   2.825   6.718   0.091
 8330SOL    HW125889   2.786   6.753   0.006
 8330SOL    HW225890   2.755   6.719   0.163
 8331SOL     OW25891   2.248   2.453   5.868
 8331SOL    HW125892   2.213   2.489   5.782
 8331SOL    HW225893   2.240   2.353   5.869
 8332SOL     OW25894   5.777   3.860   1.095
 8332SOL    HW125895   5.783   3.874   1.194
 8332SOL    HW225896   5.843   3.920   1.050
 8333SOL     OW25897   3.198   4.495   6.433
 8333SOL    HW125898   3.167   4.417   6.486
 8333SOL    HW225899   3.291   4.478   6.399
 8334SOL     OW25900   3.456   2.318   5.357
 8334SOL    HW125901   3.395   2.277   5.424
 8334SOL    HW225902   3.404   2.375   5.294
 8335SOL     OW25903   5.440   3.958   5.840
 8335SOL    HW125904   5.426   3.928   5.746
 8335SOL    HW225905   5.476   4.051   5.842
 8336SOL     OW25906   1.014   4.378   3.642
 8336SOL    HW125907   1.084   4.309   3.664
 8336SOL    HW225908   1.057   4.454   3.593
 8337SOL     OW25909   6.924   1.205   4.398
 8337SOL    HW125910   6.874   1.149   4.332
 8337SOL    HW225911   7.022   1.189   4.387
 8338SOL     OW25912   2.910   5.722   0.748
 8338SOL    HW125913   3.002   5.758   0.731
 8338SOL    HW225914   2.901   5.633   0.702
 8339SOL     OW25915   6.363   0.633   2.032
 8339SOL    HW125916   6.425   0.643   2.110
 8339SOL    HW225917   6.304   0.713   2.026
 8340SOL     OW25918   5.413   2.713   6.629
 8340SOL    HW125919   5.330   2.658   6.638
 8340SOL    HW225920   5.470   2.703   6.711
 8341SOL     OW25921   3.899   0.271   1.208
 8341SOL    HW125922   3.805   0.295   1.234
 8341SOL    HW225923   3.904   0.265   1.108
 8342SOL     OW25924   3.708   1.102   0.549
 8342SOL    HW125925   3.687   1.043   0.627
 8342SOL    HW225926   3.785   1.161   0.572
 8343SOL     OW25927   5.294   5.674   3.008
 8343SOL    HW125928   5.367   5.616   2.970
 8343SOL    HW225929   5.212   5.667   2.952
 8344SOL     OW25930   2.572   4.855   6.185
 8344SOL    HW125931   2.629   4.864   6.267
 8344SOL    HW225932   2.507   4.930   6.181
 8345SOL     OW25933   6.312   0.376   3.869
 8345SOL    HW125934   6.319   0.295   3.811
 8345SOL    HW225935   6.311   0.458   3.812
 8346SOL     OW25936   6.241   3.944   3.951
 8346SOL    HW125937   6.250   3.928   3.853
 8346SOL    HW225938   6.265   4.039   3.971
 8347SOL     OW25939   1.821   1.986   6.033
 8347SOL    HW125940   1.874   1.941   5.961
 8347SOL    HW225941   1.846   2.082   6.037
 8348SOL     OW25942   3.462   5.798   1.602
 8348SOL    HW125943   3.399   5.723   1.620
 8348SOL    HW225944   3.424   5.883   1.639
 8349SOL     OW25945   4.648   5.697   1.344
 8349SOL    HW125946   4.742   5.720   1.367
 8349SOL    HW225947   4.629   5.724   1.249
 8350SOL     OW25948   1.422   0.201   6.746
 8350SOL    HW125949   1.325   0.176   6.758
 8350SOL    HW225950   1.446   0.195   6.649
 8351SOL     OW25951   6.987   3.004   2.892
 8351SOL    HW125952   6.940   3.081   2.934
 8351SOL    HW225953   6.952   2.919   2.930
 8352SOL     OW25954   2.873   6.630   6.548
 8352SOL    HW125955   2.917   6.576   6.476
 8352SOL    HW225956   2.796   6.579   6.585
 8353SOL     OW25957   0.460   5.864   2.645
 8353SOL    HW125958   0.557   5.883   2.660
 8353SOL    HW225959   0.449   5.813   2.559
 8354SOL     OW25960   4.709   1.902   3.069
 8354SOL    HW125961   4.698   1.922   2.972
 8354SOL    HW225962   4.627   1.929   3.119
 8355SOL     OW25963   3.054   5.067   6.036
 8355SOL    HW125964   3.128   5.073   5.968
 8355SOL    HW225965   2.967   5.090   5.993
 8356SOL     OW25966   2.978   4.315   1.285
 8356SOL    HW125967   2.997   4.402   1.241
 8356SOL    HW225968   2.934   4.331   1.373
 8357SOL     OW25969   3.107   6.916   4.695
 8357SOL    HW125970   3.178   6.849   4.718
 8357SOL    HW225971   3.118   6.944   4.600
 8358SOL     OW25972   0.477   0.554   4.810
 8358SOL    HW125973   0.428   0.468   4.796
 8358SOL    HW225974   0.424   0.630   4.773
 8359SOL     OW25975   4.497   2.255   5.428
 8359SOL    HW125976   4.488   2.282   5.524
 8359SOL    HW225977   4.567   2.311   5.383
 8360SOL     OW25978   3.418   6.909   1.650
 8360SOL    HW125979   3.438   6.813   1.629
 8360SOL    HW225980   3.492   6.947   1.705
 8361SOL     OW25981   5.212   1.100   0.545
 8361SOL    HW125982   5.243   1.195   0.553
 8361SOL    HW225983   5.150   1.079   0.620
 8362SOL     OW25984   0.149   3.827   1.144
 8362SOL    HW125985   0.162   3.749   1.205
 8362SOL    HW225986   0.075   3.885   1.178
 8363SOL     OW25987   0.990   2.282   1.480
 8363SOL    HW125988   1.051   2.347   1.525
 8363SOL    HW225989   0.967   2.316   1.389
 8364SOL     OW25990   0.109   2.261   4.075
 8364SOL    HW125991   0.019   2.231   4.108
 8364SOL    HW225992   0.171   2.271   4.152
 8365SOL     OW25993   1.409   2.571   1.787
 8365SOL    HW125994   1.464   2.508   1.732
 8365SOL    HW225995   1.455   2.660   1.791
 8366SOL     OW25996   4.990   5.989   2.142
 8366SOL    HW125997   4.915   5.970   2.206
 8366SOL    HW225998   4.986   5.924   2.066
 8367SOL     OW25999   2.144   4.355   3.296
 8367SOL    HW126000   2.230   4.394   3.262
 8367SOL    HW226001   2.130   4.384   3.390
 8368SOL     OW26002   6.813   4.309   5.669
 8368SOL    HW126003   6.859   4.364   5.739
 8368SOL    HW226004   6.879   4.249   5.625
 8369SOL     OW26005   1.478   6.790   0.096
 8369SOL    HW126006   1.478   6.708   0.154
 8369SOL    HW226007   1.568   6.834   0.101
 8370SOL     OW26008   2.904   3.092   0.428
 8370SOL    HW126009   2.876   3.049   0.342
 8370SOL    HW226010   2.991   3.054   0.458
 8371SOL     OW26011   3.011   4.130   6.075
 8371SOL    HW126012   2.941   4.065   6.102
 8371SOL    HW226013   3.079   4.139   6.148
 8372SOL     OW26014   1.516   0.139   1.937
 8372SOL    HW126015   1.469   0.207   1.994
 8372SOL    HW226016   1.575   0.185   1.872
 8373SOL     OW26017   5.603   0.751   3.863
 8373SOL    HW126018   5.692   0.713   3.889
 8373SOL    HW226019   5.576   0.714   3.774
 8374SOL     OW26020   1.073   1.485   3.272
 8374SOL    HW126021   1.131   1.435   3.207
 8374SOL    HW226022   1.107   1.470   3.365
 8375SOL     OW26023   1.421   2.007   5.559
 8375SOL    HW126024   1.489   2.060   5.508
 8375SOL    HW226025   1.435   2.021   5.657
 8376SOL     OW26026   0.712   1.847   3.696
 8376SOL    HW126027   0.638   1.823   3.634
 8376SOL    HW226028   0.779   1.772   3.698
 8377SOL     OW26029   3.293   5.121   0.573
 8377SOL    HW126030   3.393   5.113   0.567
 8377SOL    HW226031   3.259   5.171   0.493
 8378SOL     OW26032   4.053   5.142   4.935
 8378SOL    HW126033   4.003   5.204   4.996
 8378SOL    HW226034   4.005   5.055   4.929
 8379SOL     OW26035   6.479   2.259   2.020
 8379SOL    HW126036   6.531   2.342   1.999
 8379SOL    HW226037   6.541   2.190   2.059
 8380SOL     OW26038   1.041   5.911   2.462
 8380SOL    HW126039   0.999   5.943   2.377
 8380SOL    HW226040   1.018   5.815   2.477
 8381SOL     OW26041   1.017   2.198   2.282
 8381SOL    HW126042   0.995   2.101   2.298
 8381SOL    HW226043   1.054   2.209   2.190
 8382SOL     OW26044   0.382   6.686   1.786
 8382SOL    HW126045   0.370   6.629   1.867
 8382SOL    HW226046   0.449   6.643   1.725
 8383SOL     OW26047   2.663   0.123   5.380
 8383SOL    HW126048   2.739   0.098   5.320
 8383SOL    HW226049   2.650   0.051   5.449
 8384SOL     OW26050   0.527   3.403   3.140
 8384SOL    HW126051   0.498   3.327   3.198
 8384SOL    HW226052   0.446   3.450   3.104
 8385SOL     OW26053   4.315   2.233   2.177
 8385SOL    HW126054   4.273   2.268   2.261
 8385SOL    HW226055   4.356   2.143   2.195
 8386SOL     OW26056   0.664   5.161   1.293
 8386SOL    HW126057   0.612   5.099   1.351
 8386SOL    HW226058   0.617   5.250   1.288
 8387SOL     OW26059   0.603   1.450   3.059
 8387SOL    HW126060   0.511   1.417   3.037
 8387SOL    HW226061   0.635   1.512   2.988
 8388SOL     OW26062   3.832   4.950   1.673
 8388SOL    HW126063   3.928   4.951   1.698
 8388SOL    HW226064   3.796   5.043   1.674
 8389SOL     OW26065   1.351   2.927   3.722
 8389SOL    HW126066   1.376   2.949   3.627
 8389SOL    HW226067   1.350   2.828   3.735
 8390SOL     OW26068   2.930   0.787   6.411
 8390SOL    HW126069   3.012   0.804   6.356
 8390SOL    HW226070   2.882   0.708   6.375
 8391SOL     OW26071   4.563   6.137   1.033
 8391SOL    HW126072   4.592   6.053   1.079
 8391SOL    HW226073   4.518   6.114   0.947
 8392SOL     OW26074   4.209   5.731   0.359
 8392SOL    HW126075   4.144   5.781   0.416
 8392SOL    HW226076   4.167   5.645   0.328
 8393SOL     OW26077   0.947   5.333   1.580
 8393SOL    HW126078   0.895   5.306   1.661
 8393SOL    HW226079   0.953   5.256   1.517
 8394SOL     OW26080   1.397   1.331   3.923
 8394SOL    HW126081   1.400   1.401   3.853
 8394SOL    HW226082   1.443   1.248   3.890
 8395SOL     OW26083   1.474   6.248   5.938
 8395SOL    HW126084   1.504   6.318   6.003
 8395SOL    HW226085   1.382   6.270   5.906
 8396SOL     OW26086   4.370   2.120   0.806
 8396SOL    HW126087   4.346   2.181   0.881
 8396SOL    HW226088   4.310   2.138   0.728
 8397SOL     OW26089   1.852   4.939   3.354
 8397SOL    HW126090   1.898   4.912   3.438
 8397SOL    HW226091   1.918   4.942   3.279
 8398SOL     OW26092   5.593   1.719   0.214
 8398SOL    HW126093   5.514   1.781   0.205
 8398SOL    HW226094   5.673   1.762   0.173
 8399SOL     OW26095   5.428   5.773   6.444
 8399SOL    HW126096   5.448   5.831   6.366
 8399SOL    HW226097   5.404   5.829   6.523
 8400SOL     OW26098   6.650   6.686   3.965
 8400SOL    HW126099   6.552   6.698   3.980
 8400SOL    HW226100   6.671   6.704   3.869
 8401SOL     OW26101   3.096   3.383   5.414
 8401SOL    HW126102   3.114   3.481   5.402
 8401SOL    HW226103   3.132   3.353   5.502
 8402SOL     OW26104   5.063   0.229   5.310
 8402SOL    HW126105   5.144   0.226   5.250
 8402SOL    HW226106   4.989   0.276   5.263
 8403SOL     OW26107   0.546   2.684   5.497
 8403SOL    HW126108   0.454   2.713   5.473
 8403SOL    HW226109   0.592   2.647   5.416
 8404SOL     OW26110   4.778   5.099   5.517
 8404SOL    HW126111   4.682   5.121   5.533
 8404SOL    HW226112   4.785   5.008   5.476
 8405SOL     OW26113   2.041   2.565   5.294
 8405SOL    HW126114   1.948   2.559   5.330
 8405SOL    HW226115   2.105   2.583   5.368
 8406SOL     OW26116   5.296   3.880   1.766
 8406SOL    HW126117   5.270   3.888   1.862
 8406SOL    HW226118   5.243   3.945   1.711
 8407SOL     OW26119   4.966   3.672   3.062
 8407SOL    HW126120   5.013   3.674   2.973
 8407SOL    HW226121   4.913   3.756   3.073
 8408SOL     OW26122   4.983   3.534   3.939
 8408SOL    HW126123   4.912   3.519   3.870
 8408SOL    HW226124   5.072   3.536   3.895
 8409SOL     OW26125   1.097   1.362   3.908
 8409SOL    HW126126   1.047   1.282   3.942
 8409SOL    HW226127   1.195   1.347   3.920
 8410SOL     OW26128   2.401   5.312   2.436
 8410SOL    HW126129   2.465   5.291   2.510
 8410SOL    HW226130   2.446   5.370   2.368
 8411SOL     OW26131   2.134   3.441   3.197
 8411SOL    HW126132   2.166   3.456   3.291
 8411SOL    HW226133   2.199   3.481   3.133
 8412SOL     OW26134   6.701   2.057   2.362
 8412SOL    HW126135   6.629   2.126   2.350
 8412SOL    HW226136   6.782   2.100   2.402
 8413SOL     OW26137   1.960   4.858   1.316
 8413SOL    HW126138   1.940   4.955   1.303
 8413SOL    HW226139   1.928   4.807   1.236
 8414SOL     OW26140   6.335   0.319   3.562
 8414SOL    HW126141   6.432   0.294   3.567
 8414SOL    HW226142   6.287   0.255   3.503
 8415SOL     OW26143   7.009   4.488   1.786
 8415SOL    HW126144   6.928   4.483   1.727
 8415SOL    HW226145   7.021   4.402   1.834
 8416SOL     OW26146   4.586   4.755   2.565
 8416SOL    HW126147   4.546   4.750   2.473
 8416SOL    HW226148   4.543   4.830   2.615
 8417SOL     OW26149   1.369   5.943   6.660
 8417SOL    HW126150   1.282   5.922   6.706
 8417SOL    HW226151   1.432   5.984   6.725
 8418SOL     OW26152   5.907   6.009   2.839
 8418SOL    HW126153   5.823   6.048   2.803
 8418SOL    HW226154   5.886   5.954   2.920
 8419SOL     OW26155   5.040   0.231   4.217
 8419SOL    HW126156   5.126   0.253   4.263
 8419SOL    HW226157   5.060   0.195   4.126
 8420SOL     OW26158   3.990   2.254   5.787
 8420SOL    HW126159   3.919   2.213   5.730
 8420SOL    HW226160   3.949   2.317   5.852
 8421SOL     OW26161   0.151   1.411   1.511
 8421SOL    HW126162   0.135   1.338   1.577
 8421SOL    HW226163   0.241   1.399   1.469
 8422SOL     OW26164   3.151   6.890   1.736
 8422SOL    HW126165   3.134   6.849   1.826
 8422SOL    HW226166   3.249   6.903   1.723
 8423SOL     OW26167   2.016   3.715   1.186
 8423SOL    HW126168   1.950   3.780   1.221
 8423SOL    HW226169   2.022   3.724   1.086
 8424SOL     OW26170   2.807   2.454   1.403
 8424SOL    HW126171   2.833   2.392   1.477
 8424SOL    HW226172   2.850   2.543   1.418
 8425SOL     OW26173   6.153   4.899   6.313
 8425SOL    HW126174   6.251   4.907   6.333
 8425SOL    HW226175   6.116   4.818   6.358
 8426SOL     OW26176   3.478   3.417   2.412
 8426SOL    HW126177   3.493   3.365   2.496
 8426SOL    HW226178   3.443   3.357   2.340
 8427SOL     OW26179   1.853   2.178   0.147
 8427SOL    HW126180   1.799   2.213   0.071
 8427SOL    HW226181   1.944   2.153   0.115
 8428SOL     OW26182   6.092   3.657   0.657
 8428SOL    HW126183   6.020   3.588   0.661
 8428SOL    HW226184   6.122   3.680   0.750
 8429SOL     OW26185   1.762   6.526   2.699
 8429SOL    HW126186   1.727   6.587   2.771
 8429SOL    HW226187   1.755   6.572   2.611
 8430SOL     OW26188   4.870   4.532   3.105
 8430SOL    HW126189   4.800   4.468   3.075
 8430SOL    HW226190   4.911   4.576   3.025
 8431SOL     OW26191   3.067   3.451   2.316
 8431SOL    HW126192   2.996   3.411   2.258
 8431SOL    HW226193   3.140   3.488   2.258
 8432SOL     OW26194   4.507   6.294   6.777
 8432SOL    HW126195   4.481   6.356   6.851
 8432SOL    HW226196   4.596   6.321   6.741
 8433SOL     OW26197   0.521   1.072   3.776
 8433SOL    HW126198   0.434   1.066   3.825
 8433SOL    HW226199   0.595   1.085   3.841
 8434SOL     OW26200   5.953   6.460   6.380
 8434SOL    HW126201   5.929   6.531   6.446
 8434SOL    HW226202   6.012   6.392   6.424
 8435SOL     OW26203   4.795   2.046   1.224
 8435SOL    HW126204   4.806   2.072   1.129
 8435SOL    HW226205   4.839   1.958   1.240
 8436SOL     OW26206   2.973   4.131   1.815
 8436SOL    HW126207   2.889   4.086   1.782
 8436SOL    HW226208   2.956   4.229   1.824
 8437SOL     OW26209   0.481   2.023   0.805
 8437SOL    HW126210   0.427   2.097   0.764
 8437SOL    HW226211   0.421   1.946   0.825
 8438SOL     OW26212   2.236   5.435   0.621
 8438SOL    HW126213   2.157   5.386   0.585
 8438SOL    HW226214   2.292   5.468   0.545
 8439SOL     OW26215   5.624   0.976   1.691
 8439SOL    HW126216   5.554   1.027   1.642
 8439SOL    HW226217   5.669   0.912   1.629
 8440SOL     OW26218   0.830   2.944   3.991
 8440SOL    HW126219   0.862   3.007   4.062
 8440SOL    HW226220   0.818   2.993   3.905
 8441SOL     OW26221   4.749   5.920   2.262
 8441SOL    HW126222   4.695   5.904   2.344
 8441SOL    HW226223   4.689   5.924   2.183
 8442SOL     OW26224   2.630   2.701   1.021
 8442SOL    HW126225   2.580   2.755   0.953
 8442SOL    HW226226   2.725   2.688   0.990
 8443SOL     OW26227   0.254   1.800   1.353
 8443SOL    HW126228   0.262   1.766   1.447
 8443SOL    HW226229   0.237   1.899   1.355
 8444SOL     OW26230   4.319   1.424   3.310
 8444SOL    HW126231   4.229   1.395   3.278
 8444SOL    HW226232   4.309   1.507   3.366
 8445SOL     OW26233   4.696   5.555   1.949
 8445SOL    HW126234   4.665   5.465   1.979
 8445SOL    HW226235   4.738   5.548   1.859
 8446SOL     OW26236   0.099   3.303   2.930
 8446SOL    HW126237   0.141   3.213   2.925
 8446SOL    HW226238   0.132   3.360   2.855
 8447SOL     OW26239   4.383   3.700   1.109
 8447SOL    HW126240   4.375   3.745   1.198
 8447SOL    HW226241   4.403   3.768   1.039
 8448SOL     OW26242   1.837   3.794   6.060
 8448SOL    HW126243   1.907   3.865   6.071
 8448SOL    HW226244   1.778   3.793   6.140
 8449SOL     OW26245   1.200   0.857   4.849
 8449SOL    HW126246   1.211   0.761   4.827
 8449SOL    HW226247   1.103   0.882   4.844
 8450SOL     OW26248   1.962   5.596   1.074
 8450SOL    HW126249   1.882   5.633   1.026
 8450SOL    HW226250   1.981   5.503   1.039
 8451SOL     OW26251   3.207   3.363   0.887
 8451SOL    HW126252   3.232   3.321   0.974
 8451SOL    HW226253   3.108   3.360   0.875
 8452SOL     OW26254   0.046   5.432   1.366
 8452SOL    HW126255   7.017   5.368   1.310
 8452SOL    HW226256   7.011   5.509   1.393
 8453SOL     OW26257   6.715   5.387   5.084
 8453SOL    HW126258   6.730   5.386   5.183
 8453SOL    HW226259   6.687   5.296   5.053
 8454SOL     OW26260   2.157   6.760   4.618
 8454SOL    HW126261   2.175   6.669   4.655
 8454SOL    HW226262   2.184   6.829   4.685
 8455SOL     OW26263   5.623   2.668   0.856
 8455SOL    HW126264   5.572   2.638   0.937
 8455SOL    HW226265   5.702   2.723   0.884
 8456SOL     OW26266   5.458   4.772   3.572
 8456SOL    HW126267   5.395   4.795   3.498
 8456SOL    HW226268   5.446   4.836   3.648
 8457SOL     OW26269   6.474   6.202   5.674
 8457SOL    HW126270   6.411   6.276   5.699
 8457SOL    HW226271   6.431   6.143   5.606
 8458SOL     OW26272   1.645   2.337   1.181
 8458SOL    HW126273   1.686   2.382   1.101
 8458SOL    HW226274   1.546   2.348   1.179
 8459SOL     OW26275   2.606   5.086   3.453
 8459SOL    HW126276   2.574   5.061   3.544
 8459SOL    HW226277   2.624   5.004   3.399
 8460SOL     OW26278   3.847   1.070   1.130
 8460SOL    HW126279   3.839   1.158   1.084
 8460SOL    HW226280   3.845   0.997   1.062
 8461SOL     OW26281   5.334   4.103   3.488
 8461SOL    HW126282   5.268   4.161   3.536
 8461SOL    HW226283   5.316   4.007   3.509
 8462SOL     OW26284   1.511   3.755   0.716
 8462SOL    HW126285   1.589   3.696   0.737
 8462SOL    HW226286   1.544   3.847   0.694
 8463SOL     OW26287   6.841   0.106   1.139
 8463SOL    HW126288   6.869   0.016   1.104
 8463SOL    HW226289   6.920   0.152   1.179
 8464SOL     OW26290   6.130   3.233   6.639
 8464SOL    HW126291   6.117   3.266   6.545
 8464SOL    HW226292   6.182   3.301   6.691
 8465SOL     OW26293   4.895   3.631   0.959
 8465SOL    HW126294   4.809   3.597   0.920
 8465SOL    HW226295   4.970   3.572   0.930
 8466SOL     OW26296   0.551   1.436   5.418
 8466SOL    HW126297   0.574   1.456   5.322
 8466SOL    HW226298   0.633   1.409   5.467
 8467SOL     OW26299   2.944   1.511   0.886
 8467SOL    HW126300   2.902   1.448   0.821
 8467SOL    HW226301   2.948   1.603   0.847
 8468SOL     OW26302   5.457   4.456   0.663
 8468SOL    HW126303   5.481   4.551   0.685
 8468SOL    HW226304   5.486   4.435   0.570
 8469SOL     OW26305   3.906   3.087   5.673
 8469SOL    HW126306   3.988   3.065   5.726
 8469SOL    HW226307   3.871   3.004   5.629
 8470SOL     OW26308   1.214   5.707   1.536
 8470SOL    HW126309   1.245   5.799   1.509
 8470SOL    HW226310   1.268   5.638   1.488
 8471SOL     OW26311   4.208   1.845   4.676
 8471SOL    HW126312   4.215   1.769   4.741
 8471SOL    HW226313   4.138   1.909   4.708
 8472SOL     OW26314   5.541   1.695   6.576
 8472SOL    HW126315   5.602   1.769   6.604
 8472SOL    HW226316   5.456   1.733   6.540
 8473SOL     OW26317   5.098   4.942   5.919
 8473SOL    HW126318   5.085   4.978   5.827
 8473SOL    HW226319   5.067   5.009   5.986
 8474SOL     OW26320   3.217   4.136   5.191
 8474SOL    HW126321   3.195   4.091   5.104
 8474SOL    HW226322   3.156   4.214   5.205
 8475SOL     OW26323   6.785   1.683   3.056
 8475SOL    HW126324   6.832   1.643   2.977
 8475SOL    HW226325   6.814   1.778   3.068
 8476SOL     OW26326   6.114   1.227   1.785
 8476SOL    HW126327   6.144   1.250   1.693
 8476SOL    HW226328   6.030   1.173   1.781
 8477SOL     OW26329   5.824   1.030   1.001
 8477SOL    HW126330   5.796   1.123   0.977
 8477SOL    HW226331   5.844   1.025   1.099
 8478SOL     OW26332   0.714   6.303   5.827
 8478SOL    HW126333   0.806   6.305   5.790
 8478SOL    HW226334   0.718   6.278   5.924
 8479SOL     OW26335   1.384   2.376   6.897
 8479SOL    HW126336   1.294   2.367   6.855
 8479SOL    HW226337   1.403   2.472   6.916
 8480SOL     OW26338   3.302   4.305   0.838
 8480SOL    HW126339   3.375   4.369   0.860
 8480SOL    HW226340   3.340   4.215   0.819
 8481SOL     OW26341   4.331   2.317   2.574
 8481SOL    HW126342   4.394   2.378   2.526
 8481SOL    HW226343   4.331   2.340   2.671
 8482SOL     OW26344   4.106   0.417   6.750
 8482SOL    HW126345   4.102   0.424   6.849
 8482SOL    HW226346   4.084   0.506   6.710
 8483SOL     OW26347   4.178   4.810   3.586
 8483SOL    HW126348   4.083   4.817   3.553
 8483SOL    HW226349   4.233   4.884   3.547
 8484SOL     OW26350   6.094   5.843   5.424
 8484SOL    HW126351   6.118   5.931   5.384
 8484SOL    HW226352   6.167   5.777   5.405
 8485SOL     OW26353   4.256   0.968   5.953
 8485SOL    HW126354   4.213   0.971   5.863
 8485SOL    HW226355   4.238   0.879   5.995
 8486SOL     OW26356   6.182   2.419   4.916
 8486SOL    HW126357   6.090   2.421   4.954
 8486SOL    HW226358   6.221   2.511   4.918
 8487SOL     OW26359   6.801   2.724   6.254
 8487SOL    HW126360   6.897   2.753   6.265
 8487SOL    HW226361   6.748   2.754   6.333
 8488SOL     OW26362   4.561   4.406   2.579
 8488SOL    HW126363   4.644   4.441   2.535
 8488SOL    HW226364   4.505   4.359   2.511
 8489SOL     OW26365   6.285   1.786   2.062
 8489SOL    HW126366   6.285   1.840   2.146
 8489SOL    HW226367   6.379   1.760   2.039
 8490SOL     OW26368   2.883   6.677   0.602
 8490SOL    HW126369   2.973   6.663   0.559
 8490SOL    HW226370   2.871   6.774   0.622
 8491SOL     OW26371   3.377   5.467   2.365
 8491SOL    HW126372   3.443   5.498   2.434
 8491SOL    HW226373   3.396   5.513   2.278
 8492SOL     OW26374   6.455   6.024   4.270
 8492SOL    HW126375   6.488   6.113   4.302
 8492SOL    HW226376   6.522   5.984   4.207
 8493SOL     OW26377   5.152   0.780   5.798
 8493SOL    HW126378   5.083   0.851   5.810
 8493SOL    HW226379   5.135   0.705   5.862
 8494SOL     OW26380   0.247   3.506   2.201
 8494SOL    HW126381   0.219   3.499   2.105
 8494SOL    HW226382   0.301   3.589   2.214
 8495SOL     OW26383   5.486   5.682   6.120
 8495SOL    HW126384   5.386   5.671   6.121
 8495SOL    HW226385   5.508   5.779   6.115
 8496SOL     OW26386   5.215   1.669   2.372
 8496SOL    HW126387   5.135   1.612   2.392
 8496SOL    HW226388   5.203   1.759   2.415
 8497SOL     OW26389   6.584   0.544   2.796
 8497SOL    HW126390   6.553   0.611   2.729
 8497SOL    HW226391   6.521   0.544   2.874
 8498SOL     OW26392   4.852   5.943   4.328
 8498SOL    HW126393   4.772   5.907   4.377
 8498SOL    HW226394   4.901   5.867   4.285
 8499SOL     OW26395   5.959   6.821   5.613
 8499SOL    HW126396   6.035   6.882   5.589
 8499SOL    HW226397   5.906   6.862   5.687
 8500SOL     OW26398   1.010   0.716   6.822
 8500SOL    HW126399   1.046   0.680   6.908
 8500SOL    HW226400   0.914   0.689   6.813
 8501SOL     OW26401   3.067   1.178   6.187
 8501SOL    HW126402   3.015   1.106   6.141
 8501SOL    HW226403   3.164   1.169   6.164
 8502SOL     OW26404   6.333   2.956   0.201
 8502SOL    HW126405   6.262   3.027   0.203
 8502SOL    HW226406   6.296   2.870   0.234
 8503SOL     OW26407   4.799   2.476   5.495
 8503SOL    HW126408   4.744   2.520   5.567
 8503SOL    HW226409   4.830   2.546   5.430
 8504SOL     OW26410   1.181   6.453   2.201
 8504SOL    HW126411   1.262   6.467   2.143
 8504SOL    HW226412   1.210   6.441   2.296
 8505SOL     OW26413   5.639   1.962   2.865
 8505SOL    HW126414   5.655   1.964   2.766
 8505SOL    HW226415   5.608   1.871   2.891
 8506SOL     OW26416   1.395   0.116   6.173
 8506SOL    HW126417   1.367   0.184   6.241
 8506SOL    HW226418   1.448   0.161   6.101
 8507SOL     OW26419   4.063   5.138   5.823
 8507SOL    HW126420   4.104   5.061   5.872
 8507SOL    HW226421   4.127   5.215   5.822
 8508SOL     OW26422   3.381   0.743   6.465
 8508SOL    HW126423   3.326   0.670   6.426
 8508SOL    HW226424   3.441   0.706   6.536
 8509SOL     OW26425   5.083   2.259   2.261
 8509SOL    HW126426   4.988   2.291   2.253
 8509SOL    HW226427   5.129   2.309   2.334
 8510SOL     OW26428   0.676   2.168   4.705
 8510SOL    HW126429   0.756   2.211   4.664
 8510SOL    HW226430   0.596   2.228   4.695
 8511SOL     OW26431   5.960   1.945   3.708
 8511SOL    HW126432   5.996   1.938   3.615
 8511SOL    HW226433   5.894   2.021   3.712
 8512SOL     OW26434   2.112   6.479   5.687
 8512SOL    HW126435   2.156   6.390   5.702
 8512SOL    HW226436   2.023   6.466   5.644
 8513SOL     OW26437   4.569   6.035   6.933
 8513SOL    HW126438   4.612   5.972   6.869
 8513SOL    HW226439   4.556   6.124   6.889
 8514SOL     OW26440   3.294   5.449   4.332
 8514SOL    HW126441   3.349   5.390   4.273
 8514SOL    HW226442   3.271   5.400   4.416
 8515SOL     OW26443   6.129   2.298   2.176
 8515SOL    HW126444   6.046   2.352   2.185
 8515SOL    HW226445   6.150   2.283   2.079
 8516SOL     OW26446   6.591   1.452   2.227
 8516SOL    HW126447   6.661   1.487   2.165
 8516SOL    HW226448   6.539   1.379   2.181
 8517SOL     OW26449   1.408   3.885   5.246
 8517SOL    HW126450   1.370   3.948   5.314
 8517SOL    HW226451   1.473   3.934   5.188
 8518SOL     OW26452   3.045   5.868   1.129
 8518SOL    HW126453   3.021   5.775   1.104
 8518SOL    HW226454   3.107   5.907   1.061
 8519SOL     OW26455   2.660   5.796   3.571
 8519SOL    HW126456   2.623   5.731   3.637
 8519SOL    HW226457   2.760   5.792   3.573
 8520SOL     OW26458   3.308   6.263   6.524
 8520SOL    HW126459   3.304   6.177   6.575
 8520SOL    HW226460   3.350   6.333   6.582
 8521SOL     OW26461   2.144   0.597   2.428
 8521SOL    HW126462   2.062   0.543   2.452
 8521SOL    HW226463   2.163   0.663   2.501
 8522SOL     OW26464   2.177   6.418   5.022
 8522SOL    HW126465   2.096   6.474   5.039
 8522SOL    HW226466   2.149   6.327   4.992
 8523SOL     OW26467   1.783   6.688   6.653
 8523SOL    HW126468   1.693   6.668   6.616
 8523SOL    HW226469   1.785   6.668   6.751
 8524SOL     OW26470   1.789   1.411   0.079
 8524SOL    HW126471   1.862   1.393   0.145
 8524SOL    HW226472   1.795   1.505   0.047
 8525SOL     OW26473   5.905   3.509   3.754
 8525SOL    HW126474   5.887   3.515   3.656
 8525SOL    HW226475   5.906   3.602   3.793
 8526SOL     OW26476   1.571   3.372   2.148
 8526SOL    HW126477   1.559   3.274   2.135
 8526SOL    HW226478   1.520   3.421   2.078
 8527SOL     OW26479   4.773   0.163   4.754
 8527SOL    HW126480   4.734   0.123   4.670
 8527SOL    HW226481   4.706   0.224   4.796
 8528SOL     OW26482   5.769   1.145   6.714
 8528SOL    HW126483   5.856   1.172   6.756
 8528SOL    HW226484   5.723   1.226   6.677
 8529SOL     OW26485   6.981   6.971   5.173
 8529SOL    HW126486   0.031   6.974   5.242
 8529SOL    HW226487   6.939   0.038   5.164
 8530SOL     OW26488   1.885   5.056   5.824
 8530SOL    HW126489   1.807   5.084   5.880
 8530SOL    HW226490   1.883   4.957   5.810
 8531SOL     OW26491   3.905   5.204   1.420
 8531SOL    HW126492   3.936   5.273   1.354
 8531SOL    HW226493   3.917   5.113   1.382
 8532SOL     OW26494   1.468   4.436   0.674
 8532SOL    HW126495   1.552   4.382   0.675
 8532SOL    HW226496   1.409   4.408   0.750
 8533SOL     OW26497   3.736   6.422   5.588
 8533SOL    HW126498   3.637   6.419   5.605
 8533SOL    HW226499   3.758   6.361   5.512
 8534SOL     OW26500   2.170   2.427   1.096
 8534SOL    HW126501   2.131   2.349   1.145
 8534SOL    HW226502   2.114   2.447   1.015
 8535SOL     OW26503   0.537   3.437   5.816
 8535SOL    HW126504   0.610   3.398   5.760
 8535SOL    HW226505   0.450   3.429   5.767
 8536SOL     OW26506   6.114   0.873   5.784
 8536SOL    HW126507   6.021   0.907   5.771
 8536SOL    HW226508   6.145   0.895   5.876
 8537SOL     OW26509   4.399   6.165   3.670
 8537SOL    HW126510   4.494   6.144   3.648
 8537SOL    HW226511   4.344   6.160   3.587
 8538SOL     OW26512   4.980   7.001   5.180
 8538SOL    HW126513   4.991   0.076   5.190
 8538SOL    HW226514   4.989   6.976   5.083
 8539SOL     OW26515   0.805   2.937   2.557
 8539SOL    HW126516   0.836   3.020   2.603
 8539SOL    HW226517   0.739   2.961   2.485
 8540SOL     OW26518   4.059   7.010   6.778
 8540SOL    HW126519   3.961   7.022   6.769
 8540SOL    HW226520   4.082   6.913   6.765
 8541SOL     OW26521   2.745   6.383   5.264
 8541SOL    HW126522   2.769   6.321   5.339
 8541SOL    HW226523   2.761   6.338   5.177
 8542SOL     OW26524   0.979   5.385   5.767
 8542SOL    HW126525   1.009   5.474   5.800
 8542SOL    HW226526   1.016   5.313   5.826
 8543SOL     OW26527   3.232   2.233   5.510
 8543SOL    HW126528   3.198   2.327   5.513
 8543SOL    HW226529   3.158   2.172   5.480
 8544SOL     OW26530   5.763   4.075   5.207
 8544SOL    HW126531   5.664   4.086   5.215
 8544SOL    HW226532   5.797   4.023   5.286
 8545SOL     OW26533   2.301   0.441   6.193
 8545SOL    HW126534   2.396   0.469   6.179
 8545SOL    HW226535   2.287   0.420   6.289
 8546SOL     OW26536   3.599   1.033   3.676
 8546SOL    HW126537   3.535   1.002   3.606
 8546SOL    HW226538   3.563   1.012   3.767
 8547SOL     OW26539   5.200   6.224   6.031
 8547SOL    HW126540   5.240   6.297   6.087
 8547SOL    HW226541   5.131   6.264   5.971
 8548SOL     OW26542   1.469   4.315   4.395
 8548SOL    HW126543   1.410   4.376   4.344
 8548SOL    HW226544   1.555   4.362   4.418
 8549SOL     OW26545   2.813   0.221   3.811
 8549SOL    HW126546   2.770   0.243   3.723
 8549SOL    HW226547   2.748   0.175   3.870
 8550SOL     OW26548   0.308   4.582   5.344
 8550SOL    HW126549   0.294   4.519   5.267
 8550SOL    HW226550   0.300   4.531   5.430
 8551SOL     OW26551   3.590   1.124   4.474
 8551SOL    HW126552   3.554   1.137   4.566
 8551SOL    HW226553   3.591   1.213   4.426
 8552SOL     OW26554   3.462   1.771   2.297
 8552SOL    HW126555   3.466   1.862   2.256
 8552SOL    HW226556   3.371   1.756   2.336
 8553SOL     OW26557   4.808   3.932   0.696
 8553SOL    HW126558   4.884   3.989   0.727
 8553SOL    HW226559   4.843   3.858   0.638
 8554SOL     OW26560   1.375   1.086   6.497
 8554SOL    HW126561   1.460   1.048   6.534
 8554SOL    HW226562   1.318   1.120   6.572
 8555SOL     OW26563   3.050   1.929   3.742
 8555SOL    HW126564   2.984   1.858   3.717
 8555SOL    HW226565   3.052   1.999   3.670
 8556SOL     OW26566   7.014   5.303   5.411
 8556SOL    HW126567   0.083   5.317   5.379
 8556SOL    HW226568   6.965   5.243   5.348
 8557SOL     OW26569   6.543   1.215   0.047
 8557SOL    HW126570   6.620   1.182   0.103
 8557SOL    HW226571   6.568   1.211   6.974
 8558SOL     OW26572   2.574   6.674   3.688
 8558SOL    HW126573   2.499   6.697   3.626
 8558SOL    HW226574   2.550   6.701   3.781
 8559SOL     OW26575   1.517   3.468   2.590
 8559SOL    HW126576   1.602   3.474   2.642
 8559SOL    HW226577   1.484   3.373   2.590
 8560SOL     OW26578   3.546   3.845   1.274
 8560SOL    HW126579   3.551   3.792   1.189
 8560SOL    HW226580   3.454   3.836   1.313
 8561SOL     OW26581   4.273   0.593   3.058
 8561SOL    HW126582   4.350   0.657   3.050
 8561SOL    HW226583   4.234   0.599   3.150
 8562SOL     OW26584   5.271   2.431   6.428
 8562SOL    HW126585   5.198   2.367   6.453
 8562SOL    HW226586   5.350   2.417   6.487
 8563SOL     OW26587   1.855   5.206   2.801
 8563SOL    HW126588   1.901   5.200   2.713
 8563SOL    HW226589   1.832   5.114   2.833
 8564SOL     OW26590   3.469   6.309   6.926
 8564SOL    HW126591   3.512   6.344   6.842
 8564SOL    HW226592   3.435   6.217   6.911
 8565SOL     OW26593   0.929   5.132   1.135
 8565SOL    HW126594   0.834   5.161   1.124
 8565SOL    HW226595   0.977   5.146   1.048
 8566SOL     OW26596   3.742   0.648   3.317
 8566SOL    HW126597   3.749   0.721   3.249
 8566SOL    HW226598   3.807   0.664   3.391
 8567SOL     OW26599   1.796   2.203   1.339
 8567SOL    HW126600   1.741   2.268   1.287
 8567SOL    HW226601   1.737   2.130   1.373
 8568SOL     OW26602   6.278   0.365   5.640
 8568SOL    HW126603   6.258   0.453   5.595
 8568SOL    HW226604   6.345   0.380   5.713
 8569SOL     OW26605   5.521   1.791   6.888
 8569SOL    HW126606   5.516   1.875   6.942
 8569SOL    HW226607   5.480   1.806   6.799
 8570SOL     OW26608   1.624   1.639   3.533
 8570SOL    HW126609   1.669   1.718   3.576
 8570SOL    HW226610   1.589   1.665   3.443
 8571SOL     OW26611   1.511   0.462   3.383
 8571SOL    HW126612   1.556   0.539   3.338
 8571SOL    HW226613   1.436   0.429   3.326
 8572SOL     OW26614   3.132   4.053   5.813
 8572SOL    HW126615   3.051   4.050   5.871
 8572SOL    HW226616   3.122   4.126   5.745
 8573SOL     OW26617   1.890   6.137   6.300
 8573SOL    HW126618   1.843   6.098   6.220
 8573SOL    HW226619   1.833   6.126   6.381
 8574SOL     OW26620   5.523   1.266   5.420
 8574SOL    HW126621   5.619   1.239   5.407
 8574SOL    HW226622   5.466   1.185   5.423
 8575SOL     OW26623   3.164   5.847   4.524
 8575SOL    HW126624   3.103   5.778   4.486
 8575SOL    HW226625   3.249   5.804   4.555
 8576SOL     OW26626   1.246   3.956   4.807
 8576SOL    HW126627   1.217   3.918   4.895
 8576SOL    HW226628   1.327   3.907   4.775
 8577SOL     OW26629   2.223   0.721   0.541
 8577SOL    HW126630   2.126   0.744   0.545
 8577SOL    HW226631   2.267   0.778   0.471
 8578SOL     OW26632   1.061   6.995   5.805
 8578SOL    HW126633   0.962   7.003   5.814
 8578SOL    HW226634   1.103   0.063   5.810
 8579SOL     OW26635   3.574   0.022   1.837
 8579SOL    HW126636   3.574   0.099   1.773
 8579SOL    HW226637   3.666   0.010   1.874
 8580SOL     OW26638   2.438   0.555   1.986
 8580SOL    HW126639   2.503   0.631   1.984
 8580SOL    HW226640   2.487   0.468   1.984
 8581SOL     OW26641   4.024   3.949   2.248
 8581SOL    HW126642   4.062   4.034   2.285
 8581SOL    HW226643   3.980   3.968   2.160
 8582SOL     OW26644   4.523   5.531   5.788
 8582SOL    HW126645   4.518   5.450   5.847
 8582SOL    HW226646   4.455   5.598   5.817
 8583SOL     OW26647   3.556   6.834   2.768
 8583SOL    HW126648   3.603   6.917   2.796
 8583SOL    HW226649   3.620   6.775   2.718
 8584SOL     OW26650   6.359   1.582   5.141
 8584SOL    HW126651   6.295   1.656   5.163
 8584SOL    HW226652   6.348   1.556   5.045
 8585SOL     OW26653   4.957   2.176   1.971
 8585SOL    HW126654   5.052   2.199   1.948
 8585SOL    HW226655   4.926   2.234   2.045
 8586SOL     OW26656   6.300   5.662   5.390
 8586SOL    HW126657   6.346   5.651   5.302
 8586SOL    HW226658   6.367   5.680   5.461
 8587SOL     OW26659   6.988   1.341   0.146
 8587SOL    HW126660   6.996   1.253   0.099
 8587SOL    HW226661   6.955   1.326   0.238
 8588SOL     OW26662   1.718   0.928   5.387
 8588SOL    HW126663   1.768   1.015   5.386
 8588SOL    HW226664   1.696   0.901   5.293
 8589SOL     OW26665   5.422   2.963   6.534
 8589SOL    HW126666   5.409   2.866   6.551
 8589SOL    HW226667   5.395   3.015   6.615
 8590SOL     OW26668   1.376   1.079   3.578
 8590SOL    HW126669   1.418   1.080   3.669
 8590SOL    HW226670   1.436   1.126   3.513
 8591SOL     OW26671   0.651   3.801   5.129
 8591SOL    HW126672   0.556   3.821   5.154
 8591SOL    HW226673   0.701   3.887   5.120
 8592SOL     OW26674   0.039   1.887   4.309
 8592SOL    HW126675   0.071   1.978   4.335
 8592SOL    HW226676   0.071   1.865   4.218
 8593SOL     OW26677   6.331   1.585   0.282
 8593SOL    HW126678   6.429   1.564   0.282
 8593SOL    HW226679   6.283   1.521   0.343
 8594SOL     OW26680   5.776   4.348   6.288
 8594SOL    HW126681   5.839   4.278   6.255
 8594SOL    HW226682   5.824   4.436   6.293
 8595SOL     OW26683   5.327   6.212   3.044
 8595SOL    HW126684   5.418   6.246   3.069
 8595SOL    HW226685   5.335   6.148   2.968
 8596SOL     OW26686   1.349   2.496   5.607
 8596SOL    HW126687   1.339   2.594   5.625
 8596SOL    HW226688   1.259   2.455   5.591
 8597SOL     OW26689   5.908   2.355   6.087
 8597SOL    HW126690   5.823   2.397   6.054
 8597SOL    HW226691   5.895   2.325   6.182
 8598SOL     OW26692   6.962   0.825   5.817
 8598SOL    HW126693   0.013   0.891   5.831
 8598SOL    HW226694   6.936   0.823   5.721
 8599SOL     OW26695   6.077   4.343   5.137
 8599SOL    HW126696   5.980   4.365   5.138
 8599SOL    HW226697   6.090   4.250   5.173
 8600SOL     OW26698   4.380   2.732   1.693
 8600SOL    HW126699   4.469   2.763   1.723
 8600SOL    HW226700   4.383   2.633   1.675
 8601SOL     OW26701   5.466   5.705   2.657
 8601SOL    HW126702   5.381   5.743   2.692
 8601SOL    HW226703   5.490   5.750   2.572
 8602SOL     OW26704   1.703   0.314   5.617
 8602SOL    HW126705   1.717   0.245   5.547
 8602SOL    HW226706   1.696   0.270   5.707
 8603SOL     OW26707   0.549   0.819   6.629
 8603SOL    HW126708   0.565   0.794   6.533
 8603SOL    HW226709   0.487   0.897   6.634
 8604SOL     OW26710   1.671   5.465   5.980
 8604SOL    HW126711   1.669   5.417   5.892
 8604SOL    HW226712   1.664   5.399   6.055
 8605SOL     OW26713   6.912   4.062   3.816
 8605SOL    HW126714   6.897   4.150   3.771
 8605SOL    HW226715   6.832   4.003   3.803
 8606SOL     OW26716   1.328   0.469   6.813
 8606SOL    HW126717   1.272   0.516   6.881
 8606SOL    HW226718   1.322   0.370   6.827
 8607SOL     OW26719   3.035   3.219   1.368
 8607SOL    HW126720   3.048   3.148   1.299
 8607SOL    HW226721   3.098   3.295   1.349
 8608SOL     OW26722   1.602   6.208   1.600
 8608SOL    HW126723   1.505   6.202   1.627
 8608SOL    HW226724   1.655   6.142   1.653
 8609SOL     OW26725   5.331   2.385   4.888
 8609SOL    HW126726   5.307   2.364   4.793
 8609SOL    HW226727   5.251   2.373   4.946
 8610SOL     OW26728   6.716   5.108   2.441
 8610SOL    HW126729   6.698   5.144   2.532
 8610SOL    HW226730   6.730   5.009   2.447
 8611SOL     OW26731   1.940   1.504   5.236
 8611SOL    HW126732   1.950   1.582   5.175
 8611SOL    HW226733   2.003   1.431   5.208
 8612SOL     OW26734   3.564   3.255   4.963
 8612SOL    HW126735   3.517   3.176   4.924
 8612SOL    HW226736   3.591   3.234   5.057
 8613SOL     OW26737   3.827   2.940   3.502
 8613SOL    HW126738   3.851   2.854   3.546
 8613SOL    HW226739   3.739   2.931   3.456
 8614SOL     OW26740   0.904   2.296   3.485
 8614SOL    HW126741   0.942   2.381   3.449
 8614SOL    HW226742   0.813   2.281   3.446
 8615SOL     OW26743   3.741   1.386   5.441
 8615SOL    HW126744   3.740   1.386   5.541
 8615SOL    HW226745   3.800   1.460   5.408
 8616SOL     OW26746   5.528   4.465   5.159
 8616SOL    HW126747   5.430   4.481   5.147
 8616SOL    HW226748   5.578   4.506   5.083
 8617SOL     OW26749   1.350   6.510   2.865
 8617SOL    HW126750   1.315   6.600   2.839
 8617SOL    HW226751   1.341   6.499   2.964
 8618SOL     OW26752   5.577   4.319   0.856
 8618SOL    HW126753   5.546   4.354   0.767
 8618SOL    HW226754   5.530   4.233   0.876
 8619SOL     OW26755   4.971   5.791   0.433
 8619SOL    HW126756   4.999   5.826   0.344
 8619SOL    HW226757   4.884   5.743   0.425
 8620SOL     OW26758   1.879   6.296   3.789
 8620SOL    HW126759   1.924   6.345   3.864
 8620SOL    HW226760   1.783   6.283   3.811
 8621SOL     OW26761   5.855   3.662   1.997
 8621SOL    HW126762   5.793   3.600   1.948
 8621SOL    HW226763   5.950   3.631   1.986
 8622SOL     OW26764   0.755   5.606   1.458
 8622SOL    HW126765   0.673   5.639   1.504
 8622SOL    HW226766   0.834   5.618   1.518
 8623SOL     OW26767   2.078   1.949   3.288
 8623SOL    HW126768   2.098   1.973   3.193
 8623SOL    HW226769   1.985   1.977   3.310
 8624SOL     OW26770   3.513   4.174   5.412
 8624SOL    HW126771   3.587   4.179   5.479
 8624SOL    HW226772   3.472   4.264   5.400
 8625SOL     OW26773   4.501   3.852   6.119
 8625SOL    HW126774   4.588   3.823   6.159
 8625SOL    HW226775   4.507   3.850   6.019
 8626SOL     OW26776   4.915   1.788   1.328
 8626SOL    HW126777   4.939   1.692   1.342
 8626SOL    HW226778   4.826   1.806   1.372
 8627SOL     OW26779   1.577   0.110   2.834
 8627SOL    HW126780   1.621   0.040   2.777
 8627SOL    HW226781   1.544   0.184   2.775
 8628SOL     OW26782   1.530   0.067   1.066
 8628SOL    HW126783   1.499   7.010   1.116
 8628SOL    HW226784   1.510   0.150   1.119
 8629SOL     OW26785   0.181   6.947   4.377
 8629SOL    HW126786   0.129   6.919   4.458
 8629SOL    HW226787   0.134   6.915   4.295
 8630SOL     OW26788   4.916   2.519   1.486
 8630SOL    HW126789   4.849   2.593   1.489
 8630SOL    HW226790   4.888   2.445   1.547
 8631SOL     OW26791   2.099   6.320   6.409
 8631SOL    HW126792   2.044   6.393   6.448
 8631SOL    HW226793   2.045   6.271   6.340
 8632SOL     OW26794   6.305   5.423   3.856
 8632SOL    HW126795   6.284   5.452   3.949
 8632SOL    HW226796   6.226   5.374   3.818
 8633SOL     OW26797   6.322   3.934   5.419
 8633SOL    HW126798   6.396   3.876   5.384
 8633SOL    HW226799   6.352   3.981   5.502
 8634SOL     OW26800   5.303   4.967   6.654
 8634SOL    HW126801   5.309   4.870   6.631
 8634SOL    HW226802   5.352   5.021   6.585
 8635SOL     OW26803   4.700   2.616   6.622
 8635SOL    HW126804   4.723   2.698   6.675
 8635SOL    HW226805   4.612   2.581   6.653
 8636SOL     OW26806   4.132   6.134   1.851
 8636SOL    HW126807   4.157   6.222   1.893
 8636SOL    HW226808   4.170   6.060   1.907
 8637SOL     OW26809   2.286   2.523   0.143
 8637SOL    HW126810   2.283   2.430   0.179
 8637SOL    HW226811   2.200   2.570   0.165
 8638SOL     OW26812   4.939   2.647   4.349
 8638SOL    HW126813   4.898   2.613   4.434
 8638SOL    HW226814   5.033   2.678   4.367
 8639SOL     OW26815   2.952   4.597   0.144
 8639SOL    HW126816   2.899   4.651   0.079
 8639SOL    HW226817   3.027   4.653   0.180
 8640SOL     OW26818   4.026   2.502   0.617
 8640SOL    HW126819   3.968   2.472   0.541
 8640SOL    HW226820   4.110   2.449   0.617
 8641SOL     OW26821   3.138   4.890   3.194
 8641SOL    HW126822   3.200   4.865   3.120
 8641SOL    HW226823   3.058   4.830   3.192
 8642SOL     OW26824   2.122   5.998   3.145
 8642SOL    HW126825   2.074   6.056   3.079
 8642SOL    HW226826   2.056   5.956   3.207
 8643SOL     OW26827   3.757   6.477   1.341
 8643SOL    HW126828   3.714   6.568   1.335
 8643SOL    HW226829   3.767   6.439   1.249
 8644SOL     OW26830   5.863   3.046   5.973
 8644SOL    HW126831   5.772   3.006   5.977
 8644SOL    HW226832   5.911   3.029   6.059
 8645SOL     OW26833   4.951   4.983   2.645
 8645SOL    HW126834   5.032   4.942   2.686
 8645SOL    HW226835   4.883   5.001   2.716
 8646SOL     OW26836   6.965   2.660   5.099
 8646SOL    HW126837   6.925   2.579   5.141
 8646SOL    HW226838   0.040   2.660   5.114
 8647SOL     OW26839   2.054   5.082   1.661
 8647SOL    HW126840   1.954   5.084   1.669
 8647SOL    HW226841   2.092   5.164   1.704
 8648SOL     OW26842   5.099   5.445   0.365
 8648SOL    HW126843   5.121   5.351   0.388
 8648SOL    HW226844   5.127   5.464   0.271
 8649SOL     OW26845   5.581   1.731   1.258
 8649SOL    HW126846   5.558   1.678   1.339
 8649SOL    HW226847   5.621   1.818   1.285
 8650SOL     OW26848   2.277   0.730   5.780
 8650SOL    HW126849   2.196   0.672   5.768
 8650SOL    HW226850   2.353   0.675   5.814
 8651SOL     OW26851   4.015   1.869   1.941
 8651SOL    HW126852   3.976   1.959   1.961
 8651SOL    HW226853   3.988   1.841   1.849
 8652SOL     OW26854   0.187   2.279   3.810
 8652SOL    HW126855   0.273   2.330   3.811
 8652SOL    HW226856   0.167   2.244   3.901
 8653SOL     OW26857   5.938   0.980   6.936
 8653SOL    HW126858   5.937   0.905   6.871
 8653SOL    HW226859   5.845   0.995   6.972
 8654SOL     OW26860   0.184   4.869   2.894
 8654SOL    HW126861   0.195   4.917   2.981
 8654SOL    HW226862   0.224   4.924   2.821
 8655SOL     OW26863   0.788   0.086   5.145
 8655SOL    HW126864   0.863   0.020   5.150
 8655SOL    HW226865   0.821   0.169   5.100
 8656SOL     OW26866   4.276   6.247   0.793
 8656SOL    HW126867   4.361   6.195   0.807
 8656SOL    HW226868   4.254   6.297   0.876
 8657SOL     OW26869   2.899   1.586   2.857
 8657SOL    HW126870   2.814   1.638   2.842
 8657SOL    HW226871   2.977   1.647   2.845
 8658SOL     OW26872   6.845   3.643   1.273
 8658SOL    HW126873   6.771   3.631   1.339
 8658SOL    HW226874   6.846   3.737   1.240
 8659SOL     OW26875   3.942   0.727   3.158
 8659SOL    HW126876   3.888   0.644   3.170
 8659SOL    HW226877   3.996   0.720   3.074
 8660SOL     OW26878   0.055   3.802   1.722
 8660SOL    HW126879   0.152   3.825   1.725
 8660SOL    HW226880   0.032   3.769   1.630
 8661SOL     OW26881   6.243   3.522   2.248
 8661SOL    HW126882   6.269   3.427   2.269
 8661SOL    HW226883   6.252   3.577   2.331
 8662SOL     OW26884   1.384   2.146   2.489
 8662SOL    HW126885   1.293   2.187   2.500
 8662SOL    HW226886   1.450   2.196   2.545
 8663SOL     OW26887   3.805   4.831   2.660
 8663SOL    HW126888   3.807   4.774   2.742
 8663SOL    HW226889   3.711   4.853   2.637
 8664SOL     OW26890   3.133   6.547   4.135
 8664SOL    HW126891   3.041   6.511   4.118
 8664SOL    HW226892   3.193   6.472   4.162
 8665SOL     OW26893   6.021   4.144   6.709
 8665SOL    HW126894   5.925   4.119   6.699
 8665SOL    HW226895   6.039   4.229   6.660
 8666SOL     OW26896   5.076   0.711   3.083
 8666SOL    HW126897   5.100   0.653   3.006
 8666SOL    HW226898   5.048   0.654   3.161
 8667SOL     OW26899   5.493   2.406   2.134
 8667SOL    HW126900   5.497   2.310   2.106
 8667SOL    HW226901   5.575   2.454   2.101
 8668SOL     OW26902   4.318   2.078   4.478
 8668SOL    HW126903   4.308   2.016   4.556
 8668SOL    HW226904   4.302   2.172   4.508
 8669SOL     OW26905   6.758   5.991   6.201
 8669SOL    HW126906   6.705   5.996   6.116
 8669SOL    HW226907   6.720   6.056   6.267
 8670SOL     OW26908   0.331   5.245   5.423
 8670SOL    HW126909   0.300   5.267   5.331
 8670SOL    HW226910   0.414   5.190   5.418
 8671SOL     OW26911   6.982   2.902   3.233
 8671SOL    HW126912   0.048   2.914   3.277
 8671SOL    HW226913   6.921   2.976   3.262
 8672SOL     OW26914   6.843   1.211   2.349
 8672SOL    HW126915   6.904   1.192   2.426
 8672SOL    HW226916   6.777   1.281   2.376
 8673SOL     OW26917   1.177   1.083   1.378
 8673SOL    HW126918   1.116   1.148   1.334
 8673SOL    HW226919   1.193   1.006   1.316
 8674SOL     OW26920   0.079   3.683   3.611
 8674SOL    HW126921   0.067   3.780   3.589
 8674SOL    HW226922   0.146   3.643   3.548
 8675SOL     OW26923   4.781   2.771   4.966
 8675SOL    HW126924   4.811   2.676   4.968
 8675SOL    HW226925   4.707   2.784   5.031
 8676SOL     OW26926   4.631   2.028   0.783
 8676SOL    HW126927   4.535   2.054   0.770
 8676SOL    HW226928   4.636   1.932   0.813
 8677SOL     OW26929   2.867   0.428   0.007
 8677SOL    HW126930   2.924   0.490   0.061
 8677SOL    HW226931   2.925   0.380   6.964
 8678SOL     OW26932   2.981   2.225   0.210
 8678SOL    HW126933   2.952   2.237   0.305
 8678SOL    HW226934   2.922   2.279   0.150
 8679SOL     OW26935   1.768   1.855   6.516
 8679SOL    HW126936   1.725   1.842   6.427
 8679SOL    HW226937   1.697   1.868   6.586
 8680SOL     OW26938   6.837   0.455   1.088
 8680SOL    HW126939   6.879   0.545   1.084
 8680SOL    HW226940   6.899   0.391   1.134
 8681SOL     OW26941   5.558   5.103   1.170
 8681SOL    HW126942   5.529   5.014   1.205
 8681SOL    HW226943   5.613   5.089   1.088
 8682SOL     OW26944   2.701   0.856   2.646
 8682SOL    HW126945   2.619   0.820   2.603
 8682SOL    HW226946   2.743   0.925   2.587
 8683SOL     OW26947   2.395   4.549   4.026
 8683SOL    HW126948   2.351   4.588   4.107
 8683SOL    HW226949   2.488   4.586   4.017
 8684SOL     OW26950   2.089   3.914   3.562
 8684SOL    HW126951   2.110   3.874   3.652
 8684SOL    HW226952   2.087   4.013   3.569
 8685SOL     OW26953   5.076   3.613   5.063
 8685SOL    HW126954   4.982   3.597   5.034
 8685SOL    HW226955   5.103   3.543   5.129
 8686SOL     OW26956   1.221   5.014   2.874
 8686SOL    HW126957   1.312   4.997   2.911
 8686SOL    HW226958   1.226   5.085   2.804
 8687SOL     OW26959   5.296   4.477   5.634
 8687SOL    HW126960   5.284   4.438   5.725
 8687SOL    HW226961   5.383   4.448   5.595
 8688SOL     OW26962   0.861   4.343   4.420
 8688SOL    HW126963   0.956   4.363   4.394
 8688SOL    HW226964   0.857   4.256   4.468
 8689SOL     OW26965   4.641   3.214   1.178
 8689SOL    HW126966   4.736   3.240   1.163
 8689SOL    HW226967   4.586   3.296   1.192
 8690SOL     OW26968   1.187   1.684   2.213
 8690SOL    HW126969   1.239   1.599   2.215
 8690SOL    HW226970   1.095   1.666   2.177
 8691SOL     OW26971   3.601   2.217   6.893
 8691SOL    HW126972   3.548   2.258   6.967
 8691SOL    HW226973   3.579   2.263   6.807
 8692SOL     OW26974   5.228   2.677   4.650
 8692SOL    HW126975   5.170   2.703   4.572
 8692SOL    HW226976   5.285   2.755   4.676
 8693SOL     OW26977   0.314   0.191   5.304
 8693SOL    HW126978   0.299   0.272   5.362
 8693SOL    HW226979   0.253   0.118   5.333
 8694SOL     OW26980   4.549   3.825   5.823
 8694SOL    HW126981   4.580   3.746   5.769
 8694SOL    HW226982   4.453   3.843   5.802
 8695SOL     OW26983   3.466   4.874   1.002
 8695SOL    HW126984   3.390   4.850   0.941
 8695SOL    HW226985   3.509   4.791   1.037
 8696SOL     OW26986   2.805   6.032   6.319
 8696SOL    HW126987   2.757   6.118   6.337
 8696SOL    HW226988   2.781   5.965   6.389
 8697SOL     OW26989   1.231   3.607   4.892
 8697SOL    HW126990   1.289   3.597   4.812
 8697SOL    HW226991   1.287   3.613   4.974
 8698SOL     OW26992   4.832   4.384   0.165
 8698SOL    HW126993   4.738   4.353   0.159
 8698SOL    HW226994   4.841   4.449   0.240
 8699SOL     OW26995   2.390   2.224   1.110
 8699SOL    HW126996   2.366   2.194   1.018
 8699SOL    HW226997   2.350   2.314   1.127
 8700SOL     OW26998   0.409   1.495   4.842
 8700SOL    HW126999   0.312   1.472   4.827
 8700SOL    HW227000   0.433   1.575   4.786
 8701SOL     OW27001   1.998   3.627   6.364
 8701SOL    HW127002   1.956   3.628   6.455
 8701SOL    HW227003   1.926   3.627   6.294
 8702SOL     OW27004   6.097   4.216   1.573
 8702SOL    HW127005   6.131   4.133   1.528
 8702SOL    HW227006   6.135   4.296   1.528
 8703SOL     OW27007   1.989   5.701   2.151
 8703SOL    HW127008   2.065   5.766   2.147
 8703SOL    HW227009   2.002   5.638   2.227
 8704SOL     OW27010   6.896   1.568   3.703
 8704SOL    HW127011   6.872   1.665   3.705
 8704SOL    HW227012   6.940   1.542   3.789
 8705SOL     OW27013   3.645   2.364   0.708
 8705SOL    HW127014   3.660   2.373   0.806
 8705SOL    HW227015   3.551   2.332   0.692
 8706SOL     OW27016   4.721   2.822   6.100
 8706SOL    HW127017   4.811   2.804   6.141
 8706SOL    HW227018   4.699   2.919   6.111
 8707SOL     OW27019   1.230   0.632   3.865
 8707SOL    HW127020   1.262   0.545   3.829
 8707SOL    HW227021   1.178   0.681   3.795
 8708SOL     OW27022   5.716   2.556   0.590
 8708SOL    HW127023   5.634   2.534   0.537
 8708SOL    HW227024   5.689   2.595   0.678
 8709SOL     OW27025   0.059   5.947   3.727
 8709SOL    HW127026   0.027   6.036   3.761
 8709SOL    HW227027   0.060   5.948   3.628
 8710SOL     OW27028   2.264   2.357   3.927
 8710SOL    HW127029   2.338   2.415   3.893
 8710SOL    HW227030   2.202   2.412   3.983
 8711SOL     OW27031   1.946   1.345   2.038
 8711SOL    HW127032   1.991   1.411   1.977
 8711SOL    HW227033   1.945   1.381   2.131
 8712SOL     OW27034   1.507   4.108   4.236
 8712SOL    HW127035   1.480   4.178   4.302
 8712SOL    HW227036   1.425   4.064   4.199
 8713SOL     OW27037   0.369   3.739   2.472
 8713SOL    HW127038   0.433   3.795   2.525
 8713SOL    HW227039   0.405   3.646   2.465
 8714SOL     OW27040   6.370   4.552   6.286
 8714SOL    HW127041   6.400   4.460   6.263
 8714SOL    HW227042   6.373   4.610   6.204
 8715SOL     OW27043   2.678   5.197   0.762
 8715SOL    HW127044   2.669   5.168   0.857
 8715SOL    HW227045   2.775   5.205   0.739
 8716SOL     OW27046   6.034   0.213   2.271
 8716SOL    HW127047   6.076   0.303   2.259
 8716SOL    HW227048   6.056   0.177   2.361
 8717SOL     OW27049   3.222   2.140   0.824
 8717SOL    HW127050   3.254   2.145   0.919
 8717SOL    HW227051   3.226   2.046   0.792
 8718SOL     OW27052   2.788   5.497   6.210
 8718SOL    HW127053   2.777   5.405   6.173
 8718SOL    HW227054   2.811   5.491   6.307
 8719SOL     OW27055   2.890   1.268   5.111
 8719SOL    HW127056   2.952   1.330   5.159
 8719SOL    HW227057   2.801   1.313   5.099
 8720SOL     OW27058   0.562   6.115   4.816
 8720SOL    HW127059   0.595   6.154   4.902
 8720SOL    HW227060   0.582   6.178   4.741
 8721SOL     OW27061   1.435   0.512   0.786
 8721SOL    HW127062   1.385   0.460   0.856
 8721SOL    HW227063   1.508   0.455   0.748
 8722SOL     OW27064   3.722   1.304   0.353
 8722SOL    HW127065   3.767   1.262   0.274
 8722SOL    HW227066   3.708   1.235   0.424
 8723SOL     OW27067   3.751   6.552   2.776
 8723SOL    HW127068   3.801   6.498   2.844
 8723SOL    HW227069   3.800   6.638   2.759
 8724SOL     OW27070   3.298   1.090   5.317
 8724SOL    HW127071   3.382   1.065   5.364
 8724SOL    HW227072   3.320   1.126   5.226
 8725SOL     OW27073   0.429   0.791   2.503
 8725SOL    HW127074   0.331   0.786   2.483
 8725SOL    HW227075   0.456   0.710   2.555
 8726SOL     OW27076   6.830   1.509   0.467
 8726SOL    HW127077   6.862   1.420   0.435
 8726SOL    HW227078   6.895   1.580   0.440
 8727SOL     OW27079   5.121   5.270   6.582
 8727SOL    HW127080   5.173   5.270   6.496
 8727SOL    HW227081   5.149   5.349   6.637
 8728SOL     OW27082   6.220   5.957   4.516
 8728SOL    HW127083   6.171   6.004   4.444
 8728SOL    HW227084   6.165   5.881   4.550
 8729SOL     OW27085   5.537   6.026   5.928
 8729SOL    HW127086   5.588   6.108   5.904
 8729SOL    HW227087   5.527   6.021   6.028
 8730SOL     OW27088   3.990   4.610   1.696
 8730SOL    HW127089   3.971   4.532   1.636
 8730SOL    HW227090   4.080   4.599   1.738
 8731SOL     OW27091   0.070   2.040   3.691
 8731SOL    HW127092   0.046   2.068   3.598
 8731SOL    HW227093   0.112   2.116   3.740
 8732SOL     OW27094   5.255   6.494   5.305
 8732SOL    HW127095   5.286   6.589   5.315
 8732SOL    HW227096   5.176   6.491   5.244
 8733SOL     OW27097   6.866   4.517   2.153
 8733SOL    HW127098   6.959   4.555   2.159
 8733SOL    HW227099   6.800   4.590   2.166
 8734SOL     OW27100   1.084   5.278   0.718
 8734SOL    HW127101   0.993   5.259   0.680
 8734SOL    HW227102   1.095   5.230   0.805
 8735SOL     OW27103   1.364   2.884   5.938
 8735SOL    HW127104   1.381   2.856   6.032
 8735SOL    HW227105   1.275   2.928   5.932
 8736SOL     OW27106   1.868   5.918   3.231
 8736SOL    HW127107   1.855   5.986   3.304
 8736SOL    HW227108   1.791   5.922   3.168
 8737SOL     OW27109   6.899   5.726   6.548
 8737SOL    HW127110   6.924   5.646   6.601
 8737SOL    HW227111   6.800   5.727   6.534
 8738SOL     OW27112   2.093   2.657   2.155
 8738SOL    HW127113   2.051   2.571   2.125
 8738SOL    HW227114   2.192   2.652   2.142
 8739SOL     OW27115   5.172   4.246   2.663
 8739SOL    HW127116   5.270   4.257   2.646
 8739SOL    HW227117   5.156   4.243   2.762
 8740SOL     OW27118   2.876   1.334   3.353
 8740SOL    HW127119   2.925   1.379   3.277
 8740SOL    HW227120   2.780   1.321   3.328
 8741SOL     OW27121   1.148   1.653   2.501
 8741SOL    HW127122   1.154   1.675   2.404
 8741SOL    HW227123   1.236   1.672   2.546
 8742SOL     OW27124   2.094   2.751   1.762
 8742SOL    HW127125   2.084   2.763   1.663
 8742SOL    HW227126   2.090   2.654   1.784
 8743SOL     OW27127   1.055   3.709   6.793
 8743SOL    HW127128   1.063   3.670   6.885
 8743SOL    HW227129   1.061   3.635   6.725
 8744SOL     OW27130   3.285   3.955   6.225
 8744SOL    HW127131   3.317   4.050   6.227
 8744SOL    HW227132   3.289   3.920   6.131
 8745SOL     OW27133   5.577   1.748   6.187
 8745SOL    HW127134   5.555   1.846   6.196
 8745SOL    HW227135   5.515   1.695   6.245
 8746SOL     OW27136   4.172   4.782   4.675
 8746SOL    HW127137   4.138   4.871   4.647
 8746SOL    HW227138   4.178   4.721   4.595
 8747SOL     OW27139   0.696   6.945   1.904
 8747SOL    HW127140   0.725   7.003   1.981
 8747SOL    HW227141   0.776   6.900   1.865
 8748SOL     OW27142   5.826   1.837   4.105
 8748SOL    HW127143   5.821   1.802   4.012
 8748SOL    HW227144   5.873   1.925   4.106
 8749SOL     OW27145   2.556   1.708   4.228
 8749SOL    HW127146   2.656   1.710   4.223
 8749SOL    HW227147   2.526   1.614   4.246
 8750SOL     OW27148   4.548   3.464   1.194
 8750SOL    HW127149   4.497   3.505   1.269
 8750SOL    HW227150   4.544   3.523   1.114
 8751SOL     OW27151   2.169   0.415   0.356
 8751SOL    HW127152   2.264   0.391   0.335
 8751SOL    HW227153   2.110   0.339   0.330
 8752SOL     OW27154   6.995   3.487   6.126
 8752SOL    HW127155   6.982   3.500   6.224
 8752SOL    HW227156   0.065   3.456   6.108
 8753SOL     OW27157   2.116   1.973   1.218
 8753SOL    HW127158   2.215   1.991   1.224
 8753SOL    HW227159   2.095   1.929   1.131
 8754SOL     OW27160   1.210   6.059   6.276
 8754SOL    HW127161   1.133   6.070   6.339
 8754SOL    HW227162   1.180   6.077   6.183
 8755SOL     OW27163   0.421   2.656   1.838
 8755SOL    HW127164   0.347   2.695   1.783
 8755SOL    HW227165   0.486   2.608   1.779
 8756SOL     OW27166   1.825   1.748   2.219
 8756SOL    HW127167   1.773   1.733   2.134
 8756SOL    HW227168   1.801   1.837   2.258
 8757SOL     OW27169   5.959   6.026   4.856
 8757SOL    HW127170   5.940   6.123   4.867
 8757SOL    HW227171   5.899   5.973   4.916
 8758SOL     OW27172   3.635   5.653   5.995
 8758SOL    HW127173   3.546   5.663   5.952
 8758SOL    HW227174   3.680   5.742   5.999
 8759SOL     OW27175   6.247   1.263   1.550
 8759SOL    HW127176   6.288   1.206   1.479
 8759SOL    HW227177   6.285   1.355   1.545
 8760SOL     OW27178   2.163   2.564   4.621
 8760SOL    HW127179   2.231   2.496   4.650
 8760SOL    HW227180   2.108   2.591   4.701
 8761SOL     OW27181   4.664   2.746   3.226
 8761SOL    HW127182   4.745   2.692   3.207
 8761SOL    HW227183   4.618   2.709   3.308
 8762SOL     OW27184   4.522   6.388   3.066
 8762SOL    HW127185   4.456   6.426   3.001
 8762SOL    HW227186   4.555   6.461   3.126
 8763SOL     OW27187   6.833   1.439   5.302
 8763SOL    HW127188   6.854   1.519   5.246
 8763SOL    HW227189   6.818   1.468   5.396
 8764SOL     OW27190   3.419   4.918   6.034
 8764SOL    HW127191   3.434   5.013   6.007
 8764SOL    HW227192   3.429   4.859   5.954
 8765SOL     OW27193   4.791   6.891   4.170
 8765SOL    HW127194   4.815   6.962   4.103
 8765SOL    HW227195   4.718   6.834   4.133
 8766SOL     OW27196   5.823   0.030   4.989
 8766SOL    HW127197   5.880   0.033   5.070
 8766SOL    HW227198   5.813   6.958   4.959
 8767SOL     OW27199   1.707   1.037   5.109
 8767SOL    HW127200   1.738   1.079   5.024
 8767SOL    HW227201   1.615   1.001   5.097
 8768SOL     OW27202   6.630   1.891   0.937
 8768SOL    HW127203   6.625   1.801   0.980
 8768SOL    HW227204   6.624   1.880   0.837
 8769SOL     OW27205   6.352   6.971   6.329
 8769SOL    HW127206   6.414   6.958   6.252
 8769SOL    HW227207   6.258   6.978   6.294
 8770SOL     OW27208   4.573   1.668   0.104
 8770SOL    HW127209   4.572   1.765   0.080
 8770SOL    HW227210   4.544   1.657   0.199
 8771SOL     OW27211   0.509   2.261   6.313
 8771SOL    HW127212   0.463   2.277   6.226
 8771SOL    HW227213   0.530   2.163   6.322
 8772SOL     OW27214   1.013   6.696   3.566
 8772SOL    HW127215   0.945   6.765   3.540
 8772SOL    HW227216   1.102   6.741   3.580
 8773SOL     OW27217   0.274   1.497   3.686
 8773SOL    HW127218   0.369   1.519   3.705
 8773SOL    HW227219   0.233   1.455   3.767
 8774SOL     OW27220   1.375   1.964   6.692
 8774SOL    HW127221   1.368   1.948   6.594
 8774SOL    HW227222   1.464   2.003   6.715
 8775SOL     OW27223   5.249   2.226   2.699
 8775SOL    HW127224   5.329   2.207   2.642
 8775SOL    HW227225   5.187   2.148   2.697
 8776SOL     OW27226   5.043   2.929   1.443
 8776SOL    HW127227   5.075   2.904   1.535
 8776SOL    HW227228   5.100   2.883   1.375
 8777SOL     OW27229   6.684   2.108   3.721
 8777SOL    HW127230   6.740   2.176   3.768
 8777SOL    HW227231   6.597   2.150   3.693
 8778SOL     OW27232   2.317   4.027   0.312
 8778SOL    HW127233   2.328   4.034   0.213
 8778SOL    HW227234   2.248   3.957   0.333
 8779SOL     OW27235   4.112   5.914   3.553
 8779SOL    HW127236   4.086   6.007   3.527
 8779SOL    HW227237   4.083   5.850   3.482
 8780SOL     OW27238   0.989   4.134   4.155
 8780SOL    HW127239   1.035   4.190   4.086
 8780SOL    HW227240   1.053   4.066   4.191
 8781SOL     OW27241   3.432   1.846   1.815
 8781SOL    HW127242   3.514   1.896   1.843
 8781SOL    HW227243   3.388   1.893   1.738
 8782SOL     OW27244   6.752   2.521   0.523
 8782SOL    HW127245   6.740   2.431   0.565
 8782SOL    HW227246   6.711   2.521   0.432
 8783SOL     OW27247   4.169   3.946   5.251
 8783SOL    HW127248   4.080   3.942   5.298
 8783SOL    HW227249   4.155   3.966   5.154
 8784SOL     OW27250   4.303   0.820   6.702
 8784SOL    HW127251   4.297   0.780   6.610
 8784SOL    HW227252   4.221   0.795   6.754
 8785SOL     OW27253   6.752   5.708   5.927
 8785SOL    HW127254   6.826   5.643   5.941
 8785SOL    HW227255   6.665   5.660   5.926
 8786SOL     OW27256   5.640   2.253   3.271
 8786SOL    HW127257   5.626   2.169   3.324
 8786SOL    HW227258   5.552   2.285   3.237
 8787SOL     OW27259   3.593   5.268   2.180
 8787SOL    HW127260   3.561   5.311   2.096
 8787SOL    HW227261   3.690   5.289   2.193
 8788SOL     OW27262   0.308   5.880   4.028
 8788SOL    HW127263   0.240   5.824   3.981
 8788SOL    HW227264   0.372   5.918   3.961
 8789SOL     OW27265   1.413   2.917   6.542
 8789SOL    HW127266   1.358   2.955   6.467
 8789SOL    HW227267   1.509   2.911   6.514
 8790SOL     OW27268   5.044   2.793   5.024
 8790SOL    HW127269   4.953   2.801   4.984
 8790SOL    HW227270   5.100   2.733   4.968
 8791SOL     OW27271   3.954   6.334   5.206
 8791SOL    HW127272   4.025   6.350   5.274
 8791SOL    HW227273   3.958   6.404   5.135
 8792SOL     OW27274   5.757   5.064   1.004
 8792SOL    HW127275   5.831   5.013   1.046
 8792SOL    HW227276   5.794   5.142   0.954
 8793SOL     OW27277   6.222   6.709   5.334
 8793SOL    HW127278   6.130   6.742   5.316
 8793SOL    HW227279   6.262   6.759   5.410
 8794SOL     OW27280   0.475   1.900   2.947
 8794SOL    HW127281   0.411   1.825   2.957
 8794SOL    HW227282   0.475   1.956   3.030
 8795SOL     OW27283   1.422   6.888   6.612
 8795SOL    HW127284   1.474   6.888   6.698
 8795SOL    HW227285   1.340   6.831   6.623
 8796SOL     OW27286   5.580   4.322   4.450
 8796SOL    HW127287   5.507   4.375   4.493
 8796SOL    HW227288   5.665   4.337   4.500
 8797SOL     OW27289   4.990   6.179   4.354
 8797SOL    HW127290   4.990   6.184   4.454
 8797SOL    HW227291   4.938   6.099   4.324
 8798SOL     OW27292   1.753   5.949   6.110
 8798SOL    HW127293   1.655   5.961   6.098
 8798SOL    HW227294   1.781   5.861   6.073
 8799SOL     OW27295   1.327   5.982   1.493
 8799SOL    HW127296   1.354   6.018   1.404
 8799SOL    HW227297   1.322   6.057   1.559
 8800SOL     OW27298   6.402   5.794   3.895
 8800SOL    HW127299   6.340   5.752   3.962
 8800SOL    HW227300   6.384   5.755   3.805
 8801SOL     OW27301   4.727   3.553   5.545
 8801SOL    HW127302   4.633   3.586   5.543
 8801SOL    HW227303   4.729   3.460   5.581
 8802SOL     OW27304   1.084   6.378   0.147
 8802SOL    HW127305   1.141   6.341   0.221
 8802SOL    HW227306   1.133   6.453   0.102
 8803SOL     OW27307   5.435   5.283   5.189
 8803SOL    HW127308   5.423   5.204   5.248
 8803SOL    HW227309   5.526   5.281   5.149
 8804SOL     OW27310   2.156   6.557   2.097
 8804SOL    HW127311   2.074   6.540   2.043
 8804SOL    HW227312   2.230   6.497   2.066
 8805SOL     OW27313   5.155   4.918   2.203
 8805SOL    HW127314   5.077   4.930   2.263
 8805SOL    HW227315   5.150   4.983   2.128
 8806SOL     OW27316   1.186   0.786   2.156
 8806SOL    HW127317   1.123   0.860   2.181
 8806SOL    HW227318   1.196   0.723   2.233
 8807SOL     OW27319   5.925   2.209   1.541
 8807SOL    HW127320   5.869   2.139   1.587
 8807SOL    HW227321   5.975   2.166   1.466
 8808SOL     OW27322   1.526   1.552   0.020
 8808SOL    HW127323   1.514   1.459   0.056
 8808SOL    HW227324   1.527   1.617   0.095
 8809SOL     OW27325   1.016   3.651   3.182
 8809SOL    HW127326   1.054   3.597   3.256
 8809SOL    HW227327   1.061   3.626   3.096
 8810SOL     OW27328   6.726   2.224   4.619
 8810SOL    HW127329   6.794   2.284   4.662
 8810SOL    HW227330   6.771   2.161   4.557
 8811SOL     OW27331   4.306   4.947   2.107
 8811SOL    HW127332   4.230   5.012   2.104
 8811SOL    HW227333   4.273   4.857   2.133
 8812SOL     OW27334   5.633   0.478   0.409
 8812SOL    HW127335   5.567   0.502   0.338
 8812SOL    HW227336   5.669   0.386   0.392
 8813SOL     OW27337   1.477   3.112   2.062
 8813SOL    HW127338   1.402   3.107   2.128
 8813SOL    HW227339   1.452   3.172   1.987
 8814SOL     OW27340   5.469   0.049   4.881
 8814SOL    HW127341   5.537   0.120   4.900
 8814SOL    HW227342   5.507   7.006   4.816
 8815SOL     OW27343   5.095   0.962   1.079
 8815SOL    HW127344   5.184   0.972   1.124
 8815SOL    HW227345   5.041   0.894   1.128
 8816SOL     OW27346   6.928   0.277   3.577
 8816SOL    HW127347   6.831   0.301   3.569
 8816SOL    HW227348   6.979   0.324   3.505
 8817SOL     OW27349   1.216   2.770   3.385
 8817SOL    HW127350   1.314   2.759   3.400
 8817SOL    HW227351   1.192   2.866   3.393
 8818SOL     OW27352   1.135   6.428   6.358
 8818SOL    HW127353   1.070   6.415   6.433
 8818SOL    HW227354   1.119   6.359   6.287
 8819SOL     OW27355   4.969   5.985   6.170
 8819SOL    HW127356   5.045   5.965   6.108
 8819SOL    HW227357   4.883   5.956   6.127
 8820SOL     OW27358   3.659   6.706   5.827
 8820SOL    HW127359   3.669   6.722   5.729
 8820SOL    HW227360   3.673   6.608   5.846
 8821SOL     OW27361   0.719   5.072   5.721
 8821SOL    HW127362   0.739   5.096   5.626
 8821SOL    HW227363   0.752   4.980   5.740
 8822SOL     OW27364   6.335   0.190   4.805
 8822SOL    HW127365   6.242   0.224   4.815
 8822SOL    HW227366   6.333   0.099   4.764
 8823SOL     OW27367   4.445   2.089   2.971
 8823SOL    HW127368   4.361   2.046   2.937
 8823SOL    HW227369   4.505   2.108   2.894
 8824SOL     OW27370   1.841   0.335   4.198
 8824SOL    HW127371   1.782   0.405   4.158
 8824SOL    HW227372   1.884   0.371   4.280
 8825SOL     OW27373   0.500   6.909   0.343
 8825SOL    HW127374   0.586   6.884   0.386
 8825SOL    HW227375   0.440   6.950   0.411
 8826SOL     OW27376   0.472   3.984   0.040
 8826SOL    HW127377   0.490   4.017   6.971
 8826SOL    HW227378   0.556   3.948   0.080
 8827SOL     OW27379   4.902   6.485   3.807
 8827SOL    HW127380   4.878   6.506   3.902
 8827SOL    HW227381   4.839   6.531   3.745
 8828SOL     OW27382   5.371   2.468   5.707
 8828SOL    HW127383   5.347   2.375   5.735
 8828SOL    HW227384   5.298   2.530   5.734
 8829SOL     OW27385   6.391   0.731   2.948
 8829SOL    HW127386   6.329   0.668   2.902
 8829SOL    HW227387   6.362   0.742   3.043
 8830SOL     OW27388   3.261   0.769   3.296
 8830SOL    HW127389   3.355   0.788   3.269
 8830SOL    HW227390   3.258   0.682   3.346
 8831SOL     OW27391   0.561   2.971   2.710
 8831SOL    HW127392   0.631   2.944   2.643
 8831SOL    HW227393   0.492   2.899   2.718
 8832SOL     OW27394   5.564   0.488   5.392
 8832SOL    HW127395   5.557   0.421   5.466
 8832SOL    HW227396   5.472   0.510   5.359
 8833SOL     OW27397   4.744   2.563   1.059
 8833SOL    HW127398   4.674   2.510   1.011
 8833SOL    HW227399   4.719   2.660   1.060
 8834SOL     OW27400   5.479   4.559   6.332
 8834SOL    HW127401   5.537   4.478   6.335
 8834SOL    HW227402   5.438   4.566   6.241
 8835SOL     OW27403   6.385   1.221   5.080
 8835SOL    HW127404   6.387   1.304   5.026
 8835SOL    HW227405   6.350   1.146   5.024
 8836SOL     OW27406   4.158   0.962   1.059
 8836SOL    HW127407   4.151   1.000   1.151
 8836SOL    HW227408   4.105   1.018   0.996
 8837SOL     OW27409   4.446   5.580   0.388
 8837SOL    HW127410   4.384   5.652   0.356
 8837SOL    HW227411   4.462   5.515   0.314
 8838SOL     OW27412   2.099   3.517   2.891
 8838SOL    HW127413   2.111   3.599   2.947
 8838SOL    HW227414   2.088   3.544   2.796
 8839SOL     OW27415   4.478   4.796   1.041
 8839SOL    HW127416   4.404   4.761   0.984
 8839SOL    HW227417   4.526   4.720   1.084
 8840SOL     OW27418   0.185   0.522   1.326
 8840SOL    HW127419   0.268   0.567   1.358
 8840SOL    HW227420   0.146   0.468   1.400
 8841SOL     OW27421   3.383   1.037   1.115
 8841SOL    HW127422   3.302   1.038   1.057
 8841SOL    HW227423   3.465   1.048   1.058
 8842SOL     OW27424   3.247   3.426   3.837
 8842SOL    HW127425   3.326   3.386   3.791
 8842SOL    HW227426   3.166   3.371   3.818
 8843SOL     OW27427   2.190   5.715   5.365
 8843SOL    HW127428   2.174   5.626   5.408
 8843SOL    HW227429   2.127   5.782   5.404
 8844SOL     OW27430   3.098   2.799   6.004
 8844SOL    HW127431   3.024   2.843   6.055
 8844SOL    HW227432   3.060   2.728   5.945
 8845SOL     OW27433   0.838   3.565   1.805
 8845SOL    HW127434   0.746   3.603   1.815
 8845SOL    HW227435   0.841   3.473   1.845
 8846SOL     OW27436   5.161   5.230   4.407
 8846SOL    HW127437   5.233   5.289   4.371
 8846SOL    HW227438   5.146   5.153   4.344
 8847SOL     OW27439   0.688   2.147   3.670
 8847SOL    HW127440   0.734   2.083   3.731
 8847SOL    HW227441   0.635   2.212   3.725
 8848SOL     OW27442   6.580   2.337   0.785
 8848SOL    HW127443   6.551   2.429   0.757
 8848SOL    HW227444   6.598   2.282   0.704
 8849SOL     OW27445   3.218   5.358   4.569
 8849SOL    HW127446   3.143   5.295   4.586
 8849SOL    HW227447   3.211   5.436   4.631
 8850SOL     OW27448   2.852   2.201   0.950
 8850SOL    HW127449   2.796   2.242   1.022
 8850SOL    HW227450   2.916   2.136   0.990
 8851SOL     OW27451   0.094   5.236   2.645
 8851SOL    HW127452   0.003   5.268   2.619
 8851SOL    HW227453   0.158   5.313   2.644
 8852SOL     OW27454   4.930   3.431   4.447
 8852SOL    HW127455   4.985   3.353   4.479
 8852SOL    HW227456   4.975   3.473   4.368
 8853SOL     OW27457   4.695   2.011   5.513
 8853SOL    HW127458   4.693   2.102   5.555
 8853SOL    HW227459   4.732   2.018   5.420
 8854SOL     OW27460   2.585   1.031   5.579
 8854SOL    HW127461   2.604   1.021   5.481
 8854SOL    HW227462   2.613   1.122   5.610
 8855SOL     OW27463   6.090   5.151   6.213
 8855SOL    HW127464   6.019   5.111   6.154
 8855SOL    HW227465   6.150   5.079   6.247
 8856SOL     OW27466   5.782   1.218   5.388
 8856SOL    HW127467   5.783   1.126   5.427
 8856SOL    HW227468   5.861   1.270   5.422
 8857SOL     OW27469   1.878   3.434   4.529
 8857SOL    HW127470   1.883   3.416   4.431
 8857SOL    HW227471   1.961   3.401   4.573
 8858SOL     OW27472   0.198   3.608   5.456
 8858SOL    HW127473   0.184   3.598   5.358
 8858SOL    HW227474   0.232   3.700   5.476
 8859SOL     OW27475   2.829   6.199   5.439
 8859SOL    HW127476   2.765   6.179   5.514
 8859SOL    HW227477   2.872   6.114   5.409
 8860SOL     OW27478   1.725   1.763   1.090
 8860SOL    HW127479   1.707   1.861   1.095
 8860SOL    HW227480   1.816   1.743   1.126
 8861SOL     OW27481   2.482   2.539   1.198
 8861SOL    HW127482   2.541   2.586   1.133
 8861SOL    HW227483   2.387   2.567   1.183
 8862SOL     OW27484   6.594   2.192   4.901
 8862SOL    HW127485   6.621   2.245   4.821
 8862SOL    HW227486   6.494   2.185   4.905
 8863SOL     OW27487   1.573   5.963   5.279
 8863SOL    HW127488   1.598   5.890   5.216
 8863SOL    HW227489   1.509   5.929   5.347
 8864SOL     OW27490   2.069   3.955   6.073
 8864SOL    HW127491   2.062   3.999   6.162
 8864SOL    HW227492   2.165   3.936   6.052
 8865SOL     OW27493   3.098   2.165   6.071
 8865SOL    HW127494   3.042   2.108   6.011
 8865SOL    HW227495   3.064   2.259   6.068
 8866SOL     OW27496   5.121   6.712   5.059
 8866SOL    HW127497   5.044   6.737   5.001
 8866SOL    HW227498   5.178   6.644   5.012
 8867SOL     OW27499   6.255   0.885   4.194
 8867SOL    HW127500   6.347   0.887   4.234
 8867SOL    HW227501   6.262   0.872   4.095
 8868SOL     OW27502   5.020   3.540   0.534
 8868SOL    HW127503   5.020   3.447   0.569
 8868SOL    HW227504   4.929   3.581   0.549
 8869SOL     OW27505   3.107   1.994   3.322
 8869SOL    HW127506   3.036   1.925   3.336
 8869SOL    HW227507   3.097   2.066   3.390
 8870SOL     OW27508   4.472   1.204   2.260
 8870SOL    HW127509   4.394   1.246   2.305
 8870SOL    HW227510   4.469   1.225   2.162
 8871SOL     OW27511   1.589   2.259   3.812
 8871SOL    HW127512   1.644   2.187   3.771
 8871SOL    HW227513   1.493   2.234   3.810
 8872SOL     OW27514   1.147   2.194   2.048
 8872SOL    HW127515   1.233   2.245   2.058
 8872SOL    HW227516   1.167   2.102   2.016
 8873SOL     OW27517   0.063   5.957   4.861
 8873SOL    HW127518   0.157   5.988   4.867
 8873SOL    HW227519   0.059   5.859   4.880
 8874SOL     OW27520   0.732   1.638   6.104
 8874SOL    HW127521   0.761   1.700   6.177
 8874SOL    HW227522   0.634   1.622   6.111
 8875SOL     OW27523   1.316   1.169   4.531
 8875SOL    HW127524   1.320   1.268   4.547
 8875SOL    HW227525   1.364   1.148   4.446
 8876SOL     OW27526   3.016   0.907   4.662
 8876SOL    HW127527   3.017   0.816   4.620
 8876SOL    HW227528   3.074   0.907   4.743
 8877SOL     OW27529   2.819   6.786   4.346
 8877SOL    HW127530   2.814   6.763   4.443
 8877SOL    HW227531   2.914   6.801   4.320
 8878SOL     OW27532   5.760   4.726   5.219
 8878SOL    HW127533   5.796   4.656   5.280
 8878SOL    HW227534   5.815   4.729   5.135
 8879SOL     OW27535   4.612   5.509   4.290
 8879SOL    HW127536   4.663   5.574   4.235
 8879SOL    HW227537   4.617   5.418   4.248
 8880SOL     OW27538   0.277   6.675   4.837
 8880SOL    HW127539   0.186   6.664   4.796
 8880SOL    HW227540   0.336   6.600   4.806
 8881SOL     OW27541   6.693   1.344   1.935
 8881SOL    HW127542   6.736   1.362   1.847
 8881SOL    HW227543   6.615   1.406   1.947
 8882SOL     OW27544   4.979   2.579   0.510
 8882SOL    HW127545   4.986   2.589   0.610
 8882SOL    HW227546   5.019   2.492   0.482
 8883SOL     OW27547   6.141   1.400   5.260
 8883SOL    HW127548   6.193   1.339   5.201
 8883SOL    HW227549   6.190   1.487   5.270
 8884SOL     OW27550   0.031   1.599   6.467
 8884SOL    HW127551   0.101   1.596   6.395
 8884SOL    HW227552   0.050   1.527   6.534
 8885SOL     OW27553   5.454   3.414   1.777
 8885SOL    HW127554   5.372   3.386   1.827
 8885SOL    HW227555   5.446   3.509   1.749
 8886SOL     OW27556   3.137   5.541   5.890
 8886SOL    HW127557   3.066   5.576   5.951
 8886SOL    HW227558   3.101   5.465   5.837
 8887SOL     OW27559   1.911   1.302   1.150
 8887SOL    HW127560   1.844   1.357   1.102
 8887SOL    HW227561   1.991   1.358   1.172
 8888SOL     OW27562   2.826   2.015   2.787
 8888SOL    HW127563   2.806   2.113   2.785
 8888SOL    HW227564   2.906   1.996   2.729
 8889SOL     OW27565   3.506   0.412   4.986
 8889SOL    HW127566   3.506   0.384   4.890
 8889SOL    HW227567   3.569   0.489   4.998
 8890SOL     OW27568   0.588   3.881   3.172
 8890SOL    HW127569   0.568   3.797   3.222
 8890SOL    HW227570   0.687   3.894   3.167
 8891SOL     OW27571   2.840   1.842   6.097
 8891SOL    HW127572   2.933   1.806   6.097
 8891SOL    HW227573   2.805   1.847   6.004
 8892SOL     OW27574   1.241   6.604   2.548
 8892SOL    HW127575   1.333   6.573   2.527
 8892SOL    HW227576   1.246   6.682   2.611
 8893SOL     OW27577   0.426   0.998   0.371
 8893SOL    HW127578   0.357   1.010   0.442
 8893SOL    HW227579   0.394   1.040   0.286
 8894SOL     OW27580   4.493   2.675   6.210
 8894SOL    HW127581   4.403   2.689   6.168
 8894SOL    HW227582   4.563   2.715   6.152
 8895SOL     OW27583   1.952   1.437   3.234
 8895SOL    HW127584   2.039   1.438   3.186
 8895SOL    HW227585   1.878   1.456   3.170
 8896SOL     OW27586   2.148   4.175   5.200
 8896SOL    HW127587   2.193   4.262   5.221
 8896SOL    HW227588   2.210   4.118   5.145
 8897SOL     OW27589   1.122   2.387   1.009
 8897SOL    HW127590   1.155   2.294   0.995
 8897SOL    HW227591   1.183   2.451   0.961
 8898SOL     OW27592   0.161   2.963   5.288
 8898SOL    HW127593   0.097   3.032   5.253
 8898SOL    HW227594   0.233   2.947   5.219
 8899SOL     OW27595   3.027   5.255   1.645
 8899SOL    HW127596   2.946   5.205   1.614
 8899SOL    HW227597   3.051   5.225   1.737
 8900SOL     OW27598   6.983   1.825   3.437
 8900SOL    HW127599   6.934   1.748   3.397
 8900SOL    HW227600   0.053   1.798   3.460
 8901SOL     OW27601   1.894   6.739   1.512
 8901SOL    HW127602   1.978   6.739   1.566
 8901SOL    HW227603   1.888   6.823   1.459
 8902SOL     OW27604   3.461   6.534   5.598
 8902SOL    HW127605   3.528   6.605   5.578
 8902SOL    HW227606   3.371   6.577   5.613
 8903SOL     OW27607   0.073   0.010   2.441
 8903SOL    HW127608   0.166   7.002   2.421
 8903SOL    HW227609   0.011   7.000   2.369
 8904SOL     OW27610   1.638   4.927   3.148
 8904SOL    HW127611   1.550   4.950   3.188
 8904SOL    HW227612   1.710   4.936   3.216
 8905SOL     OW27613   2.177   4.020   4.770
 8905SOL    HW127614   2.202   4.010   4.866
 8905SOL    HW227615   2.124   4.104   4.758
 8906SOL     OW27616   2.014   5.185   4.265
 8906SOL    HW127617   2.100   5.188   4.214
 8906SOL    HW227618   2.021   5.117   4.338
 8907SOL     OW27619   3.774   2.756   6.753
 8907SOL    HW127620   3.713   2.835   6.750
 8907SOL    HW227621   3.855   2.775   6.699
 8908SOL     OW27622   0.967   2.499   2.947
 8908SOL    HW127623   0.989   2.511   2.850
 8908SOL    HW227624   1.005   2.576   2.999
 8909SOL     OW27625   3.713   0.146   5.587
 8909SOL    HW127626   3.692   0.159   5.684
 8909SOL    HW227627   3.629   0.125   5.537
 8910SOL     OW27628   3.996   3.244   6.979
 8910SOL    HW127629   4.034   3.222   0.045
 8910SOL    HW227630   3.938   3.169   6.948
 8911SOL     OW27631   4.924   2.234   3.615
 8911SOL    HW127632   4.978   2.229   3.699
 8911SOL    HW227633   4.830   2.204   3.635
 8912SOL     OW27634   5.465   1.348   6.333
 8912SOL    HW127635   5.393   1.280   6.349
 8912SOL    HW227636   5.432   1.438   6.364
 8913SOL     OW27637   4.088   4.142   1.402
 8913SOL    HW127638   4.055   4.052   1.430
 8913SOL    HW227639   4.144   4.181   1.476
 8914SOL     OW27640   5.053   1.748   3.358
 8914SOL    HW127641   5.017   1.833   3.397
 8914SOL    HW227642   4.977   1.684   3.343
 8915SOL     OW27643   1.082   5.783   2.192
 8915SOL    HW127644   1.105   5.687   2.180
 8915SOL    HW227645   0.986   5.797   2.169
 8916SOL     OW27646   6.053   2.947   2.473
 8916SOL    HW127647   6.045   3.018   2.403
 8916SOL    HW227648   5.969   2.944   2.527
 8917SOL     OW27649   5.544   4.904   5.213
 8917SOL    HW127650   5.467   4.879   5.272
 8917SOL    HW227651   5.601   4.823   5.198
 8918SOL     OW27652   4.942   4.040   6.350
 8918SOL    HW127653   4.910   4.132   6.372
 8918SOL    HW227654   5.037   4.029   6.380
 8919SOL     OW27655   2.449   3.363   1.552
 8919SOL    HW127656   2.423   3.282   1.498
 8919SOL    HW227657   2.517   3.337   1.621
 8920SOL     OW27658   6.832   5.510   5.644
 8920SOL    HW127659   6.807   5.607   5.643
 8920SOL    HW227660   6.919   5.498   5.693
 8921SOL     OW27661   1.250   5.559   3.746
 8921SOL    HW127662   1.343   5.529   3.730
 8921SOL    HW227663   1.204   5.577   3.659
 8922SOL     OW27664   6.422   3.834   6.368
 8922SOL    HW127665   6.412   3.767   6.294
 8922SOL    HW227666   6.444   3.923   6.329
 8923SOL     OW27667   2.254   4.236   4.119
 8923SOL    HW127668   2.205   4.200   4.197
 8923SOL    HW227669   2.303   4.319   4.145
 8924SOL     OW27670   2.460   6.016   4.995
 8924SOL    HW127671   2.423   6.015   5.088
 8924SOL    HW227672   2.479   5.923   4.966
 8925SOL     OW27673   4.479   5.492   1.351
 8925SOL    HW127674   4.408   5.514   1.418
 8925SOL    HW227675   4.545   5.567   1.346
 8926SOL     OW27676   5.919   0.422   6.477
 8926SOL    HW127677   5.853   0.428   6.401
 8926SOL    HW227678   5.946   0.514   6.504
 8927SOL     OW27679   2.317   1.437   4.827
 8927SOL    HW127680   2.220   1.415   4.837
 8927SOL    HW227681   2.341   1.439   4.730
 8928SOL     OW27682   0.519   0.147   4.437
 8928SOL    HW127683   0.468   0.231   4.452
 8928SOL    HW227684   0.466   0.085   4.379
 8929SOL     OW27685   5.182   4.261   3.625
 8929SOL    HW127686   5.176   4.188   3.693
 8929SOL    HW227687   5.126   4.338   3.654
 8930SOL     OW27688   0.993   5.429   5.292
 8930SOL    HW127689   1.070   5.492   5.288
 8930SOL    HW227690   0.911   5.473   5.254
 8931SOL     OW27691   4.857   1.150   1.563
 8931SOL    HW127692   4.873   1.227   1.626
 8931SOL    HW227693   4.847   1.185   1.470
 8932SOL     OW27694   5.528   0.816   0.237
 8932SOL    HW127695   5.456   0.882   0.259
 8932SOL    HW227696   5.488   0.727   0.218
 8933SOL     OW27697   1.449   0.125   5.434
 8933SOL    HW127698   1.441   0.135   5.533
 8933SOL    HW227699   1.458   0.216   5.392
 8934SOL     OW27700   4.379   6.895   4.206
 8934SOL    HW127701   4.439   6.864   4.133
 8934SOL    HW227702   4.334   6.980   4.180
 8935SOL     OW27703   6.020   1.858   2.684
 8935SOL    HW127704   5.974   1.806   2.612
 8935SOL    HW227705   5.987   1.953   2.682
 8936SOL     OW27706   1.590   3.858   2.322
 8936SOL    HW127707   1.509   3.800   2.321
 8936SOL    HW227708   1.647   3.835   2.401
 8937SOL     OW27709   3.972   0.030   4.926
 8937SOL    HW127710   4.023   6.977   4.887
 8937SOL    HW227711   4.029   0.077   4.993
 8938SOL     OW27712   5.726   6.434   1.465
 8938SOL    HW127713   5.794   6.377   1.418
 8938SOL    HW227714   5.758   6.453   1.558
 8939SOL     OW27715   0.466   2.954   4.402
 8939SOL    HW127716   0.529   2.952   4.480
 8939SOL    HW227717   0.430   3.047   4.391
 8940SOL     OW27718   6.698   3.365   2.473
 8940SOL    HW127719   6.682   3.286   2.414
 8940SOL    HW227720   6.773   3.345   2.536
 8941SOL     OW27721   6.140   2.131   3.223
 8941SOL    HW127722   6.047   2.120   3.188
 8941SOL    HW227723   6.136   2.147   3.322
 8942SOL     OW27724   5.033   4.473   3.691
 8942SOL    HW127725   4.934   4.468   3.694
 8942SOL    HW227726   5.070   4.474   3.783
 8943SOL     OW27727   4.556   3.210   0.436
 8943SOL    HW127728   4.533   3.185   0.531
 8943SOL    HW227729   4.654   3.202   0.422
 8944SOL     OW27730   4.284   6.133   5.258
 8944SOL    HW127731   4.363   6.186   5.228
 8944SOL    HW227732   4.254   6.072   5.184
 8945SOL     OW27733   6.655   4.639   1.893
 8945SOL    HW127734   6.618   4.609   1.981
 8945SOL    HW227735   6.747   4.676   1.907
 8946SOL     OW27736   3.568   1.360   4.856
 8946SOL    HW127737   3.667   1.347   4.861
 8946SOL    HW227738   3.549   1.454   4.826
 8947SOL     OW27739   1.871   4.663   0.768
 8947SOL    HW127740   1.926   4.596   0.719
 8947SOL    HW227741   1.774   4.643   0.756
 8948SOL     OW27742   5.707   0.223   2.849
 8948SOL    HW127743   5.682   0.236   2.753
 8948SOL    HW227744   5.767   0.143   2.857
 8949SOL     OW27745   3.591   6.306   1.127
 8949SOL    HW127746   3.568   6.400   1.103
 8949SOL    HW227747   3.534   6.276   1.203
 8950SOL     OW27748   3.345   3.747   2.842
 8950SOL    HW127749   3.316   3.793   2.926
 8950SOL    HW227750   3.331   3.649   2.852
 8951SOL     OW27751   0.380   0.754   3.840
 8951SOL    HW127752   0.430   0.730   3.923
 8951SOL    HW227753   0.341   0.846   3.850
 8952SOL     OW27754   1.627   3.876   4.942
 8952SOL    HW127755   1.647   3.778   4.933
 8952SOL    HW227756   1.571   3.905   4.864
 8953SOL     OW27757   0.427   5.415   1.090
 8953SOL    HW127758   0.514   5.404   1.138
 8953SOL    HW227759   0.406   5.331   1.039
 8954SOL     OW27760   2.263   4.225   5.565
 8954SOL    HW127761   2.209   4.190   5.489
 8954SOL    HW227762   2.349   4.262   5.531
 8955SOL     OW27763   6.371   3.247   5.827
 8955SOL    HW127764   6.353   3.330   5.880
 8955SOL    HW227765   6.300   3.179   5.846
 8956SOL     OW27766   0.781   6.285   0.601
 8956SOL    HW127767   0.712   6.290   0.673
 8956SOL    HW227768   0.756   6.348   0.527
 8957SOL     OW27769   1.466   6.865   2.928
 8957SOL    HW127770   1.503   6.957   2.933
 8957SOL    HW227771   1.420   6.842   3.014
 8958SOL     OW27772   6.729   3.798   4.702
 8958SOL    HW127773   6.762   3.706   4.722
 8958SOL    HW227774   6.761   3.825   4.611
 8959SOL     OW27775   5.129   1.919   3.849
 8959SOL    HW127776   5.048   1.869   3.819
 8959SOL    HW227777   5.136   1.915   3.949
 8960SOL     OW27778   4.940   4.857   2.395
 8960SOL    HW127779   4.973   4.763   2.396
 8960SOL    HW227780   4.930   4.890   2.489
 8961SOL     OW27781   2.610   1.388   5.390
 8961SOL    HW127782   2.642   1.382   5.485
 8961SOL    HW227783   2.594   1.484   5.366
 8962SOL     OW27784   6.903   6.021   2.378
 8962SOL    HW127785   6.979   5.966   2.342
 8962SOL    HW227786   6.940   6.097   2.431
 8963SOL     OW27787   2.565   6.133   6.138
 8963SOL    HW127788   2.631   6.076   6.187
 8963SOL    HW227789   2.552   6.219   6.187
 8964SOL     OW27790   1.531   2.778   3.483
 8964SOL    HW127791   1.527   2.680   3.503
 8964SOL    HW227792   1.603   2.820   3.539
 8965SOL     OW27793   3.397   5.958   0.191
 8965SOL    HW127794   3.351   6.035   0.235
 8965SOL    HW227795   3.493   5.980   0.175
 8966SOL     OW27796   5.584   6.842   5.620
 8966SOL    HW127797   5.552   6.849   5.526
 8966SOL    HW227798   5.507   6.818   5.679
 8967SOL     OW27799   2.931   0.138   2.949
 8967SOL    HW127800   2.925   0.067   2.879
 8967SOL    HW227801   3.027   0.153   2.973
 8968SOL     OW27802   3.464   5.189   2.413
 8968SOL    HW127803   3.502   5.215   2.325
 8968SOL    HW227804   3.377   5.140   2.400
 8969SOL     OW27805   6.812   1.331   2.712
 8969SOL    HW127806   6.749   1.316   2.636
 8969SOL    HW227807   6.812   1.252   2.772
 8970SOL     OW27808   2.364   1.428   3.595
 8970SOL    HW127809   2.464   1.429   3.606
 8970SOL    HW227810   2.339   1.372   3.516
 8971SOL     OW27811   3.483   4.160   1.191
 8971SOL    HW127812   3.427   4.084   1.158
 8971SOL    HW227813   3.430   4.215   1.255
 8972SOL     OW27814   5.828   3.981   6.401
 8972SOL    HW127815   5.743   4.017   6.439
 8972SOL    HW227816   5.829   3.995   6.302
 8973SOL     OW27817   2.534   1.860   3.778
 8973SOL    HW127818   2.586   1.803   3.842
 8973SOL    HW227819   2.480   1.801   3.718
 8974SOL     OW27820   2.010   4.296   4.884
 8974SOL    HW127821   1.983   4.237   4.960
 8974SOL    HW227822   2.104   4.327   4.898
 8975SOL     OW27823   0.300   3.442   6.326
 8975SOL    HW127824   0.308   3.534   6.365
 8975SOL    HW227825   0.269   3.379   6.397
 8976SOL     OW27826   6.086   0.664   1.586
 8976SOL    HW127827   6.138   0.589   1.628
 8976SOL    HW227828   6.092   0.745   1.645
 8977SOL     OW27829   6.667   4.867   6.457
 8977SOL    HW127830   6.764   4.887   6.469
 8977SOL    HW227831   6.623   4.943   6.409
 8978SOL     OW27832   6.508   5.689   5.576
 8978SOL    HW127833   6.592   5.740   5.594
 8978SOL    HW227834   6.518   5.596   5.613
 8979SOL     OW27835   2.032   5.020   3.826
 8979SOL    HW127836   2.067   4.983   3.911
 8979SOL    HW227837   1.936   5.047   3.838
 8980SOL     OW27838   4.134   0.960   0.479
 8980SOL    HW127839   4.103   1.049   0.447
 8980SOL    HW227840   4.057   0.897   0.483
 8981SOL     OW27841   3.663   2.173   0.240
 8981SOL    HW127842   3.684   2.214   0.328
 8981SOL    HW227843   3.613   2.238   0.183
 8982SOL     OW27844   0.001   1.450   1.944
 8982SOL    HW127845   7.006   1.379   2.013
 8982SOL    HW227846   0.096   1.442   1.913
 8983SOL     OW27847   1.275   0.042   2.565
 8983SOL    HW127848   1.333   0.116   2.600
 8983SOL    HW227849   1.259   0.056   2.467
 8984SOL     OW27850   6.266   1.819   4.631
 8984SOL    HW127851   6.194   1.865   4.580
 8984SOL    HW227852   6.301   1.742   4.577
 8985SOL     OW27853   4.682   0.695   2.268
 8985SOL    HW127854   4.719   0.750   2.192
 8985SOL    HW227855   4.718   0.730   2.355
 8986SOL     OW27856   6.772   6.057   0.243
 8986SOL    HW127857   6.710   6.119   0.292
 8986SOL    HW227858   6.790   6.093   0.152
 8987SOL     OW27859   2.587   6.472   2.262
 8987SOL    HW127860   2.622   6.400   2.202
 8987SOL    HW227861   2.494   6.449   2.291
 8988SOL     OW27862   2.571   0.395   1.117
 8988SOL    HW127863   2.577   0.307   1.163
 8988SOL    HW227864   2.486   0.441   1.143
 8989SOL     OW27865   6.016   1.081   2.158
 8989SOL    HW127866   5.958   1.047   2.084
 8989SOL    HW227867   6.110   1.050   2.145
 8990SOL     OW27868   3.552   0.969   2.977
 8990SOL    HW127869   3.520   0.880   2.945
 8990SOL    HW227870   3.649   0.965   2.998
 8991SOL     OW27871   1.186   2.106   1.012
 8991SOL    HW127872   1.277   2.075   0.984
 8991SOL    HW227873   1.149   2.044   1.080
 8992SOL     OW27874   0.020   4.745   6.027
 8992SOL    HW127875   0.026   4.655   6.070
 8992SOL    HW227876   6.960   4.751   5.973
 8993SOL     OW27877   5.214   4.055   3.819
 8993SOL    HW127878   5.167   4.080   3.903
 8993SOL    HW227879   5.313   4.051   3.836
 8994SOL     OW27880   0.847   6.207   2.281
 8994SOL    HW127881   0.917   6.223   2.211
 8994SOL    HW227882   0.871   6.256   2.364
 8995SOL     OW27883   2.114   3.820   3.821
 8995SOL    HW127884   2.142   3.765   3.900
 8995SOL    HW227885   2.092   3.913   3.850
 8996SOL     OW27886   2.262   3.859   1.092
 8996SOL    HW127887   2.190   3.809   1.139
 8996SOL    HW227888   2.266   3.829   0.996
 8997SOL     OW27889   4.655   1.240   4.942
 8997SOL    HW127890   4.665   1.307   4.868
 8997SOL    HW227891   4.643   1.149   4.902
 8998SOL     OW27892   0.959   1.921   6.433
 8998SOL    HW127893   0.968   2.017   6.459
 8998SOL    HW227894   1.048   1.876   6.440
 8999SOL     OW27895   5.490   2.735   5.616
 8999SOL    HW127896   5.444   2.726   5.528
 8999SOL    HW227897   5.470   2.656   5.673
 9000SOL     OW27898   4.243   4.386   1.104
 9000SOL    HW127899   4.221   4.473   1.059
 9000SOL    HW227900   4.271   4.319   1.036
 9001SOL     OW27901   1.409   4.176   3.403
 9001SOL    HW127902   1.368   4.224   3.481
 9001SOL    HW227903   1.441   4.243   3.336
 9002SOL     OW27904   5.399   3.629   5.293
 9002SOL    HW127905   5.397   3.595   5.387
 9002SOL    HW227906   5.456   3.710   5.288
 9003SOL     OW27907   6.434   3.352   6.909
 9003SOL    HW127908   6.385   3.401   6.837
 9003SOL    HW227909   6.528   3.335   6.880
 9004SOL     OW27910   4.593   5.111   0.976
 9004SOL    HW127911   4.574   5.156   1.063
 9004SOL    HW227912   4.667   5.160   0.929
 9005SOL     OW27913   5.226   2.764   3.412
 9005SOL    HW127914   5.310   2.725   3.449
 9005SOL    HW227915   5.244   2.856   3.376
 9006SOL     OW27916   2.363   6.549   1.514
 9006SOL    HW127917   2.319   6.633   1.548
 9006SOL    HW227918   2.301   6.503   1.450
 9007SOL     OW27919   2.117   6.144   4.959
 9007SOL    HW127920   2.076   6.092   5.034
 9007SOL    HW227921   2.151   6.081   4.889
 9008SOL     OW27922   0.148   4.270   1.863
 9008SOL    HW127923   0.143   4.203   1.789
 9008SOL    HW227924   0.223   4.334   1.845
 9009SOL     OW27925   3.980   5.951   6.880
 9009SOL    HW127926   3.978   5.895   6.962
 9009SOL    HW227927   3.887   5.974   6.852
 9010SOL     OW27928   6.824   5.853   4.575
 9010SOL    HW127929   6.885   5.802   4.636
 9010SOL    HW227930   6.815   5.804   4.489
 9011SOL     OW27931   4.621   2.557   2.221
 9011SOL    HW127932   4.525   2.548   2.198
 9011SOL    HW227933   4.654   2.646   2.191
 9012SOL     OW27934   4.974   5.260   2.277
 9012SOL    HW127935   5.059   5.300   2.242
 9012SOL    HW227936   4.986   5.237   2.374
 9013SOL     OW27937   4.758   6.419   2.823
 9013SOL    HW127938   4.659   6.407   2.821
 9013SOL    HW227939   4.781   6.494   2.885
 9014SOL     OW27940   2.711   0.403   1.906
 9014SOL    HW127941   2.769   0.434   1.831
 9014SOL    HW227942   2.715   0.304   1.913
 9015SOL     OW27943   6.064   2.184   4.744
 9015SOL    HW127944   6.027   2.144   4.829
 9015SOL    HW227945   6.009   2.263   4.718
 9016SOL     OW27946   6.919   6.276   6.794
 9016SOL    HW127947   6.996   6.326   6.834
 9016SOL    HW227948   6.844   6.273   6.860
 9017SOL     OW27949   0.057   3.634   2.839
 9017SOL    HW127950   0.129   3.581   2.793
 9017SOL    HW227951   0.080   3.731   2.835
 9018SOL     OW27952   4.920   1.763   6.420
 9018SOL    HW127953   4.881   1.711   6.496
 9018SOL    HW227954   4.858   1.837   6.394
 9019SOL     OW27955   1.631   5.734   0.364
 9019SOL    HW127956   1.676   5.750   0.276
 9019SOL    HW227957   1.633   5.636   0.385
 9020SOL     OW27958   0.702   5.119   3.668
 9020SOL    HW127959   0.648   5.037   3.651
 9020SOL    HW227960   0.761   5.137   3.589
 9021SOL     OW27961   5.576   5.220   5.547
 9021SOL    HW127962   5.622   5.160   5.481
 9021SOL    HW227963   5.570   5.175   5.636
 9022SOL     OW27964   2.840   0.061   6.553
 9022SOL    HW127965   2.766   7.018   6.559
 9022SOL    HW227966   2.925   0.019   6.583
 9023SOL     OW27967   2.977   3.659   3.714
 9023SOL    HW127968   3.071   3.656   3.749
 9023SOL    HW227969   2.920   3.597   3.768
 9024SOL     OW27970   1.111   0.028   6.401
 9024SOL    HW127971   1.083   7.013   6.314
 9024SOL    HW227972   1.061   7.008   6.475
 9025SOL     OW27973   0.326   3.394   6.950
 9025SOL    HW127974   0.286   3.475   6.908
 9025SOL    HW227975   0.407   3.420   7.003
 9026SOL     OW27976   2.891   3.447   5.806
 9026SOL    HW127977   2.894   3.364   5.751
 9026SOL    HW227978   2.979   3.460   5.852
 9027SOL     OW27979   1.747   2.669   2.365
 9027SOL    HW127980   1.716   2.755   2.403
 9027SOL    HW227981   1.705   2.654   2.276
 9028SOL     OW27982   2.461   4.476   4.742
 9028SOL    HW127983   2.455   4.545   4.815
 9028SOL    HW227984   2.487   4.520   4.656
 9029SOL     OW27985   5.724   5.186   2.542
 9029SOL    HW127986   5.648   5.252   2.535
 9029SOL    HW227987   5.803   5.232   2.582
 9030SOL     OW27988   4.085   1.920   2.520
 9030SOL    HW127989   4.086   2.020   2.514
 9030SOL    HW227990   4.011   1.884   2.463
 9031SOL     OW27991   2.481   1.479   1.344
 9031SOL    HW127992   2.466   1.396   1.397
 9031SOL    HW227993   2.502   1.455   1.249
 9032SOL     OW27994   0.515   2.710   2.093
 9032SOL    HW127995   0.498   2.696   1.996
 9032SOL    HW227996   0.547   2.804   2.109
 9033SOL     OW27997   1.273   4.292   2.515
 9033SOL    HW127998   1.332   4.326   2.588
 9033SOL    HW227999   1.203   4.232   2.554
 9034SOL     OW28000   1.897   6.609   6.899
 9034SOL    HW128001   1.904   6.696   6.948
 9034SOL    HW228002   1.989   6.577   6.875
 9035SOL     OW28003   6.566   1.167   4.348
 9035SOL    HW128004   6.649   1.215   4.376
 9035SOL    HW228005   6.510   1.227   4.290
 9036SOL     OW28006   0.818   0.833   4.586
 9036SOL    HW128007   0.876   0.901   4.542
 9036SOL    HW228008   0.722   0.855   4.567
 9037SOL     OW28009   2.629   4.082   5.569
 9037SOL    HW128010   2.565   4.057   5.641
 9037SOL    HW228011   2.579   4.093   5.483
 9038SOL     OW28012   4.897   5.269   5.707
 9038SOL    HW128013   4.854   5.198   5.651
 9038SOL    HW228014   4.987   5.238   5.736
 9039SOL     OW28015   2.492   4.920   6.691
 9039SOL    HW128016   2.440   4.837   6.670
 9039SOL    HW228017   2.429   4.996   6.709
 9040SOL     OW28018   2.616   1.781   2.356
 9040SOL    HW128019   2.532   1.814   2.398
 9040SOL    HW228020   2.612   1.797   2.257
 9041SOL     OW28021   1.593   3.045   5.857
 9041SOL    HW128022   1.521   2.981   5.882
 9041SOL    HW228023   1.641   3.010   5.776
 9042SOL     OW28024   1.573   5.493   2.821
 9042SOL    HW128025   1.673   5.489   2.816
 9042SOL    HW228026   1.539   5.415   2.874
 9043SOL     OW28027   0.319   2.225   6.692
 9043SOL    HW128028   0.418   2.224   6.707
 9043SOL    HW228029   0.278   2.299   6.745
 9044SOL     OW28030   0.251   3.978   0.715
 9044SOL    HW128031   0.301   3.989   0.629
 9044SOL    HW228032   0.294   4.034   0.786
 9045SOL     OW28033   2.281   4.460   4.301
 9045SOL    HW128034   2.321   4.400   4.369
 9045SOL    HW228035   2.225   4.529   4.347
 9046SOL     OW28036   3.687   4.314   6.467
 9046SOL    HW128037   3.726   4.224   6.449
 9046SOL    HW228038   3.730   4.381   6.407
 9047SOL     OW28039   0.450   4.812   4.706
 9047SOL    HW128040   0.352   4.798   4.696
 9047SOL    HW228041   0.476   4.796   4.802
 9048SOL     OW28042   1.596   2.161   5.446
 9048SOL    HW128043   1.601   2.166   5.346
 9048SOL    HW228044   1.611   2.252   5.484
 9049SOL     OW28045   4.767   6.176   5.981
 9049SOL    HW128046   4.764   6.227   5.896
 9049SOL    HW228047   4.846   6.206   6.035
 9050SOL     OW28048   6.915   5.205   5.691
 9050SOL    HW128049   6.907   5.254   5.604
 9050SOL    HW228050   7.005   5.222   5.730
 9051SOL     OW28051   5.690   6.647   6.422
 9051SOL    HW128052   5.787   6.655   6.400
 9051SOL    HW228053   5.678   6.645   6.521
 9052SOL     OW28054   2.742   4.880   5.092
 9052SOL    HW128055   2.644   4.866   5.111
 9052SOL    HW228056   2.787   4.792   5.083
 9053SOL     OW28057   2.734   1.314   2.745
 9053SOL    HW128058   2.718   1.258   2.827
 9053SOL    HW228059   2.829   1.302   2.715
 9054SOL     OW28060   1.764   0.056   1.443
 9054SOL    HW128061   1.848   0.020   1.402
 9054SOL    HW228062   1.700   7.004   1.458
 9055SOL     OW28063   0.917   2.323   4.612
 9055SOL    HW128064   0.880   2.384   4.542
 9055SOL    HW228065   0.972   2.252   4.569
 9056SOL     OW28066   4.514   2.275   1.954
 9056SOL    HW128067   4.448   2.285   2.028
 9056SOL    HW228068   4.535   2.365   1.915
 9057SOL     OW28069   3.328   6.560   6.737
 9057SOL    HW128070   3.328   6.500   6.818
 9057SOL    HW228071   3.312   6.654   6.766
 9058SOL     OW28072   2.380   1.997   4.607
 9058SOL    HW128073   2.359   1.908   4.567
 9058SOL    HW228074   2.315   2.065   4.574
 9059SOL     OW28075   6.888   1.202   2.046
 9059SOL    HW128076   6.814   1.265   2.022
 9059SOL    HW228077   6.891   1.191   2.145
 9060SOL     OW28078   6.733   5.079   1.002
 9060SOL    HW128079   6.745   5.159   1.061
 9060SOL    HW228080   6.639   5.046   1.010
 9061SOL     OW28081   4.696   4.212   2.239
 9061SOL    HW128082   4.750   4.127   2.234
 9061SOL    HW228083   4.656   4.231   2.150
 9062SOL     OW28084   0.616   5.406   3.177
 9062SOL    HW128085   0.541   5.472   3.166
 9062SOL    HW228086   0.584   5.326   3.226
 9063SOL     OW28087   4.658   0.932   0.934
 9063SOL    HW128088   4.662   1.032   0.927
 9063SOL    HW228089   4.577   0.906   0.986
 9064SOL     OW28090   1.208   5.520   3.057
 9064SOL    HW128091   1.181   5.474   2.973
 9064SOL    HW228092   1.142   5.500   3.129
 9065SOL     OW28093   3.607   4.112   0.099
 9065SOL    HW128094   3.692   4.062   0.113
 9065SOL    HW228095   3.531   4.063   0.142
 9066SOL     OW28096   5.214   4.762   3.745
 9066SOL    HW128097   5.262   4.708   3.676
 9066SOL    HW228098   5.118   4.774   3.717
 9067SOL     OW28099   2.168   6.516   4.241
 9067SOL    HW128100   2.146   6.494   4.336
 9067SOL    HW228101   2.238   6.586   4.238
 9068SOL     OW28102   4.752   6.919   6.115
 9068SOL    HW128103   4.815   6.846   6.089
 9068SOL    HW228104   4.717   6.903   6.207
 9069SOL     OW28105   5.193   2.310   1.878
 9069SOL    HW128106   5.176   2.364   1.795
 9069SOL    HW228107   5.234   2.369   1.948
 9070SOL     OW28108   1.946   0.943   6.043
 9070SOL    HW128109   1.874   0.879   6.016
 9070SOL    HW228110   2.005   0.963   5.965
 9071SOL     OW28111   4.777   2.643   6.350
 9071SOL    HW128112   4.689   2.646   6.302
 9071SOL    HW228113   4.765   2.671   6.445
 9072SOL     OW28114   6.033   0.266   1.806
 9072SOL    HW128115   5.984   0.191   1.762
 9072SOL    HW228116   6.113   0.229   1.854
 9073SOL     OW28117   4.840   3.142   5.759
 9073SOL    HW128118   4.924   3.136   5.704
 9073SOL    HW228119   4.854   3.095   5.846
 9074SOL     OW28120   2.009   1.093   3.600
 9074SOL    HW128121   2.072   1.015   3.609
 9074SOL    HW228122   1.973   1.096   3.506
 9075SOL     OW28123   4.850   5.240   0.603
 9075SOL    HW128124   4.942   5.268   0.630
 9075SOL    HW228125   4.819   5.300   0.528
 9076SOL     OW28126   1.197   6.156   2.541
 9076SOL    HW128127   1.193   6.203   2.629
 9076SOL    HW228128   1.148   6.069   2.548
 9077SOL     OW28129   6.526   1.741   6.018
 9077SOL    HW128130   6.593   1.805   5.979
 9077SOL    HW228131   6.440   1.749   5.967
 9078SOL     OW28132   4.967   6.742   0.392
 9078SOL    HW128133   5.005   6.650   0.401
 9078SOL    HW228134   5.017   6.805   0.452
 9079SOL     OW28135   1.193   1.032   6.269
 9079SOL    HW128136   1.239   1.111   6.310
 9079SOL    HW228137   1.229   0.948   6.310
 9080SOL     OW28138   6.958   4.364   2.396
 9080SOL    HW128139   0.018   4.366   2.450
 9080SOL    HW228140   6.954   4.444   2.337
 9081SOL     OW28141   4.833   1.340   0.371
 9081SOL    HW128142   4.904   1.321   0.439
 9081SOL    HW228143   4.744   1.345   0.416
 9082SOL     OW28144   3.549   4.452   6.670
 9082SOL    HW128145   3.558   4.420   6.765
 9082SOL    HW228146   3.613   4.403   6.612
 9083SOL     OW28147   3.419   0.556   0.693
 9083SOL    HW128148   3.449   0.628   0.756
 9083SOL    HW228149   3.330   0.582   0.653
 9084SOL     OW28150   6.468   3.957   4.826
 9084SOL    HW128151   6.378   3.918   4.844
 9084SOL    HW228152   6.537   3.886   4.831
 9085SOL     OW28153   2.572   4.893   0.838
 9085SOL    HW128154   2.596   4.870   0.932
 9085SOL    HW228155   2.653   4.884   0.780
 9086SOL     OW28156   6.860   3.275   0.573
 9086SOL    HW128157   6.937   3.285   0.636
 9086SOL    HW228158   6.799   3.203   0.605
 9087SOL     OW28159   4.933   1.650   1.668
 9087SOL    HW128160   4.882   1.730   1.700
 9087SOL    HW228161   5.028   1.656   1.698
 9088SOL     OW28162   5.709   5.865   0.145
 9088SOL    HW128163   5.715   5.771   0.180
 9088SOL    HW228164   5.621   5.904   0.172
 9089SOL     OW28165   5.427   4.950   3.179
 9089SOL    HW128166   5.368   4.870   3.190
 9089SOL    HW228167   5.521   4.920   3.160
 9090SOL     OW28168   5.365   5.825   5.851
 9090SOL    HW128169   5.442   5.885   5.873
 9090SOL    HW228170   5.343   5.834   5.753
 9091SOL     OW28171   2.668   2.123   2.057
 9091SOL    HW128172   2.736   2.193   2.077
 9091SOL    HW228173   2.686   2.084   1.968
 9092SOL     OW28174   2.479   1.616   4.977
 9092SOL    HW128175   2.431   1.703   4.963
 9092SOL    HW228176   2.436   1.546   4.920
 9093SOL     OW28177   2.157   3.622   0.675
 9093SOL    HW128178   2.067   3.605   0.635
 9093SOL    HW228179   2.216   3.543   0.660
 9094SOL     OW28180   6.659   3.455   0.465
 9094SOL    HW128181   6.733   3.387   0.472
 9094SOL    HW228182   6.694   3.544   0.495
 9095SOL     OW28183   2.162   2.870   0.203
 9095SOL    HW128184   2.107   2.787   0.197
 9095SOL    HW228185   2.154   2.921   0.117
 9096SOL     OW28186   6.463   3.865   3.208
 9096SOL    HW128187   6.527   3.913   3.268
 9096SOL    HW228188   6.473   3.900   3.115
 9097SOL     OW28189   6.278   6.264   5.880
 9097SOL    HW128190   6.309   6.355   5.906
 9097SOL    HW228191   6.318   6.197   5.943
 9098SOL     OW28192   3.809   3.812   4.744
 9098SOL    HW128193   3.836   3.892   4.692
 9098SOL    HW228194   3.837   3.823   4.840
 9099SOL     OW28195   1.655   1.995   6.741
 9099SOL    HW128196   1.744   2.041   6.742
 9099SOL    HW228197   1.664   1.904   6.780
 9100SOL     OW28198   1.738   3.085   0.131
 9100SOL    HW128199   1.695   3.054   0.046
 9100SOL    HW228200   1.774   3.006   0.181
 9101SOL     OW28201   2.118   1.904   6.711
 9101SOL    HW128202   2.136   2.002   6.717
 9101SOL    HW228203   2.169   1.865   6.635
 9102SOL     OW28204   4.961   6.382   2.650
 9102SOL    HW128205   4.899   6.419   2.719
 9102SOL    HW228206   4.982   6.452   2.582
 9103SOL     OW28207   0.646   4.741   6.077
 9103SOL    HW128208   0.734   4.739   6.124
 9103SOL    HW228209   0.594   4.822   6.106
 9104SOL     OW28210   5.413   7.015   3.073
 9104SOL    HW128211   5.463   0.078   3.074
 9104SOL    HW228212   5.330   7.023   3.128
 9105SOL     OW28213   2.493   1.745   5.623
 9105SOL    HW128214   2.464   1.650   5.634
 9105SOL    HW228215   2.549   1.753   5.540
 9106SOL     OW28216   6.532   4.978   2.259
 9106SOL    HW128217   6.617   5.023   2.233
 9106SOL    HW228218   6.548   4.920   2.339
 9107SOL     OW28219   4.873   0.484   0.124
 9107SOL    HW128220   4.815   0.439   0.191
 9107SOL    HW228221   4.965   0.496   0.162
 9108SOL     OW28222   3.744   6.007   6.788
 9108SOL    HW128223   3.686   5.925   6.790
 9108SOL    HW228224   3.692   6.086   6.820
 9109SOL     OW28225   2.823   1.421   4.493
 9109SOL    HW128226   2.854   1.333   4.530
 9109SOL    HW228227   2.822   1.489   4.566
 9110SOL     OW28228   1.425   3.254   3.311
 9110SOL    HW128229   1.474   3.301   3.238
 9110SOL    HW228230   1.435   3.305   3.396
 9111SOL     OW28231   4.244   4.209   1.629
 9111SOL    HW128232   4.177   4.151   1.675
 9111SOL    HW228233   4.308   4.246   1.696
 9112SOL     OW28234   0.899   5.563   1.874
 9112SOL    HW128235   0.901   5.505   1.793
 9112SOL    HW228236   0.982   5.619   1.877
 9113SOL     OW28237   2.857   5.896   6.768
 9113SOL    HW128238   2.876   5.842   6.850
 9113SOL    HW228239   2.839   5.835   6.691
 9114SOL     OW28240   2.773   3.912   1.696
 9114SOL    HW128241   2.675   3.900   1.678
 9114SOL    HW228242   2.818   3.941   1.611
 9115SOL     OW28243   1.855   4.424   4.109
 9115SOL    HW128244   1.900   4.500   4.154
 9115SOL    HW228245   1.924   4.362   4.071
 9116SOL     OW28246   2.139   1.762   6.006
 9116SOL    HW128247   2.090   1.781   5.921
 9116SOL    HW228248   2.108   1.825   6.077
 9117SOL     OW28249   6.903   3.413   6.845
 9117SOL    HW128250   6.886   3.511   6.858
 9117SOL    HW228251   6.961   3.380   6.919
 9118SOL     OW28252   0.313   5.430   1.330
 9118SOL    HW128253   0.346   5.436   1.236
 9118SOL    HW228254   0.213   5.430   1.330
 9119SOL     OW28255   6.242   0.462   0.755
 9119SOL    HW128256   6.186   0.511   0.689
 9119SOL    HW228257   6.204   0.474   0.846
 9120SOL     OW28258   6.269   0.962   6.705
 9120SOL    HW128259   6.326   1.044   6.701
 9120SOL    HW228260   6.210   0.958   6.624
 9121SOL     OW28261   1.734   1.025   6.511
 9121SOL    HW128262   1.831   1.030   6.534
 9121SOL    HW228263   1.692   0.951   6.562
 9122SOL     OW28264   1.228   2.305   0.616
 9122SOL    HW128265   1.197   2.277   0.525
 9122SOL    HW228266   1.213   2.231   0.681
 9123SOL     OW28267   2.851   6.171   7.007
 9123SOL    HW128268   2.812   6.166   6.915
 9123SOL    HW228269   2.778   6.168   0.051
 9124SOL     OW28270   6.057   4.682   5.822
 9124SOL    HW128271   6.028   4.685   5.727
 9124SOL    HW228272   6.140   4.627   5.830
 9125SOL     OW28273   4.918   5.824   1.385
 9125SOL    HW128274   4.976   5.743   1.394
 9125SOL    HW228275   4.932   5.884   1.463
 9126SOL     OW28276   5.700   7.018   1.961
 9126SOL    HW128277   5.722   0.085   1.997
 9126SOL    HW228278   5.691   7.023   1.862
 9127SOL     OW28279   4.914   6.089   6.734
 9127SOL    HW128280   4.934   6.173   6.683
 9127SOL    HW228281   4.842   6.038   6.686
 9128SOL     OW28282   5.117   2.827   5.284
 9128SOL    HW128283   5.086   2.829   5.189
 9128SOL    HW228284   5.205   2.873   5.292
 9129SOL     OW28285   1.954   1.626   6.505
 9129SOL    HW128286   1.911   1.713   6.526
 9129SOL    HW228287   1.890   1.570   6.451
 9130SOL     OW28288   6.090   5.650   1.105
 9130SOL    HW128289   6.037   5.718   1.054
 9130SOL    HW228290   6.030   5.574   1.131
 9131SOL     OW28291   0.523   4.199   3.871
 9131SOL    HW128292   0.618   4.216   3.846
 9131SOL    HW228293   0.518   4.167   3.965
 9132SOL     OW28294   1.512   3.279   4.194
 9132SOL    HW128295   1.443   3.315   4.256
 9132SOL    HW228296   1.498   3.317   4.103
 9133SOL     OW28297   1.519   4.707   1.422
 9133SOL    HW128298   1.438   4.719   1.364
 9133SOL    HW228299   1.536   4.610   1.435
 9134SOL     OW28300   2.774   4.876   6.000
 9134SOL    HW128301   2.704   4.848   6.066
 9134SOL    HW228302   2.800   4.971   6.019
 9135SOL     OW28303   0.620   6.233   3.982
 9135SOL    HW128304   0.639   6.219   3.885
 9135SOL    HW228305   0.534   6.190   4.006
 9136SOL     OW28306   3.661   5.267   5.347
 9136SOL    HW128307   3.690   5.349   5.397
 9136SOL    HW228308   3.698   5.186   5.392
 9137SOL     OW28309   4.357   0.662   2.264
 9137SOL    HW128310   4.302   0.696   2.188
 9137SOL    HW228311   4.404   0.578   2.237
 9138SOL     OW28312   3.492   4.511   0.844
 9138SOL    HW128313   3.422   4.569   0.802
 9138SOL    HW228314   3.507   4.540   0.938
 9139SOL     OW28315   3.523   1.107   5.544
 9139SOL    HW128316   3.477   1.195   5.553
 9139SOL    HW228317   3.585   1.109   5.465
 9140SOL     OW28318   6.623   2.484   3.559
 9140SOL    HW128319   6.566   2.462   3.637
 9140SOL    HW228320   6.583   2.446   3.476
 9141SOL     OW28321   5.621   0.521   5.777
 9141SOL    HW128322   5.679   0.552   5.701
 9141SOL    HW228323   5.622   0.590   5.849
 9142SOL     OW28324   1.333   4.213   6.188
 9142SOL    HW128325   1.385   4.192   6.271
 9142SOL    HW228326   1.251   4.265   6.212
 9143SOL     OW28327   5.463   4.051   1.224
 9143SOL    HW128328   5.557   4.044   1.257
 9143SOL    HW228329   5.434   4.147   1.228
 9144SOL     OW28330   1.031   4.699   4.821
 9144SOL    HW128331   1.026   4.607   4.784
 9144SOL    HW228332   1.082   4.698   4.907
 9145SOL     OW28333   0.227   4.082   6.676
 9145SOL    HW128334   0.202   4.143   6.600
 9145SOL    HW228335   0.279   4.134   6.744
 9146SOL     OW28336   0.438   1.598   1.798
 9146SOL    HW128337   0.532   1.566   1.780
 9146SOL    HW228338   0.441   1.687   1.844
 9147SOL     OW28339   4.609   6.237   6.211
 9147SOL    HW128340   4.520   6.283   6.215
 9147SOL    HW228341   4.631   6.214   6.117
 9148SOL     OW28342   3.331   5.418   2.950
 9148SOL    HW128343   3.393   5.359   3.003
 9148SOL    HW228344   3.275   5.361   2.890
 9149SOL     OW28345   6.008   3.328   3.922
 9149SOL    HW128346   5.974   3.391   3.852
 9149SOL    HW228347   6.106   3.312   3.908
 9150SOL     OW28348   4.487   1.492   3.105
 9150SOL    HW128349   4.466   1.585   3.075
 9150SOL    HW228350   4.437   1.472   3.190
 9151SOL     OW28351   1.169   3.405   2.316
 9151SOL    HW128352   1.087   3.366   2.358
 9151SOL    HW228353   1.213   3.336   2.259
 9152SOL     OW28354   2.424   5.597   3.372
 9152SOL    HW128355   2.333   5.622   3.338
 9152SOL    HW228356   2.493   5.657   3.330
 9153SOL     OW28357   1.577   3.186   6.367
 9153SOL    HW128358   1.666   3.231   6.372
 9153SOL    HW228359   1.524   3.226   6.292
 9154SOL     OW28360   1.828   5.780   0.154
 9154SOL    HW128361   1.804   5.866   0.199
 9154SOL    HW228362   1.787   5.778   0.062
 9155SOL     OW28363   1.197   4.305   0.395
 9155SOL    HW128364   1.185   4.363   0.315
 9155SOL    HW228365   1.113   4.254   0.413
 9156SOL     OW28366   5.393   2.526   1.806
 9156SOL    HW128367   5.415   2.593   1.877
 9156SOL    HW228368   5.334   2.568   1.738
 9157SOL     OW28369   5.279   3.742   5.900
 9157SOL    HW128370   5.285   3.717   5.996
 9157SOL    HW228371   5.304   3.839   5.889
 9158SOL     OW28372   0.523   3.623   3.298
 9158SOL    HW128373   0.525   3.633   3.397
 9158SOL    HW228374   0.579   3.545   3.270
 9159SOL     OW28375   6.915   4.656   2.943
 9159SOL    HW128376   6.976   4.660   2.863
 9159SOL    HW228377   6.959   4.702   3.020
 9160SOL     OW28378   6.932   6.990   0.474
 9160SOL    HW128379   6.833   6.986   0.460
 9160SOL    HW228380   6.956   0.048   0.526
 9161SOL     OW28381   5.547   3.792   3.767
 9161SOL    HW128382   5.562   3.744   3.681
 9161SOL    HW228383   5.566   3.890   3.754
 9162SOL     OW28384   5.363   1.628   2.163
 9162SOL    HW128385   5.312   1.681   2.095
 9162SOL    HW228386   5.317   1.635   2.252
 9163SOL     OW28387   3.222   1.334   4.352
 9163SOL    HW128388   3.189   1.263   4.415
 9163SOL    HW228389   3.158   1.411   4.352
 9164SOL     OW28390   2.725   0.312   0.261
 9164SOL    HW128391   2.699   0.409   0.260
 9164SOL    HW228392   2.688   0.268   0.342
 9165SOL     OW28393   4.829   6.155   0.516
 9165SOL    HW128394   4.854   6.077   0.575
 9165SOL    HW228395   4.752   6.204   0.557
 9166SOL     OW28396   3.098   5.422   1.444
 9166SOL    HW128397   3.053   5.363   1.512
 9166SOL    HW228398   3.038   5.433   1.365
 9167SOL     OW28399   0.283   4.414   5.117
 9167SOL    HW128400   0.369   4.413   5.065
 9167SOL    HW228401   0.230   4.495   5.091
 9168SOL     OW28402   2.287   0.307   6.444
 9168SOL    HW128403   2.188   0.312   6.443
 9168SOL    HW228404   2.316   0.219   6.482
 9169SOL     OW28405   6.597   6.847   3.181
 9169SOL    HW128406   6.677   6.868   3.237
 9169SOL    HW228407   6.590   6.748   3.168
 9170SOL     OW28408   6.351   6.184   6.691
 9170SOL    HW128409   6.289   6.125   6.639
 9170SOL    HW228410   6.300   6.258   6.734
 9171SOL     OW28411   2.994   5.331   5.770
 9171SOL    HW128412   2.986   5.341   5.671
 9171SOL    HW228413   2.947   5.248   5.799
 9172SOL     OW28414   2.572   2.526   4.186
 9172SOL    HW128415   2.518   2.608   4.204
 9172SOL    HW228416   2.583   2.473   4.270
 9173SOL     OW28417   0.505   4.997   5.336
 9173SOL    HW128418   0.598   4.965   5.350
 9173SOL    HW228419   0.505   5.069   5.266
 9174SOL     OW28420   0.334   5.726   0.247
 9174SOL    HW128421   0.244   5.698   0.213
 9174SOL    HW228422   0.329   5.741   0.346
 9175SOL     OW28423   1.674   6.724   4.951
 9175SOL    HW128424   1.609   6.763   4.886
 9175SOL    HW228425   1.765   6.720   4.909
 9176SOL     OW28426   1.382   1.374   5.456
 9176SOL    HW128427   1.426   1.326   5.380
 9176SOL    HW228428   1.451   1.398   5.525
 9177SOL     OW28429   0.999   4.393   3.920
 9177SOL    HW128430   0.915   4.399   3.973
 9177SOL    HW228431   0.977   4.386   3.823
 9178SOL     OW28432   2.089   4.530   0.397
 9178SOL    HW128433   2.006   4.565   0.353
 9178SOL    HW228434   2.168   4.582   0.366
 9179SOL     OW28435   2.689   4.731   4.781
 9179SOL    HW128436   2.690   4.830   4.792
 9179SOL    HW228437   2.720   4.688   4.866
 9180SOL     OW28438   5.331   1.846   2.619
 9180SOL    HW128439   5.238   1.874   2.644
 9180SOL    HW228440   5.380   1.924   2.581
 9181SOL     OW28441   3.786   1.537   2.419
 9181SOL    HW128442   3.776   1.453   2.472
 9181SOL    HW228443   3.739   1.527   2.331
 9182SOL     OW28444   1.640   6.744   1.706
 9182SOL    HW128445   1.635   6.650   1.670
 9182SOL    HW228446   1.733   6.763   1.737
 9183SOL     OW28447   5.202   5.538   6.650
 9183SOL    HW128448   5.175   5.613   6.710
 9183SOL    HW228449   5.208   5.572   6.556
 9184SOL     OW28450   4.890   7.018   0.100
 9184SOL    HW128451   4.863   0.026   0.192
 9184SOL    HW228452   4.939   6.932   0.107
 9185SOL     OW28453   4.418   1.012   5.234
 9185SOL    HW128454   4.487   1.082   5.251
 9185SOL    HW228455   4.355   1.043   5.164
 9186SOL     OW28456   5.564   7.017   6.548
 9186SOL    HW128457   5.514   6.930   6.547
 9186SOL    HW228458   5.537   0.048   6.468
 9187SOL     OW28459   3.130   6.312   2.250
 9187SOL    HW128460   3.135   6.298   2.349
 9187SOL    HW228461   3.056   6.257   2.213
 9188SOL     OW28462   2.358   6.143   1.348
 9188SOL    HW128463   2.455   6.125   1.365
 9188SOL    HW228464   2.347   6.193   1.262
 9189SOL     OW28465   5.854   4.712   2.003
 9189SOL    HW128466   5.877   4.615   1.995
 9189SOL    HW228467   5.857   4.755   1.913
 9190SOL     OW28468   1.467   5.129   1.469
 9190SOL    HW128469   1.516   5.132   1.382
 9190SOL    HW228470   1.434   5.220   1.493
 9191SOL     OW28471   6.908   0.586   6.198
 9191SOL    HW128472   6.907   0.541   6.108
 9191SOL    HW228473   6.936   0.520   6.267
 9192SOL     OW28474   0.498   3.582   4.003
 9192SOL    HW128475   0.539   3.609   4.090
 9192SOL    HW228476   0.531   3.491   3.977
 9193SOL     OW28477   2.471   3.490   6.866
 9193SOL    HW128478   2.465   3.565   6.932
 9193SOL    HW228479   2.382   3.476   6.822
 9194SOL     OW28480   3.278   0.208   4.416
 9194SOL    HW128481   3.374   0.206   4.446
 9194SOL    HW228482   3.252   0.117   4.384
 9195SOL     OW28483   1.793   1.108   4.001
 9195SOL    HW128484   1.774   1.095   3.904
 9195SOL    HW228485   1.777   1.203   4.026
 9196SOL     OW28486   4.989   2.182   5.423
 9196SOL    HW128487   4.916   2.179   5.355
 9196SOL    HW228488   4.956   2.229   5.505
 9197SOL     OW28489   2.642   3.561   1.382
 9197SOL    HW128490   2.604   3.502   1.454
 9197SOL    HW228491   2.570   3.622   1.349
 9198SOL     OW28492   0.150   4.814   3.769
 9198SOL    HW128493   0.248   4.832   3.782
 9198SOL    HW228494   0.103   4.899   3.744
 9199SOL     OW28495   6.155   4.668   4.886
 9199SOL    HW128496   6.116   4.616   4.811
 9199SOL    HW228497   6.222   4.612   4.935
 9200SOL     OW28498   3.047   0.613   0.079
 9200SOL    HW128499   3.076   0.534   0.133
 9200SOL    HW228500   3.083   0.697   0.122
 9201SOL     OW28501   1.698   4.388   0.325
 9201SOL    HW128502   1.720   4.297   0.290
 9201SOL    HW228503   1.606   4.388   0.364
 9202SOL     OW28504   2.394   0.761   3.895
 9202SOL    HW128505   2.430   0.843   3.851
 9202SOL    HW228506   2.429   0.680   3.849
 9203SOL     OW28507   6.634   6.737   0.979
 9203SOL    HW128508   6.535   6.721   0.982
 9203SOL    HW228509   6.683   6.652   0.998
 9204SOL     OW28510   5.012   0.294   5.628
 9204SOL    HW128511   5.005   0.315   5.726
 9204SOL    HW228512   4.933   0.240   5.600
 9205SOL     OW28513   0.136   4.822   1.535
 9205SOL    HW128514   0.134   4.727   1.506
 9205SOL    HW228515   0.099   4.881   1.463
 9206SOL     OW28516   3.440   6.346   0.751
 9206SOL    HW128517   3.432   6.333   0.850
 9206SOL    HW228518   3.440   6.256   0.706
 9207SOL     OW28519   5.492   5.645   6.731
 9207SOL    HW128520   5.431   5.593   6.671
 9207SOL    HW228521   5.449   5.657   6.821
 9208SOL     OW28522   1.242   3.956   2.870
 9208SOL    HW128523   1.265   3.946   2.774
 9208SOL    HW228524   1.327   3.963   2.924
 9209SOL     OW28525   3.194   0.236   6.390
 9209SOL    HW128526   3.226   0.206   6.300
 9209SOL    HW228527   3.098   0.264   6.383
 9210SOL     OW28528   0.005   0.479   3.761
 9210SOL    HW128529   6.993   0.403   3.707
 9210SOL    HW228530   6.996   0.471   3.855
 9211SOL     OW28531   0.748   1.707   2.453
 9211SOL    HW128532   0.659   1.694   2.497
 9211SOL    HW228533   0.791   1.791   2.488
 9212SOL     OW28534   3.299   4.973   4.589
 9212SOL    HW128535   3.201   4.960   4.607
 9212SOL    HW228536   3.343   5.008   4.672
 9213SOL     OW28537   6.080   4.356   6.483
 9213SOL    HW128538   6.099   4.281   6.419
 9213SOL    HW228539   6.165   4.386   6.526
 9214SOL     OW28540   0.086   4.849   0.703
 9214SOL    HW128541   0.060   4.796   0.622
 9214SOL    HW228542   0.161   4.911   0.679
 9215SOL     OW28543   1.322   1.040   1.041
 9215SOL    HW128544   1.225   1.046   1.061
 9215SOL    HW228545   1.356   1.130   1.012
 9216SOL     OW28546   2.114   6.930   3.112
 9216SOL    HW128547   2.136   7.023   3.139
 9216SOL    HW228548   2.195   6.887   3.072
 9217SOL     OW28549   0.679   2.857   0.205
 9217SOL    HW128550   0.752   2.924   0.216
 9217SOL    HW228551   0.715   2.765   0.222
 9218SOL     OW28552   2.548   1.091   0.478
 9218SOL    HW128553   2.607   1.070   0.556
 9218SOL    HW228554   2.601   1.139   0.408
 9219SOL     OW28555   0.479   1.479   0.625
 9219SOL    HW128556   0.394   1.531   0.624
 9219SOL    HW228557   0.555   1.540   0.602
 9220SOL     OW28558   3.283   6.204   1.587
 9220SOL    HW128559   3.333   6.153   1.657
 9220SOL    HW228560   3.219   6.143   1.541
 9221SOL     OW28561   2.752   5.080   4.546
 9221SOL    HW128562   2.697   5.124   4.476
 9221SOL    HW228563   2.794   4.997   4.508
 9222SOL     OW28564   2.959   2.064   5.840
 9222SOL    HW128565   2.937   1.967   5.833
 9222SOL    HW228566   2.908   2.114   5.770
 9223SOL     OW28567   2.634   3.065   5.409
 9223SOL    HW128568   2.647   3.163   5.428
 9223SOL    HW228569   2.578   3.054   5.328
 9224SOL     OW28570   2.134   4.800   5.042
 9224SOL    HW128571   2.069   4.872   5.017
 9224SOL    HW228572   2.106   4.759   5.129
 9225SOL     OW28573   1.841   6.941   6.934
 9225SOL    HW128574   1.933   6.980   6.941
 9225SOL    HW228575   1.780   7.008   6.892
 9226SOL     OW28576   3.888   6.374   1.096
 9226SOL    HW128577   3.812   6.340   1.042
 9226SOL    HW228578   3.963   6.307   1.095
 9227SOL     OW28579   1.720   6.137   1.363
 9227SOL    HW128580   1.650   6.158   1.430
 9227SOL    HW228581   1.809   6.171   1.396
 9228SOL     OW28582   0.407   0.440   0.125
 9228SOL    HW128583   0.455   0.374   0.068
 9228SOL    HW228584   0.440   0.433   0.220
 9229SOL     OW28585   0.494   5.497   5.715
 9229SOL    HW128586   0.445   5.413   5.693
 9229SOL    HW228587   0.592   5.484   5.701
 9230SOL     OW28588   5.384   0.662   4.026
 9230SOL    HW128589   5.388   0.630   4.120
 9230SOL    HW228590   5.473   0.698   3.999
 9231SOL     OW28591   1.890   3.497   3.071
 9231SOL    HW128592   1.899   3.595   3.090
 9231SOL    HW228593   1.980   3.454   3.078
 9232SOL     OW28594   4.514   4.819   1.478
 9232SOL    HW128595   4.545   4.803   1.385
 9232SOL    HW228596   4.499   4.916   1.493
 9233SOL     OW28597   4.641   4.605   1.209
 9233SOL    HW128598   4.671   4.534   1.145
 9233SOL    HW228599   4.551   4.581   1.245
 9234SOL     OW28600   2.254   6.036   3.456
 9234SOL    HW128601   2.238   5.938   3.445
 9234SOL    HW228602   2.198   6.069   3.532
 9235SOL     OW28603   0.670   2.262   3.347
 9235SOL    HW128604   0.631   2.349   3.316
 9235SOL    HW228605   0.641   2.189   3.286
 9236SOL     OW28606   3.805   2.834   5.595
 9236SOL    HW128607   3.881   2.771   5.603
 9236SOL    HW228608   3.719   2.784   5.605
 9237SOL     OW28609   1.794   3.340   4.024
 9237SOL    HW128610   1.788   3.416   3.960
 9237SOL    HW228611   1.702   3.303   4.039
 9238SOL     OW28612   4.408   3.427   6.382
 9238SOL    HW128613   4.404   3.490   6.304
 9238SOL    HW228614   4.384   3.335   6.352
 9239SOL     OW28615   1.909   3.942   6.916
 9239SOL    HW128616   1.989   3.938   6.857
 9239SOL    HW228617   1.828   3.961   6.860
 9240SOL     OW28618   4.819   0.849   2.471
 9240SOL    HW128619   4.858   0.800   2.548
 9240SOL    HW228620   4.761   0.923   2.504
 9241SOL     OW28621   0.593   5.707   0.015
 9241SOL    HW128622   0.497   5.693   7.012
 9241SOL    HW228623   0.617   5.803   0.003
 9242SOL     OW28624   6.646   5.916   1.770
 9242SOL    HW128625   6.727   5.946   1.821
 9242SOL    HW228626   6.622   5.985   1.702
 9243SOL     OW28627   6.198   6.285   4.837
 9243SOL    HW128628   6.225   6.193   4.808
 9243SOL    HW228629   6.099   6.287   4.854
 9244SOL     OW28630   3.223   5.747   0.246
 9244SOL    HW128631   3.231   5.665   0.190
 9244SOL    HW228632   3.306   5.803   0.236
 9245SOL     OW28633   0.450   6.240   1.093
 9245SOL    HW128634   0.421   6.301   1.167
 9245SOL    HW228635   0.545   6.214   1.107
 9246SOL     OW28636   0.081   4.649   4.063
 9246SOL    HW128637   7.008   4.671   4.073
 9246SOL    HW228638   0.122   4.707   3.993
 9247SOL     OW28639   1.649   6.678   2.204
 9247SOL    HW128640   1.652   6.615   2.126
 9247SOL    HW228641   1.680   6.769   2.175
 9248SOL     OW28642   3.652   1.960   6.215
 9248SOL    HW128643   3.656   2.040   6.154
 9248SOL    HW228644   3.730   1.900   6.196
 9249SOL     OW28645   4.321   6.846   3.131
 9249SOL    HW128646   4.418   6.868   3.121
 9249SOL    HW228647   4.270   6.882   3.053
 9250SOL     OW28648   5.674   3.678   3.552
 9250SOL    HW128649   5.740   3.608   3.524
 9250SOL    HW228650   5.649   3.734   3.473
 9251SOL     OW28651   4.025   1.926   3.103
 9251SOL    HW128652   3.958   1.889   3.168
 9251SOL    HW228653   4.110   1.874   3.110
 9252SOL     OW28654   1.355   6.785   4.524
 9252SOL    HW128655   1.445   6.777   4.481
 9252SOL    HW228656   1.294   6.839   4.465
 9253SOL     OW28657   1.462   6.832   5.622
 9253SOL    HW128658   1.525   6.794   5.690
 9253SOL    HW228659   1.368   6.811   5.648
 9254SOL     OW28660   5.595   3.333   1.508
 9254SOL    HW128661   5.538   3.328   1.590
 9254SOL    HW228662   5.548   3.388   1.439
 9255SOL     OW28663   0.161   4.702   0.476
 9255SOL    HW128664   0.243   4.758   0.458
 9255SOL    HW228665   0.127   4.665   0.390
 9256SOL     OW28666   4.101   4.932   1.730
 9256SOL    HW128667   4.139   4.859   1.674
 9256SOL    HW228668   4.141   5.020   1.702
 9257SOL     OW28669   0.569   3.450   1.116
 9257SOL    HW128670   0.538   3.370   1.065
 9257SOL    HW228671   0.635   3.421   1.186
 9258SOL     OW28672   4.110   3.545   3.852
 9258SOL    HW128673   4.113   3.481   3.929
 9258SOL    HW228674   4.125   3.638   3.886
 9259SOL     OW28675   1.174   2.479   0.273
 9259SOL    HW128676   1.113   2.408   0.239
 9259SOL    HW228677   1.122   2.542   0.332
 9260SOL     OW28678   6.078   3.881   6.993
 9260SOL    HW128679   6.155   3.931   0.009
 9260SOL    HW228680   6.009   3.865   0.040
 9261SOL     OW28681   4.326   0.044   6.849
 9261SOL    HW128682   4.238   0.022   6.808
 9261SOL    HW228683   4.313   0.102   6.929
 9262SOL     OW28684   5.055   0.870   5.549
 9262SOL    HW128685   5.130   0.823   5.595
 9262SOL    HW228686   4.997   0.916   5.617
 9263SOL     OW28687   5.605   3.866   2.128
 9263SOL    HW128688   5.540   3.801   2.167
 9263SOL    HW228689   5.656   3.822   2.053
 9264SOL     OW28690   6.118   2.680   0.098
 9264SOL    HW128691   6.027   2.718   0.115
 9264SOL    HW228692   6.160   2.654   0.185
 9265SOL     OW28693   1.710   1.434   5.349
 9265SOL    HW128694   1.639   1.491   5.307
 9265SOL    HW228695   1.800   1.467   5.322
 9266SOL     OW28696   2.377   6.174   2.327
 9266SOL    HW128697   2.411   6.226   2.405
 9266SOL    HW228698   2.367   6.078   2.354
 9267SOL     OW28699   2.471   5.094   5.578
 9267SOL    HW128700   2.523   5.163   5.528
 9267SOL    HW228701   2.404   5.052   5.518
 9268SOL     OW28702   0.675   1.059   2.729
 9268SOL    HW128703   0.737   1.015   2.793
 9268SOL    HW228704   0.581   1.050   2.762
 9269SOL     OW28705   4.144   1.895   5.688
 9269SOL    HW128706   4.053   1.899   5.646
 9269SOL    HW228707   4.192   1.814   5.655
 9270SOL     OW28708   1.228   6.794   5.763
 9270SOL    HW128709   1.196   6.727   5.830
 9270SOL    HW228710   1.186   6.883   5.782
 9271SOL     OW28711   0.906   5.013   0.003
 9271SOL    HW128712   0.942   5.083   6.965
 9271SOL    HW228713   0.906   4.924   6.980
 9272SOL     OW28714   2.911   5.247   6.657
 9272SOL    HW128715   2.862   5.162   6.638
 9272SOL    HW228716   2.928   5.295   6.571
 9273SOL     OW28717   3.936   6.065   5.233
 9273SOL    HW128718   3.936   6.151   5.182
 9273SOL    HW228719   3.960   6.083   5.328
 9274SOL     OW28720   6.046   2.325   0.924
 9274SOL    HW128721   6.022   2.324   1.021
 9274SOL    HW228722   6.145   2.333   0.914
 9275SOL     OW28723   0.477   0.513   6.477
 9275SOL    HW128724   0.571   0.537   6.501
 9275SOL    HW228725   0.453   0.554   6.389
 9276SOL     OW28726   4.963   6.208   4.639
 9276SOL    HW128727   5.005   6.123   4.670
 9276SOL    HW228728   4.946   6.268   4.718
 9277SOL     OW28729   3.673   2.670   0.724
 9277SOL    HW128730   3.622   2.612   0.787
 9277SOL    HW228731   3.769   2.674   0.753
 9278SOL     OW28732   1.398   2.268   1.455
 9278SOL    HW128733   1.481   2.321   1.471
 9278SOL    HW228734   1.323   2.306   1.509
 9279SOL     OW28735   3.435   0.080   1.178
 9279SOL    HW128736   3.400   0.040   1.263
 9279SOL    HW228737   3.361   0.126   1.129
 9280SOL     OW28738   2.120   0.703   2.894
 9280SOL    HW128739   2.085   0.689   2.987
 9280SOL    HW228740   2.048   0.682   2.828
 9281SOL     OW28741   1.854   2.750   0.619
 9281SOL    HW128742   1.875   2.760   0.716
 9281SOL    HW228743   1.764   2.790   0.599
 9282SOL     OW28744   4.505   2.269   6.158
 9282SOL    HW128745   4.594   2.293   6.119
 9282SOL    HW228746   4.479   2.339   6.225
 9283SOL     OW28747   5.873   2.087   2.684
 9283SOL    HW128748   5.894   2.179   2.718
 9283SOL    HW228749   5.779   2.085   2.650
 9284SOL     OW28750   3.251   3.560   2.146
 9284SOL    HW128751   3.334   3.577   2.199
 9284SOL    HW228752   3.273   3.559   2.049
 9285SOL     OW28753   5.931   2.573   6.525
 9285SOL    HW128754   5.962   2.665   6.551
 9285SOL    HW228755   5.832   2.574   6.510
 9286SOL     OW28756   5.505   6.025   5.141
 9286SOL    HW128757   5.480   5.964   5.217
 9286SOL    HW228758   5.472   6.117   5.160
 9287SOL     OW28759   3.274   6.480   1.947
 9287SOL    HW128760   3.267   6.502   2.045
 9287SOL    HW228761   3.182   6.471   1.909
 9288SOL     OW28762   4.600   2.628   5.597
 9288SOL    HW128763   4.530   2.568   5.559
 9288SOL    HW228764   4.559   2.691   5.662
 9289SOL     OW28765   5.151   3.380   2.574
 9289SOL    HW128766   5.148   3.417   2.667
 9289SOL    HW228767   5.201   3.444   2.515
 9290SOL     OW28768   4.385   2.058   4.776
 9290SOL    HW128769   4.480   2.027   4.776
 9290SOL    HW228770   4.325   1.979   4.764
 9291SOL     OW28771   0.616   1.904   4.579
 9291SOL    HW128772   0.624   1.964   4.659
 9291SOL    HW228773   0.557   1.948   4.512
 9292SOL     OW28774   6.817   3.667   6.926
 9292SOL    HW128775   6.743   3.710   6.873
 9292SOL    HW228776   6.781   3.636   7.013
 9293SOL     OW28777   6.010   3.835   6.541
 9293SOL    HW128778   5.946   3.867   6.471
 9293SOL    HW228779   6.068   3.763   6.503
 9294SOL     OW28780   5.463   6.045   6.853
 9294SOL    HW128781   5.389   6.107   6.827
 9294SOL    HW228782   5.506   6.078   6.938
 9295SOL     OW28783   4.576   1.770   3.349
 9295SOL    HW128784   4.544   1.860   3.319
 9295SOL    HW228785   4.497   1.711   3.365
 9296SOL     OW28786   6.585   6.440   5.807
 9296SOL    HW128787   6.634   6.375   5.748
 9296SOL    HW228788   6.507   6.478   5.757
 9297SOL     OW28789   0.520   0.833   1.036
 9297SOL    HW128790   0.427   0.863   1.055
 9297SOL    HW228791   0.555   0.881   0.956
 9298SOL     OW28792   0.616   6.555   5.140
 9298SOL    HW128793   0.684   6.515   5.079
 9298SOL    HW228794   0.527   6.511   5.125
 9299SOL     OW28795   2.023   2.751   4.170
 9299SOL    HW128796   2.057   2.844   4.154
 9299SOL    HW228797   1.996   2.741   4.265
 9300SOL     OW28798   5.743   4.412   3.981
 9300SOL    HW128799   5.644   4.415   3.996
 9300SOL    HW228800   5.763   4.430   3.884
 9301SOL     OW28801   5.991   3.835   2.575
 9301SOL    HW128802   5.945   3.896   2.640
 9301SOL    HW228803   5.996   3.743   2.613
 9302SOL     OW28804   2.551   2.059   2.662
 9302SOL    HW128805   2.647   2.085   2.655
 9302SOL    HW228806   2.496   2.119   2.602
 9303SOL     OW28807   3.539   4.626   1.093
 9303SOL    HW128808   3.638   4.618   1.102
 9303SOL    HW228809   3.501   4.662   1.179
 9304SOL     OW28810   4.042   3.192   0.464
 9304SOL    HW128811   4.096   3.154   0.540
 9304SOL    HW228812   4.036   3.291   0.474
 9305SOL     OW28813   5.144   2.876   2.558
 9305SOL    HW128814   5.076   2.942   2.525
 9305SOL    HW228815   5.157   2.887   2.656
 9306SOL     OW28816   6.351   4.462   3.993
 9306SOL    HW128817   6.398   4.456   3.904
 9306SOL    HW228818   6.286   4.538   3.991
 9307SOL     OW28819   2.362   1.213   6.538
 9307SOL    HW128820   2.346   1.272   6.459
 9307SOL    HW228821   2.450   1.237   6.581
 9308SOL     OW28822   6.582   2.609   0.734
 9308SOL    HW128823   6.659   2.602   0.671
 9308SOL    HW228824   6.506   2.655   0.688
 9309SOL     OW28825   4.791   3.555   6.827
 9309SOL    HW128826   4.729   3.617   6.779
 9309SOL    HW228827   4.746   3.466   6.837
 9310SOL     OW28828   3.778   6.085   1.087
 9310SOL    HW128829   3.709   6.152   1.112
 9310SOL    HW228830   3.869   6.122   1.106
 9311SOL     OW28831   6.509   3.060   1.439
 9311SOL    HW128832   6.512   3.103   1.529
 9311SOL    HW228833   6.482   2.964   1.449
 9312SOL     OW28834   1.179   4.822   5.250
 9312SOL    HW128835   1.179   4.798   5.153
 9312SOL    HW228836   1.129   4.754   5.302
 9313SOL     OW28837   6.241   6.627   2.465
 9313SOL    HW128838   6.146   6.608   2.493
 9313SOL    HW228839   6.300   6.554   2.498
 9314SOL     OW28840   5.347   5.004   0.244
 9314SOL    HW128841   5.293   4.928   0.279
 9314SOL    HW228842   5.402   4.972   0.166
 9315SOL     OW28843   6.848   6.594   6.344
 9315SOL    HW128844   6.798   6.636   6.420
 9315SOL    HW228845   6.929   6.547   6.380
 9316SOL     OW28846   3.881   5.851   4.639
 9316SOL    HW128847   3.958   5.885   4.583
 9316SOL    HW228848   3.864   5.755   4.617
 9317SOL     OW28849   5.351   4.425   4.685
 9317SOL    HW128850   5.370   4.515   4.645
 9317SOL    HW228851   5.258   4.398   4.662
 9318SOL     OW28852   6.214   6.842   6.565
 9318SOL    HW128853   6.263   6.906   6.506
 9318SOL    HW228854   6.248   6.750   6.550
 9319SOL     OW28855   6.900   3.243   4.942
 9319SOL    HW128856   6.908   3.178   4.867
 9319SOL    HW228857   6.827   3.308   4.922
 9320SOL     OW28858   4.168   2.764   6.481
 9320SOL    HW128859   4.119   2.677   6.492
 9320SOL    HW228860   4.188   2.779   6.384
 9321SOL     OW28861   6.326   6.192   3.406
 9321SOL    HW128862   6.385   6.146   3.339
 9321SOL    HW228863   6.280   6.123   3.463
 9322SOL     OW28864   0.643   6.306   0.078
 9322SOL    HW128865   0.649   6.209   0.103
 9322SOL    HW228866   0.554   6.342   0.107
 9323SOL     OW28867   0.442   1.694   6.149
 9323SOL    HW128868   0.351   1.658   6.128
 9323SOL    HW228869   0.440   1.794   6.145
 9324SOL     OW28870   1.693   5.771   6.713
 9324SOL    HW128871   1.675   5.869   6.725
 9324SOL    HW228872   1.634   5.736   6.640
 9325SOL     OW28873   0.403   3.020   0.350
 9325SOL    HW128874   0.304   3.031   0.358
 9325SOL    HW228875   0.424   2.928   0.315
 9326SOL     OW28876   2.107   5.654   1.314
 9326SOL    HW128877   2.043   5.664   1.237
 9326SOL    HW228878   2.073   5.583   1.376
 9327SOL     OW28879   3.990   1.149   3.404
 9327SOL    HW128880   4.010   1.232   3.352
 9327SOL    HW228881   4.053   1.076   3.376
 9328SOL     OW28882   3.717   0.751   2.351
 9328SOL    HW128883   3.674   0.801   2.426
 9328SOL    HW228884   3.694   0.796   2.264
 9329SOL     OW28885   1.472   3.542   1.721
 9329SOL    HW128886   1.420   3.615   1.765
 9329SOL    HW228887   1.518   3.578   1.640
 9330SOL     OW28888   5.617   0.008   6.852
 9330SOL    HW128889   5.603   0.002   6.753
 9330SOL    HW228890   5.530   7.017   6.899
 9331SOL     OW28891   0.457   1.601   6.848
 9331SOL    HW128892   0.371   1.651   6.859
 9331SOL    HW228893   0.484   1.602   6.752
 9332SOL     OW28894   3.252   4.057   4.434
 9332SOL    HW128895   3.224   4.086   4.526
 9332SOL    HW228896   3.222   3.963   4.419
 9333SOL     OW28897   5.968   5.382   1.258
 9333SOL    HW128898   5.881   5.336   1.275
 9333SOL    HW228899   5.984   5.449   1.331
 9334SOL     OW28900   2.956   0.108   4.793
 9334SOL    HW128901   3.036   0.168   4.802
 9334SOL    HW228902   2.985   0.013   4.807
 9335SOL     OW28903   0.415   1.129   1.119
 9335SOL    HW128904   0.449   1.146   1.211
 9335SOL    HW228905   0.343   1.059   1.122
 9336SOL     OW28906   3.125   0.040   5.551
 9336SOL    HW128907   3.050   0.026   5.615
 9336SOL    HW228908   3.111   7.008   5.469
 9337SOL     OW28909   4.962   6.933   2.915
 9337SOL    HW128910   4.869   6.965   2.895
 9337SOL    HW228911   4.992   6.871   2.842
 9338SOL     OW28912   4.105   0.280   1.600
 9338SOL    HW128913   4.066   0.335   1.525
 9338SOL    HW228914   4.033   0.230   1.646
 9339SOL     OW28915   4.067   6.037   0.809
 9339SOL    HW128916   4.119   6.120   0.792
 9339SOL    HW228917   4.127   5.968   0.850
 9340SOL     OW28918   5.564   3.337   0.616
 9340SOL    HW128919   5.605   3.247   0.632
 9340SOL    HW228920   5.538   3.377   0.703
 9341SOL     OW28921   6.731   5.079   5.822
 9341SOL    HW128922   6.812   5.128   5.788
 9341SOL    HW228923   6.671   5.057   5.745
 9342SOL     OW28924   0.747   6.692   6.434
 9342SOL    HW128925   0.798   6.768   6.475
 9342SOL    HW228926   0.811   6.626   6.395
 9343SOL     OW28927   6.484   5.593   4.454
 9343SOL    HW128928   6.579   5.594   4.424
 9343SOL    HW228929   6.475   5.531   4.532
 9344SOL     OW28930   4.216   6.396   1.035
 9344SOL    HW128931   4.224   6.432   1.128
 9344SOL    HW228932   4.180   6.468   0.975
 9345SOL     OW28933   6.968   2.689   0.537
 9345SOL    HW128934   6.889   2.633   0.562
 9345SOL    HW228935   6.955   2.725   0.445
 9346SOL     OW28936   5.967   6.794   0.785
 9346SOL    HW128937   5.926   6.753   0.867
 9346SOL    HW228938   5.924   6.883   0.767
 9347SOL     OW28939   1.219   6.492   1.833
 9347SOL    HW128940   1.146   6.424   1.828
 9347SOL    HW228941   1.267   6.484   1.920
 9348SOL     OW28942   2.713   4.906   0.208
 9348SOL    HW128943   2.785   4.927   0.142
 9348SOL    HW228944   2.676   4.991   0.245
 9349SOL     OW28945   2.062   6.035   2.499
 9349SOL    HW128946   2.137   5.988   2.452
 9349SOL    HW228947   1.984   6.043   2.437
 9350SOL     OW28948   0.336   2.831   5.769
 9350SOL    HW128949   0.321   2.920   5.812
 9350SOL    HW228950   0.359   2.844   5.672
 9351SOL     OW28951   2.521   1.352   6.829
 9351SOL    HW128952   2.549   1.423   6.764
 9351SOL    HW228953   2.449   1.388   6.888
 9352SOL     OW28954   2.165   4.856   5.669
 9352SOL    HW128955   2.085   4.798   5.657
 9352SOL    HW228956   2.148   4.920   5.745
 9353SOL     OW28957   6.060   1.133   0.727
 9353SOL    HW128958   6.096   1.051   0.771
 9353SOL    HW228959   6.048   1.205   0.796
 9354SOL     OW28960   0.786   1.891   6.235
 9354SOL    HW128961   0.851   1.903   6.309
 9354SOL    HW228962   0.819   1.938   6.153
 9355SOL     OW28963   0.823   1.653   4.853
 9355SOL    HW128964   0.781   1.571   4.892
 9355SOL    HW228965   0.923   1.641   4.852
 9356SOL     OW28966   5.316   6.930   3.718
 9356SOL    HW128967   5.380   6.970   3.653
 9356SOL    HW228968   5.345   6.837   3.741
 9357SOL     OW28969   1.146   1.408   0.157
 9357SOL    HW128970   1.046   1.410   0.149
 9357SOL    HW228971   1.186   1.387   0.068
 9358SOL     OW28972   1.166   2.436   1.629
 9358SOL    HW128973   1.183   2.513   1.567
 9358SOL    HW228974   1.237   2.435   1.700
 9359SOL     OW28975   0.980   6.800   5.560
 9359SOL    HW128976   1.063   6.853   5.543
 9359SOL    HW228977   0.909   6.859   5.598
 9360SOL     OW28978   0.604   0.263   6.100
 9360SOL    HW128979   0.543   0.198   6.146
 9360SOL    HW228980   0.688   0.273   6.153
 9361SOL     OW28981   2.265   5.487   4.296
 9361SOL    HW128982   2.226   5.568   4.254
 9361SOL    HW228983   2.362   5.504   4.316
 9362SOL     OW28984   2.318   0.893   2.125
 9362SOL    HW128985   2.341   0.941   2.209
 9362SOL    HW228986   2.273   0.806   2.147
 9363SOL     OW28987   1.900   4.890   2.714
 9363SOL    HW128988   1.953   4.931   2.640
 9363SOL    HW228989   1.905   4.791   2.708
 9364SOL     OW28990   0.579   2.762   0.539
 9364SOL    HW128991   0.487   2.750   0.504
 9364SOL    HW228992   0.626   2.673   0.541
 9365SOL     OW28993   3.189   0.898   4.905
 9365SOL    HW128994   3.275   0.889   4.955
 9365SOL    HW228995   3.156   0.992   4.911
 9366SOL     OW28996   4.094   6.248   2.717
 9366SOL    HW128997   4.172   6.254   2.779
 9366SOL    HW228998   4.105   6.313   2.642
 9367SOL     OW28999   6.595   1.385   1.163
 9367SOL    HW129000   6.498   1.360   1.158
 9367SOL    HW229001   6.641   1.361   1.078
 9368SOL     OW29002   2.802   0.362   2.836
 9368SOL    HW129003   2.853   0.293   2.886
 9368SOL    HW229004   2.782   0.439   2.897
 9369SOL     OW29005   3.617   5.252   0.216
 9369SOL    HW129006   3.687   5.237   0.146
 9369SOL    HW229007   3.622   5.178   0.284
 9370SOL     OW29008   4.483   1.871   5.102
 9370SOL    HW129009   4.434   1.817   5.170
 9370SOL    HW229010   4.562   1.821   5.069
 9371SOL     OW29011   4.391   5.157   0.806
 9371SOL    HW129012   4.433   5.122   0.722
 9371SOL    HW229013   4.457   5.151   0.881
 9372SOL     OW29014   4.257   5.574   1.477
 9372SOL    HW129015   4.167   5.559   1.437
 9372SOL    HW229016   4.292   5.663   1.449
 9373SOL     OW29017   6.744   3.182   0.934
 9373SOL    HW129018   6.834   3.163   0.896
 9373SOL    HW229019   6.677   3.119   0.894
 9374SOL     OW29020   0.107   5.362   6.248
 9374SOL    HW129021   0.049   5.356   6.168
 9374SOL    HW229022   0.121   5.271   6.287
 9375SOL     OW29023   0.788   1.082   6.924
 9375SOL    HW129024   0.755   1.131   6.844
 9375SOL    HW229025   0.724   1.008   6.947
 9376SOL     OW29026   2.470   3.771   1.255
 9376SOL    HW129027   2.549   3.831   1.274
 9376SOL    HW229028   2.396   3.825   1.217
 9377SOL     OW29029   2.087   0.822   3.411
 9377SOL    HW129030   2.134   0.895   3.363
 9377SOL    HW229031   2.097   0.834   3.510
 9378SOL     OW29032   3.858   0.802   4.990
 9378SOL    HW129033   3.920   0.829   5.065
 9378SOL    HW229034   3.893   0.839   4.904
 9379SOL     OW29035   4.391   6.985   4.455
 9379SOL    HW129036   4.396   6.937   4.368
 9379SOL    HW229037   4.448   6.938   4.523
 9380SOL     OW29038   5.027   5.423   0.640
 9380SOL    HW129039   4.948   5.479   0.665
 9380SOL    HW229040   5.071   5.461   0.558
 9381SOL     OW29041   5.565   0.785   5.375
 9381SOL    HW129042   5.580   0.688   5.354
 9381SOL    HW229043   5.534   0.793   5.470
 9382SOL     OW29044   3.243   5.149   5.856
 9382SOL    HW129045   3.265   5.246   5.843
 9382SOL    HW229046   3.286   5.095   5.783
 9383SOL     OW29047   5.579   4.017   2.588
 9383SOL    HW129048   5.541   4.058   2.505
 9383SOL    HW229049   5.512   3.953   2.627
 9384SOL     OW29050   3.629   0.146   1.429
 9384SOL    HW129051   3.568   0.191   1.494
 9384SOL    HW229052   3.633   0.199   1.344
 9385SOL     OW29053   4.089   1.581   4.523
 9385SOL    HW129054   4.175   1.625   4.500
 9385SOL    HW229055   4.106   1.490   4.561
 9386SOL     OW29056   5.005   6.409   1.336
 9386SOL    HW129057   5.031   6.449   1.424
 9386SOL    HW229058   5.070   6.437   1.266
 9387SOL     OW29059   2.494   1.648   6.646
 9387SOL    HW129060   2.446   1.634   6.560
 9387SOL    HW229061   2.428   1.656   6.720
 9388SOL     OW29062   2.463   0.236   5.222
 9388SOL    HW129063   2.512   0.301   5.164
 9388SOL    HW229064   2.528   0.189   5.282
 9389SOL     OW29065   2.000   3.834   1.754
 9389SOL    HW129066   1.983   3.921   1.800
 9389SOL    HW229067   1.984   3.844   1.656
 9390SOL     OW29068   4.867   4.330   4.335
 9390SOL    HW129069   4.823   4.419   4.322
 9390SOL    HW229070   4.889   4.317   4.432
 9391SOL     OW29071   1.521   3.895   4.694
 9391SOL    HW129072   1.522   3.796   4.676
 9391SOL    HW229073   1.582   3.941   4.630
 9392SOL     OW29074   5.157   4.532   2.647
 9392SOL    HW129075   5.169   4.433   2.659
 9392SOL    HW229076   5.247   4.576   2.650
 9393SOL     OW29077   1.505   6.013   6.038
 9393SOL    HW129078   1.450   5.939   5.999
 9393SOL    HW229079   1.488   6.098   5.987
 9394SOL     OW29080   4.203   0.450   0.363
 9394SOL    HW129081   4.245   0.539   0.347
 9394SOL    HW229082   4.239   0.411   0.448
 9395SOL     OW29083   1.526   1.240   1.221
 9395SOL    HW129084   1.610   1.290   1.241
 9395SOL    HW229085   1.477   1.286   1.147
 9396SOL     OW29086   0.758   0.961   6.258
 9396SOL    HW129087   0.770   0.997   6.350
 9396SOL    HW229088   0.848   0.939   6.219
 9397SOL     OW29089   3.832   1.268   4.821
 9397SOL    HW129090   3.851   1.289   4.725
 9397SOL    HW229091   3.854   1.172   4.839
 9398SOL     OW29092   0.570   2.254   0.525
 9398SOL    HW129093   0.492   2.240   0.585
 9398SOL    HW229094   0.592   2.169   0.477
 9399SOL     OW29095   0.600   2.332   4.327
 9399SOL    HW129096   0.655   2.270   4.271
 9399SOL    HW229097   0.580   2.415   4.275
 9400SOL     OW29098   5.537   1.733   0.988
 9400SOL    HW129099   5.567   1.739   1.084
 9400SOL    HW229100   5.441   1.761   0.982
 9401SOL     OW29101   0.150   2.512   3.487
 9401SOL    HW129102   0.134   2.425   3.440
 9401SOL    HW229103   0.234   2.506   3.541
 9402SOL     OW29104   2.418   6.537   4.461
 9402SOL    HW129105   2.463   6.624   4.441
 9402SOL    HW229106   2.322   6.542   4.434
 9403SOL     OW29107   5.535   2.150   1.011
 9403SOL    HW129108   5.565   2.081   0.945
 9403SOL    HW229109   5.613   2.181   1.064
 9404SOL     OW29110   2.279   2.957   1.156
 9404SOL    HW129111   2.197   3.004   1.189
 9404SOL    HW229112   2.255   2.866   1.123
 9405SOL     OW29113   6.366   6.215   5.408
 9405SOL    HW129114   6.319   6.148   5.350
 9405SOL    HW229115   6.322   6.305   5.398
 9406SOL     OW29116   1.331   2.024   0.290
 9406SOL    HW129117   1.342   2.098   0.224
 9406SOL    HW229118   1.346   1.936   0.246
 9407SOL     OW29119   1.501   4.539   4.734
 9407SOL    HW129120   1.546   4.548   4.823
 9407SOL    HW229121   1.438   4.462   4.736
 9408SOL     OW29122   6.017   4.685   4.338
 9408SOL    HW129123   5.983   4.591   4.344
 9408SOL    HW229124   6.033   4.722   4.429
 9409SOL     OW29125   6.047   5.413   2.054
 9409SOL    HW129126   5.963   5.441   2.006
 9409SOL    HW229127   6.076   5.487   2.115
 9410SOL     OW29128   4.148   0.621   0.652
 9410SOL    HW129129   4.213   0.650   0.722
 9410SOL    HW229130   4.188   0.634   0.562
 9411SOL     OW29131   3.099   4.014   3.398
 9411SOL    HW129132   3.079   4.014   3.496
 9411SOL    HW229133   3.197   4.026   3.385
 9412SOL     OW29134   4.827   6.776   1.548
 9412SOL    HW129135   4.798   6.701   1.488
 9412SOL    HW229136   4.785   6.861   1.517
 9413SOL     OW29137   4.719   4.214   2.995
 9413SOL    HW129138   4.677   4.241   2.908
 9413SOL    HW229139   4.677   4.264   3.070
 9414SOL     OW29140   2.416   2.261   2.532
 9414SOL    HW129141   2.359   2.319   2.474
 9414SOL    HW229142   2.507   2.302   2.541
 9415SOL     OW29143   5.588   0.158   1.719
 9415SOL    HW129144   5.500   0.113   1.730
 9415SOL    HW229145   5.622   0.142   1.626
 9416SOL     OW29146   5.911   5.393   5.378
 9416SOL    HW129147   5.946   5.368   5.469
 9416SOL    HW229148   5.987   5.425   5.322
 9417SOL     OW29149   3.509   5.614   2.554
 9417SOL    HW129150   3.590   5.673   2.562
 9417SOL    HW229151   3.448   5.631   2.631
 9418SOL     OW29152   3.010   1.925   4.885
 9418SOL    HW129153   2.923   1.950   4.843
 9418SOL    HW229154   3.033   1.831   4.862
 9419SOL     OW29155   2.286   2.867   6.824
 9419SOL    HW129156   2.331   2.870   6.735
 9419SOL    HW229157   2.227   2.787   6.829
 9420SOL     OW29158   5.847   3.877   5.405
 9420SOL    HW129159   5.911   3.908   5.475
 9420SOL    HW229160   5.849   3.778   5.398
 9421SOL     OW29161   3.777   6.217   6.536
 9421SOL    HW129162   3.760   6.183   6.443
 9421SOL    HW229163   3.792   6.139   6.597
 9422SOL     OW29164   2.512   6.389   5.557
 9422SOL    HW129165   2.521   6.455   5.482
 9422SOL    HW229166   2.479   6.437   5.639
 9423SOL     OW29167   4.178   5.175   1.610
 9423SOL    HW129168   4.105   5.209   1.551
 9423SOL    HW229169   4.235   5.251   1.640
 9424SOL     OW29170   0.155   0.658   4.401
 9424SOL    HW129171   0.129   0.576   4.350
 9424SOL    HW229172   0.188   0.632   4.491
 9425SOL     OW29173   6.703   4.164   0.633
 9425SOL    HW129174   6.623   4.185   0.577
 9425SOL    HW229175   6.696   4.069   0.665
 9426SOL     OW29176   4.538   2.866   6.400
 9426SOL    HW129177   4.489   2.798   6.346
 9426SOL    HW229178   4.516   2.856   6.497
 9427SOL     OW29179   4.490   4.750   2.308
 9427SOL    HW129180   4.555   4.818   2.276
 9427SOL    HW229181   4.452   4.700   2.229
 9428SOL     OW29182   1.055   6.155   5.898
 9428SOL    HW129183   1.016   6.068   5.871
 9428SOL    HW229184   1.052   6.218   5.820
 9429SOL     OW29185   3.155   2.110   4.335
 9429SOL    HW129186   3.109   2.080   4.419
 9429SOL    HW229187   3.253   2.114   4.351
 9430SOL     OW29188   1.885   0.798   4.350
 9430SOL    HW129189   1.871   0.790   4.251
 9430SOL    HW229190   1.977   0.834   4.367
 9431SOL     OW29191   0.856   4.257   5.504
 9431SOL    HW129192   0.904   4.313   5.571
 9431SOL    HW229193   0.894   4.273   5.413
 9432SOL     OW29194   6.974   1.448   3.962
 9432SOL    HW129195   0.029   1.387   3.961
 9432SOL    HW229196   6.908   1.417   4.031
 9433SOL     OW29197   4.513   5.629   2.128
 9433SOL    HW129198   4.464   5.542   2.125
 9433SOL    HW229199   4.571   5.638   2.047
 9434SOL     OW29200   4.088   5.437   4.458
 9434SOL    HW129201   4.140   5.416   4.541
 9434SOL    HW229202   4.083   5.356   4.400
 9435SOL     OW29203   6.028   4.079   0.812
 9435SOL    HW129204   5.929   4.092   0.803
 9435SOL    HW229205   6.050   4.059   0.907
 9436SOL     OW29206   2.957   0.774   3.224
 9436SOL    HW129207   2.863   0.788   3.256
 9436SOL    HW229208   3.016   0.757   3.303
 9437SOL     OW29209   5.491   0.520   4.632
 9437SOL    HW129210   5.469   0.570   4.549
 9437SOL    HW229211   5.410   0.517   4.691
 9438SOL     OW29212   4.864   0.495   2.552
 9438SOL    HW129213   4.884   0.559   2.627
 9438SOL    HW229214   4.780   0.523   2.506
 9439SOL     OW29215   1.822   4.332   1.093
 9439SOL    HW129216   1.872   4.373   1.169
 9439SOL    HW229217   1.872   4.253   1.059
 9440SOL     OW29218   1.669   5.527   4.297
 9440SOL    HW129219   1.634   5.467   4.224
 9440SOL    HW229220   1.727   5.473   4.358
 9441SOL     OW29221   0.467   6.481   4.592
 9441SOL    HW129222   0.523   6.560   4.568
 9441SOL    HW229223   0.426   6.443   4.509
 9442SOL     OW29224   5.701   3.028   1.104
 9442SOL    HW129225   5.768   3.092   1.066
 9442SOL    HW229226   5.656   3.070   1.183
 9443SOL     OW29227   2.646   4.353   1.461
 9443SOL    HW129228   2.569   4.349   1.525
 9443SOL    HW229229   2.624   4.303   1.378
 9444SOL     OW29230   1.683   5.424   6.515
 9444SOL    HW129231   1.650   5.485   6.443
 9444SOL    HW229232   1.783   5.426   6.517
 9445SOL     OW29233   0.291   1.036   3.947
 9445SOL    HW129234   0.195   1.063   3.956
 9445SOL    HW229235   0.330   1.021   4.037
 9446SOL     OW29236   6.389   4.291   4.354
 9446SOL    HW129237   6.440   4.362   4.306
 9446SOL    HW229238   6.337   4.332   4.429
 9447SOL     OW29239   5.210   5.036   1.956
 9447SOL    HW129240   5.219   5.122   2.008
 9447SOL    HW229241   5.290   4.979   1.973
 9448SOL     OW29242   5.302   2.099   6.459
 9448SOL    HW129243   5.300   2.000   6.441
 9448SOL    HW229244   5.350   2.116   6.545
 9449SOL     OW29245   5.076   0.102   1.857
 9449SOL    HW129246   5.122   0.013   1.866
 9449SOL    HW229247   4.985   0.089   1.820
 9450SOL     OW29248   1.252   6.940   3.125
 9450SOL    HW129249   1.236   7.001   3.047
 9450SOL    HW229250   1.165   6.922   3.171
 9451SOL     OW29251   3.825   4.801   0.170
 9451SOL    HW129252   3.832   4.704   0.150
 9451SOL    HW229253   3.899   4.828   0.231
 9452SOL     OW29254   5.998   4.222   5.999
 9452SOL    HW129255   6.059   4.296   6.027
 9452SOL    HW229256   5.977   4.230   5.902
 9453SOL     OW29257   5.991   4.404   1.958
 9453SOL    HW129258   6.058   4.434   1.890
 9453SOL    HW229259   5.981   4.305   1.954
 9454SOL     OW29260   6.144   5.287   1.089
 9454SOL    HW129261   6.181   5.357   1.028
 9454SOL    HW229262   6.067   5.324   1.140
 9455SOL     OW29263   4.041   0.672   1.288
 9455SOL    HW129264   4.127   0.636   1.324
 9455SOL    HW229265   4.027   0.637   1.195
 9456SOL     OW29266   6.697   2.286   2.966
 9456SOL    HW129267   6.617   2.239   3.003
 9456SOL    HW229268   6.777   2.226   2.971
 9457SOL     OW29269   6.610   6.034   3.741
 9457SOL    HW129270   6.517   6.024   3.779
 9457SOL    HW229271   6.658   5.947   3.749
 9458SOL     OW29272   5.939   4.183   0.399
 9458SOL    HW129273   6.006   4.112   0.421
 9458SOL    HW229274   5.882   4.152   0.323
 9459SOL     OW29275   4.642   4.315   4.764
 9459SOL    HW129276   4.570   4.248   4.746
 9459SOL    HW229277   4.608   4.407   4.742
 9460SOL     OW29278   1.528   2.626   2.164
 9460SOL    HW129279   1.540   2.719   2.131
 9460SOL    HW229280   1.600   2.567   2.127
 9461SOL     OW29281   2.198   1.564   1.602
 9461SOL    HW129282   2.296   1.541   1.599
 9461SOL    HW229283   2.188   1.663   1.605
 9462SOL     OW29284   6.749   1.526   5.563
 9462SOL    HW129285   6.778   1.435   5.593
 9462SOL    HW229286   6.824   1.591   5.576
 9463SOL     OW29287   6.449   4.483   0.696
 9463SOL    HW129288   6.496   4.539   0.764
 9463SOL    HW229289   6.406   4.405   0.740
 9464SOL     OW29290   1.011   0.674   1.448
 9464SOL    HW129291   1.090   0.729   1.474
 9464SOL    HW229292   1.036   0.577   1.451
 9465SOL     OW29293   6.499   5.648   0.320
 9465SOL    HW129294   6.469   5.709   0.247
 9465SOL    HW229295   6.558   5.697   0.383
 9466SOL     OW29296   4.580   3.949   5.441
 9466SOL    HW129297   4.541   3.867   5.397
 9466SOL    HW229298   4.507   4.017   5.455
 9467SOL     OW29299   1.255   3.872   0.725
 9467SOL    HW129300   1.348   3.839   0.706
 9467SOL    HW229301   1.212   3.814   0.794
 9468SOL     OW29302   6.364   1.569   1.223
 9468SOL    HW129303   6.354   1.498   1.153
 9468SOL    HW229304   6.314   1.543   1.305
 9469SOL     OW29305   6.823   6.789   1.518
 9469SOL    HW129306   6.754   6.765   1.450
 9469SOL    HW229307   6.862   6.878   1.497
 9470SOL     OW29308   3.851   2.886   0.538
 9470SOL    HW129309   3.871   2.874   0.635
 9470SOL    HW229310   3.804   2.804   0.503
 9471SOL     OW29311   6.555   2.998   4.910
 9471SOL    HW129312   6.541   2.985   5.008
 9471SOL    HW229313   6.473   2.969   4.861
 9472SOL     OW29314   1.502   3.248   5.685
 9472SOL    HW129315   1.525   3.195   5.766
 9472SOL    HW229316   1.499   3.345   5.708
 9473SOL     OW29317   3.298   3.651   1.123
 9473SOL    HW129318   3.390   3.612   1.117
 9473SOL    HW229319   3.291   3.706   1.206
 9474SOL     OW29320   5.731   4.454   1.049
 9474SOL    HW129321   5.680   4.408   0.976
 9474SOL    HW229322   5.779   4.533   1.010
 9475SOL     OW29323   5.354   3.640   6.178
 9475SOL    HW129324   5.299   3.588   6.243
 9475SOL    HW229325   5.441   3.593   6.162
 9476SOL     OW29326   3.955   4.106   1.182
 9476SOL    HW129327   3.965   4.182   1.117
 9476SOL    HW229328   4.005   4.129   1.266
 9477SOL     OW29329   1.395   4.706   0.915
 9477SOL    HW129330   1.461   4.702   0.839
 9477SOL    HW229331   1.441   4.681   1.000
 9478SOL     OW29332   6.167   3.855   6.145
 9478SOL    HW129333   6.127   3.824   6.231
 9478SOL    HW229334   6.256   3.811   6.131
 9479SOL     OW29335   3.922   1.042   2.554
 9479SOL    HW129336   3.983   1.110   2.514
 9479SOL    HW229337   3.944   0.951   2.517
 9480SOL     OW29338   5.522   0.455   0.652
 9480SOL    HW129339   5.423   0.444   0.646
 9480SOL    HW229340   5.557   0.494   0.566
 9481SOL     OW29341   4.959   0.638   3.322
 9481SOL    HW129342   5.026   0.565   3.334
 9481SOL    HW229343   4.937   0.678   3.411
 9482SOL     OW29344   6.056   4.869   5.326
 9482SOL    HW129345   6.058   4.780   5.282
 9482SOL    HW229346   5.975   4.876   5.384
 9483SOL     OW29347   6.077   5.663   6.664
 9483SOL    HW129348   6.011   5.698   6.598
 9483SOL    HW229349   6.102   5.569   6.641
 9484SOL     OW29350   2.219   6.158   4.582
 9484SOL    HW129351   2.267   6.118   4.660
 9484SOL    HW229352   2.285   6.206   4.524
 9485SOL     OW29353   0.795   1.395   4.928
 9485SOL    HW129354   0.891   1.373   4.915
 9485SOL    HW229355   0.738   1.320   4.894
 9486SOL     OW29356   6.520   5.795   6.323
 9486SOL    HW129357   6.492   5.719   6.264
 9486SOL    HW229358   6.557   5.759   6.409
 9487SOL     OW29359   3.420   3.767   3.321
 9487SOL    HW129360   3.389   3.860   3.342
 9487SOL    HW229361   3.505   3.748   3.370
 9488SOL     OW29362   2.050   1.131   1.645
 9488SOL    HW129363   2.057   1.220   1.599
 9488SOL    HW229364   2.131   1.117   1.702
 9489SOL     OW29365   6.306   3.992   0.055
 9489SOL    HW129366   6.399   4.022   0.033
 9489SOL    HW229367   6.309   3.927   0.131
 9490SOL     OW29368   5.534   3.202   4.404
 9490SOL    HW129369   5.556   3.143   4.327
 9490SOL    HW229370   5.596   3.281   4.405
 9491SOL     OW29371   5.850   7.011   2.810
 9491SOL    HW129372   5.829   6.959   2.892
 9491SOL    HW229373   5.889   6.950   2.740
 9492SOL     OW29374   4.516   2.524   3.808
 9492SOL    HW129375   4.460   2.495   3.885
 9492SOL    HW229376   4.610   2.538   3.839
 9493SOL     OW29377   3.504   6.007   2.108
 9493SOL    HW129378   3.444   6.087   2.106
 9493SOL    HW229379   3.480   5.949   2.185
 9494SOL     OW29380   5.237   2.555   2.109
 9494SOL    HW129381   5.215   2.612   2.188
 9494SOL    HW229382   5.322   2.505   2.128
 9495SOL     OW29383   5.594   2.755   1.263
 9495SOL    HW129384   5.637   2.817   1.198
 9495SOL    HW229385   5.652   2.747   1.345
 9496SOL     OW29386   5.928   3.169   1.053
 9496SOL    HW129387   5.991   3.117   1.110
 9496SOL    HW229388   5.973   3.252   1.020
 9497SOL     OW29389   4.895   5.237   5.314
 9497SOL    HW129390   4.845   5.209   5.395
 9497SOL    HW229391   4.973   5.294   5.340
 9498SOL     OW29392   0.940   5.979   5.352
 9498SOL    HW129393   0.943   5.918   5.273
 9498SOL    HW229394   0.845   6.005   5.370
 9499SOL     OW29395   5.916   6.410   4.232
 9499SOL    HW129396   5.989   6.372   4.175
 9499SOL    HW229397   5.934   6.386   4.328
 9500SOL     OW29398   2.977   1.662   0.554
 9500SOL    HW129399   2.909   1.686   0.624
 9500SOL    HW229400   3.035   1.588   0.588
 9501SOL     OW29401   2.083   4.001   5.560
 9501SOL    HW129402   2.105   4.063   5.635
 9501SOL    HW229403   2.167   3.963   5.522
 9502SOL     OW29404   6.038   4.542   3.981
 9502SOL    HW129405   6.019   4.577   3.890
 9502SOL    HW229406   5.952   4.531   4.032
 9503SOL     OW29407   5.737   1.093   0.203
 9503SOL    HW129408   5.691   1.162   0.260
 9503SOL    HW229409   5.825   1.069   0.245
 9504SOL     OW29410   6.074   5.698   2.185
 9504SOL    HW129411   6.172   5.714   2.190
 9504SOL    HW229412   6.032   5.722   2.273
 9505SOL     OW29413   4.547   3.937   6.588
 9505SOL    HW129414   4.500   3.945   6.500
 9505SOL    HW229415   4.585   4.026   6.613
 9506SOL     OW29416   3.167   1.082   1.551
 9506SOL    HW129417   3.259   1.112   1.578
 9506SOL    HW229418   3.102   1.155   1.568
 9507SOL     OW29419   6.265   6.632   1.752
 9507SOL    HW129420   6.171   6.665   1.741
 9507SOL    HW229421   6.266   6.532   1.752
 9508SOL     OW29422   4.595   0.494   2.447
 9508SOL    HW129423   4.609   0.571   2.384
 9508SOL    HW229424   4.536   0.426   2.405
 9509SOL     OW29425   5.481   1.171   3.133
 9509SOL    HW129426   5.540   1.250   3.122
 9509SOL    HW229427   5.397   1.184   3.079
 9510SOL     OW29428   1.796   2.888   2.864
 9510SOL    HW129429   1.805   2.856   2.959
 9510SOL    HW229430   1.868   2.846   2.809
 9511SOL     OW29431   0.894   1.504   1.040
 9511SOL    HW129432   0.944   1.552   0.967
 9511SOL    HW229433   0.798   1.497   1.014
 9512SOL     OW29434   6.546   1.757   1.970
 9512SOL    HW129435   6.574   1.851   1.989
 9512SOL    HW229436   6.621   1.695   1.995
 9513SOL     OW29437   4.847   3.920   5.133
 9513SOL    HW129438   4.846   4.002   5.191
 9513SOL    HW229439   4.887   3.942   5.044
 9514SOL     OW29440   3.493   2.941   0.993
 9514SOL    HW129441   3.410   2.926   1.048
 9514SOL    HW229442   3.467   2.981   0.905
 9515SOL     OW29443   0.414   5.590   3.148
 9515SOL    HW129444   0.322   5.626   3.134
 9515SOL    HW229445   0.481   5.660   3.124
 9516SOL     OW29446   0.752   3.851   6.249
 9516SOL    HW129447   0.817   3.797   6.194
 9516SOL    HW229448   0.664   3.804   6.251
 9517SOL     OW29449   6.996   7.016   1.507
 9517SOL    HW129450   0.057   7.007   1.454
 9517SOL    HW229451   7.018   7.015   1.605
 9518SOL     OW29452   0.519   1.161   1.404
 9518SOL    HW129453   0.595   1.211   1.444
 9518SOL    HW229454   0.544   1.065   1.392
 9519SOL     OW29455   1.235   2.584   5.211
 9519SOL    HW129456   1.333   2.579   5.233
 9519SOL    HW229457   1.218   2.660   5.148
 9520SOL     OW29458   4.311   6.523   1.762
 9520SOL    HW129459   4.283   6.473   1.844
 9520SOL    HW229460   4.303   6.462   1.683
 9521SOL     OW29461   5.559   4.675   3.233
 9521SOL    HW129462   5.596   4.628   3.313
 9521SOL    HW229463   5.459   4.676   3.238
 9522SOL     OW29464   3.011   4.928   6.554
 9522SOL    HW129465   3.107   4.902   6.550
 9522SOL    HW229466   2.979   4.955   6.463
 9523SOL     OW29467   2.217   6.483   5.406
 9523SOL    HW129468   2.183   6.562   5.456
 9523SOL    HW229469   2.230   6.507   5.310
 9524SOL     OW29470   5.071   3.222   0.292
 9524SOL    HW129471   5.075   3.258   0.199
 9524SOL    HW229472   5.094   3.125   0.291
 9525SOL     OW29473   4.112   0.008   4.440
 9525SOL    HW129474   4.212   0.008   4.444
 9525SOL    HW229475   4.075   0.062   4.516
 9526SOL     OW29476   4.770   5.951   1.212
 9526SOL    HW129477   4.675   5.934   1.240
 9526SOL    HW229478   4.832   5.912   1.280
 9527SOL     OW29479   0.409   2.334   0.339
 9527SOL    HW129480   0.477   2.318   0.410
 9527SOL    HW229481   0.438   2.411   0.281
 9528SOL     OW29482   6.933   1.133   1.529
 9528SOL    HW129483   6.997   1.123   1.453
 9528SOL    HW229484   6.843   1.158   1.494
 9529SOL     OW29485   1.765   2.996   5.055
 9529SOL    HW129486   1.832   2.946   5.108
 9529SOL    HW229487   1.805   3.023   4.967
 9530SOL     OW29488   2.381   1.574   3.938
 9530SOL    HW129489   2.373   1.478   3.963
 9530SOL    HW229490   2.477   1.600   3.935
 9531SOL     OW29491   2.978   6.630   3.740
 9531SOL    HW129492   3.075   6.616   3.759
 9531SOL    HW229493   2.927   6.550   3.771
 9532SOL     OW29494   3.270   1.471   2.309
 9532SOL    HW129495   3.266   1.550   2.370
 9532SOL    HW229496   3.181   1.458   2.265
 9533SOL     OW29497   1.022   1.464   4.647
 9533SOL    HW129498   1.048   1.550   4.691
 9533SOL    HW229499   0.925   1.467   4.623
 9534SOL     OW29500   5.712   1.993   4.874
 9534SOL    HW129501   5.741   1.899   4.858
 9534SOL    HW229502   5.791   2.048   4.902
 9535SOL     OW29503   3.400   1.574   4.749
 9535SOL    HW129504   3.446   1.658   4.779
 9535SOL    HW229505   3.350   1.593   4.664
 9536SOL     OW29506   2.299   0.156   6.137
 9536SOL    HW129507   2.269   0.242   6.177
 9536SOL    HW229508   2.395   0.163   6.111
 9537SOL     OW29509   2.404   0.308   0.279
 9537SOL    HW129510   2.456   0.271   0.356
 9537SOL    HW229511   2.379   0.234   0.217
 9538SOL     OW29512   5.746   3.774   2.935
 9538SOL    HW129513   5.782   3.839   2.868
 9538SOL    HW229514   5.677   3.716   2.893
 9539SOL     OW29515   6.973   4.004   6.576
 9539SOL    HW129516   6.973   3.924   6.636
 9539SOL    HW229517   0.022   4.066   6.603
 9540SOL     OW29518   5.535   3.547   5.682
 9540SOL    HW129519   5.554   3.622   5.746
 9540SOL    HW229520   5.615   3.533   5.624
 9541SOL     OW29521   6.911   2.094   3.432
 9541SOL    HW129522   6.812   2.101   3.445
 9541SOL    HW229523   6.938   1.998   3.423
 9542SOL     OW29524   4.556   4.433   4.355
 9542SOL    HW129525   4.532   4.336   4.349
 9542SOL    HW229526   4.473   4.487   4.368
 9543SOL     OW29527   4.151   2.831   0.870
 9543SOL    HW129528   4.211   2.844   0.791
 9543SOL    HW229529   4.146   2.916   0.922
 9544SOL     OW29530   4.419   0.797   1.078
 9544SOL    HW129531   4.370   0.883   1.062
 9544SOL    HW229532   4.417   0.742   0.995
 9545SOL     OW29533   1.220   6.612   4.717
 9545SOL    HW129534   1.158   6.685   4.747
 9545SOL    HW229535   1.276   6.645   4.641
 9546SOL     OW29536   2.571   4.517   1.878
 9546SOL    HW129537   2.667   4.512   1.906
 9546SOL    HW229538   2.518   4.556   1.953
 9547SOL     OW29539   5.575   5.525   3.681
 9547SOL    HW129540   5.590   5.569   3.592
 9547SOL    HW229541   5.637   5.566   3.748
 9548SOL     OW29542   5.783   0.047   2.403
 9548SOL    HW129543   5.843   6.999   2.367
 9548SOL    HW229544   5.707   0.004   2.453
 9549SOL     OW29545   2.133   5.951   0.267
 9549SOL    HW129546   2.039   5.937   0.298
 9549SOL    HW229547   2.178   5.862   0.257
 9550SOL     OW29548   1.296   1.108   0.129
 9550SOL    HW129549   1.354   1.031   0.156
 9550SOL    HW229550   1.344   1.194   0.147
 9551SOL     OW29551   1.260   5.772   5.056
 9551SOL    HW129552   1.170   5.807   5.082
 9551SOL    HW229553   1.320   5.849   5.032
 9552SOL     OW29554   0.454   5.211   2.956
 9552SOL    HW129555   0.499   5.255   2.879
 9552SOL    HW229556   0.387   5.274   2.996
 9553SOL     OW29557   5.703   4.940   6.638
 9553SOL    HW129558   5.624   4.968   6.692
 9553SOL    HW229559   5.709   4.840   6.638
 9554SOL     OW29560   2.309   1.888   1.880
 9554SOL    HW129561   2.380   1.916   1.944
 9554SOL    HW229562   2.261   1.969   1.846
 9555SOL     OW29563   6.596   2.766   6.440
 9555SOL    HW129564   6.641   2.805   6.521
 9555SOL    HW229565   6.504   2.735   6.465
 9556SOL     OW29566   6.778   0.933   0.986
 9556SOL    HW129567   6.701   0.934   1.049
 9556SOL    HW229568   6.752   0.977   0.900
 9557SOL     OW29569   4.742   0.907   1.961
 9557SOL    HW129570   4.662   0.923   1.903
 9557SOL    HW229571   4.723   0.942   2.053
 9558SOL     OW29572   6.769   3.362   1.529
 9558SOL    HW129573   6.740   3.458   1.530
 9558SOL    HW229574   6.791   3.335   1.436
 9559SOL     OW29575   0.781   4.216   2.700
 9559SOL    HW129576   0.810   4.171   2.784
 9559SOL    HW229577   0.693   4.260   2.714
 9560SOL     OW29578   3.663   2.525   5.713
 9560SOL    HW129579   3.631   2.468   5.789
 9560SOL    HW229580   3.744   2.484   5.673
 9561SOL     OW29581   3.236   5.641   6.283
 9561SOL    HW129582   3.257   5.710   6.353
 9561SOL    HW229583   3.307   5.572   6.281
 9562SOL     OW29584   5.952   5.139   4.272
 9562SOL    HW129585   6.003   5.183   4.198
 9562SOL    HW229586   5.899   5.207   4.322
 9563SOL     OW29587   0.330   6.709   6.794
 9563SOL    HW129588   0.306   6.752   6.881
 9563SOL    HW229589   0.264   6.637   6.773
 9564SOL     OW29590   1.372   1.047   5.897
 9564SOL    HW129591   1.344   1.029   5.802
 9564SOL    HW229592   1.300   1.097   5.944
 9565SOL     OW29593   2.840   5.575   5.390
 9565SOL    HW129594   2.741   5.563   5.402
 9565SOL    HW229595   2.868   5.662   5.430
 9566SOL     OW29596   2.891   4.388   5.693
 9566SOL    HW129597   2.814   4.413   5.753
 9566SOL    HW229598   2.963   4.345   5.748
 9567SOL     OW29599   5.842   5.012   4.821
 9567SOL    HW129600   5.892   5.043   4.902
 9567SOL    HW229601   5.867   5.068   4.742
 9568SOL     OW29602   5.896   3.795   5.842
 9568SOL    HW129603   5.934   3.737   5.771
 9568SOL    HW229604   5.921   3.758   5.932
 9569SOL     OW29605   6.142   0.168   1.376
 9569SOL    HW129606   6.061   0.222   1.399
 9569SOL    HW229607   6.178   0.126   1.459
 9570SOL     OW29608   1.136   2.104   6.791
 9570SOL    HW129609   1.214   2.052   6.756
 9570SOL    HW229610   1.135   2.195   6.747
 9571SOL     OW29611   3.065   1.833   0.832
 9571SOL    HW129612   2.966   1.836   0.818
 9571SOL    HW229613   3.085   1.837   0.930
 9572SOL     OW29614   0.302   3.706   0.836
 9572SOL    HW129615   0.300   3.797   0.796
 9572SOL    HW229616   0.220   3.691   0.890
 9573SOL     OW29617   5.066   1.208   2.804
 9573SOL    HW129618   5.063   1.300   2.764
 9573SOL    HW229619   5.025   1.210   2.895
 9574SOL     OW29620   2.867   2.335   3.775
 9574SOL    HW129621   2.814   2.367   3.853
 9574SOL    HW229622   2.839   2.386   3.693
 9575SOL     OW29623   3.692   1.493   3.349
 9575SOL    HW129624   3.670   1.565   3.415
 9575SOL    HW229625   3.704   1.532   3.258
 9576SOL     OW29626   3.628   3.505   5.515
 9576SOL    HW129627   3.688   3.507   5.595
 9576SOL    HW229628   3.573   3.589   5.513
 9577SOL     OW29629   0.869   5.540   3.738
 9577SOL    HW129630   0.783   5.490   3.723
 9577SOL    HW229631   0.884   5.603   3.662
 9578SOL     OW29632   7.019   3.976   0.872
 9578SOL    HW129633   0.085   4.019   0.864
 9578SOL    HW229634   0.003   3.878   0.858
 9579SOL     OW29635   1.732   5.000   2.899
 9579SOL    HW129636   1.740   4.950   2.986
 9579SOL    HW229637   1.775   4.947   2.826
 9580SOL     OW29638   4.248   3.556   5.968
 9580SOL    HW129639   4.249   3.655   5.962
 9580SOL    HW229640   4.165   3.520   5.924
 9581SOL     OW29641   1.066   5.653   5.856
 9581SOL    HW129642   1.138   5.642   5.788
 9581SOL    HW229643   1.100   5.624   5.946
 9582SOL     OW29644   4.136   5.661   2.857
 9582SOL    HW129645   4.174   5.666   2.764
 9582SOL    HW229646   4.111   5.753   2.887
 9583SOL     OW29647   1.507   4.840   1.888
 9583SOL    HW129648   1.482   4.866   1.794
 9583SOL    HW229649   1.605   4.850   1.900
 9584SOL     OW29650   5.259   4.401   0.414
 9584SOL    HW129651   5.210   4.425   0.330
 9584SOL    HW229652   5.357   4.398   0.396
 9585SOL     OW29653   6.559   1.103   3.018
 9585SOL    HW129654   6.624   1.166   3.061
 9585SOL    HW229655   6.551   1.020   3.073
 9586SOL     OW29656   5.269   3.946   2.525
 9586SOL    HW129657   5.280   3.935   2.426
 9586SOL    HW229658   5.185   3.997   2.544
 9587SOL     OW29659   4.315   6.293   1.615
 9587SOL    HW129660   4.232   6.242   1.594
 9587SOL    HW229661   4.367   6.308   1.532
 9588SOL     OW29662   6.202   0.961   3.552
 9588SOL    HW129663   6.205   1.046   3.498
 9588SOL    HW229664   6.274   0.963   3.621
 9589SOL     OW29665   3.592   1.854   5.330
 9589SOL    HW129666   3.539   1.862   5.246
 9589SOL    HW229667   3.554   1.915   5.399
 9590SOL     OW29668   0.247   4.837   4.225
 9590SOL    HW129669   0.300   4.809   4.305
 9590SOL    HW229670   0.262   4.773   4.150
 9591SOL     OW29671   0.514   4.667   1.996
 9591SOL    HW129672   0.502   4.568   1.987
 9591SOL    HW229673   0.560   4.702   1.914
 9592SOL     OW29674   3.810   5.828   0.376
 9592SOL    HW129675   3.862   5.836   0.461
 9592SOL    HW229676   3.747   5.750   0.383
 9593SOL     OW29677   2.046   1.670   3.633
 9593SOL    HW129678   2.055   1.582   3.588
 9593SOL    HW229679   2.093   1.740   3.579
 9594SOL     OW29680   5.902   0.239   1.119
 9594SOL    HW129681   5.830   0.276   1.061
 9594SOL    HW229682   5.885   0.264   1.215
 9595SOL     OW29683   1.198   5.595   5.253
 9595SOL    HW129684   1.222   5.633   5.164
 9595SOL    HW229685   1.173   5.668   5.316
 9596SOL     OW29686   5.287   6.019   2.022
 9596SOL    HW129687   5.385   6.035   2.013
 9596SOL    HW229688   5.258   6.043   2.115
 9597SOL     OW29689   2.728   5.015   1.678
 9597SOL    HW129690   2.828   5.011   1.682
 9597SOL    HW229691   2.695   5.078   1.748
 9598SOL     OW29692   0.006   6.058   6.152
 9598SOL    HW129693   6.936   6.032   6.176
 9598SOL    HW229694   0.058   6.077   6.235
 9599SOL     OW29695   3.784   2.134   5.150
 9599SOL    HW129696   3.764   2.039   5.172
 9599SOL    HW229697   3.785   2.189   5.234
 9600SOL     OW29698   1.759   6.407   6.976
 9600SOL    HW129699   1.806   6.485   6.934
 9600SOL    HW229700   1.808   6.323   6.953
 9601SOL     OW29701   0.682   6.892   4.999
 9601SOL    HW129702   0.715   6.941   5.080
 9601SOL    HW229703   0.738   6.810   4.985
 9602SOL     OW29704   1.191   5.248   6.229
 9602SOL    HW129705   1.167   5.259   6.325
 9602SOL    HW229706   1.168   5.332   6.179
 9603SOL     OW29707   1.058   5.354   1.982
 9603SOL    HW129708   1.105   5.383   1.899
 9603SOL    HW229709   1.111   5.283   2.028
 9604SOL     OW29710   0.400   0.414   6.718
 9604SOL    HW129711   0.301   0.430   6.725
 9604SOL    HW229712   0.430   0.437   6.625
 9605SOL     OW29713   3.498   4.670   1.409
 9605SOL    HW129714   3.537   4.579   1.424
 9605SOL    HW229715   3.489   4.717   1.497
 9606SOL     OW29716   6.755   0.491   5.147
 9606SOL    HW129717   6.739   0.474   5.244
 9606SOL    HW229718   6.672   0.527   5.104
 9607SOL     OW29719   0.384   2.202   3.033
 9607SOL    HW129720   0.303   2.165   2.987
 9607SOL    HW229721   0.405   2.146   3.113
 9608SOL     OW29722   6.040   0.971   1.477
 9608SOL    HW129723   6.041   0.968   1.577
 9608SOL    HW229724   6.115   0.916   1.442
 9609SOL     OW29725   1.317   2.084   3.780
 9609SOL    HW129726   1.387   2.040   3.724
 9609SOL    HW229727   1.329   2.059   3.876
 9610SOL     OW29728   4.577   0.781   5.297
 9610SOL    HW129729   4.659   0.825   5.261
 9610SOL    HW229730   4.500   0.845   5.293
 9611SOL     OW29731   4.842   5.209   0.875
 9611SOL    HW129732   4.914   5.269   0.912
 9611SOL    HW229733   4.815   5.241   0.785
 9612SOL     OW29734   5.686   3.059   3.747
 9612SOL    HW129735   5.608   3.107   3.787
 9612SOL    HW229736   5.768   3.116   3.755
 9613SOL     OW29737   5.509   0.674   4.886
 9613SOL    HW129738   5.480   0.588   4.928
 9613SOL    HW229739   5.527   0.659   4.789
 9614SOL     OW29740   2.572   2.661   0.672
 9614SOL    HW129741   2.562   2.638   0.575
 9614SOL    HW229742   2.550   2.581   0.727
 9615SOL     OW29743   0.237   5.156   3.766
 9615SOL    HW129744   0.287   5.071   3.775
 9615SOL    HW229745   0.263   5.219   3.840
 9616SOL     OW29746   1.197   2.059   0.722
 9616SOL    HW129747   1.202   2.045   0.821
 9616SOL    HW229748   1.209   1.971   0.676
 9617SOL     OW29749   0.560   2.491   3.287
 9617SOL    HW129750   0.611   2.568   3.327
 9617SOL    HW229751   0.498   2.526   3.217
 9618SOL     OW29752   4.896   4.068   2.077
 9618SOL    HW129753   4.842   4.026   2.004
 9618SOL    HW229754   4.957   4.136   2.037
 9619SOL     OW29755   0.489   0.023   0.925
 9619SOL    HW129756   0.515   0.112   0.961
 9619SOL    HW229757   0.554   7.019   0.854
 9620SOL     OW29758   4.108   0.935   6.910
 9620SOL    HW129759   4.034   1.001   6.920
 9620SOL    HW229760   4.084   0.850   6.958
 9621SOL     OW29761   0.253   1.144   1.423
 9621SOL    HW129762   0.254   1.135   1.522
 9621SOL    HW229763   0.347   1.154   1.390
 9622SOL     OW29764   6.286   6.454   5.300
 9622SOL    HW129765   6.357   6.435   5.231
 9622SOL    HW229766   6.274   6.552   5.310
 9623SOL     OW29767   2.857   6.200   6.048
 9623SOL    HW129768   2.938   6.232   6.098
 9623SOL    HW229769   2.872   6.106   6.016
 9624SOL     OW29770   4.741   5.721   5.777
 9624SOL    HW129771   4.781   5.716   5.686
 9624SOL    HW229772   4.677   5.644   5.789
 9625SOL     OW29773   4.751   4.500   6.007
 9625SOL    HW129774   4.763   4.589   5.964
 9625SOL    HW229775   4.784   4.428   5.946
 9626SOL     OW29776   2.326   2.761   6.342
 9626SOL    HW129777   2.342   2.855   6.312
 9626SOL    HW229778   2.368   2.697   6.277
 9627SOL     OW29779   0.103   5.766   0.743
 9627SOL    HW129780   0.099   5.851   0.691
 9627SOL    HW229781   0.124   5.690   0.681
 9628SOL     OW29782   5.835   0.984   5.717
 9628SOL    HW129783   5.803   0.966   5.624
 9628SOL    HW229784   5.851   1.082   5.730
 9629SOL     OW29785   0.919   5.725   3.922
 9629SOL    HW129786   0.979   5.662   3.971
 9629SOL    HW229787   0.855   5.673   3.865
 9630SOL     OW29788   5.631   0.524   6.570
 9630SOL    HW129789   5.655   0.431   6.540
 9630SOL    HW229790   5.684   0.547   6.652
 9631SOL     OW29791   4.491   6.047   0.780
 9631SOL    HW129792   4.433   5.996   0.717
 9631SOL    HW229793   4.560   6.097   0.729
 9632SOL     OW29794   2.810   5.370   3.189
 9632SOL    HW129795   2.723   5.371   3.239
 9632SOL    HW229796   2.844   5.276   3.182
 9633SOL     OW29797   3.494   2.933   5.106
 9633SOL    HW129798   3.472   3.017   5.156
 9633SOL    HW229799   3.505   2.857   5.171
 9634SOL     OW29800   5.788   4.424   2.457
 9634SOL    HW129801   5.823   4.344   2.506
 9634SOL    HW229802   5.848   4.445   2.380
 9635SOL     OW29803   0.431   4.820   4.437
 9635SOL    HW129804   0.500   4.877   4.393
 9635SOL    HW229805   0.452   4.810   4.534
 9636SOL     OW29806   5.422   3.321   3.916
 9636SOL    HW129807   5.421   3.225   3.942
 9636SOL    HW229808   5.516   3.356   3.917
 9637SOL     OW29809   1.620   3.373   7.014
 9637SOL    HW129810   1.624   3.473   7.019
 9637SOL    HW229811   1.536   3.345   6.969
 9638SOL     OW29812   6.620   4.466   5.545
 9638SOL    HW129813   6.672   4.421   5.618
 9638SOL    HW229814   6.607   4.562   5.568
 9639SOL     OW29815   4.960   2.598   1.214
 9639SOL    HW129816   4.873   2.579   1.168
 9639SOL    HW229817   4.970   2.539   1.294
 9640SOL     OW29818   3.525   6.985   3.533
 9640SOL    HW129819   3.472   0.005   3.606
 9640SOL    HW229820   3.476   6.992   3.447
 9641SOL     OW29821   0.544   3.431   4.386
 9641SOL    HW129822   0.601   3.404   4.464
 9641SOL    HW229823   0.505   3.522   4.403
 9642SOL     OW29824   0.756   3.056   4.807
 9642SOL    HW129825   0.745   2.986   4.878
 9642SOL    HW229826   0.848   3.095   4.813
 9643SOL     OW29827   5.452   5.000   4.252
 9643SOL    HW129828   5.353   4.987   4.257
 9643SOL    HW229829   5.497   4.913   4.235
 9644SOL     OW29830   0.972   4.779   3.964
 9644SOL    HW129831   0.917   4.767   3.882
 9644SOL    HW229832   1.058   4.825   3.940
 9645SOL     OW29833   1.400   5.078   6.737
 9645SOL    HW129834   1.414   5.157   6.797
 9645SOL    HW229835   1.487   5.053   6.694
 9646SOL     OW29836   2.936   5.200   0.847
 9646SOL    HW129837   2.875   5.152   0.910
 9646SOL    HW229838   2.929   5.299   0.862
 9647SOL     OW29839   6.135   6.963   3.036
 9647SOL    HW129840   6.202   7.010   3.092
 9647SOL    HW229841   6.094   0.004   2.971
 9648SOL     OW29842   3.232   1.851   1.467
 9648SOL    HW129843   3.176   1.894   1.395
 9648SOL    HW229844   3.253   1.919   1.537
 9649SOL     OW29845   6.545   6.317   1.287
 9649SOL    HW129846   6.639   6.351   1.286
 9649SOL    HW229847   6.493   6.360   1.213
 9650SOL     OW29848   0.699   4.973   4.828
 9650SOL    HW129849   0.616   4.967   4.883
 9650SOL    HW229850   0.777   4.939   4.881
 9651SOL     OW29851   3.900   1.786   6.980
 9651SOL    HW129852   3.955   1.858   7.022
 9651SOL    HW229853   3.810   1.823   6.958
 9652SOL     OW29854   6.962   3.446   0.345
 9652SOL    HW129855   6.949   3.474   0.250
 9652SOL    HW229856   6.947   3.347   0.353
 9653SOL     OW29857   5.280   4.535   5.046
 9653SOL    HW129858   5.220   4.608   5.076
 9653SOL    HW229859   5.284   4.534   4.946
 9654SOL     OW29860   3.883   3.904   3.857
 9654SOL    HW129861   3.896   3.930   3.761
 9654SOL    HW229862   3.817   3.829   3.862
 9655SOL     OW29863   5.218   0.823   1.320
 9655SOL    HW129864   5.306   0.777   1.313
 9655SOL    HW229865   5.200   0.845   1.416
 9656SOL     OW29866   4.805   4.543   6.639
 9656SOL    HW129867   4.723   4.490   6.617
 9656SOL    HW229868   4.818   4.544   6.739
 9657SOL     OW29869   5.030   4.867   3.051
 9657SOL    HW129870   5.020   4.770   3.025
 9657SOL    HW229871   4.960   4.920   3.004
 9658SOL     OW29872   5.733   0.997   2.343
 9658SOL    HW129873   5.817   1.002   2.397
 9658SOL    HW229874   5.737   0.918   2.283
 9659SOL     OW29875   3.423   3.100   0.056
 9659SOL    HW129876   3.331   3.060   0.049
 9659SOL    HW229877   3.446   3.114   0.152
 9660SOL     OW29878   1.784   6.751   1.174
 9660SOL    HW129879   1.862   6.808   1.202
 9660SOL    HW229880   1.703   6.777   1.226
 9661SOL     OW29881   4.107   3.744   1.976
 9661SOL    HW129882   4.111   3.805   2.055
 9661SOL    HW229883   4.166   3.780   1.903
 9662SOL     OW29884   4.610   6.890   5.580
 9662SOL    HW129885   4.602   6.971   5.637
 9662SOL    HW229886   4.676   6.907   5.506
 9663SOL     OW29887   0.934   5.868   2.736
 9663SOL    HW129888   0.837   5.889   2.726
 9663SOL    HW229889   0.979   5.874   2.647
 9664SOL     OW29890   2.629   4.990   2.699
 9664SOL    HW129891   2.577   4.992   2.784
 9664SOL    HW229892   2.725   4.973   2.718
 9665SOL     OW29893   6.125   4.682   6.487
 9665SOL    HW129894   6.050   4.617   6.472
 9665SOL    HW229895   6.206   4.633   6.517
 9666SOL     OW29896   5.065   3.804   1.055
 9666SOL    HW129897   5.054   3.836   1.149
 9666SOL    HW229898   4.991   3.740   1.033
 9667SOL     OW29899   5.393   6.384   6.862
 9667SOL    HW129900   5.444   6.412   6.943
 9667SOL    HW229901   5.457   6.350   6.793
 9668SOL     OW29902   1.833   1.191   6.928
 9668SOL    HW129903   1.832   1.264   6.997
 9668SOL    HW229904   1.756   1.205   6.865
 9669SOL     OW29905   3.372   0.481   0.006
 9669SOL    HW129906   3.428   0.539   0.065
 9669SOL    HW229907   3.288   0.456   0.054
 9670SOL     OW29908   0.457   1.475   1.450
 9670SOL    HW129909   0.511   1.557   1.469
 9670SOL    HW229910   0.515   1.394   1.457
 9671SOL     OW29911   0.795   5.455   6.515
 9671SOL    HW129912   0.831   5.463   6.422
 9671SOL    HW229913   0.858   5.498   6.579
 9672SOL     OW29914   0.672   3.290   4.171
 9672SOL    HW129915   0.627   3.337   4.247
 9672SOL    HW229916   0.686   3.194   4.194
 9673SOL     OW29917   2.425   3.209   6.454
 9673SOL    HW129918   2.474   3.153   6.387
 9673SOL    HW229919   2.328   3.187   6.451
 9674SOL     OW29920   2.089   0.081   4.331
 9674SOL    HW129921   2.017   0.110   4.269
 9674SOL    HW229922   2.066   7.014   4.368
 9675SOL     OW29923   6.266   4.505   5.911
 9675SOL    HW129924   6.213   4.476   5.991
 9675SOL    HW229925   6.336   4.571   5.940
 9676SOL     OW29926   0.963   3.402   5.483
 9676SOL    HW129927   0.985   3.441   5.393
 9676SOL    HW229928   1.042   3.411   5.543
 9677SOL     OW29929   0.245   4.956   2.374
 9677SOL    HW129930   0.151   4.988   2.364
 9677SOL    HW229931   0.275   4.914   2.288
 9678SOL     OW29932   3.854   3.197   5.396
 9678SOL    HW129933   3.923   3.135   5.360
 9678SOL    HW229934   3.858   3.198   5.496
 9679SOL     OW29935   1.586   0.681   3.729
 9679SOL    HW129936   1.537   0.743   3.668
 9679SOL    HW229937   1.557   0.587   3.712
 9680SOL     OW29938   4.942   0.260   2.212
 9680SOL    HW129939   5.005   0.336   2.229
 9680SOL    HW229940   4.989   0.189   2.159
 9681SOL     OW29941   0.873   3.550   1.157
 9681SOL    HW129942   0.852   3.455   1.133
 9681SOL    HW229943   0.970   3.559   1.177
 9682SOL     OW29944   4.430   6.718   5.481
 9682SOL    HW129945   4.365   6.700   5.555
 9682SOL    HW229946   4.508   6.770   5.517
 9683SOL     OW29947   3.591   6.247   4.659
 9683SOL    HW129948   3.552   6.220   4.571
 9683SOL    HW229949   3.635   6.168   4.701
 9684SOL     OW29950   6.949   3.113   6.056
 9684SOL    HW129951   6.868   3.077   6.102
 9684SOL    HW229952   6.932   3.207   6.025
 9685SOL     OW29953   3.674   4.134   1.870
 9685SOL    HW129954   3.585   4.134   1.825
 9685SOL    HW229955   3.661   4.144   1.969
 9686SOL     OW29956   7.019   1.596   5.546
 9686SOL    HW129957   0.049   1.602   5.461
 9686SOL    HW229958   0.027   1.518   5.600
 9687SOL     OW29959   5.629   1.713   3.558
 9687SOL    HW129960   5.719   1.704   3.515
 9687SOL    HW229961   5.561   1.732   3.487
 9688SOL     OW29962   0.069   5.412   1.665
 9688SOL    HW129963   0.079   5.397   1.566
 9688SOL    HW229964   0.158   5.435   1.704
 9689SOL     OW29965   1.791   5.281   1.432
 9689SOL    HW129966   1.692   5.294   1.427
 9689SOL    HW229967   1.815   5.242   1.521
 9690SOL     OW29968   6.787   4.567   4.979
 9690SOL    HW129969   6.718   4.577   4.907
 9690SOL    HW229970   6.878   4.586   4.942
 9691SOL     OW29971   4.038   3.291   2.228
 9691SOL    HW129972   3.957   3.263   2.178
 9691SOL    HW229973   4.112   3.312   2.164
 9692SOL     OW29974   5.198   4.393   0.747
 9692SOL    HW129975   5.286   4.436   0.729
 9692SOL    HW229976   5.164   4.350   0.663
 9693SOL     OW29977   4.701   3.271   6.791
 9693SOL    HW129978   4.719   3.224   6.878
 9693SOL    HW229979   4.668   3.205   6.724
 9694SOL     OW29980   2.206   6.473   1.290
 9694SOL    HW129981   2.117   6.428   1.303
 9694SOL    HW229982   2.259   6.422   1.223
 9695SOL     OW29983   1.685   2.659   4.049
 9695SOL    HW129984   1.648   2.650   4.141
 9695SOL    HW229985   1.746   2.738   4.045
 9696SOL     OW29986   4.754   2.958   3.373
 9696SOL    HW129987   4.775   2.934   3.468
 9696SOL    HW229988   4.714   2.880   3.326
 9697SOL     OW29989   0.320   0.150   1.680
 9697SOL    HW129990   0.405   0.173   1.728
 9697SOL    HW229991   0.324   0.185   1.587
 9698SOL     OW29992   6.996   3.233   1.976
 9698SOL    HW129993   0.009   3.144   1.950
 9698SOL    HW229994   6.910   3.220   2.026
 9699SOL     OW29995   0.943   6.661   1.809
 9699SOL    HW129996   0.964   6.741   1.865
 9699SOL    HW229997   1.023   6.600   1.807
 9700SOL     OW29998   5.943   0.775   6.464
 9700SOL    HW129999   6.017   0.842   6.474
 9700SOL    HW230000   5.915   0.771   6.367
 9701SOL     OW30001   5.744   4.096   0.200
 9701SOL    HW130002   5.744   4.114   0.101
 9701SOL    HW230003   5.650   4.100   0.234
 9702SOL     OW30004   3.513   3.849   1.966
 9702SOL    HW130005   3.543   3.761   2.005
 9702SOL    HW230006   3.427   3.876   2.008
 9703SOL     OW30007   6.336   4.942   3.090
 9703SOL    HW130008   6.262   4.948   3.157
 9703SOL    HW230009   6.363   4.847   3.079
 9704SOL     OW30010   0.729   4.767   2.156
 9704SOL    HW130011   0.757   4.853   2.114
 9704SOL    HW230012   0.661   4.722   2.097
 9705SOL     OW30013   0.128   4.029   6.290
 9705SOL    HW130014   0.189   3.965   6.336
 9705SOL    HW230015   0.131   4.118   6.336
 9706SOL     OW30016   0.792   0.257   1.926
 9706SOL    HW130017   0.828   0.190   1.991
 9706SOL    HW230018   0.868   0.297   1.874
 9707SOL     OW30019   1.307   5.041   2.320
 9707SOL    HW130020   1.363   5.082   2.248
 9707SOL    HW230021   1.332   4.945   2.332
 9708SOL     OW30022   3.102   1.288   1.923
 9708SOL    HW130023   3.075   1.382   1.902
 9708SOL    HW230024   3.023   1.228   1.913
 9709SOL     OW30025   4.775   1.736   2.078
 9709SOL    HW130026   4.676   1.733   2.066
 9709SOL    HW230027   4.806   1.657   2.131
 9710SOL     OW30028   4.760   5.111   4.442
 9710SOL    HW130029   4.663   5.088   4.453
 9710SOL    HW230030   4.804   5.113   4.532
 9711SOL     OW30031   2.750   0.962   6.733
 9711SOL    HW130032   2.731   0.975   6.636
 9711SOL    HW230033   2.842   0.925   6.744
 9712SOL     OW30034   5.477   6.836   5.373
 9712SOL    HW130035   5.527   6.914   5.335
 9712SOL    HW230036   5.387   6.830   5.330
 9713SOL     OW30037   1.953   0.644   2.676
 9713SOL    HW130038   1.887   0.720   2.669
 9713SOL    HW230039   1.910   0.560   2.642
 9714SOL     OW30040   2.248   2.950   4.156
 9714SOL    HW130041   2.253   2.948   4.056
 9714SOL    HW230042   2.295   2.870   4.194
 9715SOL     OW30043   6.882   2.188   6.502
 9715SOL    HW130044   6.933   2.254   6.447
 9715SOL    HW230045   6.916   2.189   6.596
 9716SOL     OW30046   2.239   6.717   0.606
 9716SOL    HW130047   2.142   6.706   0.582
 9716SOL    HW230048   2.246   6.772   0.689
 9717SOL     OW30049   3.600   2.770   5.929
 9717SOL    HW130050   3.557   2.792   5.842
 9717SOL    HW230051   3.529   2.748   5.996
 9718SOL     OW30052   3.524   2.807   0.354
 9718SOL    HW130053   3.469   2.798   0.437
 9718SOL    HW230054   3.531   2.904   0.329
 9719SOL     OW30055   4.454   0.439   5.972
 9719SOL    HW130056   4.366   0.394   5.956
 9719SOL    HW230057   4.512   0.428   5.890
 9720SOL     OW30058   2.164   2.475   2.490
 9720SOL    HW130059   2.100   2.549   2.470
 9720SOL    HW230060   2.219   2.498   2.570
 9721SOL     OW30061   0.805   1.855   1.299
 9721SOL    HW130062   0.866   1.852   1.220
 9721SOL    HW230063   0.711   1.871   1.268
 9722SOL     OW30064   4.146   2.736   5.311
 9722SOL    HW130065   4.183   2.657   5.262
 9722SOL    HW230066   4.057   2.761   5.272
 9723SOL     OW30067   5.881   0.584   4.738
 9723SOL    HW130068   5.893   0.572   4.837
 9723SOL    HW230069   5.963   0.553   4.691
 9724SOL     OW30070   1.805   4.757   1.531
 9724SOL    HW130071   1.720   4.735   1.484
 9724SOL    HW230072   1.868   4.802   1.468
 9725SOL     OW30073   5.217   5.409   4.068
 9725SOL    HW130074   5.292   5.380   4.127
 9725SOL    HW230075   5.151   5.334   4.061
 9726SOL     OW30076   6.580   0.254   3.609
 9726SOL    HW130077   6.619   0.211   3.691
 9726SOL    HW230078   6.592   0.194   3.531
 9727SOL     OW30079   6.143   2.587   1.541
 9727SOL    HW130080   6.180   2.520   1.477
 9727SOL    HW230081   6.073   2.543   1.598
 9728SOL     OW30082   5.110   2.009   4.911
 9728SOL    HW130083   5.067   1.950   4.979
 9728SOL    HW230084   5.153   1.953   4.839
 9729SOL     OW30085   0.504   3.937   2.656
 9729SOL    HW130086   0.545   4.010   2.602
 9729SOL    HW230087   0.506   3.962   2.753
 9730SOL     OW30088   1.263   5.527   3.427
 9730SOL    HW130089   1.345   5.469   3.420
 9730SOL    HW230090   1.290   5.623   3.421
 9731SOL     OW30091   6.750   2.373   1.805
 9731SOL    HW130092   6.696   2.292   1.783
 9731SOL    HW230093   6.762   2.428   1.722
 9732SOL     OW30094   1.423   3.211   2.646
 9732SOL    HW130095   1.451   3.115   2.648
 9732SOL    HW230096   1.363   3.230   2.724
 9733SOL     OW30097   6.236   5.086   1.767
 9733SOL    HW130098   6.217   4.995   1.731
 9733SOL    HW230099   6.201   5.093   1.861
 9734SOL     OW30100   3.971   4.670   6.796
 9734SOL    HW130101   4.038   4.744   6.796
 9734SOL    HW230102   3.953   4.642   6.891
 9735SOL     OW30103   0.784   1.435   0.022
 9735SOL    HW130104   0.703   1.377   0.032
 9735SOL    HW230105   0.827   1.416   6.957
 9736SOL     OW30106   5.113   2.270   5.070
 9736SOL    HW130107   5.171   2.248   5.147
 9736SOL    HW230108   5.108   2.191   5.008
 9737SOL     OW30109   5.627   3.195   4.937
 9737SOL    HW130110   5.569   3.218   4.859
 9737SOL    HW230111   5.700   3.262   4.946
 9738SOL     OW30112   2.511   6.368   1.744
 9738SOL    HW130113   2.466   6.411   1.666
 9738SOL    HW230114   2.500   6.425   1.825
 9739SOL     OW30115   5.477   6.770   0.641
 9739SOL    HW130116   5.520   6.771   0.731
 9739SOL    HW230117   5.544   6.741   0.572
 9740SOL     OW30118   6.452   0.565   1.287
 9740SOL    HW130119   6.419   0.622   1.212
 9740SOL    HW230120   6.551   0.579   1.299
 9741SOL     OW30121   2.336   2.288   3.302
 9741SOL    HW130122   2.324   2.385   3.321
 9741SOL    HW230123   2.350   2.275   3.203
 9742SOL     OW30124   4.151   1.736   6.571
 9742SOL    HW130125   4.059   1.776   6.570
 9742SOL    HW230126   4.151   1.656   6.632
 9743SOL     OW30127   6.607   3.319   4.647
 9743SOL    HW130128   6.658   3.319   4.733
 9743SOL    HW230129   6.660   3.271   4.577
 9744SOL     OW30130   1.666   1.853   2.575
 9744SOL    HW130131   1.754   1.875   2.533
 9744SOL    HW230132   1.648   1.918   2.649
 9745SOL     OW30133   0.795   6.512   6.209
 9745SOL    HW130134   0.862   6.549   6.144
 9745SOL    HW230135   0.703   6.522   6.171
 9746SOL     OW30136   3.134   6.421   5.700
 9746SOL    HW130137   3.049   6.458   5.740
 9746SOL    HW230138   3.208   6.429   5.767
 9747SOL     OW30139   3.678   1.597   3.728
 9747SOL    HW130140   3.614   1.607   3.652
 9747SOL    HW230141   3.683   1.683   3.779
 9748SOL     OW30142   0.465   1.869   2.396
 9748SOL    HW130143   0.483   1.933   2.470
 9748SOL    HW230144   0.379   1.821   2.413
 9749SOL     OW30145   6.244   0.389   1.218
 9749SOL    HW130146   6.238   0.297   1.257
 9749SOL    HW230147   6.333   0.428   1.237
 9750SOL     OW30148   5.152   2.460   5.395
 9750SOL    HW130149   5.177   2.508   5.479
 9750SOL    HW230150   5.136   2.364   5.415
 9751SOL     OW30151   2.864   6.156   1.068
 9751SOL    HW130152   2.870   6.075   1.125
 9751SOL    HW230153   2.812   6.227   1.116
 9752SOL     OW30154   3.396   3.175   0.752
 9752SOL    HW130155   3.340   3.254   0.776
 9752SOL    HW230156   3.486   3.205   0.720
 9753SOL     OW30157   6.321   5.898   3.306
 9753SOL    HW130158   6.280   5.827   3.249
 9753SOL    HW230159   6.276   5.900   3.395
 9754SOL     OW30160   3.369   0.999   2.186
 9754SOL    HW130161   3.332   1.018   2.277
 9754SOL    HW230162   3.390   0.902   2.178
 9755SOL     OW30163   3.346   3.710   0.247
 9755SOL    HW130164   3.316   3.683   0.155
 9755SOL    HW230165   3.306   3.647   0.314
 9756SOL     OW30166   5.952   7.022   6.487
 9756SOL    HW130167   6.011   6.942   6.497
 9756SOL    HW230168   5.870   7.010   6.544
 9757SOL     OW30169   5.397   3.826   4.363
 9757SOL    HW130170   5.352   3.844   4.276
 9757SOL    HW230171   5.374   3.734   4.394
 9758SOL     OW30172   2.748   0.680   2.328
 9758SOL    HW130173   2.775   0.639   2.241
 9758SOL    HW230174   2.805   0.761   2.346
 9759SOL     OW30175   6.544   2.224   1.221
 9759SOL    HW130176   6.551   2.129   1.253
 9759SOL    HW230177   6.606   2.237   1.143
 9760SOL     OW30178   4.616   0.413   6.200
 9760SOL    HW130179   4.559   0.471   6.258
 9760SOL    HW230180   4.571   0.402   6.111
 9761SOL     OW30181   1.058   1.806   1.399
 9761SOL    HW130182   1.066   1.903   1.422
 9761SOL    HW230183   0.979   1.793   1.339
 9762SOL     OW30184   3.603   1.019   6.264
 9762SOL    HW130185   3.643   0.984   6.349
 9762SOL    HW230186   3.675   1.031   6.196
 9763SOL     OW30187   6.318   2.726   1.117
 9763SOL    HW130188   6.286   2.631   1.112
 9763SOL    HW230189   6.403   2.735   1.066
 9764SOL     OW30190   0.785   3.044   2.986
 9764SOL    HW130191   0.802   2.954   2.945
 9764SOL    HW230192   0.687   3.058   2.999
 9765SOL     OW30193   6.879   2.072   1.449
 9765SOL    HW130194   6.848   2.046   1.540
 9765SOL    HW230195   6.863   2.170   1.435
 9766SOL     OW30196   0.482   3.070   2.949
 9766SOL    HW130197   0.528   3.041   2.865
 9766SOL    HW230198   0.416   3.000   2.976
 9767SOL     OW30199   3.272   1.501   5.323
 9767SOL    HW130200   3.291   1.574   5.388
 9767SOL    HW230201   3.321   1.418   5.350
 9768SOL     OW30202   4.818   1.873   0.203
 9768SOL    HW130203   4.834   1.787   0.155
 9768SOL    HW230204   4.892   1.937   0.183
 9769SOL     OW30205   3.678   1.156   5.316
 9769SOL    HW130206   3.756   1.093   5.316
 9769SOL    HW230207   3.706   1.242   5.357
 9770SOL     OW30208   1.807   3.475   5.280
 9770SOL    HW130209   1.720   3.518   5.301
 9770SOL    HW230210   1.860   3.536   5.220
 9771SOL     OW30211   3.241   1.017   1.941
 9771SOL    HW130212   3.214   1.111   1.918
 9771SOL    HW230213   3.306   1.019   2.017
 9772SOL     OW30214   0.526   0.896   1.344
 9772SOL    HW130215   0.532   0.804   1.384
 9772SOL    HW230216   0.512   0.889   1.245
 9773SOL     OW30217   5.584   6.350   2.260
 9773SOL    HW130218   5.675   6.315   2.234
 9773SOL    HW230219   5.575   6.444   2.229
 9774SOL     OW30220   1.791   5.173   4.618
 9774SOL    HW130221   1.766   5.088   4.572
 9774SOL    HW230222   1.766   5.169   4.714
 9775SOL     OW30223   1.406   1.125   2.675
 9775SOL    HW130224   1.362   1.208   2.641
 9775SOL    HW230225   1.474   1.093   2.608
 9776SOL     OW30226   2.015   5.448   1.461
 9776SOL    HW130227   1.936   5.388   1.450
 9776SOL    HW230228   2.099   5.394   1.458
 9777SOL     OW30229   4.100   2.331   5.345
 9777SOL    HW130230   4.100   2.364   5.250
 9777SOL    HW230231   4.103   2.231   5.345
 9778SOL     OW30232   1.515   3.967   2.977
 9778SOL    HW130233   1.572   3.928   2.905
 9778SOL    HW230234   1.559   4.048   3.014
 9779SOL     OW30235   3.128   0.123   3.476
 9779SOL    HW130236   3.110   0.206   3.530
 9779SOL    HW230237   3.057   0.055   3.495
 9780SOL     OW30238   0.773   1.327   0.704
 9780SOL    HW130239   0.711   1.292   0.634
 9780SOL    HW230240   0.729   1.403   0.753
 9781SOL     OW30241   1.505   1.235   2.061
 9781SOL    HW130242   1.484   1.264   1.968
 9781SOL    HW230243   1.431   1.178   2.096
 9782SOL     OW30244   0.313   2.732   0.472
 9782SOL    HW130245   0.271   2.677   0.544
 9782SOL    HW230246   0.273   2.706   0.384
 9783SOL     OW30247   4.399   0.930   2.822
 9783SOL    HW130248   4.355   0.917   2.733
 9783SOL    HW230249   4.459   0.853   2.841
 9784SOL     OW30250   1.408   1.508   6.804
 9784SOL    HW130251   1.464   1.525   6.885
 9784SOL    HW230252   1.333   1.446   6.828
 9785SOL     OW30253   0.979   3.686   4.872
 9785SOL    HW130254   0.924   3.654   4.949
 9785SOL    HW230255   1.072   3.649   4.880
 9786SOL     OW30256   2.358   4.672   6.570
 9786SOL    HW130257   2.355   4.674   6.470
 9786SOL    HW230258   2.270   4.639   6.605
 9787SOL     OW30259   3.073   3.310   1.732
 9787SOL    HW130260   3.009   3.374   1.690
 9787SOL    HW230261   3.150   3.362   1.770
 9788SOL     OW30262   3.161   7.012   2.685
 9788SOL    HW130263   3.103   6.963   2.750
 9788SOL    HW230264   3.193   6.950   2.614
 9789SOL     OW30265   4.194   1.478   0.242
 9789SOL    HW130266   4.194   1.503   0.339
 9789SOL    HW230267   4.259   1.536   0.193
 9790SOL     OW30268   4.232   5.388   5.168
 9790SOL    HW130269   4.154   5.443   5.196
 9790SOL    HW230270   4.230   5.301   5.217
 9791SOL     OW30271   0.002   0.303   1.222
 9791SOL    HW130272   0.092   0.265   1.198
 9791SOL    HW230273   0.006   0.340   1.315
 9792SOL     OW30274   3.726   4.543   0.719
 9792SOL    HW130275   3.758   4.524   0.626
 9792SOL    HW230276   3.627   4.534   0.722
 9793SOL     OW30277   5.850   0.690   2.557
 9793SOL    HW130278   5.786   0.739   2.615
 9793SOL    HW230279   5.938   0.683   2.604
 9794SOL     OW30280   3.648   5.235   4.460
 9794SOL    HW130281   3.590   5.184   4.397
 9794SOL    HW230282   3.694   5.309   4.411
 9795SOL     OW30283   1.431   3.412   3.538
 9795SOL    HW130284   1.369   3.465   3.597
 9795SOL    HW230285   1.521   3.455   3.538
 9796SOL     OW30286   3.153   3.501   4.095
 9796SOL    HW130287   3.246   3.538   4.092
 9796SOL    HW230288   3.154   3.408   4.058
 9797SOL     OW30289   3.144   5.866   6.691
 9797SOL    HW130290   3.050   5.860   6.724
 9797SOL    HW230291   3.168   5.781   6.643
 9798SOL     OW30292   6.920   4.097   0.008
 9798SOL    HW130293   6.958   4.128   0.095
 9798SOL    HW230294   6.992   4.053   6.978
 9799SOL     OW30295   3.968   6.454   6.595
 9799SOL    HW130296   3.875   6.443   6.631
 9799SOL    HW230297   4.001   6.366   6.560
 9800SOL     OW30298   6.579   4.592   4.824
 9800SOL    HW130299   6.535   4.658   4.763
 9800SOL    HW230300   6.546   4.500   4.802
 9801SOL     OW30301   4.388   6.725   1.016
 9801SOL    HW130302   4.338   6.685   0.939
 9801SOL    HW230303   4.348   6.814   1.039
 9802SOL     OW30304   3.612   3.723   0.217
 9802SOL    HW130305   3.519   3.694   0.241
 9802SOL    HW230306   3.678   3.672   0.272
 9803SOL     OW30307   1.540   3.892   6.516
 9803SOL    HW130308   1.524   3.983   6.479
 9803SOL    HW230309   1.463   3.833   6.493
 9804SOL     OW30310   0.806   4.545   3.240
 9804SOL    HW130311   0.805   4.456   3.286
 9804SOL    HW230312   0.791   4.533   3.142
 9805SOL     OW30313   0.162   5.566   4.347
 9805SOL    HW130314   0.125   5.639   4.290
 9805SOL    HW230315   0.193   5.491   4.288
 9806SOL     OW30316   3.799   1.693   0.204
 9806SOL    HW130317   3.873   1.695   0.137
 9806SOL    HW230318   3.730   1.626   0.176
 9807SOL     OW30319   4.018   3.149   3.472
 9807SOL    HW130320   4.063   3.167   3.559
 9807SOL    HW230321   3.958   3.070   3.482
 9808SOL     OW30322   2.956   5.784   1.987
 9808SOL    HW130323   2.967   5.712   1.918
 9808SOL    HW230324   2.931   5.743   2.074
 9809SOL     OW30325   5.967   2.504   0.747
 9809SOL    HW130326   5.885   2.556   0.769
 9809SOL    HW230327   5.976   2.427   0.810
 9810SOL     OW30328   2.420   3.190   1.320
 9810SOL    HW130329   2.499   3.131   1.303
 9810SOL    HW230330   2.342   3.155   1.268
 9811SOL     OW30331   5.659   3.428   3.922
 9811SOL    HW130332   5.728   3.453   3.853
 9811SOL    HW230333   5.670   3.486   4.002
 9812SOL     OW30334   3.351   5.680   5.987
 9812SOL    HW130335   3.342   5.692   6.086
 9812SOL    HW230336   3.269   5.634   5.952
 9813SOL     OW30337   4.131   0.400   2.213
 9813SOL    HW130338   4.215   0.413   2.161
 9813SOL    HW230339   4.091   0.490   2.233
 9814SOL     OW30340   0.159   1.714   6.001
 9814SOL    HW130341   0.184   1.810   6.013
 9814SOL    HW230342   0.197   1.680   5.915
 9815SOL     OW30343   4.250   2.323   4.530
 9815SOL    HW130344   4.289   2.384   4.462
 9815SOL    HW230345   4.261   2.364   4.621
 9816SOL     OW30346   2.882   1.262   0.389
 9816SOL    HW130347   2.958   1.297   0.334
 9816SOL    HW230348   2.797   1.272   0.338
 9817SOL     OW30349   6.486   0.733   1.620
 9817SOL    HW130350   6.554   0.795   1.660
 9817SOL    HW230351   6.517   0.638   1.631
 9818SOL     OW30352   3.995   3.015   5.194
 9818SOL    HW130353   3.999   3.074   5.113
 9818SOL    HW230354   3.922   2.948   5.183
 9819SOL     OW30355   3.145   0.407   1.874
 9819SOL    HW130356   3.150   0.496   1.918
 9819SOL    HW230357   3.067   0.404   1.811
 9820SOL     OW30358   3.754   2.657   0.412
 9820SOL    HW130359   3.790   2.625   0.324
 9820SOL    HW230360   3.676   2.718   0.396
 9821SOL     OW30361   0.076   5.364   0.111
 9821SOL    HW130362   0.071   5.457   0.148
 9821SOL    HW230363   0.151   5.314   0.154
 9822SOL     OW30364   0.380   0.138   2.533
 9822SOL    HW130365   0.459   0.080   2.551
 9822SOL    HW230366   0.371   0.152   2.434
 9823SOL     OW30367   3.463   6.072   1.767
 9823SOL    HW130368   3.476   6.156   1.818
 9823SOL    HW230369   3.517   5.998   1.808
 9824SOL     OW30370   1.916   4.132   6.465
 9824SOL    HW130371   1.930   4.125   6.366
 9824SOL    HW230372   1.820   4.155   6.483
 9825SOL     OW30373   4.111   4.926   5.476
 9825SOL    HW130374   4.066   4.840   5.452
 9825SOL    HW230375   4.180   4.909   5.547
 9826SOL     OW30376   5.667   6.633   5.320
 9826SOL    HW130377   5.709   6.601   5.404
 9826SOL    HW230378   5.601   6.705   5.341
 9827SOL     OW30379   0.477   4.462   4.506
 9827SOL    HW130380   0.540   4.487   4.432
 9827SOL    HW230381   0.389   4.509   4.491
 9828SOL     OW30382   2.874   2.643   6.711
 9828SOL    HW130383   2.827   2.597   6.636
 9828SOL    HW230384   2.877   2.584   6.791
 9829SOL     OW30385   2.786   4.577   1.181
 9829SOL    HW130386   2.883   4.596   1.191
 9829SOL    HW230387   2.739   4.598   1.267
 9830SOL     OW30388   0.147   1.583   0.287
 9830SOL    HW130389   0.175   1.501   0.337
 9830SOL    HW230390   0.048   1.589   0.287
 9831SOL     OW30391   5.571   6.600   1.326
 9831SOL    HW130392   5.596   6.681   1.272
 9831SOL    HW230393   5.652   6.565   1.373
 9832SOL     OW30394   3.858   4.759   1.461
 9832SOL    HW130395   3.795   4.682   1.451
 9832SOL    HW230396   3.818   4.828   1.520
 9833SOL     OW30397   4.691   4.030   5.903
 9833SOL    HW130398   4.735   4.011   5.990
 9833SOL    HW230399   4.643   3.948   5.871
 9834SOL     OW30400   2.094   2.505   4.063
 9834SOL    HW130401   2.064   2.595   4.095
 9834SOL    HW230402   2.027   2.436   4.092
 9835SOL     OW30403   5.090   1.787   4.592
 9835SOL    HW130404   5.131   1.771   4.502
 9835SOL    HW230405   4.992   1.802   4.581
 9836SOL     OW30406   5.093   5.367   1.967
 9836SOL    HW130407   5.156   5.353   2.043
 9836SOL    HW230408   5.029   5.440   1.990
 9837SOL     OW30409   1.458   6.343   5.490
 9837SOL    HW130410   1.545   6.301   5.466
 9837SOL    HW230411   1.398   6.273   5.531
 9838SOL     OW30412   6.615   5.436   4.656
 9838SOL    HW130413   6.579   5.506   4.719
 9838SOL    HW230414   6.714   5.448   4.646
 9839SOL     OW30415   6.450   2.491   2.588
 9839SOL    HW130416   6.490   2.441   2.511
 9839SOL    HW230417   6.463   2.438   2.672
 9840SOL     OW30418   5.749   0.332   0.702
 9840SOL    HW130419   5.809   0.357   0.627
 9840SOL    HW230420   5.665   0.386   0.697
 9841SOL     OW30421   2.167   3.421   4.028
 9841SOL    HW130422   2.164   3.510   4.073
 9841SOL    HW230423   2.192   3.351   4.096
 9842SOL     OW30424   2.961   3.303   3.492
 9842SOL    HW130425   2.922   3.307   3.400
 9842SOL    HW230426   3.053   3.341   3.491
 9843SOL     OW30427   5.828   3.728   3.176
 9843SOL    HW130428   5.755   3.725   3.108
 9843SOL    HW230429   5.871   3.638   3.183
 9844SOL     OW30430   5.333   0.434   2.433
 9844SOL    HW130431   5.392   0.450   2.512
 9844SOL    HW230432   5.243   0.404   2.464
 9845SOL     OW30433   1.218   1.669   3.495
 9845SOL    HW130434   1.200   1.751   3.550
 9845SOL    HW230435   1.195   1.587   3.548
 9846SOL     OW30436   2.918   3.346   3.225
 9846SOL    HW130437   2.923   3.445   3.231
 9846SOL    HW230438   2.931   3.318   3.129
 9847SOL     OW30439   1.941   4.462   4.689
 9847SOL    HW130440   1.914   4.538   4.748
 9847SOL    HW230441   1.970   4.385   4.746
 9848SOL     OW30442   5.263   3.576   0.711
 9848SOL    HW130443   5.205   3.537   0.639
 9848SOL    HW230444   5.310   3.502   0.759
 9849SOL     OW30445   0.059   6.898   5.768
 9849SOL    HW130446   0.050   6.925   5.864
 9849SOL    HW230447   0.146   6.931   5.732
 9850SOL     OW30448   4.484   0.233   2.720
 9850SOL    HW130449   4.417   0.162   2.700
 9850SOL    HW230450   4.437   0.314   2.755
 9851SOL     OW30451   5.532   2.984   5.145
 9851SOL    HW130452   5.604   2.982   5.214
 9851SOL    HW230453   5.561   3.040   5.068
 9852SOL     OW30454   4.825   1.762   4.222
 9852SOL    HW130455   4.891   1.812   4.166
 9852SOL    HW230456   4.737   1.811   4.221
 9853SOL     OW30457   0.427   3.929   1.363
 9853SOL    HW130458   0.453   3.934   1.459
 9853SOL    HW230459   0.459   3.842   1.325
 9854SOL     OW30460   4.522   5.828   3.640
 9854SOL    HW130461   4.537   5.767   3.562
 9854SOL    HW230462   4.578   5.910   3.628
 9855SOL     OW30463   1.654   3.491   0.816
 9855SOL    HW130464   1.723   3.425   0.847
 9855SOL    HW230465   1.585   3.443   0.762
 9856SOL     OW30466   3.931   2.705   0.781
 9856SOL    HW130467   3.996   2.638   0.745
 9856SOL    HW230468   3.977   2.765   0.846
 9857SOL     OW30469   6.251   4.147   2.923
 9857SOL    HW130470   6.229   4.154   3.020
 9857SOL    HW230471   6.218   4.229   2.875
 9858SOL     OW30472   4.221   1.329   1.249
 9858SOL    HW130473   4.156   1.267   1.292
 9858SOL    HW230474   4.242   1.404   1.311
 9859SOL     OW30475   6.350   0.423   1.504
 9859SOL    HW130476   6.379   0.506   1.457
 9859SOL    HW230477   6.276   0.445   1.569
 9860SOL     OW30478   0.527   1.047   2.407
 9860SOL    HW130479   0.497   0.975   2.468
 9860SOL    HW230480   0.627   1.058   2.414
 9861SOL     OW30481   3.027   6.492   5.005
 9861SOL    HW130482   3.014   6.522   5.100
 9861SOL    HW230483   3.122   6.508   4.978
 9862SOL     OW30484   0.894   2.149   0.944
 9862SOL    HW130485   0.846   2.213   1.003
 9862SOL    HW230486   0.988   2.181   0.929
 9863SOL     OW30487   2.945   6.944   0.900
 9863SOL    HW130488   3.022   6.935   0.837
 9863SOL    HW230489   2.964   6.893   0.984
 9864SOL     OW30490   4.325   6.404   2.839
 9864SOL    HW130491   4.327   6.480   2.774
 9864SOL    HW230492   4.391   6.335   2.810
 9865SOL     OW30493   1.347   2.530   4.446
 9865SOL    HW130494   1.292   2.450   4.471
 9865SOL    HW230495   1.395   2.564   4.527
 9866SOL     OW30496   3.949   4.876   3.077
 9866SOL    HW130497   4.003   4.803   3.035
 9866SOL    HW230498   3.983   4.965   3.046
 9867SOL     OW30499   4.114   0.475   6.394
 9867SOL    HW130500   4.096   0.558   6.447
 9867SOL    HW230501   4.071   0.397   6.439
 9868SOL     OW30502   0.264   5.155   6.553
 9868SOL    HW130503   0.174   5.165   6.596
 9868SOL    HW230504   0.254   5.140   6.455
 9869SOL     OW30505   1.829   3.773   3.172
 9869SOL    HW130506   1.917   3.770   3.220
 9869SOL    HW230507   1.811   3.867   3.143
 9870SOL     OW30508   4.970   4.569   2.394
 9870SOL    HW130509   5.011   4.544   2.481
 9870SOL    HW230510   4.879   4.528   2.387
 9871SOL     OW30511   1.249   1.597   5.365
 9871SOL    HW130512   1.165   1.611   5.417
 9871SOL    HW230513   1.298   1.518   5.400
 9872SOL     OW30514   1.296   4.610   3.638
 9872SOL    HW130515   1.289   4.595   3.737
 9872SOL    HW230516   1.303   4.522   3.592
 9873SOL     OW30517   1.462   2.377   0.361
 9873SOL    HW130518   1.486   2.339   0.450
 9873SOL    HW230519   1.383   2.439   0.371
 9874SOL     OW30520   0.794   3.121   3.748
 9874SOL    HW130521   0.789   3.172   3.834
 9874SOL    HW230522   0.889   3.096   3.730
 9875SOL     OW30523   1.422   0.872   3.122
 9875SOL    HW130524   1.502   0.812   3.116
 9875SOL    HW230525   1.425   0.938   3.048
 9876SOL     OW30526   0.040   5.566   2.424
 9876SOL    HW130527   0.039   5.473   2.460
 9876SOL    HW230528   6.976   5.610   2.444
 9877SOL     OW30529   3.935   6.800   1.927
 9877SOL    HW130530   3.844   6.761   1.909
 9877SOL    HW230531   3.931   6.899   1.917
 9878SOL     OW30532   0.754   0.204   5.443
 9878SOL    HW130533   0.721   0.273   5.378
 9878SOL    HW230534   0.762   0.116   5.397
 9879SOL     OW30535   5.334   6.219   5.663
 9879SOL    HW130536   5.368   6.290   5.724
 9879SOL    HW230537   5.411   6.174   5.618
 9880SOL     OW30538   1.938   2.112   4.522
 9880SOL    HW130539   1.964   2.208   4.513
 9880SOL    HW230540   1.919   2.092   4.618
 9881SOL     OW30541   0.087   1.872   6.311
 9881SOL    HW130542   0.143   1.935   6.258
 9881SOL    HW230543   0.113   1.778   6.289
 9882SOL     OW30544   1.653   1.626   2.765
 9882SOL    HW130545   1.633   1.670   2.852
 9882SOL    HW230546   1.590   1.661   2.695
 9883SOL     OW30547   2.696   1.397   2.094
 9883SOL    HW130548   2.649   1.308   2.096
 9883SOL    HW230549   2.697   1.436   2.186
 9884SOL     OW30550   3.769   0.689   4.170
 9884SOL    HW130551   3.860   0.672   4.133
 9884SOL    HW230552   3.750   0.787   4.168
 9885SOL     OW30553   6.660   4.540   3.552
 9885SOL    HW130554   6.580   4.589   3.588
 9885SOL    HW230555   6.637   4.443   3.542
 9886SOL     OW30556   1.178   3.490   1.977
 9886SOL    HW130557   1.182   3.534   1.887
 9886SOL    HW230558   1.249   3.528   2.036
 9887SOL     OW30559   4.538   0.099   6.019
 9887SOL    HW130560   4.508   0.124   6.111
 9887SOL    HW230561   4.584   0.010   6.022
 9888SOL     OW30562   6.490   4.808   0.434
 9888SOL    HW130563   6.474   4.842   0.527
 9888SOL    HW230564   6.490   4.708   0.435
 9889SOL     OW30565   0.552   5.171   0.351
 9889SOL    HW130566   0.598   5.197   0.266
 9889SOL    HW230567   0.544   5.251   0.410
 9890SOL     OW30568   0.960   3.605   0.788
 9890SOL    HW130569   0.868   3.587   0.821
 9890SOL    HW230570   0.956   3.644   0.696
 9891SOL     OW30571   4.912   1.383   1.688
 9891SOL    HW130572   4.929   1.482   1.682
 9891SOL    HW230573   4.998   1.336   1.708
 9892SOL     OW30574   0.190   6.123   6.871
 9892SOL    HW130575   0.195   6.221   6.890
 9892SOL    HW230576   0.100   6.101   6.833
 9893SOL     OW30577   2.628   1.790   1.321
 9893SOL    HW130578   2.630   1.834   1.410
 9893SOL    HW230579   2.544   1.736   1.313
 9894SOL     OW30580   1.845   1.112   1.468
 9894SOL    HW130581   1.876   1.082   1.558
 9894SOL    HW230582   1.817   1.208   1.472
 9895SOL     OW30583   4.736   3.669   6.144
 9895SOL    HW130584   4.724   3.623   6.232
 9895SOL    HW230585   4.731   3.602   6.070
 9896SOL     OW30586   6.496   6.738   6.505
 9896SOL    HW130587   6.594   6.749   6.515
 9896SOL    HW230588   6.474   6.714   6.411
 9897SOL     OW30589   6.104   5.152   3.987
 9897SOL    HW130590   6.117   5.113   3.896
 9897SOL    HW230591   6.046   5.234   3.981
 9898SOL     OW30592   2.752   6.588   5.608
 9898SOL    HW130593   2.694   6.530   5.665
 9898SOL    HW230594   2.697   6.634   5.539
 9899SOL     OW30595   6.959   5.478   6.723
 9899SOL    HW130596   0.033   5.480   6.702
 9899SOL    HW230597   6.944   5.423   6.805
 9900SOL     OW30598   2.136   3.479   3.481
 9900SOL    HW130599   2.162   3.548   3.549
 9900SOL    HW230600   2.073   3.414   3.521
 9901SOL     OW30601   2.273   2.548   5.484
 9901SOL    HW130602   2.239   2.642   5.492
 9901SOL    HW230603   2.290   2.510   5.575
 9902SOL     OW30604   2.741   4.338   6.652
 9902SOL    HW130605   2.665   4.278   6.628
 9902SOL    HW230606   2.794   4.297   6.726
 9903SOL     OW30607   5.631   0.713   4.274
 9903SOL    HW130608   5.650   0.804   4.237
 9903SOL    HW230609   5.548   0.716   4.330
 9904SOL     OW30610   6.552   2.148   0.107
 9904SOL    HW130611   6.500   2.179   0.186
 9904SOL    HW230612   6.501   2.077   0.059
 9905SOL     OW30613   5.220   0.831   0.191
 9905SOL    HW130614   5.242   0.849   0.095
 9905SOL    HW230615   5.253   0.906   0.248
 9906SOL     OW30616   3.858   3.110   4.921
 9906SOL    HW130617   3.800   3.155   4.853
 9906SOL    HW230618   3.823   3.017   4.938
 9907SOL     OW30619   1.047   0.384   1.503
 9907SOL    HW130620   1.141   0.415   1.514
 9907SOL    HW230621   1.044   0.305   1.443
 9908SOL     OW30622   5.073   3.409   2.882
 9908SOL    HW130623   5.002   3.433   2.948
 9908SOL    HW230624   5.107   3.318   2.902
 9909SOL     OW30625   2.164   0.193   5.159
 9909SOL    HW130626   2.102   0.238   5.223
 9909SOL    HW230627   2.258   0.219   5.180
 9910SOL     OW30628   0.095   4.333   3.366
 9910SOL    HW130629   0.123   4.279   3.445
 9910SOL    HW230630   7.019   4.341   3.365
 9911SOL     OW30631   2.554   6.157   2.831
 9911SOL    HW130632   2.611   6.176   2.912
 9911SOL    HW230633   2.503   6.073   2.846
 9912SOL     OW30634   5.626   0.743   6.380
 9912SOL    HW130635   5.700   0.727   6.314
 9912SOL    HW230636   5.615   0.662   6.438
 9913SOL     OW30637   4.581   3.072   6.652
 9913SOL    HW130638   4.526   3.115   6.581
 9913SOL    HW230639   4.581   2.973   6.638
 9914SOL     OW30640   6.958   4.046   4.674
 9914SOL    HW130641   6.917   3.967   4.628
 9914SOL    HW230642   0.033   4.031   4.685
 9915SOL     OW30643   5.375   1.111   3.713
 9915SOL    HW130644   5.434   1.170   3.658
 9915SOL    HW230645   5.431   1.059   3.778
 9916SOL     OW30646   2.322   2.528   1.617
 9916SOL    HW130647   2.274   2.610   1.586
 9916SOL    HW230648   2.394   2.505   1.551
 9917SOL     OW30649   6.224   4.962   4.812
 9917SOL    HW130650   6.314   5.004   4.804
 9917SOL    HW230651   6.219   4.907   4.895
 9918SOL     OW30652   4.531   2.481   2.482
 9918SOL    HW130653   4.568   2.527   2.562
 9918SOL    HW230654   4.585   2.506   2.401
 9919SOL     OW30655   6.297   6.566   0.432
 9919SOL    HW130656   6.262   6.656   0.460
 9919SOL    HW230657   6.388   6.577   0.392
 9920SOL     OW30658   4.756   1.402   2.399
 9920SOL    HW130659   4.682   1.421   2.463
 9920SOL    HW230660   4.803   1.318   2.426
 9921SOL     OW30661   3.412   5.141   6.408
 9921SOL    HW130662   3.507   5.119   6.386
 9921SOL    HW230663   3.359   5.056   6.415
 9922SOL     OW30664   0.208   5.289   0.627
 9922SOL    HW130665   0.183   5.293   0.723
 9922SOL    HW230666   0.307   5.300   0.617
 9923SOL     OW30667   5.511   4.833   1.176
 9923SOL    HW130668   5.545   4.776   1.250
 9923SOL    HW230669   5.412   4.842   1.184
 9924SOL     OW30670   0.873   3.883   4.692
 9924SOL    HW130671   0.795   3.901   4.751
 9924SOL    HW230672   0.939   3.825   4.740
 9925SOL     OW30673   5.171   2.504   3.103
 9925SOL    HW130674   5.182   2.490   3.202
 9925SOL    HW230675   5.083   2.549   3.086
 9926SOL     OW30676   2.458   5.543   6.763
 9926SOL    HW130677   2.373   5.596   6.762
 9926SOL    HW230678   2.451   5.471   6.831
 9927SOL     OW30679   5.871   0.094   3.405
 9927SOL    HW130680   5.940   0.022   3.397
 9927SOL    HW230681   5.917   0.184   3.404
 9928SOL     OW30682   4.567   4.605   1.904
 9928SOL    HW130683   4.655   4.556   1.902
 9928SOL    HW230684   4.506   4.561   1.969
 9929SOL     OW30685   1.142   4.666   2.472
 9929SOL    HW130686   1.222   4.608   2.457
 9929SOL    HW230687   1.108   4.653   2.565
 9930SOL     OW30688   6.678   0.521   3.681
 9930SOL    HW130689   6.618   0.449   3.647
 9930SOL    HW230690   6.654   0.544   3.775
 9931SOL     OW30691   0.724   4.715   5.760
 9931SOL    HW130692   0.735   4.701   5.858
 9931SOL    HW230693   0.635   4.680   5.731
 9932SOL     OW30694   0.619   6.213   5.100
 9932SOL    HW130695   0.676   6.132   5.099
 9932SOL    HW230696   0.675   6.294   5.080
 9933SOL     OW30697   0.591   6.083   2.280
 9933SOL    HW130698   0.546   6.165   2.316
 9933SOL    HW230699   0.687   6.104   2.259
 9934SOL     OW30700   6.790   1.942   6.104
 9934SOL    HW130701   6.810   1.934   6.202
 9934SOL    HW230702   6.876   1.947   6.053
 9935SOL     OW30703   3.210   0.500   6.369
 9935SOL    HW130704   3.221   0.401   6.381
 9935SOL    HW230705   3.128   0.518   6.315
 9936SOL     OW30706   0.700   3.734   3.682
 9936SOL    HW130707   0.743   3.709   3.768
 9936SOL    HW230708   0.729   3.826   3.656
 9937SOL     OW30709   6.605   2.232   6.431
 9937SOL    HW130710   6.687   2.209   6.482
 9937SOL    HW230711   6.533   2.166   6.451
 9938SOL     OW30712   7.000   6.464   2.838
 9938SOL    HW130713   0.006   6.387   2.894
 9938SOL    HW230714   0.050   6.490   2.775
 9939SOL     OW30715   3.614   3.346   3.031
 9939SOL    HW130716   3.604   3.254   3.069
 9939SOL    HW230717   3.565   3.411   3.089
 9940SOL     OW30718   7.012   1.241   0.439
 9940SOL    HW130719   6.988   1.152   0.399
 9940SOL    HW230720   7.004   1.236   0.538
 9941SOL     OW30721   2.932   5.344   5.491
 9941SOL    HW130722   3.001   5.286   5.449
 9941SOL    HW230723   2.920   5.428   5.437
 9942SOL     OW30724   2.972   5.714   4.142
 9942SOL    HW130725   2.893   5.749   4.091
 9942SOL    HW230726   2.946   5.630   4.190
 9943SOL     OW30727   1.400   6.638   5.037
 9943SOL    HW130728   1.323   6.583   5.004
 9943SOL    HW230729   1.424   6.706   4.967
 9944SOL     OW30730   1.393   3.867   6.916
 9944SOL    HW130731   1.356   3.912   6.997
 9944SOL    HW230732   1.337   3.890   6.836
 9945SOL     OW30733   6.612   6.169   6.608
 9945SOL    HW130734   6.603   6.113   6.526
 9945SOL    HW230735   6.520   6.194   6.641
 9946SOL     OW30736   5.465   1.473   4.590
 9946SOL    HW130737   5.485   1.387   4.637
 9946SOL    HW230738   5.451   1.545   4.657
 9947SOL     OW30739   6.071   4.737   3.376
 9947SOL    HW130740   6.138   4.712   3.447
 9947SOL    HW230741   6.086   4.680   3.295
 9948SOL     OW30742   5.238   3.838   4.137
 9948SOL    HW130743   5.304   3.773   4.098
 9948SOL    HW230744   5.174   3.789   4.195
 9949SOL     OW30745   5.532   5.239   2.258
 9949SOL    HW130746   5.569   5.168   2.318
 9949SOL    HW230747   5.589   5.248   2.177
 9950SOL     OW30748   3.472   5.934   5.917
 9950SOL    HW130749   3.423   5.847   5.922
 9950SOL    HW230750   3.564   5.922   5.955
 9951SOL     OW30751   6.298   2.343   3.198
 9951SOL    HW130752   6.265   2.421   3.252
 9951SOL    HW230753   6.235   2.267   3.209
 9952SOL     OW30754   0.108   5.187   6.882
 9952SOL    HW130755   0.145   5.231   6.800
 9952SOL    HW230756   0.123   5.248   6.960
 9953SOL     OW30757   6.369   2.627   3.608
 9953SOL    HW130758   6.467   2.636   3.593
 9953SOL    HW230759   6.323   2.708   3.573
 9954SOL     OW30760   3.985   0.256   5.617
 9954SOL    HW130761   3.897   0.225   5.582
 9954SOL    HW230762   4.054   0.251   5.545
 9955SOL     OW30763   0.207   4.541   4.435
 9955SOL    HW130764   0.206   4.514   4.338
 9955SOL    HW230765   0.113   4.551   4.467
 9956SOL     OW30766   1.195   6.005   0.640
 9956SOL    HW130767   1.169   5.968   0.551
 9956SOL    HW230768   1.118   6.055   0.679
 9957SOL     OW30769   5.988   5.343   2.529
 9957SOL    HW130770   6.047   5.297   2.595
 9957SOL    HW230771   6.013   5.315   2.436
 9958SOL     OW30772   2.110   4.383   0.918
 9958SOL    HW130773   2.042   4.410   0.849
 9958SOL    HW230774   2.157   4.300   0.887
 9959SOL     OW30775   3.553   3.551   1.138
 9959SOL    HW130776   3.551   3.465   1.088
 9959SOL    HW230777   3.560   3.533   1.236
 9960SOL     OW30778   0.693   1.513   2.022
 9960SOL    HW130779   0.646   1.516   2.110
 9960SOL    HW230780   0.723   1.419   2.004
 9961SOL     OW30781   2.178   3.887   4.534
 9961SOL    HW130782   2.167   3.931   4.623
 9961SOL    HW230783   2.206   3.792   4.546
 9962SOL     OW30784   5.279   6.523   4.635
 9962SOL    HW130785   5.345   6.489   4.568
 9962SOL    HW230786   5.200   6.561   4.588
 9963SOL     OW30787   3.097   0.918   0.683
 9963SOL    HW130788   3.081   0.820   0.699
 9963SOL    HW230789   3.114   0.934   0.586
 9964SOL     OW30790   5.100   5.985   4.722
 9964SOL    HW130791   5.192   6.019   4.740
 9964SOL    HW230792   5.104   5.887   4.704
 9965SOL     OW30793   3.984   6.876   0.204
 9965SOL    HW130794   3.997   6.974   0.188
 9965SOL    HW230795   4.058   6.825   0.161
 9966SOL     OW30796   7.003   0.199   3.196
 9966SOL    HW130797   0.018   0.192   3.104
 9966SOL    HW230798   6.946   0.119   3.214
 9967SOL     OW30799   0.905   5.543   0.783
 9967SOL    HW130800   0.933   5.622   0.729
 9967SOL    HW230801   0.870   5.471   0.722
 9968SOL     OW30802   2.893   3.605   2.950
 9968SOL    HW130803   2.935   3.593   3.040
 9968SOL    HW230804   2.800   3.641   2.961
 9969SOL     OW30805   1.530   3.197   1.582
 9969SOL    HW130806   1.439   3.168   1.610
 9969SOL    HW230807   1.525   3.238   1.490
 9970SOL     OW30808   5.828   4.793   1.744
 9970SOL    HW130809   5.869   4.826   1.659
 9970SOL    HW230810   5.737   4.756   1.725
 9971SOL     OW30811   2.334   6.197   0.289
 9971SOL    HW130812   2.294   6.106   0.302
 9971SOL    HW230813   2.272   6.254   0.237
 9972SOL     OW30814   6.873   4.833   1.401
 9972SOL    HW130815   6.808   4.781   1.455
 9972SOL    HW230816   6.921   4.771   1.338
 9973SOL     OW30817   6.098   6.805   3.715
 9973SOL    HW130818   6.102   6.813   3.615
 9973SOL    HW230819   6.175   6.750   3.748
 9974SOL     OW30820   2.656   0.413   4.508
 9974SOL    HW130821   2.753   0.422   4.484
 9974SOL    HW230822   2.604   0.385   4.427
 9975SOL     OW30823   6.371   3.795   0.545
 9975SOL    HW130824   6.359   3.807   0.447
 9975SOL    HW230825   6.291   3.750   0.584
 9976SOL     OW30826   2.105   6.734   5.051
 9976SOL    HW130827   2.071   6.740   5.145
 9976SOL    HW230828   2.205   6.735   5.052
 9977SOL     OW30829   6.520   4.486   4.228
 9977SOL    HW130830   6.448   4.520   4.167
 9977SOL    HW230831   6.580   4.563   4.253
 9978SOL     OW30832   0.371   2.904   5.117
 9978SOL    HW130833   0.433   2.847   5.171
 9978SOL    HW230834   0.406   2.913   5.024
 9979SOL     OW30835   0.532   4.308   5.030
 9979SOL    HW130836   0.492   4.248   4.961
 9979SOL    HW230837   0.629   4.287   5.041
 9980SOL     OW30838   2.952   6.498   4.744
 9980SOL    HW130839   2.959   6.501   4.843
 9980SOL    HW230840   2.920   6.407   4.715
 9981SOL     OW30841   4.202   2.252   3.977
 9981SOL    HW130842   4.235   2.343   4.003
 9981SOL    HW230843   4.239   2.184   4.039
 9982SOL     OW30844   6.793   6.126   2.843
 9982SOL    HW130845   6.849   6.068   2.783
 9982SOL    HW230846   6.775   6.077   2.928
 9983SOL     OW30847   6.697   1.110   0.808
 9983SOL    HW130848   6.684   1.201   0.847
 9983SOL    HW230849   6.617   1.085   0.754
 9984SOL     OW30850   2.565   1.140   0.032
 9984SOL    HW130851   2.581   1.217   6.995
 9984SOL    HW230852   2.480   1.094   0.007
 9985SOL     OW30853   1.959   1.659   1.746
 9985SOL    HW130854   1.891   1.586   1.749
 9985SOL    HW230855   1.914   1.747   1.764
 9986SOL     OW30856   4.789   3.987   4.545
 9986SOL    HW130857   4.885   3.969   4.567
 9986SOL    HW230858   4.737   3.902   4.546
 9987SOL     OW30859   0.467   4.567   5.970
 9987SOL    HW130860   0.397   4.501   5.997
 9987SOL    HW230861   0.529   4.584   6.047
 9988SOL     OW30862   6.848   6.978   4.490
 9988SOL    HW130863   6.775   6.928   4.538
 9988SOL    HW230864   6.809   0.004   4.412
 9989SOL     OW30865   1.368   2.799   4.085
 9989SOL    HW130866   1.325   2.723   4.134
 9989SOL    HW230867   1.466   2.783   4.078
 9990SOL     OW30868   1.428   5.552   2.043
 9990SOL    HW130869   1.413   5.634   1.988
 9990SOL    HW230870   1.476   5.483   1.988
 9991SOL     OW30871   4.139   2.295   3.018
 9991SOL    HW130872   4.045   2.280   2.986
 9991SOL    HW230873   4.136   2.331   3.111
 9992SOL     OW30874   6.681   5.384   6.145
 9992SOL    HW130875   6.703   5.447   6.219
 9992SOL    HW230876   6.757   5.381   6.080
 9993SOL     OW30877   1.306   0.756   1.912
 9993SOL    HW130878   1.255   0.751   1.998
 9993SOL    HW230879   1.404   0.750   1.931
 9994SOL     OW30880   6.117   4.701   2.927
 9994SOL    HW130881   6.128   4.655   3.015
 9994SOL    HW230882   6.020   4.719   2.911
 9995SOL     OW30883   5.139   1.217   4.399
 9995SOL    HW130884   5.156   1.197   4.495
 9995SOL    HW230885   5.071   1.153   4.363
 9996SOL     OW30886   2.528   3.235   7.019
 9996SOL    HW130887   2.495   3.326   6.997
 9996SOL    HW230888   2.554   3.187   6.935
 9997SOL     OW30889   2.457   0.499   4.686
 9997SOL    HW130890   2.547   0.481   4.645
 9997SOL    HW230891   2.411   0.412   4.704
 9998SOL     OW30892   5.674   6.166   5.397
 9998SOL    HW130893   5.746   6.156   5.329
 9998SOL    HW230894   5.641   6.260   5.398
 9999SOL     OW30895   6.677   1.833   4.582
 9999SOL    HW130896   6.659   1.741   4.547
 9999SOL    HW230897   6.710   1.827   4.676
10000SOL     OW30898   6.853   4.681   0.152
10000SOL    HW130899   6.894   4.769   0.128
10000SOL    HW230900   6.753   4.688   0.147
10001SOL     OW30901   3.961   6.997   3.449
10001SOL    HW130902   4.040   6.937   3.444
10001SOL    HW230903   3.971   0.048   3.383
10002SOL     OW30904   1.678   1.731   1.924
10002SOL    HW130905   1.697   1.650   1.869
10002SOL    HW230906   1.584   1.762   1.907
10003SOL     OW30907   5.273   2.996   3.246
10003SOL    HW130908   5.178   3.021   3.227
10003SOL    HW230909   5.333   3.043   3.181
10004SOL     OW30910   0.517   2.801   3.200
10004SOL    HW130911   0.436   2.814   3.142
10004SOL    HW230912   0.523   2.877   3.265
10005SOL     OW30913   5.250   0.215   4.423
10005SOL    HW130914   5.245   0.116   4.436
10005SOL    HW230915   5.245   0.261   4.511
10006SOL     OW30916   4.587   1.854   4.657
10006SOL    HW130917   4.668   1.804   4.625
10006SOL    HW230918   4.617   1.935   4.708
10007SOL     OW30919   6.402   3.725   4.047
10007SOL    HW130920   6.486   3.730   3.992
10007SOL    HW230921   6.339   3.796   4.018
10008SOL     OW30922   3.674   6.830   4.023
10008SOL    HW130923   3.658   6.789   3.934
10008SOL    HW230924   3.706   6.761   4.087
10009SOL     OW30925   2.359   4.634   1.708
10009SOL    HW130926   2.400   4.563   1.765
10009SOL    HW230927   2.429   4.701   1.683
10010SOL     OW30928   5.968   1.257   5.963
10010SOL    HW130929   5.956   1.352   5.990
10010SOL    HW230930   5.975   1.250   5.863
10011SOL     OW30931   6.773   6.796   4.188
10011SOL    HW130932   6.700   6.756   4.133
10011SOL    HW230933   6.859   6.749   4.170
10012SOL     OW30934   5.963   0.544   4.396
10012SOL    HW130935   5.985   0.619   4.334
10012SOL    HW230936   5.866   0.519   4.385
10013SOL     OW30937   1.566   0.765   1.986
10013SOL    HW130938   1.591   0.842   1.927
10013SOL    HW230939   1.561   0.796   2.081
10014SOL     OW30940   1.333   4.753   5.810
10014SOL    HW130941   1.248   4.742   5.861
10014SOL    HW230942   1.334   4.842   5.765
10015SOL     OW30943   2.116   5.368   6.722
10015SOL    HW130944   2.122   5.314   6.806
10015SOL    HW230945   2.164   5.455   6.734
10016SOL     OW30946   2.603   0.535   5.453
10016SOL    HW130947   2.503   0.534   5.462
10016SOL    HW230948   2.640   0.447   5.485
10017SOL     OW30949   0.306   2.321   4.227
10017SOL    HW130950   0.386   2.263   4.240
10017SOL    HW230951   0.308   2.396   4.294
10018SOL     OW30952   5.261   6.873   5.615
10018SOL    HW130953   5.227   6.787   5.576
10018SOL    HW230954   5.247   6.946   5.548
10019SOL     OW30955   1.692   1.114   2.623
10019SOL    HW130956   1.716   1.147   2.714
10019SOL    HW230957   1.705   1.187   2.556
10020SOL     OW30958   0.064   2.905   6.981
10020SOL    HW130959   7.003   2.955   6.998
10020SOL    HW230960   0.142   2.967   6.991
10021SOL     OW30961   5.490   2.795   1.618
10021SOL    HW130962   5.450   2.882   1.648
10021SOL    HW230963   5.429   2.751   1.552
10022SOL     OW30964   1.828   0.593   6.347
10022SOL    HW130965   1.779   0.651   6.412
10022SOL    HW230966   1.925   0.589   6.371
10023SOL     OW30967   0.178   3.104   0.632
10023SOL    HW130968   0.209   3.177   0.692
10023SOL    HW230969   0.168   3.019   0.684
10024SOL     OW30970   1.226   4.431   3.398
10024SOL    HW130971   1.180   4.519   3.385
10024SOL    HW230972   1.317   4.435   3.356
10025SOL     OW30973   0.699   0.934   0.695
10025SOL    HW130974   0.704   0.985   0.782
10025SOL    HW230975   0.688   0.999   0.620
10026SOL     OW30976   6.725   0.467   4.116
10026SOL    HW130977   6.686   0.435   4.203
10026SOL    HW230978   6.653   0.475   4.048
10027SOL     OW30979   5.877   2.647   5.821
10027SOL    HW130980   5.801   2.592   5.856
10027SOL    HW230981   5.848   2.692   5.736
10028SOL     OW30982   2.291   0.654   1.463
10028SOL    HW130983   2.339   0.638   1.550
10028SOL    HW230984   2.225   0.729   1.475
10029SOL     OW30985   4.455   1.089   4.069
10029SOL    HW130986   4.450   1.017   4.000
10029SOL    HW230987   4.395   1.165   4.043
10030SOL     OW30988   1.466   1.037   2.918
10030SOL    HW130989   1.443   1.071   2.827
10030SOL    HW230990   1.546   1.087   2.953
10031SOL     OW30991   6.713   4.517   3.828
10031SOL    HW130992   6.621   4.481   3.814
10031SOL    HW230993   6.728   4.593   3.764
10032SOL     OW30994   3.413   1.675   5.494
10032SOL    HW130995   3.479   1.712   5.429
10032SOL    HW230996   3.369   1.750   5.544
10033SOL     OW30997   5.116   2.939   4.152
10033SOL    HW130998   5.145   2.993   4.231
10033SOL    HW230999   5.124   2.842   4.174
10034SOL     OW31000   4.245   0.274   5.883
10034SOL    HW131001   4.145   0.281   5.880
10034SOL    HW231002   4.272   0.183   5.854
10035SOL     OW31003   0.613   6.873   3.526
10035SOL    HW131004   0.601   6.811   3.603
10035SOL    HW231005   0.676   6.833   3.460
10036SOL     OW31006   6.493   0.354   0.268
10036SOL    HW131007   6.549   0.272   0.259
10036SOL    HW231008   6.399   0.328   0.293
10037SOL     OW31009   6.457   6.850   1.262
10037SOL    HW131010   6.368   6.864   1.306
10037SOL    HW231011   6.529   6.890   1.319
10038SOL     OW31012   6.109   0.430   0.979
10038SOL    HW131013   6.011   0.414   0.987
10038SOL    HW231014   6.153   0.410   1.067
10039SOL     OW31015   3.952   0.203   3.302
10039SOL    HW131016   4.001   0.266   3.362
10039SOL    HW231017   3.855   0.202   3.328
10040SOL     OW31018   0.358   2.248   0.682
10040SOL    HW131019   0.402   2.321   0.734
10040SOL    HW231020   0.259   2.258   0.688
10041SOL     OW31021   1.253   6.812   0.788
10041SOL    HW131022   1.178   6.749   0.809
10041SOL    HW231023   1.329   6.761   0.747
10042SOL     OW31024   6.034   1.894   3.425
10042SOL    HW131025   6.099   1.969   3.436
10042SOL    HW231026   5.981   1.906   3.342
10043SOL     OW31027   1.495   2.934   5.059
10043SOL    HW131028   1.445   2.884   4.988
10043SOL    HW231029   1.588   2.953   5.027
10044SOL     OW31030   4.870   1.502   6.561
10044SOL    HW131031   4.853   1.506   6.462
10044SOL    HW231032   4.806   1.437   6.602
10045SOL     OW31033   2.792   1.138   1.159
10045SOL    HW131034   2.875   1.088   1.183
10045SOL    HW231035   2.814   1.234   1.145
10046SOL     OW31036   0.729   5.267   0.918
10046SOL    HW131037   0.722   5.365   0.940
10046SOL    HW231038   0.639   5.231   0.898
10047SOL     OW31039   1.731   3.418   0.469
10047SOL    HW131040   1.694   3.381   0.384
10047SOL    HW231041   1.775   3.344   0.520
10048SOL     OW31042   6.275   4.518   2.306
10048SOL    HW131043   6.215   4.442   2.281
10048SOL    HW231044   6.257   4.596   2.246
10049SOL     OW31045   6.069   1.438   4.932
10049SOL    HW131046   6.040   1.461   4.839
10049SOL    HW231047   6.062   1.339   4.945
10050SOL     OW31048   6.556   2.992   5.840
10050SOL    HW131049   6.534   3.032   5.751
10050SOL    HW231050   6.655   2.986   5.850
10051SOL     OW31051   2.316   1.167   4.370
10051SOL    HW131052   2.248   1.237   4.350
10051SOL    HW231053   2.286   1.079   4.333
10052SOL     OW31054   1.026   0.169   3.683
10052SOL    HW131055   1.001   0.087   3.735
10052SOL    HW231056   1.002   0.250   3.736
10053SOL     OW31057   5.811   5.146   2.823
10053SOL    HW131058   5.761   5.225   2.857
10053SOL    HW231059   5.748   5.069   2.812
10054SOL     OW31060   6.464   3.813   4.529
10054SOL    HW131061   6.535   3.883   4.523
10054SOL    HW231062   6.392   3.832   4.463
10055SOL     OW31063   1.638   1.728   6.843
10055SOL    HW131064   1.551   1.698   6.882
10055SOL    HW231065   1.658   1.676   6.760
10056SOL     OW31066   5.842   2.275   4.236
10056SOL    HW131067   5.764   2.229   4.281
10056SOL    HW231068   5.890   2.331   4.303
10057SOL     OW31069   5.586   4.811   5.599
10057SOL    HW131070   5.676   4.822   5.642
10057SOL    HW231071   5.574   4.716   5.572
10058SOL     OW31072   6.562   4.078   4.429
10058SOL    HW131073   6.628   4.153   4.432
10058SOL    HW231074   6.480   4.108   4.380
10059SOL     OW31075   4.922   6.408   6.961
10059SOL    HW131076   4.989   6.350   6.914
10059SOL    HW231077   4.860   6.448   6.894
10060SOL     OW31078   3.026   1.732   2.152
10060SOL    HW131079   2.972   1.808   2.186
10060SOL    HW231080   3.078   1.762   2.072
10061SOL     OW31081   3.602   6.849   2.365
10061SOL    HW131082   3.593   6.757   2.403
10061SOL    HW231083   3.678   6.851   2.300
10062SOL     OW31084   6.839   6.950   4.877
10062SOL    HW131085   6.903   0.003   4.881
10062SOL    HW231086   6.873   6.875   4.934
10063SOL     OW31087   3.227   2.074   4.910
10063SOL    HW131088   3.227   2.117   5.001
10063SOL    HW231089   3.147   2.015   4.901
10064SOL     OW31090   3.116   0.162   2.315
10064SOL    HW131091   3.170   0.245   2.299
10064SOL    HW231092   3.026   0.187   2.350
10065SOL     OW31093   0.224   2.219   1.775
10065SOL    HW131094   0.244   2.124   1.751
10065SOL    HW231095   0.127   2.227   1.799
10066SOL     OW31096   6.489   4.153   3.744
10066SOL    HW131097   6.488   4.113   3.835
10066SOL    HW231098   6.401   4.137   3.699
10067SOL     OW31099   6.125   4.084   5.287
10067SOL    HW131100   6.182   4.030   5.348
10067SOL    HW231101   6.139   4.054   5.193
10068SOL     OW31102   2.002   2.926   2.183
10068SOL    HW131103   2.039   2.833   2.187
10068SOL    HW231104   2.054   2.985   2.244
10069SOL     OW31105   3.192   4.744   1.630
10069SOL    HW131106   3.232   4.781   1.714
10069SOL    HW231107   3.175   4.646   1.642
10070SOL     OW31108   4.931   0.175   0.562
10070SOL    HW131109   5.018   0.127   0.574
10070SOL    HW231110   4.945   0.273   0.577
10071SOL     OW31111   5.377   0.394   5.801
10071SOL    HW131112   5.397   0.333   5.878
10071SOL    HW231113   5.457   0.452   5.783
10072SOL     OW31114   5.884   2.690   2.256
10072SOL    HW131115   5.871   2.622   2.183
10072SOL    HW231116   5.967   2.669   2.306
10073SOL     OW31117   5.575   5.772   5.544
10073SOL    HW131118   5.580   5.681   5.584
10073SOL    HW231119   5.666   5.799   5.511
10074SOL     OW31120   1.965   4.915   0.624
10074SOL    HW131121   1.898   4.958   0.563
10074SOL    HW231122   1.930   4.827   0.654
10075SOL     OW31123   1.538   2.745   1.549
10075SOL    HW131124   1.620   2.770   1.601
10075SOL    HW231125   1.520   2.814   1.479
10076SOL     OW31126   5.856   4.036   3.823
10076SOL    HW131127   5.880   4.098   3.898
10076SOL    HW231128   5.758   4.044   3.803
10077SOL     OW31129   4.156   3.776   6.352
10077SOL    HW131130   4.215   3.706   6.391
10077SOL    HW231131   4.119   3.744   6.264
10078SOL     OW31132   5.824   5.320   4.694
10078SOL    HW131133   5.730   5.326   4.659
10078SOL    HW231134   5.888   5.314   4.617
10079SOL     OW31135   5.209   4.902   2.848
10079SOL    HW131136   5.156   4.899   2.933
10079SOL    HW231137   5.288   4.841   2.856
10080SOL     OW31138   5.275   2.213   5.577
10080SOL    HW131139   5.296   2.140   5.511
10080SOL    HW231140   5.176   2.229   5.577
10081SOL     OW31141   1.699   4.824   6.799
10081SOL    HW131142   1.784   4.772   6.788
10081SOL    HW231143   1.668   4.856   6.710
10082SOL     OW31144   1.063   4.584   1.290
10082SOL    HW131145   1.036   4.680   1.278
10082SOL    HW231146   1.096   4.548   1.203
10083SOL     OW31147   2.964   6.288   2.814
10083SOL    HW131148   3.049   6.338   2.832
10083SOL    HW231149   2.891   6.353   2.792
10084SOL     OW31150   1.642   3.026   4.449
10084SOL    HW131151   1.577   2.952   4.468
10084SOL    HW231152   1.619   3.069   4.362
10085SOL     OW31153   4.544   6.877   1.700
10085SOL    HW131154   4.484   6.830   1.766
10085SOL    HW231155   4.632   6.897   1.744
10086SOL     OW31156   3.446   6.961   3.272
10086SOL    HW131157   3.351   6.974   3.242
10086SOL    HW231158   3.504   6.946   3.192
10087SOL     OW31159   1.495   5.522   5.280
10087SOL    HW131160   1.433   5.596   5.251
10087SOL    HW231161   1.444   5.437   5.288
10088SOL     OW31162   6.408   2.457   1.159
10088SOL    HW131163   6.441   2.367   1.186
10088SOL    HW231164   6.476   2.526   1.185
10089SOL     OW31165   4.357   6.836   1.869
10089SOL    HW131166   4.305   6.857   1.786
10089SOL    HW231167   4.377   6.920   1.919
10090SOL     OW31168   2.271   5.909   2.405
10090SOL    HW131169   2.277   5.815   2.371
10090SOL    HW231170   2.293   5.910   2.503
10091SOL     OW31171   5.586   4.799   4.007
10091SOL    HW131172   5.673   4.802   4.057
10091SOL    HW231173   5.603   4.812   3.909
10092SOL     OW31174   0.439   1.311   2.717
10092SOL    HW131175   0.500   1.382   2.681
10092SOL    HW231176   0.427   1.325   2.815
10093SOL     OW31177   4.380   3.965   6.359
10093SOL    HW131178   4.416   3.957   6.266
10093SOL    HW231179   4.292   3.919   6.365
10094SOL     OW31180   3.992   2.139   0.365
10094SOL    HW131181   3.910   2.185   0.398
10094SOL    HW231182   4.026   2.186   0.283
10095SOL     OW31183   4.267   3.216   5.319
10095SOL    HW131184   4.229   3.292   5.266
10095SOL    HW231185   4.357   3.242   5.354
10096SOL     OW31186   6.851   4.149   2.577
10096SOL    HW131187   6.894   4.213   2.513
10096SOL    HW231188   6.920   4.087   2.614
10097SOL     OW31189   0.965   1.678   0.843
10097SOL    HW131190   0.969   1.592   0.792
10097SOL    HW231191   0.951   1.754   0.780
10098SOL     OW31192   3.718   5.909   6.013
10098SOL    HW131193   3.755   5.891   6.104
10098SOL    HW231194   3.742   6.002   5.985
10099SOL     OW31195   0.104   5.724   3.373
10099SOL    HW131196   0.113   5.708   3.275
10099SOL    HW231197   0.092   5.822   3.390
10100SOL     OW31198   5.302   4.733   3.991
10100SOL    HW131199   5.365   4.810   3.999
10100SOL    HW231200   5.256   4.736   3.903
10101SOL     OW31201   6.990   2.493   6.799
10101SOL    HW131202   6.947   2.554   6.865
10101SOL    HW231203   6.997   2.538   6.711
10102SOL     OW31204   6.711   4.879   2.791
10102SOL    HW131205   6.778   4.878   2.717
10102SOL    HW231206   6.621   4.858   2.755
10103SOL     OW31207   6.811   6.760   6.567
10103SOL    HW131208   6.850   6.823   6.500
10103SOL    HW231209   6.806   6.804   6.656
10104SOL     OW31210   2.785   0.987   5.020
10104SOL    HW131211   2.769   1.041   5.102
10104SOL    HW231212   2.759   1.041   4.939
10105SOL     OW31213   3.498   1.338   4.339
10105SOL    HW131214   3.401   1.333   4.364
10105SOL    HW231215   3.507   1.348   4.240
10106SOL     OW31216   6.112   3.969   1.453
10106SOL    HW131217   6.025   3.936   1.491
10106SOL    HW231218   6.153   3.898   1.397
10107SOL     OW31219   5.703   6.040   6.396
10107SOL    HW131220   5.711   6.008   6.491
10107SOL    HW231221   5.786   6.015   6.346
10108SOL     OW31222   2.476   2.556   4.901
10108SOL    HW131223   2.383   2.592   4.891
10108SOL    HW231224   2.539   2.629   4.925
10109SOL     OW31225   1.250   3.134   0.971
10109SOL    HW131226   1.318   3.205   0.986
10109SOL    HW231227   1.241   3.117   0.873
10110SOL     OW31228   6.387   6.113   2.727
10110SOL    HW131229   6.320   6.169   2.678
10110SOL    HW231230   6.341   6.062   2.800
10111SOL     OW31231   6.487   2.580   1.605
10111SOL    HW131232   6.575   2.556   1.646
10111SOL    HW231233   6.421   2.598   1.678
10112SOL     OW31234   6.829   2.719   4.249
10112SOL    HW131235   6.808   2.743   4.344
10112SOL    HW231236   6.773   2.774   4.187
10113SOL     OW31237   6.927   5.920   5.788
10113SOL    HW131238   6.883   6.010   5.794
10113SOL    HW231239   6.913   5.870   5.873
10114SOL     OW31240   5.067   3.975   1.619
10114SOL    HW131241   5.014   4.046   1.574
10114SOL    HW231242   5.005   3.907   1.659
10115SOL     OW31243   3.501   2.734   6.456
10115SOL    HW131244   3.454   2.794   6.520
10115SOL    HW231245   3.599   2.755   6.456
10116SOL     OW31246   0.346   6.771   6.504
10116SOL    HW131247   0.397   6.690   6.475
10116SOL    HW231248   0.318   6.760   6.600
10117SOL     OW31249   0.317   4.313   1.088
10117SOL    HW131250   0.378   4.361   1.150
10117SOL    HW231251   0.290   4.374   1.014
10118SOL     OW31252   4.318   4.633   3.362
10118SOL    HW131253   4.274   4.652   3.449
10118SOL    HW231254   4.415   4.611   3.378
10119SOL     OW31255   5.969   5.919   6.787
10119SOL    HW131256   5.974   5.953   6.881
10119SOL    HW231257   5.910   5.838   6.785
10120SOL     OW31258   2.685   2.296   2.999
10120SOL    HW131259   2.731   2.300   2.910
10120SOL    HW231260   2.652   2.203   3.015
10121SOL     OW31261   6.362   5.548   1.837
10121SOL    HW131262   6.322   5.607   1.907
10121SOL    HW231263   6.461   5.543   1.849
10122SOL     OW31264   2.003   0.621   3.130
10122SOL    HW131265   2.038   0.632   3.223
10122SOL    HW231266   1.998   0.524   3.108
10123SOL     OW31267   6.119   6.005   6.600
10123SOL    HW131268   6.058   5.976   6.674
10123SOL    HW231269   6.132   5.930   6.536
10124SOL     OW31270   2.765   5.349   2.376
10124SOL    HW131271   2.795   5.255   2.391
10124SOL    HW231272   2.807   5.385   2.292
10125SOL     OW31273   1.682   1.656   4.762
10125SOL    HW131274   1.632   1.736   4.730
10125SOL    HW231275   1.719   1.606   4.683
10126SOL     OW31276   6.556   6.281   4.590
10126SOL    HW131277   6.534   6.373   4.624
10126SOL    HW231278   6.602   6.289   4.502
10127SOL     OW31279   2.330   0.472   5.357
10127SOL    HW131280   2.350   0.556   5.307
10127SOL    HW231281   2.343   0.394   5.297
10128SOL     OW31282   2.302   1.917   0.400
10128SOL    HW131283   2.394   1.931   0.363
10128SOL    HW231284   2.258   2.006   0.415
10129SOL     OW31285   6.963   2.339   4.726
10129SOL    HW131286   7.013   2.329   4.811
10129SOL    HW231287   6.970   2.434   4.694
10130SOL     OW31288   1.314   1.888   3.354
10130SOL    HW131289   1.283   1.806   3.402
10130SOL    HW231290   1.235   1.947   3.335
10131SOL     OW31291   1.992   0.293   5.358
10131SOL    HW131292   1.918   0.227   5.370
10131SOL    HW231293   2.046   0.298   5.442
10132SOL     OW31294   6.107   0.467   2.429
10132SOL    HW131295   6.048   0.489   2.507
10132SOL    HW231296   6.197   0.508   2.443
10133SOL     OW31297   4.204   5.549   0.956
10133SOL    HW131298   4.293   5.526   0.915
10133SOL    HW231299   4.156   5.465   0.981
10134SOL     OW31300   0.238   6.467   3.278
10134SOL    HW131301   0.234   6.534   3.352
10134SOL    HW231302   0.196   6.506   3.196
10135SOL     OW31303   6.475   6.399   3.976
10135SOL    HW131304   6.484   6.479   4.035
10135SOL    HW231305   6.557   6.390   3.919
10136SOL     OW31306   4.793   0.967   3.570
10136SOL    HW131307   4.875   0.996   3.521
10136SOL    HW231308   4.804   0.873   3.602
10137SOL     OW31309   6.813   5.965   3.450
10137SOL    HW131310   6.785   5.906   3.525
10137SOL    HW231311   6.904   6.003   3.470
10138SOL     OW31312   0.158   1.765   2.118
10138SOL    HW131313   0.229   1.834   2.110
10138SOL    HW231314   0.197   1.681   2.155
10139SOL     OW31315   3.871   2.994   0.268
10139SOL    HW131316   3.896   2.952   0.355
10139SOL    HW231317   3.948   3.047   0.233
10140SOL     OW31318   6.391   6.502   4.754
10140SOL    HW131319   6.318   6.434   4.760
10140SOL    HW231320   6.368   6.569   4.683
10141SOL     OW31321   1.406   1.915   4.636
10141SOL    HW131322   1.425   2.001   4.589
10141SOL    HW231323   1.457   1.912   4.722
10142SOL     OW31324   4.531   5.894   2.072
10142SOL    HW131325   4.488   5.813   2.111
10142SOL    HW231326   4.533   5.887   1.973
10143SOL     OW31327   5.807   3.433   6.475
10143SOL    HW131328   5.891   3.449   6.423
10143SOL    HW231329   5.728   3.457   6.420
10144SOL     OW31330   3.645   0.277   0.916
10144SOL    HW131331   3.592   0.203   0.875
10144SOL    HW231332   3.738   0.245   0.934
10145SOL     OW31333   6.786   0.326   4.912
10145SOL    HW131334   6.823   0.236   4.935
10145SOL    HW231335   6.779   0.381   4.995
10146SOL     OW31336   1.800   2.597   5.580
10146SOL    HW131337   1.734   2.666   5.550
10146SOL    HW231338   1.750   2.512   5.602
10147SOL     OW31339   3.340   5.238   0.316
10147SOL    HW131340   3.371   5.145   0.298
10147SOL    HW231341   3.411   5.303   0.287
10148SOL     OW31342   0.525   5.358   6.402
10148SOL    HW131343   0.494   5.267   6.429
10148SOL    HW231344   0.591   5.349   6.327
10149SOL     OW31345   3.363   3.120   3.423
10149SOL    HW131346   3.299   3.087   3.491
10149SOL    HW231347   3.387   3.216   3.443
10150SOL     OW31348   4.904   4.132   1.451
10150SOL    HW131349   4.822   4.140   1.507
10150SOL    HW231350   4.895   4.191   1.371
10151SOL     OW31351   0.081   0.693   6.908
10151SOL    HW131352   0.156   0.668   6.846
10151SOL    HW231353   0.013   0.747   6.858
10152SOL     OW31354   3.730   6.073   3.856
10152SOL    HW131355   3.718   6.071   3.757
10152SOL    HW231356   3.642   6.067   3.902
10153SOL     OW31357   5.105   3.623   1.713
10153SOL    HW131358   5.146   3.589   1.629
10153SOL    HW231359   5.171   3.679   1.763
10154SOL     OW31360   4.274   5.172   5.344
10154SOL    HW131361   4.353   5.168   5.404
10154SOL    HW231362   4.271   5.088   5.288
10155SOL     OW31363   4.196   2.072   4.225
10155SOL    HW131364   4.206   1.978   4.193
10155SOL    HW231365   4.240   2.082   4.314
10156SOL     OW31366   3.674   2.051   6.489
10156SOL    HW131367   3.649   2.029   6.395
10156SOL    HW231368   3.603   2.016   6.551
10157SOL     OW31369   0.984   4.680   0.764
10157SOL    HW131370   0.899   4.687   0.816
10157SOL    HW231371   0.999   4.585   0.737
10158SOL     OW31372   5.712   4.887   6.946
10158SOL    HW131373   5.721   4.986   6.934
10158SOL    HW231374   5.800   4.849   6.974
10159SOL     OW31375   3.784   2.957   1.512
10159SOL    HW131376   3.761   3.030   1.577
10159SOL    HW231377   3.875   2.921   1.533
10160SOL     OW31378   0.099   3.864   2.387
10160SOL    HW131379   0.125   3.886   2.293
10160SOL    HW231380   0.155   3.788   2.420
10161SOL     OW31381   6.162   3.022   6.864
10161SOL    HW131382   6.137   3.066   6.777
10161SOL    HW231383   6.261   3.031   6.879
10162SOL     OW31384   1.943   2.183   2.285
10162SOL    HW131385   1.885   2.253   2.326
10162SOL    HW231386   2.036   2.219   2.273
10163SOL     OW31387   3.429   5.057   4.875
10163SOL    HW131388   3.413   5.156   4.868
10163SOL    HW231389   3.393   5.024   4.962
10164SOL     OW31390   0.048   0.747   4.102
10164SOL    HW131391   0.147   0.756   4.111
10164SOL    HW231392   0.023   0.650   4.105
10165SOL     OW31393   1.702   3.449   3.691
10165SOL    HW131394   1.755   3.486   3.614
10165SOL    HW231395   1.709   3.511   3.769
10166SOL     OW31396   3.475   6.288   3.262
10166SOL    HW131397   3.394   6.304   3.205
10166SOL    HW231398   3.461   6.331   3.351
10167SOL     OW31399   3.702   1.630   6.660
10167SOL    HW131400   3.733   1.717   6.698
10167SOL    HW231401   3.670   1.644   6.566
10168SOL     OW31402   0.774   1.313   6.495
10168SOL    HW131403   0.777   1.412   6.483
10168SOL    HW231404   0.856   1.272   6.453
10169SOL     OW31405   4.529   5.528   2.760
10169SOL    HW131406   4.442   5.573   2.740
10169SOL    HW231407   4.512   5.440   2.804
10170SOL     OW31408   4.441   6.646   0.280
10170SOL    HW131409   4.366   6.705   0.250
10170SOL    HW231410   4.522   6.702   0.298
10171SOL     OW31411   1.498   4.410   3.584
10171SOL    HW131412   1.511   4.321   3.627
10171SOL    HW231413   1.548   4.413   3.497
10172SOL     OW31414   0.920   0.769   2.703
10172SOL    HW131415   0.912   0.828   2.623
10172SOL    HW231416   0.958   0.681   2.676
10173SOL     OW31417   4.512   3.305   5.445
10173SOL    HW131418   4.599   3.304   5.396
10173SOL    HW231419   4.523   3.259   5.533
10174SOL     OW31420   5.115   4.540   1.842
10174SOL    HW131421   5.021   4.572   1.853
10174SOL    HW231422   5.122   4.445   1.871
10175SOL     OW31423   6.622   0.060   3.826
10175SOL    HW131424   6.672   7.013   3.776
10175SOL    HW231425   6.683   0.105   3.891
10176SOL     OW31426   0.364   1.114   4.613
10176SOL    HW131427   0.336   1.067   4.696
10176SOL    HW231428   0.463   1.103   4.600
10177SOL     OW31429   3.179   1.080   4.501
10177SOL    HW131430   3.237   1.117   4.573
10177SOL    HW231431   3.138   0.994   4.532
10178SOL     OW31432   6.742   1.085   1.834
10178SOL    HW131433   6.642   1.083   1.838
10178SOL    HW231434   6.778   1.131   1.915
10179SOL     OW31435   0.463   6.381   0.519
10179SOL    HW131436   0.405   6.361   0.440
10179SOL    HW231437   0.556   6.401   0.487
10180SOL     OW31438   2.656   0.107   6.160
10180SOL    HW131439   2.662   0.149   6.250
10180SOL    HW231440   2.673   0.008   6.168
10181SOL     OW31441   0.022   3.968   2.625
10181SOL    HW131442   0.096   3.925   2.676
10181SOL    HW231443   0.011   3.922   2.537
10182SOL     OW31444   4.409   6.874   0.004
10182SOL    HW131445   4.393   6.951   6.966
10182SOL    HW231446   4.454   6.800   6.977
10183SOL     OW31447   3.764   6.226   5.942
10183SOL    HW131448   3.853   6.199   5.978
10183SOL    HW231449   3.712   6.274   6.013
10184SOL     OW31450   5.463   2.840   4.627
10184SOL    HW131451   5.458   2.927   4.676
10184SOL    HW231452   5.559   2.817   4.610
10185SOL     OW31453   3.072   4.797   2.026
10185SOL    HW131454   3.016   4.719   1.998
10185SOL    HW231455   3.152   4.803   1.967
10186SOL     OW31456   3.290   2.894   1.172
10186SOL    HW131457   3.250   2.871   1.261
10186SOL    HW231458   3.332   2.813   1.132
10187SOL     OW31459   1.799   3.687   5.790
10187SOL    HW131460   1.821   3.732   5.876
10187SOL    HW231461   1.861   3.720   5.719
10188SOL     OW31462   1.965   0.139   6.739
10188SOL    HW131463   2.025   0.077   6.790
10188SOL    HW231464   1.938   0.095   6.653
10189SOL     OW31465   1.953   1.917   5.369
10189SOL    HW131466   1.872   1.866   5.397
10189SOL    HW231467   1.967   1.905   5.270
10190SOL     OW31468   3.863   3.656   0.739
10190SOL    HW131469   3.958   3.642   0.714
10190SOL    HW231470   3.806   3.653   0.657
10191SOL     OW31471   5.713   0.969   0.581
10191SOL    HW131472   5.760   0.938   0.498
10191SOL    HW231473   5.615   0.952   0.572
10192SOL     OW31474   2.360   0.337   3.988
10192SOL    HW131475   2.369   0.256   4.046
10192SOL    HW231476   2.325   0.413   4.042
10193SOL     OW31477   3.665   3.735   3.694
10193SOL    HW131478   3.582   3.788   3.708
10193SOL    HW231479   3.716   3.771   3.616
10194SOL     OW31480   3.234   5.995   3.863
10194SOL    HW131481   3.252   5.917   3.923
10194SOL    HW231482   3.147   5.981   3.815
10195SOL     OW31483   5.174   0.551   2.871
10195SOL    HW131484   5.188   0.453   2.860
10195SOL    HW231485   5.262   0.598   2.859
10196SOL     OW31486   5.091   4.061   4.052
10196SOL    HW131487   5.001   4.031   4.022
10196SOL    HW231488   5.148   3.980   4.070
10197SOL     OW31489   4.869   2.182   2.670
10197SOL    HW131490   4.887   2.247   2.744
10197SOL    HW231491   4.858   2.232   2.584
10198SOL     OW31492   2.993   1.456   2.229
10198SOL    HW131493   2.999   1.555   2.219
10198SOL    HW231494   2.955   1.416   2.146
10199SOL     OW31495   0.945   1.906   6.868
10199SOL    HW131496   0.856   1.905   6.822
10199SOL    HW231497   0.995   1.988   6.840
10200SOL     OW31498   5.907   6.617   3.752
10200SOL    HW131499   5.826   6.672   3.734
10200SOL    HW231500   5.989   6.673   3.739
10201SOL     OW31501   1.583   4.349   2.014
10201SOL    HW131502   1.579   4.435   2.065
10201SOL    HW231503   1.550   4.275   2.072
10202SOL     OW31504   1.074   2.047   3.258
10202SOL    HW131505   1.003   2.073   3.324
10202SOL    HW231506   1.083   2.118   3.188
10203SOL     OW31507   0.474   2.104   1.089
10203SOL    HW131508   0.416   2.183   1.105
10203SOL    HW231509   0.437   2.050   1.013
10204SOL     OW31510   2.342   5.863   3.910
10204SOL    HW131511   2.382   5.928   3.846
10204SOL    HW231512   2.256   5.901   3.946
10205SOL     OW31513   3.699   0.003   1.135
10205SOL    HW131514   3.771   0.048   1.188
10205SOL    HW231515   3.610   0.044   1.157
10206SOL     OW31516   5.693   6.147   0.460
10206SOL    HW131517   5.776   6.138   0.515
10206SOL    HW231518   5.623   6.085   0.495
10207SOL     OW31519   3.720   1.554   2.716
10207SOL    HW131520   3.695   1.596   2.629
10207SOL    HW231521   3.770   1.469   2.699
10208SOL     OW31522   6.736   3.271   6.343
10208SOL    HW131523   6.819   3.216   6.348
10208SOL    HW231524   6.671   3.240   6.413
10209SOL     OW31525   3.188   6.354   6.936
10209SOL    HW131526   3.219   6.292   7.008
10209SOL    HW231527   3.104   6.400   6.965
10210SOL     OW31528   5.073   5.726   6.822
10210SOL    HW131529   5.052   5.636   6.860
10210SOL    HW231530   5.019   5.796   6.870
10211SOL     OW31531   3.863   5.748   5.507
10211SOL    HW131532   3.901   5.775   5.595
10211SOL    HW231533   3.781   5.802   5.488
10212SOL     OW31534   6.235   6.460   6.220
10212SOL    HW131535   6.288   6.473   6.136
10212SOL    HW231536   6.234   6.363   6.244
10213SOL     OW31537   4.012   0.132   4.660
10213SOL    HW131538   4.023   0.110   4.757
10213SOL    HW231539   3.956   0.214   4.650
10214SOL     OW31540   6.886   0.471   0.390
10214SOL    HW131541   6.863   0.389   0.442
10214SOL    HW231542   6.978   0.461   0.352
10215SOL     OW31543   4.473   2.371   0.222
10215SOL    HW131544   4.447   2.290   0.274
10215SOL    HW231545   4.395   2.403   0.168
10216SOL     OW31546   5.093   0.325   2.545
10216SOL    HW131547   5.005   0.358   2.511
10216SOL    HW231548   5.122   0.245   2.492
10217SOL     OW31549   3.711   2.301   5.340
10217SOL    HW131550   3.734   2.346   5.426
10217SOL    HW231551   3.613   2.314   5.320
10218SOL     OW31552   3.747   0.952   6.503
10218SOL    HW131553   3.841   0.948   6.537
10218SOL    HW231554   3.685   0.972   6.579
10219SOL     OW31555   1.235   5.312   0.326
10219SOL    HW131556   1.206   5.219   0.348
10219SOL    HW231557   1.158   5.375   0.338
10220SOL     OW31558   4.003   2.226   0.104
10220SOL    HW131559   4.004   2.132   0.069
10220SOL    HW231560   3.939   2.281   0.051
10221SOL     OW31561   2.600   0.648   4.134
10221SOL    HW131562   2.577   0.554   4.159
10221SOL    HW231563   2.517   0.697   4.107
10222SOL     OW31564   1.855   4.393   5.183
10222SOL    HW131565   1.947   4.429   5.166
10222SOL    HW231566   1.832   4.327   5.111
10223SOL     OW31567   0.879   5.014   6.037
10223SOL    HW131568   0.864   5.111   6.015
10223SOL    HW231569   0.850   4.997   6.131
10224SOL     OW31570   2.573   6.570   5.174
10224SOL    HW131571   2.628   6.506   5.228
10224SOL    HW231572   2.597   6.563   5.078
10225SOL     OW31573   5.291   6.133   4.353
10225SOL    HW131574   5.300   6.036   4.379
10225SOL    HW231575   5.195   6.156   4.342
10226SOL     OW31576   6.394   2.656   6.008
10226SOL    HW131577   6.351   2.744   5.990
10226SOL    HW231578   6.344   2.608   6.080
10227SOL     OW31579   4.890   4.544   5.399
10227SOL    HW131580   4.828   4.504   5.466
10227SOL    HW231581   4.985   4.521   5.422
10228SOL     OW31582   0.734   3.301   1.747
10228SOL    HW131583   0.668   3.370   1.721
10228SOL    HW231584   0.687   3.214   1.763
10229SOL     OW31585   2.934   0.403   1.694
10229SOL    HW131586   2.927   0.498   1.663
10229SOL    HW231587   2.913   0.342   1.617
10230SOL     OW31588   5.934   6.224   3.536
10230SOL    HW131589   5.985   6.284   3.474
10230SOL    HW231590   5.961   6.241   3.630
10231SOL     OW31591   4.636   6.120   4.231
10231SOL    HW131592   4.604   6.098   4.139
10231SOL    HW231593   4.725   6.077   4.246
10232SOL     OW31594   3.741   2.048   3.455
10232SOL    HW131595   3.702   2.074   3.543
10232SOL    HW231596   3.829   2.094   3.443
10233SOL     OW31597   4.886   6.647   5.434
10233SOL    HW131598   4.864   6.737   5.397
10233SOL    HW231599   4.903   6.583   5.359
10234SOL     OW31600   4.129   4.995   1.096
10234SOL    HW131601   4.068   4.987   1.175
10234SOL    HW231602   4.107   5.078   1.045
10235SOL     OW31603   5.126   0.566   0.197
10235SOL    HW131604   5.158   0.660   0.205
10235SOL    HW231605   5.170   0.521   0.119
10236SOL     OW31606   1.711   5.751   1.448
10236SOL    HW131607   1.757   5.819   1.390
10236SOL    HW231608   1.774   5.719   1.518
10237SOL     OW31609   5.838   2.352   2.791
10237SOL    HW131610   5.739   2.364   2.799
10237SOL    HW231611   5.870   2.394   2.707
10238SOL     OW31612   4.740   5.579   5.252
10238SOL    HW131613   4.643   5.564   5.272
10238SOL    HW231614   4.770   5.517   5.180
10239SOL     OW31615   6.087   3.121   4.603
10239SOL    HW131616   5.995   3.161   4.598
10239SOL    HW231617   6.155   3.189   4.575
10240SOL     OW31618   5.241   3.808   3.570
10240SOL    HW131619   5.144   3.788   3.557
10240SOL    HW231620   5.256   3.835   3.665
10241SOL     OW31621   1.304   2.544   3.132
10241SOL    HW131622   1.308   2.446   3.110
10241SOL    HW231623   1.211   2.577   3.116
10242SOL     OW31624   1.105   5.141   5.861
10242SOL    HW131625   1.182   5.091   5.822
10242SOL    HW231626   1.043   5.078   5.906
10243SOL     OW31627   0.586   5.825   3.089
10243SOL    HW131628   0.531   5.849   3.010
10243SOL    HW231629   0.666   5.773   3.059
10244SOL     OW31630   1.873   5.963   0.347
10244SOL    HW131631   1.910   6.003   0.431
10244SOL    HW231632   1.784   5.921   0.366
10245SOL     OW31633   2.499   2.856   0.832
10245SOL    HW131634   2.528   2.795   0.759
10245SOL    HW231635   2.452   2.935   0.793
10246SOL     OW31636   3.059   3.801   4.675
10246SOL    HW131637   3.008   3.717   4.690
10246SOL    HW231638   3.079   3.845   4.763
10247SOL     OW31639   0.723   6.202   6.084
10247SOL    HW131640   0.782   6.274   6.120
10247SOL    HW231641   0.765   6.113   6.101
10248SOL     OW31642   6.084   0.723   3.536
10248SOL    HW131643   6.150   0.667   3.486
10248SOL    HW231644   6.119   0.817   3.544
10249SOL     OW31645   5.098   0.553   5.926
10249SOL    HW131646   5.169   0.492   5.892
10249SOL    HW231647   5.019   0.500   5.955
10250SOL     OW31648   4.349   5.899   0.622
10250SOL    HW131649   4.438   5.895   0.577
10250SOL    HW231650   4.279   5.863   0.561
10251SOL     OW31651   3.931   4.380   1.539
10251SOL    HW131652   3.954   4.393   1.442
10251SOL    HW231653   3.953   4.287   1.566
10252SOL     OW31654   0.041   3.702   0.942
10252SOL    HW131655   0.072   3.767   1.012
10252SOL    HW231656   0.027   3.612   0.984
10253SOL     OW31657   3.922   4.714   0.433
10253SOL    HW131658   3.872   4.775   0.495
10253SOL    HW231659   3.865   4.636   0.410
10254SOL     OW31660   2.720   1.729   4.901
10254SOL    HW131661   2.625   1.714   4.932
10254SOL    HW231662   2.783   1.702   4.974
10255SOL     OW31663   3.511   5.716   3.773
10255SOL    HW131664   3.476   5.791   3.717
10255SOL    HW231665   3.595   5.680   3.733
10256SOL     OW31666   5.295   6.313   0.833
10256SOL    HW131667   5.236   6.233   0.848
10256SOL    HW231668   5.257   6.370   0.761
10257SOL     OW31669   1.482   5.537   5.568
10257SOL    HW131670   1.566   5.525   5.621
10257SOL    HW231671   1.502   5.528   5.471
10258SOL     OW31672   4.243   0.680   3.318
10258SOL    HW131673   4.195   0.674   3.405
10258SOL    HW231674   4.340   0.699   3.335
10259SOL     OW31675   0.206   3.102   3.785
10259SOL    HW131676   0.228   3.196   3.759
10259SOL    HW231677   0.121   3.074   3.741
10260SOL     OW31678   0.191   5.696   2.247
10260SOL    HW131679   0.165   5.792   2.261
10260SOL    HW231680   0.149   5.639   2.318
10261SOL     OW31681   2.142   0.382   2.077
10261SOL    HW131682   2.206   0.324   2.025
10261SOL    HW231683   2.194   0.444   2.136
10262SOL     OW31684   1.282   6.729   4.059
10262SOL    HW131685   1.287   6.719   3.960
10262SOL    HW231686   1.358   6.680   4.101
10263SOL     OW31687   6.822   3.558   4.788
10263SOL    HW131688   6.804   3.555   4.887
10263SOL    HW231689   6.921   3.555   4.772
10264SOL     OW31690   0.410   6.479   0.106
10264SOL    HW131691   0.449   6.455   0.017
10264SOL    HW231692   0.344   6.553   0.095
10265SOL     OW31693   4.637   2.114   3.519
10265SOL    HW131694   4.651   2.141   3.614
10265SOL    HW231695   4.545   2.076   3.507
10266SOL     OW31696   3.518   3.715   6.966
10266SOL    HW131697   3.523   3.812   6.947
10266SOL    HW231698   3.560   3.697   0.032
10267SOL     OW31699   6.348   1.144   6.291
10267SOL    HW131700   6.408   1.211   6.335
10267SOL    HW231701   6.383   1.123   6.199
10268SOL     OW31702   6.817   3.649   0.817
10268SOL    HW131703   6.897   3.695   0.854
10268SOL    HW231704   6.734   3.691   0.854
10269SOL     OW31705   4.240   1.908   6.182
10269SOL    HW131706   4.176   1.848   6.134
10269SOL    HW231707   4.225   2.003   6.155
10270SOL     OW31708   3.197   6.008   2.417
10270SOL    HW131709   3.143   6.012   2.333
10270SOL    HW231710   3.135   6.002   2.496
10271SOL     OW31711   2.088   4.701   1.656
10271SOL    HW131712   2.179   4.664   1.675
10271SOL    HW231713   2.093   4.769   1.583
10272SOL     OW31714   1.606   1.894   4.151
10272SOL    HW131715   1.638   1.874   4.058
10272SOL    HW231716   1.665   1.964   4.191
10273SOL     OW31717   4.330   6.483   3.980
10273SOL    HW131718   4.264   6.480   4.055
10273SOL    HW231719   4.292   6.537   3.904
10274SOL     OW31720   2.742   4.810   6.414
10274SOL    HW131721   2.814   4.800   6.346
10274SOL    HW231722   2.760   4.748   6.491
10275SOL     OW31723   0.664   6.295   1.503
10275SOL    HW131724   0.759   6.283   1.531
10275SOL    HW231725   0.608   6.221   1.539
10276SOL     OW31726   0.778   6.831   0.439
10276SOL    HW131727   0.861   6.888   0.443
10276SOL    HW231728   0.742   6.818   0.532
10277SOL     OW31729   0.124   6.139   2.110
10277SOL    HW131730   0.107   6.077   2.033
10277SOL    HW231731   0.064   6.218   2.103
10278SOL     OW31732   6.571   1.152   5.758
10278SOL    HW131733   6.546   1.182   5.850
10278SOL    HW231734   6.538   1.059   5.744
10279SOL     OW31735   3.535   6.355   4.912
10279SOL    HW131736   3.548   6.325   4.817
10279SOL    HW231737   3.473   6.291   4.958
10280SOL     OW31738   2.896   2.775   0.364
10280SOL    HW131739   2.925   2.848   0.301
10280SOL    HW231740   2.868   2.816   0.451
10281SOL     OW31741   5.058   0.736   4.198
10281SOL    HW131742   5.056   0.817   4.140
10281SOL    HW231743   5.048   0.654   4.142
10282SOL     OW31744   1.107   2.782   3.843
10282SOL    HW131745   1.132   2.854   3.908
10282SOL    HW231746   1.189   2.740   3.806
10283SOL     OW31747   1.645   4.127   6.076
10283SOL    HW131748   1.606   4.205   6.027
10283SOL    HW231749   1.601   4.043   6.047
10284SOL     OW31750   5.032   3.325   0.055
10284SOL    HW131751   5.040   3.297   6.983
10284SOL    HW231752   4.991   3.416   0.059
10285SOL     OW31753   5.290   1.694   1.341
10285SOL    HW131754   5.314   1.741   1.256
10285SOL    HW231755   5.237   1.756   1.399
10286SOL     OW31756   4.226   0.541   4.441
10286SOL    HW131757   4.242   0.453   4.396
10286SOL    HW231758   4.182   0.526   4.530
10287SOL     OW31759   1.849   4.516   1.889
10287SOL    HW131760   1.943   4.484   1.894
10287SOL    HW231761   1.795   4.477   1.964
10288SOL     OW31762   4.093   6.501   4.526
10288SOL    HW131763   4.113   6.599   4.524
10288SOL    HW231764   4.099   6.468   4.620
10289SOL     OW31765   2.988   1.521   1.889
10289SOL    HW131766   3.024   1.601   1.937
10289SOL    HW231767   3.011   1.527   1.792
10290SOL     OW31768   3.213   2.996   3.195
10290SOL    HW131769   3.181   3.024   3.285
10290SOL    HW231770   3.311   2.974   3.200
10291SOL     OW31771   3.821   0.300   4.802
10291SOL    HW131772   3.908   0.290   4.849
10291SOL    HW231773   3.747   0.267   4.861
10292SOL     OW31774   6.949   2.215   4.287
10292SOL    HW131775   6.888   2.137   4.306
10292SOL    HW231776   6.895   2.299   4.288
10293SOL     OW31777   3.112   4.933   2.833
10293SOL    HW131778   3.190   4.902   2.887
10293SOL    HW231779   3.106   5.033   2.837
10294SOL     OW31780   6.516   0.909   3.191
10294SOL    HW131781   6.528   0.960   3.276
10294SOL    HW231782   6.522   0.811   3.209
10295SOL     OW31783   1.886   3.971   4.155
10295SOL    HW131784   1.842   4.040   4.213
10295SOL    HW231785   1.980   3.958   4.187
10296SOL     OW31786   6.496   3.083   1.932
10296SOL    HW131787   6.414   3.048   1.977
10296SOL    HW231788   6.508   3.180   1.956
10297SOL     OW31789   3.069   5.035   5.241
10297SOL    HW131790   2.976   5.049   5.208
10297SOL    HW231791   3.085   4.938   5.257
10298SOL     OW31792   6.079   3.013   2.951
10298SOL    HW131793   6.046   2.921   2.928
10298SOL    HW231794   6.165   3.006   3.002
10299SOL     OW31795   4.702   4.456   2.356
10299SOL    HW131796   4.701   4.365   2.315
10299SOL    HW231797   4.627   4.510   2.319
10300SOL     OW31798   0.527   6.155   1.945
10300SOL    HW131799   0.444   6.111   1.912
10300SOL    HW231800   0.508   6.205   2.029
10301SOL     OW31801   4.830   0.399   1.709
10301SOL    HW131802   4.844   0.458   1.788
10301SOL    HW231803   4.798   0.309   1.740
10302SOL     OW31804   1.673   4.076   3.467
10302SOL    HW131805   1.582   4.110   3.445
10302SOL    HW231806   1.680   3.980   3.442
10303SOL     OW31807   4.520   2.816   1.424
10303SOL    HW131808   4.484   2.722   1.422
10303SOL    HW231809   4.445   2.880   1.405
10304SOL     OW31810   5.706   6.371   3.574
10304SOL    HW131811   5.688   6.389   3.477
10304SOL    HW231812   5.778   6.302   3.581
10305SOL     OW31813   1.957   5.150   1.254
10305SOL    HW131814   2.047   5.161   1.294
10305SOL    HW231815   1.888   5.189   1.315
10306SOL     OW31816   4.254   4.157   0.441
10306SOL    HW131817   4.280   4.213   0.520
10306SOL    HW231818   4.169   4.108   0.462
10307SOL     OW31819   2.521   2.042   5.587
10307SOL    HW131820   2.510   1.949   5.552
10307SOL    HW231821   2.496   2.045   5.683
10308SOL     OW31822   2.601   5.111   3.834
10308SOL    HW131823   2.582   5.030   3.889
10308SOL    HW231824   2.661   5.087   3.758
10309SOL     OW31825   0.339   6.526   3.774
10309SOL    HW131826   0.405   6.549   3.702
10309SOL    HW231827   0.278   6.454   3.742
10310SOL     OW31828   2.948   3.631   4.245
10310SOL    HW131829   2.955   3.570   4.323
10310SOL    HW231830   3.027   3.617   4.185
10311SOL     OW31831   0.843   0.934   1.048
10311SOL    HW131832   0.809   0.873   1.119
10311SOL    HW231833   0.772   0.999   1.022
10312SOL     OW31834   2.351   5.051   0.805
10312SOL    HW131835   2.450   5.041   0.795
10312SOL    HW231836   2.305   5.001   0.731
10313SOL     OW31837   0.018   5.783   4.192
10313SOL    HW131838   0.020   5.759   4.095
10313SOL    HW231839   6.950   5.812   4.217
10314SOL     OW31840   7.012   6.154   5.134
10314SOL    HW131841   0.056   6.081   5.123
10314SOL    HW231842   6.955   6.135   5.214
10315SOL     OW31843   4.215   6.580   5.905
10315SOL    HW131844   4.256   6.489   5.902
10315SOL    HW231845   4.123   6.574   5.943
10316SOL     OW31846   0.357   4.277   3.171
10316SOL    HW131847   0.277   4.254   3.115
10316SOL    HW231848   0.353   4.373   3.196
10317SOL     OW31849   4.868   4.176   6.862
10317SOL    HW131850   4.943   4.242   6.848
10317SOL    HW231851   4.899   4.103   6.922
10318SOL     OW31852   5.554   4.979   2.758
10318SOL    HW131853   5.515   4.893   2.791
10318SOL    HW231854   5.522   4.996   2.664
10319SOL     OW31855   5.001   6.755   3.890
10319SOL    HW131856   5.095   6.775   3.920
10319SOL    HW231857   4.959   6.690   3.954
10320SOL     OW31858   4.488   6.544   2.154
10320SOL    HW131859   4.528   6.526   2.064
10320SOL    HW231860   4.477   6.643   2.165
10321SOL     OW31861   4.578   6.396   4.304
10321SOL    HW131862   4.594   6.390   4.403
10321SOL    HW231863   4.607   6.310   4.261
10322SOL     OW31864   0.485   1.921   0.159
10322SOL    HW131865   0.534   1.887   0.079
10322SOL    HW231866   0.392   1.883   0.159
10323SOL     OW31867   0.850   2.285   5.294
10323SOL    HW131868   0.853   2.242   5.204
10323SOL    HW231869   0.792   2.231   5.355
10324SOL     OW31870   3.555   2.903   3.902
10324SOL    HW131871   3.482   2.886   3.968
10324SOL    HW231872   3.520   2.892   3.809
10325SOL     OW31873   6.647   3.779   3.570
10325SOL    HW131874   6.683   3.710   3.506
10325SOL    HW231875   6.705   3.860   3.568
10326SOL     OW31876   5.979   2.069   1.296
10326SOL    HW131877   5.898   2.063   1.238
10326SOL    HW231878   6.061   2.055   1.239
10327SOL     OW31879   6.353   1.370   3.385
10327SOL    HW131880   6.382   1.362   3.290
10327SOL    HW231881   6.274   1.310   3.401
10328SOL     OW31882   6.286   3.680   2.465
10328SOL    HW131883   6.358   3.745   2.440
10328SOL    HW231884   6.287   3.666   2.564
10329SOL     OW31885   3.565   5.588   3.146
10329SOL    HW131886   3.606   5.526   3.079
10329SOL    HW231887   3.468   5.568   3.155
10330SOL     OW31888   3.278   3.977   1.059
10330SOL    HW131889   3.236   3.889   1.079
10330SOL    HW231890   3.210   4.039   1.020
10331SOL     OW31891   5.550   1.394   4.107
10331SOL    HW131892   5.467   1.449   4.115
10331SOL    HW231893   5.541   1.311   4.162
10332SOL     OW31894   1.274   1.993   6.109
10332SOL    HW131895   1.255   1.898   6.132
10332SOL    HW231896   1.311   2.040   6.189
10333SOL     OW31897   6.952   4.620   5.202
10333SOL    HW131898   6.954   4.525   5.233
10333SOL    HW231899   6.883   4.630   5.130
10334SOL     OW31900   0.536   5.433   5.310
10334SOL    HW131901   0.562   5.413   5.216
10334SOL    HW231902   0.456   5.492   5.312
10335SOL     OW31903   3.434   5.134   2.968
10335SOL    HW131904   3.491   5.212   2.994
10335SOL    HW231905   3.436   5.122   2.869
10336SOL     OW31906   5.117   6.806   3.101
10336SOL    HW131907   5.063   6.859   3.035
10336SOL    HW231908   5.067   6.800   3.187
10337SOL     OW31909   0.661   4.112   6.250
10337SOL    HW131910   0.689   4.016   6.260
10337SOL    HW231911   0.626   4.145   6.338
10338SOL     OW31912   2.887   4.757   2.387
10338SOL    HW131913   2.844   4.747   2.298
10338SOL    HW231914   2.981   4.724   2.383
10339SOL     OW31915   2.634   5.597   0.166
10339SOL    HW131916   2.664   5.572   0.074
10339SOL    HW231917   2.711   5.590   0.229
10340SOL     OW31918   1.504   6.757   0.682
10340SOL    HW131919   1.543   6.757   0.774
10340SOL    HW231920   1.558   6.816   0.622
10341SOL     OW31921   0.840   2.516   1.834
10341SOL    HW131922   0.896   2.521   1.917
10341SOL    HW231923   0.833   2.420   1.805
10342SOL     OW31924   3.075   5.605   4.411
10342SOL    HW131925   3.115   5.514   4.426
10342SOL    HW231926   2.998   5.597   4.349
10343SOL     OW31927   2.383   2.829   4.675
10343SOL    HW131928   2.459   2.893   4.681
10343SOL    HW231929   2.411   2.747   4.626
10344SOL     OW31930   4.513   3.588   1.685
10344SOL    HW131931   4.515   3.688   1.680
10344SOL    HW231932   4.598   3.556   1.727
10345SOL     OW31933   3.456   1.869   6.628
10345SOL    HW131934   3.435   1.924   6.709
10345SOL    HW231935   3.370   1.838   6.586
10346SOL     OW31936   6.428   5.175   0.463
10346SOL    HW131937   6.478   5.128   0.390
10346SOL    HW231938   6.462   5.145   0.552
10347SOL     OW31939   4.407   0.115   1.434
10347SOL    HW131940   4.405   0.146   1.529
10347SOL    HW231941   4.317   0.125   1.394
10348SOL     OW31942   6.550   4.734   5.559
10348SOL    HW131943   6.602   4.812   5.523
10348SOL    HW231944   6.456   4.739   5.525
10349SOL     OW31945   6.428   1.929   6.981
10349SOL    HW131946   6.491   1.879   6.922
10349SOL    HW231947   6.342   1.878   6.990
10350SOL     OW31948   1.660   4.937   4.516
10350SOL    HW131949   1.702   4.855   4.476
10350SOL    HW231950   1.571   4.953   4.471
10351SOL     OW31951   3.760   4.969   5.046
10351SOL    HW131952   3.851   4.934   5.067
10351SOL    HW231953   3.741   4.958   4.948
10352SOL     OW31954   7.013   1.168   1.267
10352SOL    HW131955   0.089   1.170   1.280
10352SOL    HW231956   6.981   1.260   1.245
10353SOL     OW31957   5.944   2.627   3.758
10353SOL    HW131958   6.022   2.614   3.820
10353SOL    HW231959   5.951   2.717   3.714
10354SOL     OW31960   6.657   2.997   1.219
10354SOL    HW131961   6.644   3.042   1.308
10354SOL    HW231962   6.578   3.015   1.161
10355SOL     OW31963   0.756   2.027   0.712
10355SOL    HW131964   0.660   2.052   0.706
10355SOL    HW231965   0.801   2.084   0.781
10356SOL     OW31966   5.564   2.689   6.851
10356SOL    HW131967   5.564   2.603   6.902
10356SOL    HW231968   5.658   2.723   6.842
10357SOL     OW31969   0.775   0.604   6.336
10357SOL    HW131970   0.755   0.702   6.337
10357SOL    HW231971   0.711   0.558   6.274
10358SOL     OW31972   0.829   2.626   3.345
10358SOL    HW131973   0.920   2.589   3.366
10358SOL    HW231974   0.839   2.709   3.291
10359SOL     OW31975   0.796   2.313   2.360
10359SOL    HW131976   0.747   2.253   2.423
10359SOL    HW231977   0.881   2.269   2.331
10360SOL     OW31978   6.075   4.132   1.142
10360SOL    HW131979   6.150   4.124   1.208
10360SOL    HW231980   5.989   4.147   1.191
10361SOL     OW31981   6.205   1.229   2.365
10361SOL    HW131982   6.175   1.321   2.390
10361SOL    HW231983   6.267   1.235   2.287
10362SOL     OW31984   0.712   6.028   1.395
10362SOL    HW131985   0.803   6.011   1.431
10362SOL    HW231986   0.646   6.032   1.471
10363SOL     OW31987   5.336   4.708   6.510
10363SOL    HW131988   5.252   4.665   6.543
10363SOL    HW231989   5.368   4.662   6.427
10364SOL     OW31990   5.727   5.227   2.058
10364SOL    HW131991   5.762   5.281   1.982
10364SOL    HW231992   5.780   5.142   2.066
10365SOL     OW31993   6.213   5.811   6.895
10365SOL    HW131994   6.136   5.793   6.834
10365SOL    HW231995   6.266   5.889   6.861
10366SOL     OW31996   3.060   0.086   3.852
10366SOL    HW131997   2.973   0.114   3.811
10366SOL    HW231998   3.055   7.013   3.877
10367SOL     OW31999   5.407   6.564   1.797
10367SOL    HW132000   5.308   6.556   1.808
10367SOL    HW232001   5.443   6.478   1.760
10368SOL     OW32002   0.737   6.311   1.821
10368SOL    HW132003   0.703   6.401   1.849
10368SOL    HW232004   0.671   6.241   1.848
10369SOL     OW32005   2.535   0.624   5.807
10369SOL    HW132006   2.522   0.686   5.885
10369SOL    HW232007   2.589   0.670   5.737
10370SOL     OW32008   2.284   2.178   5.858
10370SOL    HW132009   2.275   2.157   5.955
10370SOL    HW232010   2.370   2.141   5.823
10371SOL     OW32011   4.315   5.687   3.269
10371SOL    HW132012   4.367   5.699   3.184
10371SOL    HW232013   4.373   5.642   3.337
10372SOL     OW32014   1.958   6.383   0.747
10372SOL    HW132015   2.012   6.376   0.663
10372SOL    HW232016   1.986   6.311   0.810
10373SOL     OW32017   6.487   0.365   6.959
10373SOL    HW132018   6.500   0.409   6.870
10373SOL    HW232019   6.564   0.389   7.019
10374SOL     OW32020   2.881   4.795   3.202
10374SOL    HW132021   2.796   4.821   3.156
10374SOL    HW232022   2.860   4.770   3.297
10375SOL     OW32023   2.326   5.372   6.939
10375SOL    HW132024   2.240   5.324   6.956
10375SOL    HW232025   2.399   5.329   6.991
10376SOL     OW32026   2.422   4.904   3.642
10376SOL    HW132027   2.349   4.946   3.588
10376SOL    HW232028   2.428   4.806   3.619
10377SOL     OW32029   2.445   0.712   3.226
10377SOL    HW132030   2.437   0.638   3.292
10377SOL    HW232031   2.520   0.773   3.253
10378SOL     OW32032   0.362   6.350   5.516
10378SOL    HW132033   0.264   6.331   5.506
10378SOL    HW232034   0.377   6.449   5.515
10379SOL     OW32035   1.845   6.507   3.540
10379SOL    HW132036   1.830   6.509   3.639
10379SOL    HW232037   1.929   6.456   3.520
10380SOL     OW32038   3.476   0.904   4.005
10380SOL    HW132039   3.478   0.804   4.009
10380SOL    HW232040   3.491   0.942   4.096
10381SOL     OW32041   3.678   0.104   3.112
10381SOL    HW132042   3.748   0.078   3.178
10381SOL    HW232043   3.642   0.195   3.135
10382SOL     OW32044   4.099   5.637   1.852
10382SOL    HW132045   4.084   5.640   1.753
10382SOL    HW232046   4.154   5.557   1.875
10383SOL     OW32047   0.443   6.025   7.015
10383SOL    HW132048   0.367   5.978   6.970
10383SOL    HW232049   0.475   6.100   6.957
10384SOL     OW32050   4.809   5.420   1.325
10384SOL    HW132051   4.809   5.320   1.323
10384SOL    HW232052   4.715   5.453   1.324
10385SOL     OW32053   3.960   4.550   0.007
10385SOL    HW132054   4.005   4.560   0.095
10385SOL    HW232055   3.878   4.492   0.017
10386SOL     OW32056   0.204   0.548   1.743
10386SOL    HW132057   0.158   0.623   1.790
10386SOL    HW232058   0.205   0.468   1.803
10387SOL     OW32059   5.217   2.859   2.069
10387SOL    HW132060   5.159   2.792   2.116
10387SOL    HW232061   5.290   2.811   2.019
10388SOL     OW32062   1.653   0.351   4.673
10388SOL    HW132063   1.700   0.263   4.681
10388SOL    HW232064   1.721   0.425   4.682
10389SOL     OW32065   0.576   3.640   6.908
10389SOL    HW132066   0.625   3.619   6.993
10389SOL    HW232067   0.624   3.712   6.858
10390SOL     OW32068   2.182   2.157   1.921
10390SOL    HW132069   2.163   2.133   1.825
10390SOL    HW232070   2.256   2.223   1.924
10391SOL     OW32071   6.430   6.748   3.374
10391SOL    HW132072   6.465   6.765   3.466
10391SOL    HW232073   6.472   6.811   3.309
10392SOL     OW32074   6.560   4.020   3.977
10392SOL    HW132075   6.621   3.943   3.960
10392SOL    HW232076   6.607   4.088   4.034
10393SOL     OW32077   2.023   2.706   2.442
10393SOL    HW132078   1.929   2.690   2.412
10393SOL    HW232079   2.084   2.702   2.363
10394SOL     OW32080   3.256   6.291   4.182
10394SOL    HW132081   3.201   6.278   4.100
10394SOL    HW232082   3.259   6.206   4.235
10395SOL     OW32083   1.066   0.703   1.077
10395SOL    HW132084   1.021   0.776   1.026
10395SOL    HW232085   1.025   0.695   1.168
10396SOL     OW32086   3.347   2.110   5.189
10396SOL    HW132087   3.266   2.165   5.166
10396SOL    HW232088   3.407   2.163   5.249
10397SOL     OW32089   5.212   1.703   4.040
10397SOL    HW132090   5.130   1.668   3.994
10397SOL    HW232091   5.264   1.626   4.077
10398SOL     OW32092   5.773   2.081   2.043
10398SOL    HW132093   5.673   2.085   2.043
10398SOL    HW232094   5.809   2.165   2.004
10399SOL     OW32095   0.688   3.849   2.288
10399SOL    HW132096   0.757   3.882   2.224
10399SOL    HW232097   0.653   3.926   2.342
10400SOL     OW32098   2.051   6.297   1.054
10400SOL    HW132099   2.025   6.200   1.057
10400SOL    HW232100   1.986   6.350   1.108
10401SOL     OW32101   0.306   0.323   5.815
10401SOL    HW132102   0.373   0.361   5.878
10401SOL    HW232103   0.318   0.363   5.724
10402SOL     OW32104   6.810   4.250   5.269
10402SOL    HW132105   6.832   4.305   5.188
10402SOL    HW232106   6.711   4.247   5.280
10403SOL     OW32107   3.217   0.126   1.018
10403SOL    HW132108   3.152   0.077   1.076
10403SOL    HW232109   3.171   0.155   0.934
10404SOL     OW32110   6.996   6.356   5.909
10404SOL    HW132111   6.898   6.353   5.924
10404SOL    HW232112   0.008   6.263   5.902
10405SOL     OW32113   0.340   2.566   6.634
10405SOL    HW132114   0.296   2.555   6.723
10405SOL    HW232115   0.297   2.505   6.567
10406SOL     OW32116   1.533   5.550   1.130
10406SOL    HW132117   1.461   5.502   1.080
10406SOL    HW232118   1.609   5.570   1.068
10407SOL     OW32119   2.097   5.933   5.787
10407SOL    HW132120   2.013   5.962   5.833
10407SOL    HW232121   2.170   5.998   5.807
10408SOL     OW32122   4.602   0.909   0.174
10408SOL    HW132123   4.695   0.876   0.164
10408SOL    HW232124   4.568   0.943   0.086
10409SOL     OW32125   6.220   3.789   0.942
10409SOL    HW132126   6.177   3.730   1.011
10409SOL    HW232127   6.271   3.862   0.988
10410SOL     OW32128   4.325   0.204   0.291
10410SOL    HW132129   4.282   0.289   0.322
10410SOL    HW232130   4.326   0.201   0.191
10411SOL     OW32131   1.746   4.713   4.397
10411SOL    HW132132   1.798   4.694   4.314
10411SOL    HW232133   1.708   4.628   4.433
10412SOL     OW32134   4.866   6.914   0.688
10412SOL    HW132135   4.778   6.952   0.659
10412SOL    HW232136   4.940   6.974   0.658
10413SOL     OW32137   6.303   3.266   2.282
10413SOL    HW132138   6.267   3.220   2.201
10413SOL    HW232139   6.318   3.200   2.355
10414SOL     OW32140   4.832   2.745   4.104
10414SOL    HW132141   4.823   2.843   4.086
10414SOL    HW232142   4.894   2.731   4.181
10415SOL     OW32143   0.565   0.788   6.351
10415SOL    HW132144   0.561   0.870   6.294
10415SOL    HW232145   0.516   0.714   6.306
10416SOL     OW32146   5.705   2.688   3.937
10416SOL    HW132147   5.636   2.633   3.890
10416SOL    HW232148   5.792   2.681   3.888
10417SOL     OW32149   1.880   4.031   3.013
10417SOL    HW132150   1.838   4.117   2.983
10417SOL    HW232151   1.913   3.980   2.933
10418SOL     OW32152   1.708   5.915   5.565
10418SOL    HW132153   1.659   5.919   5.652
10418SOL    HW232154   1.645   5.933   5.490
10419SOL     OW32155   0.909   1.337   0.325
10419SOL    HW132156   0.813   1.347   0.299
10419SOL    HW232157   0.936   1.414   0.382
10420SOL     OW32158   0.311   2.859   3.021
10420SOL    HW132159   0.249   2.933   3.048
10420SOL    HW232160   0.269   2.807   2.946
10421SOL     OW32161   0.340   1.378   2.987
10421SOL    HW132162   0.358   1.326   3.071
10421SOL    HW232163   0.244   1.369   2.962
10422SOL     OW32164   5.606   3.735   5.868
10422SOL    HW132165   5.698   3.775   5.860
10422SOL    HW232166   5.539   3.808   5.872
10423SOL     OW32167   4.941   4.024   2.951
10423SOL    HW132168   4.939   3.976   2.863
10423SOL    HW232169   4.874   4.098   2.949
10424SOL     OW32170   5.250   1.192   6.348
10424SOL    HW132171   5.183   1.267   6.353
10424SOL    HW232172   5.203   1.105   6.364
10425SOL     OW32173   1.817   6.474   1.505
10425SOL    HW132174   1.732   6.464   1.556
10425SOL    HW232175   1.868   6.552   1.541
10426SOL     OW32176   6.183   4.368   0.475
10426SOL    HW132177   6.084   4.361   0.468
10426SOL    HW232178   6.219   4.287   0.522
10427SOL     OW32179   4.922   0.753   1.170
10427SOL    HW132180   4.826   0.781   1.175
10427SOL    HW232181   4.937   0.675   1.231
10428SOL     OW32182   4.322   0.799   3.670
10428SOL    HW132183   4.367   0.803   3.760
10428SOL    HW232184   4.368   0.862   3.608
10429SOL     OW32185   5.774   5.994   1.942
10429SOL    HW132186   5.811   6.043   1.863
10429SOL    HW232187   5.841   5.927   1.974
10430SOL     OW32188   4.347   6.521   3.386
10430SOL    HW132189   4.430   6.552   3.339
10430SOL    HW232190   4.267   6.546   3.333
10431SOL     OW32191   2.089   1.113   4.969
10431SOL    HW132192   2.092   1.205   4.931
10431SOL    HW232193   2.051   1.050   4.901
10432SOL     OW32194   5.113   1.575   4.863
10432SOL    HW132195   5.157   1.568   4.774
10432SOL    HW232196   5.171   1.630   4.924
10433SOL     OW32197   3.121   6.879   1.157
10433SOL    HW132198   3.032   6.840   1.179
10433SOL    HW232199   3.189   6.846   1.223
10434SOL     OW32200   2.535   2.228   4.630
10434SOL    HW132201   2.617   2.239   4.686
10434SOL    HW232202   2.501   2.134   4.639
10435SOL     OW32203   5.820   5.462   6.575
10435SOL    HW132204   5.908   5.417   6.559
10435SOL    HW232205   5.749   5.393   6.588
10436SOL     OW32206   1.093   0.151   1.963
10436SOL    HW132207   1.154   0.088   1.917
10436SOL    HW232208   1.028   0.100   2.019
10437SOL     OW32209   6.811   4.746   5.918
10437SOL    HW132210   6.825   4.670   5.854
10437SOL    HW232211   6.762   4.820   5.872
10438SOL     OW32212   3.663   0.195   5.856
10438SOL    HW132213   3.617   0.272   5.899
10438SOL    HW232214   3.745   0.171   5.909
10439SOL     OW32215   3.902   1.034   5.367
10439SOL    HW132216   3.924   1.068   5.459
10439SOL    HW232217   3.924   0.936   5.362
10440SOL     OW32218   1.841   6.053   0.816
10440SOL    HW132219   1.836   5.970   0.760
10440SOL    HW232220   1.916   6.045   0.881
10441SOL     OW32221   3.968   0.371   0.228
10441SOL    HW132222   3.890   0.432   0.222
10441SOL    HW232223   4.044   0.418   0.272
10442SOL     OW32224   4.750   6.218   5.284
10442SOL    HW132225   4.700   6.276   5.219
10442SOL    HW232226   4.846   6.244   5.285
10443SOL     OW32227   6.362   2.925   4.749
10443SOL    HW132228   6.267   2.901   4.765
10443SOL    HW232229   6.370   3.024   4.733
10444SOL     OW32230   3.502   5.014   4.373
10444SOL    HW132231   3.557   4.942   4.417
10444SOL    HW232232   3.406   5.000   4.396
10445SOL     OW32233   6.165   6.109   3.091
10445SOL    HW132234   6.201   6.201   3.081
10445SOL    HW232235   6.215   6.046   3.031
10446SOL     OW32236   0.986   6.107   6.486
10446SOL    HW132237   0.928   6.174   6.441
10446SOL    HW232238   0.957   6.095   6.581
10447SOL     OW32239   6.220   2.081   0.584
10447SOL    HW132240   6.184   2.071   0.491
10447SOL    HW232241   6.146   2.105   0.646
10448SOL     OW32242   3.482   3.917   2.250
10448SOL    HW132243   3.531   3.833   2.273
10448SOL    HW232244   3.496   3.984   2.323
10449SOL     OW32245   1.508   5.675   4.458
10449SOL    HW132246   1.589   5.638   4.413
10449SOL    HW232247   1.518   5.666   4.557
10450SOL     OW32248   6.989   3.101   0.910
10450SOL    HW132249   0.022   3.078   0.989
10450SOL    HW232250   6.952   3.017   0.870
10451SOL     OW32251   2.360   4.505   2.743
10451SOL    HW132252   2.450   4.531   2.776
10451SOL    HW232253   2.312   4.452   2.813
10452SOL     OW32254   1.334   3.209   5.022
10452SOL    HW132255   1.251   3.213   5.077
10452SOL    HW232256   1.414   3.221   5.082
10453SOL     OW32257   5.471   0.724   1.468
10453SOL    HW132258   5.499   0.634   1.502
10453SOL    HW232259   5.399   0.761   1.526
10454SOL     OW32260   4.928   3.762   2.130
10454SOL    HW132261   4.846   3.807   2.094
10454SOL    HW232262   4.949   3.681   2.074
10455SOL     OW32263   0.214   4.598   2.878
10455SOL    HW132264   0.155   4.550   2.813
10455SOL    HW232265   0.194   4.696   2.874
10456SOL     OW32266   3.877   6.172   1.751
10456SOL    HW132267   3.812   6.121   1.807
10456SOL    HW232268   3.968   6.130   1.759
10457SOL     OW32269   3.404   3.197   3.756
10457SOL    HW132270   3.503   3.192   3.767
10457SOL    HW232271   3.376   3.140   3.679
10458SOL     OW32272   6.579   6.246   2.066
10458SOL    HW132273   6.510   6.276   2.000
10458SOL    HW232274   6.647   6.189   2.020
10459SOL     OW32275   6.881   5.178   2.011
10459SOL    HW132276   6.810   5.110   2.030
10459SOL    HW232277   6.895   5.235   2.092
10460SOL     OW32278   1.722   4.277   1.796
10460SOL    HW132279   1.664   4.298   1.875
10460SOL    HW232280   1.792   4.349   1.785
10461SOL     OW32281   2.922   1.290   6.560
10461SOL    HW132282   2.958   1.355   6.627
10461SOL    HW232283   2.825   1.275   6.576
10462SOL     OW32284   5.036   6.721   0.830
10462SOL    HW132285   5.020   6.640   0.773
10462SOL    HW232286   5.007   6.803   0.780
10463SOL     OW32287   3.394   3.431   1.530
10463SOL    HW132288   3.444   3.517   1.544
10463SOL    HW232289   3.450   3.369   1.475
10464SOL     OW32290   5.359   6.482   1.448
10464SOL    HW132291   5.267   6.515   1.430
10464SOL    HW232292   5.423   6.520   1.381
10465SOL     OW32293   6.910   5.212   4.696
10465SOL    HW132294   6.906   5.307   4.664
10465SOL    HW232295   7.002   5.192   4.729
10466SOL     OW32296   5.202   6.057   6.320
10466SOL    HW132297   5.188   6.143   6.272
10466SOL    HW232298   5.114   6.014   6.338
10467SOL     OW32299   4.439   1.604   3.732
10467SOL    HW132300   4.405   1.513   3.712
10467SOL    HW232301   4.459   1.612   3.830
10468SOL     OW32302   3.268   5.357   3.269
10468SOL    HW132303   3.339   5.370   3.338
10468SOL    HW232304   3.216   5.442   3.258
10469SOL     OW32305   1.264   5.578   6.756
10469SOL    HW132306   1.300   5.574   6.663
10469SOL    HW232307   1.341   5.580   6.820
10470SOL     OW32308   2.669   1.895   4.491
10470SOL    HW132309   2.575   1.886   4.521
10470SOL    HW232310   2.671   1.935   4.399
10471SOL     OW32311   4.005   3.993   0.557
10471SOL    HW132312   4.005   3.979   0.656
10471SOL    HW232313   4.039   3.911   0.511
10472SOL     OW32314   4.311   1.658   3.478
10472SOL    HW132315   4.212   1.665   3.491
10472SOL    HW232316   4.355   1.639   3.565
10473SOL     OW32317   4.488   5.344   6.939
10473SOL    HW132318   4.507   5.254   6.901
10473SOL    HW232319   4.573   5.397   6.945
10474SOL     OW32320   5.109   1.347   3.232
10474SOL    HW132321   5.176   1.278   3.207
10474SOL    HW232322   5.101   1.415   3.158
10475SOL     OW32323   4.763   6.299   1.612
10475SOL    HW132324   4.764   6.268   1.517
10475SOL    HW232325   4.672   6.283   1.652
10476SOL     OW32326   0.486   4.924   6.780
10476SOL    HW132327   0.431   4.909   6.698
10476SOL    HW232328   0.562   4.858   6.782
10477SOL     OW32329   4.716   4.337   5.032
10477SOL    HW132330   4.802   4.386   5.047
10477SOL    HW232331   4.701   4.325   4.934
10478SOL     OW32332   0.553   6.426   2.888
10478SOL    HW132333   0.573   6.329   2.877
10478SOL    HW232334   0.457   6.443   2.863
10479SOL     OW32335   1.002   4.576   2.152
10479SOL    HW132336   1.034   4.491   2.192
10479SOL    HW232337   0.902   4.573   2.142
10480SOL     OW32338   5.748   0.742   1.560
10480SOL    HW132339   5.830   0.685   1.559
10480SOL    HW232340   5.675   0.697   1.510
10481SOL     OW32341   2.529   1.167   4.513
10481SOL    HW132342   2.610   1.146   4.459
10481SOL    HW232343   2.449   1.169   4.454
10482SOL     OW32344   0.629   5.642   6.426
10482SOL    HW132345   0.670   5.567   6.477
10482SOL    HW232346   0.530   5.644   6.443
10483SOL     OW32347   6.556   5.586   0.976
10483SOL    HW132348   6.635   5.625   0.929
10483SOL    HW232349   6.586   5.515   1.040
10484SOL     OW32350   6.364   2.232   1.572
10484SOL    HW132351   6.307   2.168   1.623
10484SOL    HW232352   6.452   2.243   1.619
10485SOL     OW32353   3.437   4.134   3.904
10485SOL    HW132354   3.534   4.124   3.925
10485SOL    HW232355   3.384   4.136   3.989
10486SOL     OW32356   6.126   5.480   5.529
10486SOL    HW132357   6.174   5.393   5.539
10486SOL    HW232358   6.185   5.546   5.481
10487SOL     OW32359   5.159   3.146   2.943
10487SOL    HW132360   5.248   3.157   2.989
10487SOL    HW232361   5.161   3.063   2.888
10488SOL     OW32362   0.317   2.681   4.738
10488SOL    HW132363   0.236   2.724   4.698
10488SOL    HW232364   0.291   2.597   4.785
10489SOL     OW32365   5.808   4.768   4.168
10489SOL    HW132366   5.879   4.731   4.228
10489SOL    HW232367   5.850   4.829   4.100
10490SOL     OW32368   5.673   6.662   6.718
10490SOL    HW132369   5.687   6.569   6.749
10490SOL    HW232370   5.752   6.718   6.742
10491SOL     OW32371   1.928   3.080   5.785
10491SOL    HW132372   1.984   3.160   5.762
10491SOL    HW232373   1.854   3.071   5.719
10492SOL     OW32374   2.739   6.294   0.591
10492SOL    HW132375   2.647   6.267   0.564
10492SOL    HW232376   2.761   6.254   0.680
10493SOL     OW32377   3.921   5.396   1.147
10493SOL    HW132378   3.988   5.469   1.165
10493SOL    HW232379   3.830   5.427   1.174
10494SOL     OW32380   0.600   4.785   4.025
10494SOL    HW132381   0.546   4.706   4.050
10494SOL    HW232382   0.697   4.762   4.029
10495SOL     OW32383   6.914   0.243   0.575
10495SOL    HW132384   6.985   0.243   0.645
10495SOL    HW232385   6.824   0.241   0.619
10496SOL     OW32386   0.483   4.752   6.414
10496SOL    HW132387   0.419   4.740   6.491
10496SOL    HW232388   0.567   4.794   6.448
10497SOL     OW32389   3.329   7.022   1.406
10497SOL    HW132390   3.302   6.926   1.404
10497SOL    HW232391   3.392   0.015   1.482
10498SOL     OW32392   3.855   3.432   6.781
10498SOL    HW132393   3.842   3.479   6.693
10498SOL    HW232394   3.952   3.436   6.806
10499SOL     OW32395   4.770   4.424   2.757
10499SOL    HW132396   4.679   4.426   2.716
10499SOL    HW232397   4.834   4.383   2.692
10500SOL     OW32398   1.621   3.219   5.161
10500SOL    HW132399   1.599   3.232   5.258
10500SOL    HW232400   1.647   3.124   5.145
10501SOL     OW32401   3.934   4.919   3.393
10501SOL    HW132402   3.864   4.929   3.463
10501SOL    HW232403   3.893   4.883   3.310
10502SOL     OW32404   3.188   3.561   2.556
10502SOL    HW132405   3.226   3.492   2.617
10502SOL    HW232406   3.144   3.516   2.478
10503SOL     OW32407   6.646   1.164   6.827
10503SOL    HW132408   6.673   1.071   6.853
10503SOL    HW232409   6.727   1.222   6.824
10504SOL     OW32410   1.338   4.012   5.515
10504SOL    HW132411   1.339   4.090   5.577
10504SOL    HW232412   1.404   3.944   5.545
10505SOL     OW32413   6.239   6.659   0.744
10505SOL    HW132414   6.155   6.711   0.762
10505SOL    HW232415   6.218   6.561   0.742
10506SOL     OW32416   1.596   4.657   5.795
10506SOL    HW132417   1.568   4.563   5.780
10506SOL    HW232418   1.515   4.715   5.805
10507SOL     OW32419   1.060   6.307   6.128
10507SOL    HW132420   1.083   6.262   6.042
10507SOL    HW232421   1.040   6.403   6.111
10508SOL     OW32422   1.410   6.306   0.641
10508SOL    HW132423   1.493   6.270   0.600
10508SOL    HW232424   1.394   6.399   0.607
10509SOL     OW32425   4.717   2.729   2.658
10509SOL    HW132426   4.766   2.814   2.679
10509SOL    HW232427   4.654   2.708   2.732
10510SOL     OW32428   5.329   5.675   3.274
10510SOL    HW132429   5.321   5.674   3.175
10510SOL    HW232430   5.303   5.765   3.310
10511SOL     OW32431   4.022   1.568   0.979
10511SOL    HW132432   4.094   1.513   1.020
10511SOL    HW232433   3.948   1.581   1.045
10512SOL     OW32434   4.354   1.433   5.805
10512SOL    HW132435   4.340   1.456   5.901
10512SOL    HW232436   4.399   1.510   5.759
10513SOL     OW32437   3.243   3.637   0.848
10513SOL    HW132438   3.240   3.650   0.947
10513SOL    HW232439   3.246   3.539   0.828
10514SOL     OW32440   1.204   5.289   1.490
10514SOL    HW132441   1.179   5.275   1.394
10514SOL    HW232442   1.122   5.309   1.544
10515SOL     OW32443   2.175   3.620   4.862
10515SOL    HW132444   2.159   3.632   4.764
10515SOL    HW232445   2.170   3.523   4.886
10516SOL     OW32446   5.559   1.641   1.954
10516SOL    HW132447   5.484   1.631   2.020
10516SOL    HW232448   5.522   1.674   1.867
10517SOL     OW32449   0.676   2.037   1.957
10517SOL    HW132450   0.611   2.070   1.889
10517SOL    HW232451   0.626   2.002   2.036
10518SOL     OW32452   0.362   6.243   2.151
10518SOL    HW132453   0.277   6.197   2.129
10518SOL    HW232454   0.372   6.249   2.251
10519SOL     OW32455   3.252   6.752   1.356
10519SOL    HW132456   3.342   6.709   1.358
10519SOL    HW232457   3.182   6.683   1.374
10520SOL     OW32458   1.824   2.355   6.363
10520SOL    HW132459   1.824   2.450   6.332
10520SOL    HW232460   1.808   2.295   6.285
10521SOL     OW32461   6.200   2.393   2.969
10521SOL    HW132462   6.101   2.399   2.982
10521SOL    HW232463   6.244   2.370   3.055
10522SOL     OW32464   5.490   1.445   3.773
10522SOL    HW132465   5.406   1.500   3.773
10522SOL    HW232466   5.494   1.389   3.856
10523SOL     OW32467   0.542   4.271   1.499
10523SOL    HW132468   0.610   4.206   1.465
10523SOL    HW232469   0.589   4.349   1.542
10524SOL     OW32470   6.860   6.110   4.809
10524SOL    HW132471   6.869   6.210   4.815
10524SOL    HW232472   6.946   6.067   4.835
10525SOL     OW32473   4.642   1.391   3.948
10525SOL    HW132474   4.556   1.348   3.978
10525SOL    HW232475   4.684   1.336   3.876
10526SOL     OW32476   1.172   5.502   6.060
10526SOL    HW132477   1.144   5.548   6.144
10526SOL    HW232478   1.269   5.520   6.043
10527SOL     OW32479   6.796   6.086   5.485
10527SOL    HW132480   6.881   6.087   5.434
10527SOL    HW232481   6.809   6.131   5.574
10528SOL     OW32482   1.450   4.790   5.015
10528SOL    HW132483   1.473   4.818   4.922
10528SOL    HW232484   1.509   4.837   5.081
10529SOL     OW32485   7.015   4.950   0.930
10529SOL    HW132486   6.929   4.999   0.915
10529SOL    HW232487   0.017   4.900   0.847
10530SOL     OW32488   6.796   0.455   0.796
10530SOL    HW132489   6.810   0.476   0.893
10530SOL    HW232490   6.741   0.372   0.787
10531SOL     OW32491   3.462   2.285   6.161
10531SOL    HW132492   3.453   2.278   6.062
10531SOL    HW232493   3.541   2.343   6.183
10532SOL     OW32494   4.773   6.272   5.727
10532SOL    HW132495   4.786   6.343   5.658
10532SOL    HW232496   4.748   6.186   5.682
10533SOL     OW32497   4.214   6.857   3.403
10533SOL    HW132498   4.274   6.890   3.476
10533SOL    HW232499   4.266   6.849   3.318
10534SOL     OW32500   1.634   6.486   3.965
10534SOL    HW132501   1.558   6.539   4.004
10534SOL    HW232502   1.598   6.422   3.897
10535SOL     OW32503   3.899   2.099   2.721
10535SOL    HW132504   3.884   2.151   2.637
10535SOL    HW232505   3.835   2.022   2.724
10536SOL     OW32506   5.857   4.058   4.973
10536SOL    HW132507   5.777   4.025   4.923
10536SOL    HW232508   5.832   4.075   5.068
10537SOL     OW32509   3.643   1.313   3.621
10537SOL    HW132510   3.566   1.366   3.583
10537SOL    HW232511   3.637   1.219   3.588
10538SOL     OW32512   6.799   2.700   3.288
10538SOL    HW132513   6.823   2.652   3.372
10538SOL    HW232514   6.861   2.778   3.275
10539SOL     OW32515   6.901   6.450   3.300
10539SOL    HW132516   6.811   6.492   3.288
10539SOL    HW232517   6.965   6.488   3.233
10540SOL     OW32518   1.753   3.869   0.113
10540SOL    HW132519   1.807   3.882   0.030
10540SOL    HW232520   1.698   3.787   0.105
10541SOL     OW32521   3.285   2.584   5.665
10541SOL    HW132522   3.265   2.633   5.580
10541SOL    HW232523   3.201   2.575   5.718
10542SOL     OW32524   4.338   6.608   2.676
10542SOL    HW132525   4.355   6.571   2.584
10542SOL    HW232526   4.294   6.697   2.668
10543SOL     OW32527   2.345   2.699   4.245
10543SOL    HW132528   2.369   2.698   4.342
10543SOL    HW232529   2.286   2.620   4.225
10544SOL     OW32530   3.033   1.628   2.541
10544SOL    HW132531   2.948   1.680   2.538
10544SOL    HW232532   3.012   1.530   2.544
10545SOL     OW32533   1.941   3.139   1.874
10545SOL    HW132534   1.911   3.052   1.913
10545SOL    HW232535   1.882   3.162   1.796
10546SOL     OW32536   2.553   0.143   5.886
10546SOL    HW132537   2.563   0.102   5.976
10546SOL    HW232538   2.513   0.076   5.823
10547SOL     OW32539   3.382   6.446   5.894
10547SOL    HW132540   3.407   6.354   5.862
10547SOL    HW232541   3.402   6.454   5.992
10548SOL     OW32542   0.912   5.917   3.232
10548SOL    HW132543   0.847   5.879   3.298
10548SOL    HW232544   0.974   5.845   3.201
10549SOL     OW32545   0.217   0.794   2.739
10549SOL    HW132546   0.288   0.864   2.743
10549SOL    HW232547   0.146   0.822   2.674
10550SOL     OW32548   5.217   5.908   3.331
10550SOL    HW132549   5.124   5.922   3.295
10550SOL    HW232550   5.246   5.990   3.380
10551SOL     OW32551   4.213   1.029   4.734
10551SOL    HW132552   4.223   0.933   4.709
10551SOL    HW232553   4.225   1.039   4.832
10552SOL     OW32554   2.997   6.911   3.545
10552SOL    HW132555   3.083   6.864   3.568
10552SOL    HW232556   2.926   6.885   3.611
10553SOL     OW32557   5.826   5.786   1.398
10553SOL    HW132558   5.791   5.814   1.487
10553SOL    HW232559   5.761   5.722   1.355
10554SOL     OW32560   6.103   6.460   2.078
10554SOL    HW132561   6.103   6.362   2.057
10554SOL    HW232562   6.022   6.502   2.038
10555SOL     OW32563   3.671   3.242   1.657
10555SOL    HW132564   3.603   3.220   1.587
10555SOL    HW232565   3.687   3.341   1.658
10556SOL     OW32566   2.755   1.668   1.942
10556SOL    HW132567   2.688   1.597   1.966
10556SOL    HW232568   2.833   1.626   1.895
10557SOL     OW32569   1.394   4.253   3.030
10557SOL    HW132570   1.447   4.335   3.011
10557SOL    HW232571   1.435   4.204   3.106
10558SOL     OW32572   4.188   4.833   4.328
10558SOL    HW132573   4.163   4.898   4.399
10558SOL    HW232574   4.135   4.852   4.245
10559SOL     OW32575   3.701   6.000   1.900
10559SOL    HW132576   3.777   5.943   1.931
10559SOL    HW232577   3.626   5.995   1.966
10560SOL     OW32578   6.098   0.024   3.624
10560SOL    HW132579   6.080   6.965   3.676
10560SOL    HW232580   6.041   0.099   3.658
10561SOL     OW32581   0.777   5.341   6.243
10561SOL    HW132582   0.819   5.275   6.306
10561SOL    HW232583   0.824   5.337   6.155
10562SOL     OW32584   4.041   5.924   2.434
10562SOL    HW132585   4.062   5.913   2.531
10562SOL    HW232586   4.091   5.854   2.382
10563SOL     OW32587   1.393   6.499   2.041
10563SOL    HW132588   1.468   6.433   2.045
10563SOL    HW232589   1.429   6.589   2.013
10564SOL     OW32590   5.504   4.386   3.339
10564SOL    HW132591   5.406   4.375   3.359
10564SOL    HW232592   5.524   4.346   3.250
10565SOL     OW32593   0.708   1.156   4.866
10565SOL    HW132594   0.659   1.099   4.932
10565SOL    HW232595   0.664   1.151   4.777
10566SOL     OW32596   3.628   1.911   1.183
10566SOL    HW132597   3.637   1.929   1.281
10566SOL    HW232598   3.543   1.862   1.166
10567SOL     OW32599   2.484   2.593   6.187
10567SOL    HW132600   2.511   2.544   6.104
10567SOL    HW232601   2.490   2.532   6.266
10568SOL     OW32602   5.170   2.296   5.935
10568SOL    HW132603   5.112   2.290   6.017
10568SOL    HW232604   5.207   2.205   5.915
10569SOL     OW32605   5.308   0.155   0.846
10569SOL    HW132606   5.274   0.138   0.939
10569SOL    HW232607   5.407   0.165   0.848
10570SOL     OW32608   1.569   3.756   3.136
10570SOL    HW132609   1.561   3.820   3.059
10570SOL    HW232610   1.664   3.752   3.166
10571SOL     OW32611   6.941   4.507   5.814
10571SOL    HW132612   7.005   4.462   5.876
10571SOL    HW232613   6.987   4.527   5.727
10572SOL     OW32614   6.288   4.286   0.798
10572SOL    HW132615   6.218   4.328   0.855
10572SOL    HW232616   6.246   4.248   0.716
10573SOL     OW32617   0.023   2.321   3.328
10573SOL    HW132618   7.006   2.231   3.341
10573SOL    HW232619   7.010   2.363   3.244
10574SOL     OW32620   5.714   2.271   2.413
10574SOL    HW132621   5.745   2.184   2.453
10574SOL    HW232622   5.615   2.273   2.411
10575SOL     OW32623   5.439   6.735   3.058
10575SOL    HW132624   5.351   6.689   3.049
10575SOL    HW232625   5.440   6.818   3.001
10576SOL     OW32626   1.294   3.325   4.770
10576SOL    HW132627   1.311   3.282   4.859
10576SOL    HW232628   1.196   3.331   4.754
10577SOL     OW32629   4.232   4.358   0.244
10577SOL    HW132630   4.233   4.306   0.159
10577SOL    HW232631   4.239   4.296   0.322
10578SOL     OW32632   0.884   3.189   2.630
10578SOL    HW132633   0.866   3.280   2.667
10578SOL    HW232634   0.981   3.180   2.609
10579SOL     OW32635   0.235   3.127   0.033
10579SOL    HW132636   0.226   3.092   0.126
10579SOL    HW232637   0.306   3.198   0.031
10580SOL     OW32638   5.593   6.461   0.056
10580SOL    HW132639   5.679   6.504   0.084
10580SOL    HW232640   5.586   6.370   0.097
10581SOL     OW32641   4.524   0.699   3.406
10581SOL    HW132642   4.606   0.688   3.349
10581SOL    HW232643   4.517   0.793   3.437
10582SOL     OW32644   6.380   3.633   6.924
10582SOL    HW132645   6.291   3.656   6.884
10582SOL    HW232646   6.366   3.570   7.001
10583SOL     OW32647   4.308   2.100   5.771
10583SOL    HW132648   4.232   2.045   5.736
10583SOL    HW232649   4.383   2.040   5.797
10584SOL     OW32650   0.460   0.667   3.505
10584SOL    HW132651   0.490   0.601   3.574
10584SOL    HW232652   0.501   0.643   3.417
10585SOL     OW32653   1.184   1.221   5.546
10585SOL    HW132654   1.252   1.281   5.504
10585SOL    HW232655   1.162   1.146   5.483
10586SOL     OW32656   4.594   4.159   5.676
10586SOL    HW132657   4.598   4.070   5.629
10586SOL    HW232658   4.618   4.146   5.773
10587SOL     OW32659   1.878   4.906   4.823
10587SOL    HW132660   1.822   4.976   4.868
10587SOL    HW232661   1.823   4.824   4.809
10588SOL     OW32662   1.464   4.149   3.700
10588SOL    HW132663   1.527   4.079   3.669
10588SOL    HW232664   1.469   4.156   3.800
10589SOL     OW32665   6.484   6.791   3.648
10589SOL    HW132666   6.430   6.730   3.706
10589SOL    HW232667   6.558   6.831   3.702
10590SOL     OW32668   1.044   5.651   2.546
10590SOL    HW132669   1.138   5.628   2.523
10590SOL    HW232670   1.010   5.588   2.616
10591SOL     OW32671   6.734   3.870   2.526
10591SOL    HW132672   6.686   3.840   2.608
10591SOL    HW232673   6.785   3.953   2.546
10592SOL     OW32674   7.020   2.570   4.613
10592SOL    HW132675   0.030   2.646   4.668
10592SOL    HW232676   6.993   2.603   4.523
10593SOL     OW32677   3.420   5.947   3.642
10593SOL    HW132678   3.507   5.994   3.627
10593SOL    HW232679   3.371   5.991   3.718
10594SOL     OW32680   3.535   5.758   4.049
10594SOL    HW132681   3.525   5.751   3.950
10594SOL    HW232682   3.566   5.670   4.086
10595SOL     OW32683   4.668   6.847   0.933
10595SOL    HW132684   4.766   6.857   0.953
10595SOL    HW232685   4.615   6.870   1.015
10596SOL     OW32686   5.152   3.877   0.677
10596SOL    HW132687   5.137   3.780   0.696
10596SOL    HW232688   5.152   3.928   0.763
10597SOL     OW32689   2.209   7.016   4.982
10597SOL    HW132690   2.185   0.032   5.071
10597SOL    HW232691   2.167   6.926   4.973
10598SOL     OW32692   3.095   0.941   0.434
10598SOL    HW132693   3.028   0.910   0.367
10598SOL    HW232694   3.155   1.009   0.392
10599SOL     OW32695   1.001   2.598   0.485
10599SOL    HW132696   0.930   2.528   0.491
10599SOL    HW232697   0.962   2.683   0.449
10600SOL     OW32698   4.270   0.812   1.727
10600SOL    HW132699   4.240   0.893   1.778
10600SOL    HW232700   4.215   0.733   1.754
10601SOL     OW32701   1.775   1.273   4.913
10601SOL    HW132702   1.867   1.311   4.900
10601SOL    HW232703   1.766   1.187   4.862
10602SOL     OW32704   6.512   6.471   1.510
10602SOL    HW132705   6.504   6.437   1.417
10602SOL    HW232706   6.592   6.431   1.554
10603SOL     OW32707   5.996   0.351   2.964
10603SOL    HW132708   6.061   0.312   3.029
10603SOL    HW232709   5.914   0.380   3.013
10604SOL     OW32710   4.821   1.829   5.150
10604SOL    HW132711   4.832   1.843   5.052
10604SOL    HW232712   4.851   1.737   5.174
10605SOL     OW32713   3.708   1.788   1.678
10605SOL    HW132714   3.768   1.728   1.731
10605SOL    HW232715   3.641   1.831   1.739
10606SOL     OW32716   6.592   1.781   6.810
10606SOL    HW132717   6.527   1.789   6.734
10606SOL    HW232718   6.591   1.687   6.845
10607SOL     OW32719   3.137   4.501   0.934
10607SOL    HW132720   3.196   4.573   0.898
10607SOL    HW232721   3.165   4.412   0.897
10608SOL     OW32722   5.650   3.875   3.370
10608SOL    HW132723   5.613   3.855   3.279
10608SOL    HW232724   5.714   3.951   3.364
10609SOL     OW32725   6.344   0.207   6.397
10609SOL    HW132726   6.385   0.115   6.401
10609SOL    HW232727   6.255   0.206   6.442
10610SOL     OW32728   0.687   1.188   3.074
10610SOL    HW132729   0.659   1.284   3.080
10610SOL    HW232730   0.672   1.143   3.162
10611SOL     OW32731   4.310   5.098   4.858
10611SOL    HW132732   4.329   5.005   4.889
10611SOL    HW232733   4.212   5.117   4.867
10612SOL     OW32734   6.647   2.820   3.071
10612SOL    HW132735   6.550   2.826   3.095
10612SOL    HW232736   6.697   2.774   3.144
10613SOL     OW32737   4.805   5.377   4.627
10613SOL    HW132738   4.886   5.397   4.572
10613SOL    HW232739   4.834   5.347   4.718
10614SOL     OW32740   3.930   2.515   6.778
10614SOL    HW132741   3.859   2.584   6.759
10614SOL    HW232742   3.919   2.481   6.871
10615SOL     OW32743   2.573   2.541   5.276
10615SOL    HW132744   2.544   2.636   5.278
10615SOL    HW232745   2.498   2.484   5.241
10616SOL     OW32746   1.148   5.923   0.088
10616SOL    HW132747   1.057   5.929   0.046
10616SOL    HW232748   1.195   6.011   0.077
10617SOL     OW32749   1.561   2.767   0.885
10617SOL    HW132750   1.519   2.797   0.970
10617SOL    HW232751   1.616   2.841   0.847
10618SOL     OW32752   0.843   5.189   4.105
10618SOL    HW132753   0.877   5.136   4.183
10618SOL    HW232754   0.792   5.129   4.044
10619SOL     OW32755   1.148   2.689   1.157
10619SOL    HW132756   1.074   2.725   1.214
10619SOL    HW232757   1.131   2.713   1.062
10620SOL     OW32758   3.321   1.221   5.971
10620SOL    HW132759   3.328   1.126   6.002
10620SOL    HW232760   3.374   1.279   6.032
10621SOL     OW32761   0.941   3.994   3.434
10621SOL    HW132762   0.927   3.944   3.349
10621SOL    HW232763   1.025   4.047   3.428
10622SOL     OW32764   4.015   2.255   6.164
10622SOL    HW132765   4.032   2.211   6.252
10622SOL    HW232766   4.090   2.233   6.101
10623SOL     OW32767   5.242   5.303   5.801
10623SOL    HW132768   5.176   5.360   5.850
10623SOL    HW232769   5.309   5.361   5.756
10624SOL     OW32770   0.500   1.910   6.486
10624SOL    HW132771   0.515   1.940   6.392
10624SOL    HW232772   0.402   1.891   6.500
10625SOL     OW32773   6.747   5.727   0.812
10625SOL    HW132774   6.694   5.804   0.848
10625SOL    HW232775   6.790   5.755   0.726
10626SOL     OW32776   5.973   2.929   2.035
10626SOL    HW132777   5.897   2.883   2.080
10626SOL    HW232778   6.019   2.990   2.100
10627SOL     OW32779   5.531   4.578   5.474
10627SOL    HW132780   5.615   4.545   5.517
10627SOL    HW232781   5.545   4.587   5.376
10628SOL     OW32782   3.058   6.291   0.923
10628SOL    HW132783   2.997   6.248   0.990
10628SOL    HW232784   3.005   6.350   0.863
10629SOL     OW32785   4.527   4.946   3.900
10629SOL    HW132786   4.514   4.898   3.987
10629SOL    HW232787   4.597   4.900   3.846
10630SOL     OW32788   4.102   0.933   1.417
10630SOL    HW132789   4.071   0.856   1.362
10630SOL    HW232790   4.196   0.917   1.448
10631SOL     OW32791   3.538   5.408   1.931
10631SOL    HW132792   3.512   5.492   1.978
10631SOL    HW232793   3.468   5.383   1.864
10632SOL     OW32794   5.953   6.872   4.159
10632SOL    HW132795   5.872   6.847   4.104
10632SOL    HW232796   5.994   6.955   4.121
10633SOL     OW32797   2.567   3.289   0.299
10633SOL    HW132798   2.559   3.241   0.212
10633SOL    HW232799   2.574   3.222   0.373
10634SOL     OW32800   0.752   4.527   6.584
10634SOL    HW132801   0.832   4.467   6.587
10634SOL    HW232802   0.778   4.620   6.610
10635SOL     OW32803   3.063   5.372   6.375
10635SOL    HW132804   3.119   5.346   6.454
10635SOL    HW232805   3.123   5.384   6.296
10636SOL     OW32806   5.865   2.950   0.552
10636SOL    HW132807   5.937   3.015   0.576
10636SOL    HW232808   5.906   2.861   0.533
10637SOL     OW32809   2.688   1.002   6.432
10637SOL    HW132810   2.632   1.032   6.354
10637SOL    HW232811   2.763   0.945   6.398
10638SOL     OW32812   5.021   5.038   0.513
10638SOL    HW132813   5.050   4.960   0.569
10638SOL    HW232814   4.936   5.076   0.551
10639SOL     OW32815   6.429   4.979   0.691
10639SOL    HW132816   6.459   5.054   0.749
10639SOL    HW232817   6.377   4.913   0.745
10640SOL     OW32818   3.832   6.442   4.397
10640SOL    HW132819   3.769   6.519   4.388
10640SOL    HW232820   3.893   6.457   4.475
10641SOL     OW32821   1.031   1.141   3.260
10641SOL    HW132822   1.003   1.172   3.169
10641SOL    HW232823   1.130   1.127   3.261
10642SOL     OW32824   6.924   2.414   6.146
10642SOL    HW132825   6.941   2.394   6.243
10642SOL    HW232826   6.827   2.402   6.126
10643SOL     OW32827   2.829   5.130   5.901
10643SOL    HW132828   2.766   5.197   5.939
10643SOL    HW232829   2.780   5.070   5.837
10644SOL     OW32830   0.285   3.534   3.047
10644SOL    HW132831   0.235   3.448   3.031
10644SOL    HW232832   0.346   3.551   2.970
10645SOL     OW32833   2.345   2.573   2.977
10645SOL    HW132834   2.291   2.519   3.042
10645SOL    HW232835   2.328   2.671   2.994
10646SOL     OW32836   4.883   0.634   3.857
10646SOL    HW132837   4.961   0.696   3.868
10646SOL    HW232838   4.801   0.677   3.896
10647SOL     OW32839   3.832   5.259   5.066
10647SOL    HW132840   3.751   5.293   5.018
10647SOL    HW232841   3.809   5.175   5.114
10648SOL     OW32842   5.029   4.273   5.318
10648SOL    HW132843   5.035   4.346   5.250
10648SOL    HW232844   4.947   4.219   5.302
10649SOL     OW32845   6.216   3.094   3.224
10649SOL    HW132846   6.150   3.113   3.296
10649SOL    HW232847   6.302   3.140   3.244
10650SOL     OW32848   0.522   6.876   2.542
10650SOL    HW132849   0.595   6.941   2.562
10650SOL    HW232850   0.561   6.783   2.538
10651SOL     OW32851   2.553   5.723   5.931
10651SOL    HW132852   2.481   5.745   5.866
10651SOL    HW232853   2.625   5.670   5.885
10652SOL     OW32854   2.078   0.619   6.811
10652SOL    HW132855   2.087   0.695   6.746
10652SOL    HW232856   2.038   0.540   6.764
10653SOL     OW32857   5.564   6.283   4.788
10653SOL    HW132858   5.593   6.284   4.884
10653SOL    HW232859   5.587   6.369   4.745
10654SOL     OW32860   6.800   1.858   3.674
10654SOL    HW132861   6.750   1.944   3.676
10654SOL    HW232862   6.857   1.854   3.592
10655SOL     OW32863   6.759   4.789   0.827
10655SOL    HW132864   6.678   4.845   0.845
10655SOL    HW232865   6.789   4.804   0.733
10656SOL     OW32866   5.780   1.773   5.493
10656SOL    HW132867   5.690   1.812   5.509
10656SOL    HW232868   5.772   1.676   5.470
10657SOL     OW32869   4.826   6.928   5.384
10657SOL    HW132870   4.801   7.010   5.435
10657SOL    HW232871   4.881   6.954   5.305
10658SOL     OW32872   0.303   1.901   5.433
10658SOL    HW132873   0.356   1.838   5.489
10658SOL    HW232874   0.364   1.972   5.397
10659SOL     OW32875   6.936   5.495   0.489
10659SOL    HW132876   6.905   5.454   0.575
10659SOL    HW232877   6.868   5.478   0.418
10660SOL     OW32878   5.710   3.002   6.580
10660SOL    HW132879   5.610   3.008   6.586
10660SOL    HW232880   5.745   2.947   6.656
10661SOL     OW32881   3.332   5.032   5.117
10661SOL    HW132882   3.364   5.127   5.127
10661SOL    HW232883   3.239   5.025   5.154
10662SOL     OW32884   3.090   1.525   1.259
10662SOL    HW132885   3.091   1.429   1.233
10662SOL    HW232886   2.996   1.554   1.276
10663SOL     OW32887   0.293   2.581   3.263
10663SOL    HW132888   0.298   2.681   3.268
10663SOL    HW232889   0.244   2.546   3.342
10664SOL     OW32890   1.435   6.274   4.513
10664SOL    HW132891   1.475   6.356   4.555
10664SOL    HW232892   1.471   6.193   4.558
10665SOL     OW32893   3.056   3.605   0.558
10665SOL    HW132894   3.007   3.537   0.613
10665SOL    HW232895   3.142   3.565   0.525
10666SOL     OW32896   4.084   3.734   1.010
10666SOL    HW132897   4.173   3.722   1.054
10666SOL    HW232898   4.085   3.692   0.919
10667SOL     OW32899   5.783   2.511   4.401
10667SOL    HW132900   5.702   2.487   4.349
10667SOL    HW232901   5.816   2.601   4.372
10668SOL     OW32902   3.373   2.683   6.068
10668SOL    HW132903   3.282   2.715   6.040
10668SOL    HW232904   3.365   2.592   6.109
10669SOL     OW32905   6.210   1.998   1.149
10669SOL    HW132906   6.235   2.015   1.054
10669SOL    HW232907   6.290   1.967   1.201
10670SOL     OW32908   4.801   4.214   4.023
10670SOL    HW132909   4.722   4.275   4.027
10670SOL    HW232910   4.880   4.260   4.064
10671SOL     OW32911   1.756   3.261   4.772
10671SOL    HW132912   1.713   3.309   4.848
10671SOL    HW232913   1.686   3.212   4.720
10672SOL     OW32914   6.322   3.900   1.625
10672SOL    HW132915   6.327   3.980   1.685
10672SOL    HW232916   6.246   3.912   1.560
10673SOL     OW32917   2.788   1.412   1.103
10673SOL    HW132918   2.816   1.426   1.008
10673SOL    HW232919   2.761   1.500   1.143
10674SOL     OW32920   3.856   3.539   4.162
10674SOL    HW132921   3.834   3.587   4.078
10674SOL    HW232922   3.950   3.504   4.157
10675SOL     OW32923   3.267   6.748   5.564
10675SOL    HW132924   3.285   6.765   5.661
10675SOL    HW232925   3.171   6.724   5.552
10676SOL     OW32926   1.340   0.642   5.709
10676SOL    HW132927   1.323   0.670   5.803
10676SOL    HW232928   1.412   0.699   5.669
10677SOL     OW32929   0.675   2.531   6.809
10677SOL    HW132930   0.597   2.470   6.797
10677SOL    HW232931   0.758   2.476   6.818
10678SOL     OW32932   4.025   5.450   2.646
10678SOL    HW132933   4.043   5.352   2.640
10678SOL    HW232934   4.097   5.494   2.700
10679SOL     OW32935   4.616   4.369   0.415
10679SOL    HW132936   4.692   4.314   0.449
10679SOL    HW232937   4.573   4.321   0.338
10680SOL     OW32938   4.176   1.242   5.905
10680SOL    HW132939   4.260   1.294   5.923
10680SOL    HW232940   4.188   1.148   5.940
10681SOL     OW32941   2.342   3.159   5.373
10681SOL    HW132942   2.396   3.234   5.411
10681SOL    HW232943   2.398   3.105   5.311
10682SOL     OW32944   4.918   3.851   6.762
10682SOL    HW132945   4.985   3.872   6.690
10682SOL    HW232946   4.872   3.764   6.741
10683SOL     OW32947   2.875   0.459   3.535
10683SOL    HW132948   2.806   0.392   3.563
10683SOL    HW232949   2.961   0.440   3.581
10684SOL     OW32950   4.463   4.624   1.647
10684SOL    HW132951   4.511   4.632   1.735
10684SOL    HW232952   4.499   4.691   1.583
10685SOL     OW32953   0.700   6.436   2.238
10685SOL    HW132954   0.668   6.421   2.145
10685SOL    HW232955   0.719   6.348   2.282
10686SOL     OW32956   2.676   0.889   0.099
10686SOL    HW132957   2.650   0.970   0.047
10686SOL    HW232958   2.662   0.807   0.043
10687SOL     OW32959   1.054   3.512   3.445
10687SOL    HW132960   1.083   3.447   3.374
10687SOL    HW232961   0.962   3.488   3.476
10688SOL     OW32962   5.209   0.943   2.966
10688SOL    HW132963   5.139   0.903   3.025
10688SOL    HW232964   5.262   0.870   2.923
10689SOL     OW32965   0.711   0.628   2.337
10689SOL    HW132966   0.759   0.596   2.256
10689SOL    HW232967   0.644   0.698   2.310
10690SOL     OW32968   0.957   6.532   4.434
10690SOL    HW132969   1.029   6.478   4.478
10690SOL    HW232970   0.921   6.480   4.357
10691SOL     OW32971   3.466   6.931   2.091
10691SOL    HW132972   3.461   6.970   1.999
10691SOL    HW232973   3.542   6.866   2.096
10692SOL     OW32974   2.514   1.478   4.569
10692SOL    HW132975   2.608   1.508   4.588
10692SOL    HW232976   2.512   1.378   4.564
10693SOL     OW32977   1.413   5.442   0.152
10693SOL    HW132978   1.355   5.401   0.223
10693SOL    HW232979   1.431   5.374   0.081
10694SOL     OW32980   4.763   0.140   5.524
10694SOL    HW132981   4.696   0.134   5.598
10694SOL    HW232982   4.749   0.225   5.473
10695SOL     OW32983   5.516   4.379   1.910
10695SOL    HW132984   5.585   4.354   1.842
10695SOL    HW232985   5.561   4.417   1.991
10696SOL     OW32986   6.403   4.895   4.095
10696SOL    HW132987   6.420   4.929   4.187
10696SOL    HW232988   6.332   4.825   4.097
10697SOL     OW32989   2.486   5.362   5.111
10697SOL    HW132990   2.404   5.305   5.111
10697SOL    HW232991   2.468   5.448   5.158
10698SOL     OW32992   3.246   3.461   0.437
10698SOL    HW132993   3.185   3.393   0.396
10698SOL    HW232994   3.336   3.420   0.452
10699SOL     OW32995   3.839   3.148   0.764
10699SOL    HW132996   3.935   3.175   0.769
10699SOL    HW232997   3.800   3.148   0.857
10700SOL     OW32998   4.753   0.614   1.526
10700SOL    HW132999   4.760   0.590   1.622
10700SOL    HW233000   4.725   0.710   1.517
10701SOL     OW33001   3.200   6.717   6.393
10701SOL    HW133002   3.188   6.765   6.480
10701SOL    HW233003   3.182   6.619   6.406
10702SOL     OW33004   5.475   2.130   2.031
10702SOL    HW133005   5.447   2.069   2.105
10702SOL    HW233006   5.442   2.095   1.944
10703SOL     OW33007   0.196   2.674   5.098
10703SOL    HW133008   0.207   2.764   5.055
10703SOL    HW233009   0.281   2.622   5.088
10704SOL     OW33010   5.262   6.601   2.515
10704SOL    HW133011   5.261   6.554   2.603
10704SOL    HW233012   5.169   6.608   2.479
10705SOL     OW33013   5.109   3.450   1.006
10705SOL    HW133014   5.165   3.373   0.976
10705SOL    HW233015   5.166   3.516   1.055
10706SOL     OW33016   3.506   0.522   1.354
10706SOL    HW133017   3.561   0.599   1.322
10706SOL    HW233018   3.469   0.542   1.445
10707SOL     OW33019   5.047   7.021   3.771
10707SOL    HW133020   5.144   6.996   3.772
10707SOL    HW233021   4.999   6.963   3.705
10708SOL     OW33022   4.438   1.189   1.976
10708SOL    HW133023   4.514   1.186   1.910
10708SOL    HW233024   4.384   1.105   1.968
10709SOL     OW33025   5.812   4.702   2.907
10709SOL    HW133026   5.775   4.714   2.814
10709SOL    HW233027   5.769   4.623   2.950
10710SOL     OW33028   4.680   1.826   3.900
10710SOL    HW133029   4.691   1.798   3.805
10710SOL    HW233030   4.621   1.761   3.947
10711SOL     OW33031   3.446   0.079   2.364
10711SOL    HW133032   3.352   0.047   2.369
10711SOL    HW233033   3.508   0.005   2.391
10712SOL     OW33034   5.205   0.224   3.520
10712SOL    HW133035   5.200   0.138   3.469
10712SOL    HW233036   5.293   0.229   3.569
10713SOL     OW33037   1.973   4.103   1.873
10713SOL    HW133038   1.975   4.141   1.965
10713SOL    HW233039   1.995   4.175   1.807
10714SOL     OW33040   3.113   3.780   5.028
10714SOL    HW133041   3.185   3.712   5.011
10714SOL    HW233042   3.038   3.737   5.078
10715SOL     OW33043   5.887   0.637   1.876
10715SOL    HW133044   5.921   0.589   1.795
10715SOL    HW233045   5.788   0.623   1.884
10716SOL     OW33046   5.362   0.998   3.309
10716SOL    HW133047   5.266   1.023   3.313
10716SOL    HW233048   5.416   1.076   3.278
10717SOL     OW33049   2.046   2.743   6.374
10717SOL    HW133050   2.145   2.735   6.360
10717SOL    HW233051   2.023   2.838   6.392
10718SOL     OW33052   1.686   5.214   5.326
10718SOL    HW133053   1.782   5.193   5.345
10718SOL    HW233054   1.639   5.234   5.411
10719SOL     OW33055   0.388   5.522   4.530
10719SOL    HW133056   0.335   5.566   4.458
10719SOL    HW233057   0.467   5.476   4.489
10720SOL     OW33058   0.226   4.753   3.445
10720SOL    HW133059   0.279   4.671   3.423
10720SOL    HW233060   0.165   4.733   3.521
10721SOL     OW33061   5.308   3.505   5.571
10721SOL    HW133062   5.393   3.530   5.617
10721SOL    HW233063   5.240   3.478   5.640
10722SOL     OW33064   6.759   4.166   5.992
10722SOL    HW133065   6.832   4.097   5.991
10722SOL    HW233066   6.699   4.153   5.913
10723SOL     OW33067   5.803   6.658   0.984
10723SOL    HW133068   5.850   6.725   1.042
10723SOL    HW233069   5.808   6.568   1.027
10724SOL     OW33070   6.507   6.519   6.799
10724SOL    HW133071   6.574   6.514   6.726
10724SOL    HW233072   6.525   6.600   6.855
10725SOL     OW33073   1.918   5.848   5.419
10725SOL    HW133074   1.843   5.863   5.484
10725SOL    HW233075   1.943   5.935   5.376
10726SOL     OW33076   5.282   1.438   4.125
10726SOL    HW133077   5.187   1.409   4.128
10726SOL    HW233078   5.321   1.433   4.217
10727SOL     OW33079   2.370   6.544   5.743
10727SOL    HW133080   2.280   6.538   5.700
10727SOL    HW233081   2.371   6.620   5.808
10728SOL     OW33082   4.903   6.287   0.910
10728SOL    HW133083   4.928   6.341   0.830
10728SOL    HW233084   4.937   6.194   0.900
10729SOL     OW33085   6.704   2.784   1.535
10729SOL    HW133086   6.612   2.746   1.527
10729SOL    HW233087   6.699   2.879   1.564
10730SOL     OW33088   4.867   7.017   2.577
10730SOL    HW133089   4.859   0.068   2.644
10730SOL    HW233090   4.951   0.005   2.525
10731SOL     OW33091   4.594   0.361   0.848
10731SOL    HW133092   4.677   0.306   0.859
10731SOL    HW233093   4.514   0.308   0.874
10732SOL     OW33094   0.489   3.881   5.939
10732SOL    HW133095   0.416   3.887   6.007
10732SOL    HW233096   0.543   3.965   5.941
10733SOL     OW33097   6.615   2.402   0.014
10733SOL    HW133098   6.614   2.411   6.938
10733SOL    HW233099   6.595   2.308   0.039
10734SOL     OW33100   6.600   2.772   2.082
10734SOL    HW133101   6.592   2.785   2.181
10734SOL    HW233102   6.694   2.786   2.054
10735SOL     OW33103   0.218   4.898   3.188
10735SOL    HW133104   0.239   4.967   3.258
10735SOL    HW233105   0.294   4.833   3.183
10736SOL     OW33106   2.594   0.671   3.717
10736SOL    HW133107   2.541   0.719   3.647
10736SOL    HW233108   2.563   0.576   3.724
10737SOL     OW33109   6.775   2.517   1.589
10737SOL    HW133110   6.739   2.609   1.572
10737SOL    HW233111   6.821   2.483   1.506
10738SOL     OW33112   4.373   6.995   3.589
10738SOL    HW133113   4.295   0.017   3.634
10738SOL    HW233114   4.432   6.954   3.659
10739SOL     OW33115   2.386   1.589   1.957
10739SOL    HW133116   2.331   1.665   1.920
10739SOL    HW233117   2.397   1.602   2.055
10740SOL     OW33118   4.702   4.939   3.255
10740SOL    HW133119   4.712   5.035   3.228
10740SOL    HW233120   4.678   4.884   3.174
10741SOL     OW33121   3.507   0.874   3.226
10741SOL    HW133122   3.592   0.893   3.275
10741SOL    HW233123   3.516   0.901   3.130
10742SOL     OW33124   6.803   5.430   0.752
10742SOL    HW133125   6.715   5.435   0.706
10742SOL    HW233126   6.789   5.420   0.851
10743SOL     OW33127   2.486   2.304   5.046
10743SOL    HW133128   2.426   2.324   5.123
10743SOL    HW233129   2.485   2.382   4.983
10744SOL     OW33130   4.580   1.521   0.672
10744SOL    HW133131   4.619   1.449   0.614
10744SOL    HW233132   4.654   1.580   0.705
10745SOL     OW33133   6.544   5.541   5.971
10745SOL    HW133134   6.454   5.578   5.993
10745SOL    HW233135   6.573   5.478   6.043
10746SOL     OW33136   0.499   4.150   6.038
10746SOL    HW133137   0.571   4.136   6.106
10746SOL    HW233138   0.535   4.206   5.962
10747SOL     OW33139   3.030   2.045   4.563
10747SOL    HW133140   2.973   1.968   4.591
10747SOL    HW233141   2.999   2.129   4.608
10748SOL     OW33142   4.839   1.459   2.157
10748SOL    HW133143   4.786   1.397   2.099
10748SOL    HW233144   4.824   1.436   2.253
10749SOL     OW33145   2.196   6.679   6.407
10749SOL    HW133146   2.124   6.613   6.427
10749SOL    HW233147   2.156   6.767   6.382
10750SOL     OW33148   4.010   0.255   6.563
10750SOL    HW133149   3.914   0.229   6.573
10750SOL    HW233150   4.048   0.276   6.653
10751SOL     OW33151   2.171   4.698   3.918
10751SOL    HW133152   2.244   4.640   3.956
10751SOL    HW233153   2.110   4.642   3.862
10752SOL     OW33154   4.943   4.862   3.706
10752SOL    HW133155   4.926   4.960   3.694
10752SOL    HW233156   4.855   4.813   3.711
10753SOL     OW33157   6.823   3.237   4.465
10753SOL    HW133158   6.896   3.303   4.487
10753SOL    HW233159   6.810   3.234   4.366
10754SOL     OW33160   1.653   0.567   2.258
10754SOL    HW133161   1.633   0.665   2.260
10754SOL    HW233162   1.736   0.551   2.204
10755SOL     OW33163   6.277   5.488   2.252
10755SOL    HW133164   6.338   5.479   2.331
10755SOL    HW233165   6.272   5.401   2.204
10756SOL     OW33166   0.181   0.393   5.063
10756SOL    HW133167   0.265   0.342   5.047
10756SOL    HW233168   0.142   0.366   5.151
10757SOL     OW33169   2.742   3.216   1.348
10757SOL    HW133170   2.672   3.261   1.292
10757SOL    HW233171   2.830   3.223   1.302
10758SOL     OW33172   0.693   5.424   4.035
10758SOL    HW133173   0.730   5.406   3.944
10758SOL    HW233174   0.767   5.419   4.103
10759SOL     OW33175   7.013   2.636   6.578
10759SOL    HW133176   6.923   2.673   6.555
10759SOL    HW233177   0.043   2.705   6.626
10760SOL     OW33178   5.822   1.326   4.014
10760SOL    HW133179   5.863   1.389   3.949
10760SOL    HW233180   5.744   1.370   4.059
10761SOL     OW33181   2.542   4.733   5.463
10761SOL    HW133182   2.614   4.664   5.461
10761SOL    HW233183   2.570   4.809   5.520
10762SOL     OW33184   3.512   0.789   4.803
10762SOL    HW133185   3.414   0.768   4.808
10762SOL    HW233186   3.557   0.753   4.884
10763SOL     OW33187   4.288   6.755   3.813
10763SOL    HW133188   4.327   6.689   3.748
10763SOL    HW233189   4.192   6.771   3.790
10764SOL     OW33190   5.424   0.424   5.043
10764SOL    HW133191   5.410   0.492   5.115
10764SOL    HW233192   5.507   0.372   5.062
10765SOL     OW33193   5.450   3.461   0.887
10765SOL    HW133194   5.546   3.453   0.914
10765SOL    HW233195   5.396   3.494   0.964
10766SOL     OW33196   4.353   3.032   1.313
10766SOL    HW133197   4.279   2.978   1.353
10766SOL    HW233198   4.337   3.129   1.331
10767SOL     OW33199   3.817   1.229   2.275
10767SOL    HW133200   3.762   1.172   2.336
10767SOL    HW233201   3.768   1.241   2.188
10768SOL     OW33202   6.215   4.631   0.553
10768SOL    HW133203   6.245   4.672   0.467
10768SOL    HW233204   6.196   4.534   0.539
10769SOL     OW33205   1.842   4.026   5.434
10769SOL    HW133206   1.830   3.927   5.428
10769SOL    HW233207   1.936   4.047   5.461
10770SOL     OW33208   4.184   6.097   3.847
10770SOL    HW133209   4.234   6.165   3.794
10770SOL    HW233210   4.211   6.005   3.816
10771SOL     OW33211   2.417   1.686   3.610
10771SOL    HW133212   2.366   1.762   3.569
10771SOL    HW233213   2.367   1.601   3.594
10772SOL     OW33214   5.587   5.104   3.903
10772SOL    HW133215   5.598   5.045   3.983
10772SOL    HW233216   5.510   5.070   3.848
10773SOL     OW33217   5.604   4.555   3.523
10773SOL    HW133218   5.562   4.495   3.455
10773SOL    HW233219   5.544   4.633   3.542
10774SOL     OW33220   0.949   0.605   3.670
10774SOL    HW133221   0.916   0.684   3.620
10774SOL    HW233222   0.874   0.563   3.721
10775SOL     OW33223   0.563   3.558   1.858
10775SOL    HW133224   0.578   3.592   1.951
10775SOL    HW233225   0.467   3.573   1.832
10776SOL     OW33226   1.376   0.100   6.498
10776SOL    HW133227   1.279   0.110   6.479
10776SOL    HW233228   1.394   0.007   6.530
10777SOL     OW33229   2.769   5.795   0.971
10777SOL    HW133230   2.848   5.758   0.922
10777SOL    HW233231   2.719   5.858   0.911
10778SOL     OW33232   5.774   5.724   2.717
10778SOL    HW133233   5.873   5.723   2.724
10778SOL    HW233234   5.741   5.818   2.725
10779SOL     OW33235   5.244   2.428   3.368
10779SOL    HW133236   5.257   2.481   3.452
10779SOL    HW233237   5.333   2.410   3.326
10780SOL     OW33238   6.968   0.434   2.464
10780SOL    HW133239   6.910   0.446   2.545
10780SOL    HW233240   6.920   0.377   2.397
10781SOL     OW33241   3.511   0.367   4.698
10781SOL    HW133242   3.454   0.440   4.661
10781SOL    HW233243   3.578   0.339   4.629
10782SOL     OW33244   6.120   5.597   4.090
10782SOL    HW133245   6.162   5.679   4.128
10782SOL    HW233246   6.077   5.544   4.163
10783SOL     OW33247   0.157   1.998   3.194
10783SOL    HW133248   0.168   2.027   3.099
10783SOL    HW233249   0.195   2.067   3.255
10784SOL     OW33250   3.097   1.732   4.686
10784SOL    HW133251   3.161   1.701   4.616
10784SOL    HW233252   3.079   1.658   4.750
10785SOL     OW33253   1.030   4.084   6.349
10785SOL    HW133254   1.053   4.181   6.359
10785SOL    HW233255   0.970   4.073   6.269
10786SOL     OW33256   0.772   5.070   3.389
10786SOL    HW133257   0.685   5.116   3.369
10786SOL    HW233258   0.796   5.009   3.313
10787SOL     OW33259   1.406   1.945   6.417
10787SOL    HW133260   1.469   1.891   6.361
10787SOL    HW233261   1.412   2.041   6.391
10788SOL     OW33262   5.896   3.972   6.116
10788SOL    HW133263   5.946   3.886   6.116
10788SOL    HW233264   5.948   4.042   6.068
10789SOL     OW33265   6.116   1.863   0.257
10789SOL    HW133266   6.084   1.775   0.293
10789SOL    HW233267   6.207   1.883   0.294
10790SOL     OW33268   0.125   5.934   2.999
10790SOL    HW133269   0.041   5.944   3.053
10790SOL    HW233270   0.104   5.944   2.902
10791SOL     OW33271   0.726   6.746   3.300
10791SOL    HW133272   0.757   6.841   3.292
10791SOL    HW233273   0.704   6.711   3.210
10792SOL     OW33274   3.942   4.106   5.109
10792SOL    HW133275   3.976   4.072   5.021
10792SOL    HW233276   3.845   4.127   5.101
10793SOL     OW33277   5.691   3.461   4.399
10793SOL    HW133278   5.769   3.412   4.362
10793SOL    HW233279   5.716   3.556   4.416
10794SOL     OW33280   3.059   3.929   3.648
10794SOL    HW133281   3.111   3.974   3.721
10794SOL    HW233282   3.023   3.842   3.683
10795SOL     OW33283   0.205   4.083   3.507
10795SOL    HW133284   0.222   4.070   3.409
10795SOL    HW233285   0.278   4.040   3.559
10796SOL     OW33286   1.408   6.017   5.000
10796SOL    HW133287   1.498   6.056   5.019
10796SOL    HW233288   1.357   6.079   4.940
10797SOL     OW33289   3.855   2.660   0.154
10797SOL    HW133290   3.781   2.719   0.123
10797SOL    HW233291   3.943   2.705   0.137
10798SOL     OW33292   6.851   1.683   0.927
10798SOL    HW133293   6.808   1.667   0.838
10798SOL    HW233294   6.795   1.642   0.999
10799SOL     OW33295   3.931   1.970   1.648
10799SOL    HW133296   3.923   2.060   1.691
10799SOL    HW233297   3.848   1.917   1.665
10800SOL     OW33298   1.490   0.531   1.347
10800SOL    HW133299   1.585   0.562   1.354
10800SOL    HW233300   1.438   0.598   1.295
10801SOL     OW33301   1.750   0.592   1.356
10801SOL    HW133302   1.806   0.599   1.438
10801SOL    HW233303   1.790   0.648   1.283
10802SOL     OW33304   6.524   0.662   3.327
10802SOL    HW133305   6.605   0.681   3.382
10802SOL    HW233306   6.548   0.597   3.255
10803SOL     OW33307   2.206   5.629   6.724
10803SOL    HW133308   2.148   5.704   6.754
10803SOL    HW233309   2.237   5.647   6.630
10804SOL     OW33310   0.052   3.384   4.439
10804SOL    HW133311   0.107   3.355   4.518
10804SOL    HW233312   0.056   3.314   4.369
10805SOL     OW33313   6.535   1.466   6.042
10805SOL    HW133314   6.563   1.492   6.134
10805SOL    HW233315   6.528   1.549   5.985
10806SOL     OW33316   1.651   5.032   6.956
10806SOL    HW133317   1.740   5.065   6.923
10806SOL    HW233318   1.624   4.952   6.903
10807SOL     OW33319   2.804   6.324   5.013
10807SOL    HW133320   2.883   6.385   5.020
10807SOL    HW233321   2.732   6.368   4.960
10808SOL     OW33322   0.715   3.250   6.144
10808SOL    HW133323   0.770   3.252   6.061
10808SOL    HW233324   0.701   3.155   6.173
10809SOL     OW33325   2.257   0.268   4.406
10809SOL    HW133326   2.293   0.311   4.323
10809SOL    HW233327   2.177   0.213   4.382
10810SOL     OW33328   6.747   0.053   4.238
10810SOL    HW133329   6.749   6.979   4.215
10810SOL    HW233330   6.754   0.107   4.154
10811SOL     OW33331   5.182   4.908   4.858
10811SOL    HW133332   5.193   4.953   4.770
10811SOL    HW233333   5.237   4.956   4.927
10812SOL     OW33334   5.941   2.677   0.466
10812SOL    HW133335   6.027   2.627   0.463
10812SOL    HW233336   5.876   2.627   0.524
10813SOL     OW33337   0.155   4.052   5.988
10813SOL    HW133338   0.068   4.058   5.939
10813SOL    HW233339   0.139   4.059   6.086
10814SOL     OW33340   3.236   0.947   1.320
10814SOL    HW133341   3.277   1.003   1.248
10814SOL    HW233342   3.207   1.006   1.396
10815SOL     OW33343   5.319   0.860   4.691
10815SOL    HW133344   5.271   0.823   4.611
10815SOL    HW233345   5.416   0.873   4.670
10816SOL     OW33346   3.948   3.229   4.460
10816SOL    HW133347   3.976   3.324   4.446
10816SOL    HW233348   3.999   3.190   4.537
10817SOL     OW33349   1.834   6.144   3.373
10817SOL    HW133350   1.895   6.218   3.343
10817SOL    HW233351   1.743   6.182   3.393
10818SOL     OW33352   3.811   4.328   7.018
10818SOL    HW133353   3.717   4.328   6.983
10818SOL    HW233354   3.869   4.272   6.958
10819SOL     OW33355   6.665   6.421   5.266
10819SOL    HW133356   6.631   6.328   5.257
10819SOL    HW233357   6.592   6.486   5.244
10820SOL     OW33358   1.873   4.620   6.286
10820SOL    HW133359   1.926   4.584   6.209
10820SOL    HW233360   1.893   4.566   6.368
10821SOL     OW33361   4.841   5.697   3.182
10821SOL    HW133362   4.903   5.618   3.183
10821SOL    HW233363   4.892   5.779   3.158
10822SOL     OW33364   5.540   1.108   2.162
10822SOL    HW133365   5.545   1.144   2.069
10822SOL    HW233366   5.632   1.098   2.199
10823SOL     OW33367   5.128   6.622   1.466
10823SOL    HW133368   5.131   6.674   1.381
10823SOL    HW233369   5.183   6.668   1.536
10824SOL     OW33370   0.867   2.892   3.489
10824SOL    HW133371   0.857   2.793   3.491
10824SOL    HW233372   0.920   2.922   3.569
10825SOL     OW33373   0.756   2.572   0.231
10825SOL    HW133374   0.663   2.541   0.248
10825SOL    HW233375   0.805   2.502   0.178
10826SOL     OW33376   0.467   3.519   2.798
10826SOL    HW133377   0.513   3.446   2.848
10826SOL    HW233378   0.536   3.578   2.755
10827SOL     OW33379   6.544   4.339   4.722
10827SOL    HW133380   6.487   4.268   4.763
10827SOL    HW233381   6.633   4.301   4.697
10828SOL     OW33382   6.157   4.450   5.403
10828SOL    HW133383   6.171   4.418   5.497
10828SOL    HW233384   6.231   4.416   5.345
10829SOL     OW33385   3.597   2.824   4.688
10829SOL    HW133386   3.578   2.750   4.624
10829SOL    HW233387   3.646   2.898   4.641
10830SOL     OW33388   4.014   2.143   3.488
10830SOL    HW133389   4.072   2.204   3.434
10830SOL    HW233390   4.037   2.151   3.585
10831SOL     OW33391   4.126   0.114   3.650
10831SOL    HW133392   4.072   0.101   3.568
10831SOL    HW233393   4.116   0.209   3.683
10832SOL     OW33394   6.684   3.118   0.197
10832SOL    HW133395   6.656   3.032   0.241
10832SOL    HW233396   6.605   3.177   0.187
10833SOL     OW33397   0.520   1.338   6.933
10833SOL    HW133398   0.566   1.289   6.859
10833SOL    HW233399   0.492   1.428   6.900
10834SOL     OW33400   6.304   6.386   1.639
10834SOL    HW133401   6.374   6.432   1.585
10834SOL    HW233402   6.229   6.359   1.578
10835SOL     OW33403   0.288   2.432   5.421
10835SOL    HW133404   0.224   2.506   5.441
10835SOL    HW233405   0.365   2.436   5.485
10836SOL     OW33406   0.161   1.197   3.569
10836SOL    HW133407   0.248   1.245   3.560
10836SOL    HW233408   0.086   1.262   3.563
10837SOL     OW33409   0.454   3.298   2.548
10837SOL    HW133410   0.376   3.246   2.514
10837SOL    HW233411   0.486   3.259   2.634
10838SOL     OW33412   0.340   5.945   1.867
10838SOL    HW133413   0.245   5.925   1.891
10838SOL    HW233414   0.368   5.886   1.791
10839SOL     OW33415   4.918   2.553   0.775
10839SOL    HW133416   4.847   2.483   0.777
10839SOL    HW233417   4.979   2.541   0.853
10840SOL     OW33418   2.348   0.264   1.729
10840SOL    HW133419   2.390   0.344   1.687
10840SOL    HW233420   2.268   0.237   1.676
10841SOL     OW33421   2.140   5.238   4.638
10841SOL    HW133422   2.058   5.182   4.648
10841SOL    HW233423   2.146   5.303   4.713
10842SOL     OW33424   5.420   4.298   1.570
10842SOL    HW133425   5.508   4.283   1.615
10842SOL    HW233426   5.375   4.209   1.554
10843SOL     OW33427   2.734   2.103   1.301
10843SOL    HW133428   2.683   2.151   1.230
10843SOL    HW233429   2.686   2.019   1.325
10844SOL     OW33430   1.363   5.137   5.113
10844SOL    HW133431   1.333   5.205   5.180
10844SOL    HW233432   1.436   5.081   5.153
10845SOL     OW33433   3.784   0.563   4.736
10845SOL    HW133434   3.692   0.596   4.717
10845SOL    HW233435   3.782   0.463   4.746
10846SOL     OW33436   5.443   0.102   6.308
10846SOL    HW133437   5.443   0.011   6.267
10846SOL    HW233438   5.350   0.130   6.328
10847SOL     OW33439   3.146   0.806   6.276
10847SOL    HW133440   3.240   0.833   6.298
10847SOL    HW233441   3.146   0.748   6.195
10848SOL     OW33442   1.709   5.138   1.920
10848SOL    HW133443   1.734   5.064   1.983
10848SOL    HW233444   1.697   5.223   1.971
10849SOL     OW33445   2.399   6.711   3.423
10849SOL    HW133446   2.311   6.729   3.379
10849SOL    HW233447   2.423   6.614   3.411
10850SOL     OW33448   3.799   4.584   1.139
10850SOL    HW133449   3.803   4.684   1.137
10850SOL    HW233450   3.835   4.548   1.053
10851SOL     OW33451   1.469   4.595   0.150
10851SOL    HW133452   1.539   4.560   0.088
10851SOL    HW233453   1.489   4.565   0.243
10852SOL     OW33454   2.351   1.932   2.829
10852SOL    HW133455   2.354   1.848   2.882
10852SOL    HW233456   2.444   1.965   2.812
10853SOL     OW33457   2.989   1.424   6.273
10853SOL    HW133458   3.017   1.334   6.240
10853SOL    HW233459   2.927   1.414   6.350
10854SOL     OW33460   2.973   6.583   5.249
10854SOL    HW133461   3.041   6.584   5.321
10854SOL    HW233462   2.893   6.530   5.279
10855SOL     OW33463   3.763   1.368   6.886
10855SOL    HW133464   3.718   1.397   6.801
10855SOL    HW233465   3.758   1.443   6.952
10856SOL     OW33466   0.475   1.231   0.739
10856SOL    HW133467   0.490   1.323   0.702
10856SOL    HW233468   0.377   1.216   0.750
10857SOL     OW33469   6.501   2.256   2.393
10857SOL    HW133470   6.401   2.250   2.404
10857SOL    HW233471   6.524   2.338   2.342
10858SOL     OW33472   3.012   6.541   2.136
10858SOL    HW133473   3.044   6.465   2.192
10858SOL    HW233474   2.998   6.510   2.042
10859SOL     OW33475   1.543   5.483   3.730
10859SOL    HW133476   1.541   5.383   3.724
10859SOL    HW233477   1.636   5.513   3.753
10860SOL     OW33478   6.782   3.586   3.393
10860SOL    HW133479   6.809   3.515   3.458
10860SOL    HW233480   6.789   3.551   3.300
10861SOL     OW33481   3.700   2.889   4.952
10861SOL    HW133482   3.616   2.903   5.004
10861SOL    HW233483   3.680   2.837   4.869
10862SOL     OW33484   1.031   0.445   4.704
10862SOL    HW133485   1.104   0.446   4.636
10862SOL    HW233486   0.942   0.442   4.658
10863SOL     OW33487   2.497   6.127   4.151
10863SOL    HW133488   2.534   6.086   4.234
10863SOL    HW233489   2.399   6.104   4.143
10864SOL     OW33490   3.865   6.129   3.421
10864SOL    HW133491   3.942   6.146   3.360
10864SOL    HW233492   3.783   6.113   3.367
10865SOL     OW33493   6.481   1.835   5.737
10865SOL    HW133494   6.480   1.777   5.655
10865SOL    HW233495   6.575   1.840   5.772
10866SOL     OW33496   5.066   4.881   0.778
10866SOL    HW133497   4.994   4.909   0.841
10866SOL    HW233498   5.109   4.797   0.812
10867SOL     OW33499   2.976   1.927   0.006
10867SOL    HW133500   3.041   1.922   0.082
10867SOL    HW233501   3.024   1.911   6.943
10868SOL     OW33502   3.000   2.148   3.088
10868SOL    HW133503   3.024   2.075   3.024
10868SOL    HW233504   3.055   2.138   3.171
10869NA      NA33505   6.315   2.465   5.844
10870NA      NA33506   4.518   4.515   5.137
10871NA      NA33507   2.331   3.545   1.623
10872NA      NA33508   4.923   3.738   5.236
10873NA      NA33509   4.319   2.392   5.314
10874NA      NA33510   3.775   4.719   1.711
10875NA      NA33511   6.669   6.032   4.600
10876NA      NA33512   3.711   3.644   4.857
10877NA      NA33513   4.550   0.104   6.719
10878NA      NA33514   3.056   0.232   5.081
10879NA      NA33515   0.406   5.053   2.533
10880NA      NA33516   2.917   0.446   2.635
10881NA      NA33517   3.769   3.854   1.349
10882NA      NA33518   3.935   3.514   3.043
   7.02354   7.02354   7.02354
