Generated by trjconv : CNT in water t= 586.00000
33518
    1C        C    1   2.843   2.769   4.746
    1C        C    2   2.895   2.717   4.866
    1C        C    3   2.836   2.767   4.983
    1C        C    4   2.842   2.770   4.257
    1C        C    5   2.897   2.725   4.380
    1C        C    6   2.847   2.774   4.502
    1C        C    7   3.011   2.639   4.621
    1C        C    8   2.899   2.725   4.624
    1C        C    9   3.076   2.606   4.742
    1C        C   10   3.008   2.632   4.863
    1C        C   11   3.179   2.492   4.974
    1C        C   12   3.056   2.558   4.972
    1C        C   13   2.841   2.763   3.771
    1C        C   14   2.895   2.719   3.894
    1C        C   15   2.841   2.771   4.014
    1C        C   16   3.010   2.641   4.137
    1C        C   17   2.893   2.721   4.135
    1C        C   18   3.076   2.613   4.258
    1C        C   19   3.013   2.645   4.380
    1C        C   20   3.208   2.555   4.501
    1C        C   21   3.077   2.607   4.500
    1C        C   22   3.277   2.530   4.622
    1C        C   23   3.204   2.545   4.742
    1C        C   24   3.410   2.483   4.862
    1C        C   25   3.268   2.503   4.862
    1C        C   26   3.486   2.475   4.980
    1C        C   27   2.842   2.762   3.280
    1C        C   28   2.896   2.719   3.403
    1C        C   29   2.844   2.766   3.526
    1C        C   30   3.015   2.644   3.647
    1C        C   31   2.896   2.719   3.649
    1C        C   32   3.075   2.609   3.771
    1C        C   33   3.012   2.640   3.893
    1C        C   34   3.205   2.555   4.014
    1C        C   35   3.071   2.602   4.016
    1C        C   36   3.277   2.540   4.135
    1C        C   37   3.209   2.564   4.256
    1C        C   38   3.414   2.512   4.378
    1C        C   39   3.276   2.540   4.378
    1C        C   40   3.486   2.504   4.500
    1C        C   41   3.415   2.501   4.622
    1C        C   42   3.629   2.479   4.742
    1C        C   43   3.486   2.481   4.742
    1C        C   44   3.702   2.483   4.863
    1C        C   45   3.625   2.473   4.980
    1C        C   46   2.835   2.750   2.792
    1C        C   47   2.890   2.706   2.915
    1C        C   48   2.836   2.755   3.036
    1C        C   49   3.016   2.640   3.160
    1C        C   50   2.896   2.715   3.158
    1C        C   51   3.078   2.607   3.282
    1C        C   52   3.013   2.640   3.403
    1C        C   53   3.207   2.554   3.525
    1C        C   54   3.077   2.608   3.525
    1C        C   55   3.273   2.533   3.648
    1C        C   56   3.205   2.554   3.771
    1C        C   57   3.412   2.506   3.892
    1C        C   58   3.273   2.530   3.893
    1C        C   59   3.485   2.502   4.012
    1C        C   60   3.415   2.511   4.134
    1C        C   61   3.626   2.502   4.258
    1C        C   62   3.485   2.501   4.256
    1C        C   63   3.699   2.503   4.379
    1C        C   64   3.627   2.498   4.501
    1C        C   65   3.835   2.536   4.619
    1C        C   66   3.700   2.494   4.621
    1C        C   67   3.903   2.556   4.741
    1C        C   68   3.838   2.519   4.860
    1C        C   69   4.048   2.579   4.975
    1C        C   70   3.918   2.527   4.975
    1C        C   71   2.821   2.730   2.303
    1C        C   72   2.875   2.685   2.426
    1C        C   73   2.823   2.736   2.547
    1C        C   74   3.000   2.620   2.671
    1C        C   75   2.884   2.700   2.669
    1C        C   76   3.069   2.593   2.791
    1C        C   77   3.009   2.629   2.914
    1C        C   78   3.203   2.546   3.034
    1C        C   79   3.073   2.602   3.036
    1C        C   80   3.272   2.531   3.157
    1C        C   81   3.208   2.553   3.281
    1C        C   82   3.413   2.501   3.401
    1C        C   83   3.274   2.528   3.403
    1C        C   84   3.482   2.496   3.525
    1C        C   85   3.411   2.504   3.647
    1C        C   86   3.623   2.501   3.770
    1C        C   87   3.481   2.499   3.769
    1C        C   88   3.695   2.509   3.891
    1C        C   89   3.627   2.503   4.014
    1C        C   90   3.834   2.545   4.134
    1C        C   91   3.697   2.512   4.137
    1C        C   92   3.902   2.565   4.256
    1C        C   93   3.836   2.537   4.378
    1C        C   94   4.032   2.624   4.497
    1C        C   95   3.906   2.559   4.499
    1C        C   96   4.093   2.661   4.618
    1C        C   97   4.031   2.618   4.738
    1C        C   98   4.186   2.762   4.858
    1C        C   99   4.096   2.650   4.860
    1C        C  100   4.210   2.839   4.972
    1C        C  101   2.813   2.722   2.067
    1C        C  102   2.986   2.586   2.188
    1C        C  103   2.871   2.672   2.184
    1C        C  104   3.059   2.570   2.309
    1C        C  105   2.996   2.612   2.428
    1C        C  106   3.195   2.534   2.548
    1C        C  107   3.063   2.584   2.549
    1C        C  108   3.265   2.515   2.669
    1C        C  109   3.200   2.539   2.792
    1C        C  110   3.410   2.499   2.913
    1C        C  111   3.271   2.520   2.913
    1C        C  112   3.481   2.492   3.035
    1C        C  113   3.411   2.511   3.156
    1C        C  114   3.624   2.497   3.278
    1C        C  115   3.482   2.502   3.278
    1C        C  116   3.692   2.507   3.401
    1C        C  117   3.623   2.501   3.524
    1C        C  118   3.830   2.540   3.643
    1C        C  119   3.693   2.507   3.647
    1C        C  120   3.896   2.565   3.765
    1C        C  121   3.833   2.539   3.889
    1C        C  122   4.023   2.635   4.010
    1C        C  123   3.900   2.567   4.011
    1C        C  124   4.086   2.668   4.132
    1C        C  125   4.028   2.628   4.255
    1C        C  126   4.194   2.762   4.374
    1C        C  127   4.091   2.665   4.375
    1C        C  128   4.240   2.814   4.496
    1C        C  129   4.192   2.762   4.618
    1C        C  130   4.323   2.932   4.736
    1C        C  131   4.243   2.815   4.739
    1C        C  132   4.351   3.001   4.856
    1C        C  133   4.281   2.959   4.970
    1C        C  134   3.169   2.465   2.077
    1C        C  135   3.034   2.503   2.082
    1C        C  136   3.255   2.479   2.186
    1C        C  137   3.194   2.525   2.305
    1C        C  138   3.402   2.485   2.425
    1C        C  139   3.262   2.505   2.427
    1C        C  140   3.475   2.483   2.546
    1C        C  141   3.405   2.495   2.668
    1C        C  142   3.619   2.499   2.790
    1C        C  143   3.478   2.498   2.789
    1C        C  144   3.693   2.505   2.910
    1C        C  145   3.622   2.496   3.032
    1C        C  146   3.829   2.537   3.153
    1C        C  147   3.692   2.504   3.155
    1C        C  148   3.898   2.559   3.275
    1C        C  149   3.829   2.540   3.397
    1C        C  150   4.025   2.620   3.519
    1C        C  151   3.897   2.561   3.520
    1C        C  152   4.083   2.660   3.641
    1C        C  153   4.022   2.628   3.764
    1C        C  154   4.191   2.758   3.885
    1C        C  155   4.080   2.669   3.886
    1C        C  156   4.243   2.807   4.007
    1C        C  157   4.196   2.756   4.130
    1C        C  158   4.337   2.918   4.251
    1C        C  159   4.247   2.809   4.251
    1C        C  160   4.374   2.980   4.372
    1C        C  161   4.324   2.928   4.494
    1C        C  162   4.435   3.112   4.612
    1C        C  163   4.364   2.990   4.614
    1C        C  164   4.463   3.180   4.733
    1C        C  165   4.429   3.119   4.856
    1C        C  166   4.519   3.317   4.972
    1C        C  167   4.473   3.186   4.971
    1C        C  168   3.474   2.427   2.073
    1C        C  169   3.394   2.456   2.184
    1C        C  170   3.613   2.464   2.305
    1C        C  171   3.470   2.464   2.303
    1C        C  172   3.688   2.482   2.423
    1C        C  173   3.617   2.484   2.546
    1C        C  174   3.825   2.535   2.664
    1C        C  175   3.687   2.504   2.666
    1C        C  176   3.896   2.558   2.784
    1C        C  177   3.831   2.534   2.907
    1C        C  178   4.023   2.620   3.028
    1C        C  179   3.896   2.558   3.031
    1C        C  180   4.086   2.655   3.150
    1C        C  181   4.026   2.618   3.272
    1C        C  182   4.194   2.744   3.394
    1C        C  183   4.084   2.656   3.395
    1C        C  184   4.243   2.796   3.516
    1C        C  185   4.194   2.748   3.640
    1C        C  186   4.330   2.912   3.762
    1C        C  187   4.242   2.802   3.761
    1C        C  188   4.368   2.974   3.884
    1C        C  189   4.331   2.917   4.008
    1C        C  190   4.439   3.103   4.124
    1C        C  191   4.374   2.978   4.128
    1C        C  192   4.466   3.168   4.247
    1C        C  193   4.439   3.105   4.370
    1C        C  194   4.495   3.314   4.488
    1C        C  195   4.463   3.176   4.490
    1C        C  196   4.516   3.384   4.609
    1C        C  197   4.501   3.317   4.732
    1C        C  198   4.546   3.530   4.849
    1C        C  199   4.529   3.388   4.852
    1C        C  200   4.578   3.616   4.959
    1C        C  201   3.613   2.407   2.073
    1C        C  202   3.820   2.511   2.181
    1C        C  203   3.686   2.461   2.183
    1C        C  204   3.893   2.535   2.300
    1C        C  205   3.825   2.516   2.422
    1C        C  206   4.020   2.611   2.538
    1C        C  207   3.895   2.546   2.541
    1C        C  208   4.082   2.651   2.658
    1C        C  209   4.022   2.622   2.782
    1C        C  210   4.194   2.743   2.903
    1C        C  211   4.080   2.659   2.905
    1C        C  212   4.244   2.793   3.026
    1C        C  213   4.195   2.744   3.149
    1C        C  214   4.332   2.905   3.273
    1C        C  215   4.247   2.792   3.272
    1C        C  216   4.368   2.966   3.395
    1C        C  217   4.330   2.907   3.517
    1C        C  218   4.425   3.098   3.636
    1C        C  219   4.369   2.968   3.639
    1C        C  220   4.453   3.166   3.757
    1C        C  221   4.430   3.101   3.881
    1C        C  222   4.499   3.304   4.000
    1C        C  223   4.462   3.168   4.001
    1C        C  224   4.507   3.376   4.121
    1C        C  225   4.498   3.306   4.243
    1C        C  226   4.511   3.520   4.363
    1C        C  227   4.509   3.379   4.363
    1C        C  228   4.510   3.593   4.483
    1C        C  229   4.518   3.526   4.607
    1C        C  230   4.498   3.738   4.724
    1C        C  231   4.531   3.600   4.726
    1C        C  232   4.493   3.817   4.840
    1C        C  233   4.532   3.748   4.956
    1C        C  234   4.011   2.609   2.063
    1C        C  235   3.888   2.543   2.063
    1C        C  236   4.076   2.653   2.179
    1C        C  237   4.017   2.605   2.298
    1C        C  238   4.199   2.728   2.418
    1C        C  239   4.083   2.646   2.416
    1C        C  240   4.254   2.779   2.538
    1C        C  241   4.196   2.735   2.659
    1C        C  242   4.338   2.895   2.782
    1C        C  243   4.247   2.787   2.780
    1C        C  244   4.372   2.957   2.904
    1C        C  245   4.327   2.908   3.028
    1C        C  246   4.433   3.091   3.148
    1C        C  247   4.368   2.965   3.150
    1C        C  248   4.451   3.160   3.270
    1C        C  249   4.425   3.095   3.393
    1C        C  250   4.485   3.301   3.512
    1C        C  251   4.448   3.165   3.514
    1C        C  252   4.496   3.370   3.635
    1C        C  253   4.489   3.302   3.758
    1C        C  254   4.518   3.515   3.875
    1C        C  255   4.512   3.374   3.878
    1C        C  256   4.509   3.586   3.997
    1C        C  257   4.514   3.518   4.120
    1C        C  258   4.489   3.731   4.239
    1C        C  259   4.509   3.591   4.241
    1C        C  260   4.468   3.800   4.360
    1C        C  261   4.486   3.733   4.483
    1C        C  262   4.422   3.939   4.601
    1C        C  263   4.472   3.806   4.603
    1C        C  264   4.389   4.006   4.721
    1C        C  265   4.430   3.944   4.841
    1C        C  266   4.316   4.129   4.956
    1C        C  267   4.388   4.011   4.957
    1C        C  268   4.254   2.780   2.061
    1C        C  269   4.193   2.732   2.178
    1C        C  270   4.347   2.884   2.293
    1C        C  271   4.255   2.775   2.298
    1C        C  272   4.381   2.947   2.414
    1C        C  273   4.345   2.887   2.537
    1C        C  274   4.441   3.077   2.658
    1C        C  275   4.382   2.948   2.658
    1C        C  276   4.461   3.147   2.779
    1C        C  277   4.437   3.082   2.902
    1C        C  278   4.492   3.289   3.022
    1C        C  279   4.462   3.151   3.023
    1C        C  280   4.500   3.361   3.143
    1C        C  281   4.484   3.297   3.268
    1C        C  282   4.504   3.510   3.385
    1C        C  283   4.496   3.369   3.389
    1C        C  284   4.506   3.579   3.509
    1C        C  285   4.508   3.511   3.633
    1C        C  286   4.484   3.724   3.751
    1C        C  287   4.513   3.586   3.753
    1C        C  288   4.466   3.791   3.874
    1C        C  289   4.488   3.726   3.997
    1C        C  290   4.428   3.933   4.114
    1C        C  291   4.474   3.799   4.117
    1C        C  292   4.394   3.995   4.235
    1C        C  293   4.418   3.932   4.359
    1C        C  294   4.323   4.126   4.476
    1C        C  295   4.388   4.001   4.479
    1C        C  296   4.285   4.190   4.596
    1C        C  297   4.321   4.130   4.718
    1C        C  298   4.199   4.313   4.836
    1C        C  299   4.280   4.196   4.838
    1C        C  300   4.166   4.401   4.945
    1C        C  301   4.351   2.879   2.057
    1C        C  302   4.468   3.065   2.174
    1C        C  303   4.400   2.939   2.174
    1C        C  304   4.478   3.139   2.295
    1C        C  305   4.446   3.073   2.415
    1C        C  306   4.505   3.279   2.535
    1C        C  307   4.471   3.142   2.536
    1C        C  308   4.512   3.353   2.656
    1C        C  309   4.493   3.285   2.778
    1C        C  310   4.514   3.499   2.895
    1C        C  311   4.507   3.357   2.899
    1C        C  312   4.508   3.570   3.017
    1C        C  313   4.508   3.502   3.141
    1C        C  314   4.479   3.715   3.261
    1C        C  315   4.504   3.576   3.261
    1C        C  316   4.470   3.786   3.384
    1C        C  317   4.490   3.719   3.507
    1C        C  318   4.429   3.925   3.626
    1C        C  319   4.474   3.791   3.627
    1C        C  320   4.392   3.988   3.747
    1C        C  321   4.423   3.926   3.870
    1C        C  322   4.321   4.114   3.989
    1C        C  323   4.396   3.995   3.991
    1C        C  324   4.279   4.174   4.110
    1C        C  325   4.322   4.117   4.233
    1C        C  326   4.183   4.282   4.352
    1C        C  327   4.283   4.182   4.352
    1C        C  328   4.136   4.340   4.472
    1C        C  329   4.192   4.296   4.594
    1C        C  330   4.027   4.438   4.709
    1C        C  331   4.140   4.353   4.713
    1C        C  332   3.970   4.492   4.826
    1C        C  333   4.047   4.475   4.942
    1C        C  334   4.551   3.266   2.059
    1C        C  335   4.533   3.127   2.062
    1C        C  336   4.531   3.348   2.172
    1C        C  337   4.508   3.278   2.293
    1C        C  338   4.526   3.491   2.411
    1C        C  339   4.520   3.349   2.414
    1C        C  340   4.518   3.565   2.531
    1C        C  341   4.521   3.493   2.652
    1C        C  342   4.491   3.707   2.771
    1C        C  343   4.515   3.568   2.772
    1C        C  344   4.469   3.776   2.892
    1C        C  345   4.483   3.709   3.016
    1C        C  346   4.419   3.914   3.134
    1C        C  347   4.463   3.779   3.137
    1C        C  348   4.396   3.980   3.256
    1C        C  349   4.427   3.921   3.381
    1C        C  350   4.324   4.106   3.500
    1C        C  351   4.400   3.987   3.502
    1C        C  352   4.277   4.163   3.621
    1C        C  353   4.318   4.108   3.744
    1C        C  354   4.183   4.272   3.862
    1C        C  355   4.278   4.168   3.866
    1C        C  356   4.128   4.320   3.983
    1C        C  357   4.178   4.272   4.106
    1C        C  358   4.011   4.402   4.227
    1C        C  359   4.128   4.323   4.228
    1C        C  360   3.945   4.435   4.348
    1C        C  361   4.014   4.410   4.469
    1C        C  362   3.827   4.516   4.589
    1C        C  363   3.957   4.459   4.588
    1C        C  364   3.760   4.545   4.710
    1C        C  365   3.839   4.543   4.827
    1C        C  366   3.628   4.587   4.945
    1C        C  367   3.765   4.566   4.944
    1C        C  368   4.507   3.560   2.050
    1C        C  369   4.517   3.488   2.170
    1C        C  370   4.499   3.702   2.288
    1C        C  371   4.517   3.562   2.290
    1C        C  372   4.479   3.774   2.408
    1C        C  373   4.491   3.704   2.530
    1C        C  374   4.425   3.909   2.645
    1C        C  375   4.477   3.778   2.649
    1C        C  376   4.395   3.975   2.767
    1C        C  377   4.427   3.911   2.889
    1C        C  378   4.324   4.098   3.009
    1C        C  379   4.399   3.978   3.010
    1C        C  380   4.280   4.155   3.130
    1C        C  381   4.319   4.099   3.253
    1C        C  382   4.175   4.252   3.374
    1C        C  383   4.280   4.157   3.376
    1C        C  384   4.121   4.303   3.494
    1C        C  385   4.179   4.265   3.617
    1C        C  386   4.010   4.391   3.739
    1C        C  387   4.129   4.316   3.739
    1C        C  388   3.945   4.427   3.860
    1C        C  389   4.008   4.395   3.982
    1C        C  390   3.818   4.485   4.105
    1C        C  391   3.949   4.434   4.105
    1C        C  392   3.746   4.513   4.223
    1C        C  393   3.817   4.494   4.344
    1C        C  394   3.617   4.552   4.469
    1C        C  395   3.756   4.527   4.467
    1C        C  396   3.546   4.560   4.591
    1C        C  397   3.620   4.561   4.711
    1C        C  398   3.408   4.548   4.835
    1C        C  399   3.547   4.576   4.831
    1C        C  400   3.339   4.517   4.952
    1C        C  401   4.496   3.699   2.048
    1C        C  402   4.451   3.910   2.164
    1C        C  403   4.483   3.772   2.166
    1C        C  404   4.405   3.972   2.282
    1C        C  405   4.428   3.906   2.405
    1C        C  406   4.327   4.097   2.524
    1C        C  407   4.401   3.977   2.524
    1C        C  408   4.276   4.152   2.644
    1C        C  409   4.318   4.094   2.766
    1C        C  410   4.178   4.253   2.887
    1C        C  411   4.280   4.154   2.887
    1C        C  412   4.126   4.303   3.009
    1C        C  413   4.179   4.254   3.130
    1C        C  414   4.003   4.374   3.251
    1C        C  415   4.121   4.298   3.252
    1C        C  416   3.942   4.408   3.374
    1C        C  417   4.004   4.381   3.499
    1C        C  418   3.808   4.469   3.617
    1C        C  419   3.940   4.419   3.619
    1C        C  420   3.744   4.497   3.740
    1C        C  421   3.814   4.479   3.862
    1C        C  422   3.608   4.528   3.983
    1C        C  423   3.747   4.504   3.984
    1C        C  424   3.538   4.535   4.105
    1C        C  425   3.607   4.533   4.229
    1C        C  426   3.398   4.541   4.353
    1C        C  427   3.539   4.550   4.352
    1C        C  428   3.328   4.539   4.476
    1C        C  429   3.405   4.546   4.594
    1C        C  430   3.193   4.517   4.719
    1C        C  431   3.333   4.540   4.715
    1C        C  432   3.125   4.488   4.840
    1C        C  433   3.202   4.494   4.956
    1C        C  434   4.385   4.118   2.052
    1C        C  435   4.444   3.991   2.050
    1C        C  436   4.298   4.156   2.158
    1C        C  437   4.327   4.091   2.281
    1C        C  438   4.178   4.246   2.399
    1C        C  439   4.281   4.149   2.401
    1C        C  440   4.123   4.294   2.520
    1C        C  441   4.179   4.254   2.644
    1C        C  442   4.006   4.378   2.764
    1C        C  443   4.123   4.298   2.766
    1C        C  444   3.946   4.415   2.886
    1C        C  445   4.006   4.377   3.008
    1C        C  446   3.810   4.462   3.128
    1C        C  447   3.940   4.407   3.129
    1C        C  448   3.745   4.488   3.251
    1C        C  449   3.813   4.465   3.373
    1C        C  450   3.605   4.518   3.493
    1C        C  451   3.744   4.491   3.494
    1C        C  452   3.538   4.534   3.616
    1C        C  453   3.606   4.528   3.740
    1C        C  454   3.394   4.539   3.861
    1C        C  455   3.535   4.533   3.862
    1C        C  456   3.327   4.526   3.985
    1C        C  457   3.397   4.527   4.108
    1C        C  458   3.190   4.503   4.234
    1C        C  459   3.328   4.531   4.231
    1C        C  460   3.122   4.480   4.356
    1C        C  461   3.191   4.504   4.477
    1C        C  462   2.995   4.429   4.600
    1C        C  463   3.122   4.491   4.599
    1C        C  464   2.929   4.398   4.721
    1C        C  465   2.990   4.439   4.843
    1C        C  466   2.799   4.330   4.955
    1C        C  467   2.900   4.428   4.954
    1C        C  468   4.122   4.286   2.040
    1C        C  469   4.187   4.247   2.158
    1C        C  470   4.000   4.362   2.276
    1C        C  471   4.124   4.293   2.277
    1C        C  472   3.940   4.399   2.398
    1C        C  473   4.003   4.369   2.521
    1C        C  474   3.811   4.462   2.642
    1C        C  475   3.941   4.408   2.642
    1C        C  476   3.742   4.483   2.764
    1C        C  477   3.815   4.469   2.883
    1C        C  478   3.606   4.510   3.006
    1C        C  479   3.745   4.487   3.005
    1C        C  480   3.536   4.522   3.128
    1C        C  481   3.607   4.518   3.250
    1C        C  482   3.394   4.536   3.374
    1C        C  483   3.535   4.528   3.371
    1C        C  484   3.323   4.531   3.496
    1C        C  485   3.397   4.533   3.617
    1C        C  486   3.187   4.496   3.741
    1C        C  487   3.325   4.527   3.738
    1C        C  488   3.123   4.475   3.865
    1C        C  489   3.190   4.493   3.989
    1C        C  490   2.999   4.410   4.112
    1C        C  491   3.122   4.480   4.112
    1C        C  492   2.937   4.377   4.234
    1C        C  493   2.995   4.420   4.356
    1C        C  494   2.821   4.302   4.480
    1C        C  495   2.933   4.388   4.480
    1C        C  496   2.768   4.253   4.601
    1C        C  497   2.818   4.309   4.720
    1C        C  498   2.658   4.163   4.841
    1C        C  499   2.753   4.268   4.838
    1C        C  500   2.589   4.117   4.954
    1C        C  501   3.999   4.349   2.036
    1C        C  502   3.810   4.454   2.156
    1C        C  503   3.937   4.393   2.153
    1C        C  504   3.739   4.474   2.277
    1C        C  505   3.807   4.446   2.398
    1C        C  506   3.603   4.498   2.518
    1C        C  507   3.742   4.476   2.519
    1C        C  508   3.531   4.504   2.639
    1C        C  509   3.602   4.504   2.762
    1C        C  510   3.392   4.518   2.883
    1C        C  511   3.534   4.516   2.885
    1C        C  512   3.322   4.518   3.006
    1C        C  513   3.395   4.526   3.126
    1C        C  514   3.190   4.487   3.253
    1C        C  515   3.326   4.524   3.250
    1C        C  516   3.121   4.462   3.374
    1C        C  517   3.187   4.495   3.495
    1C        C  518   2.995   4.410   3.622
    1C        C  519   3.121   4.474   3.618
    1C        C  520   2.938   4.369   3.745
    1C        C  521   3.000   4.406   3.866
    1C        C  522   2.832   4.280   3.990
    1C        C  523   2.943   4.368   3.990
    1C        C  524   2.780   4.238   4.115
    1C        C  525   2.825   4.291   4.238
    1C        C  526   2.684   4.135   4.362
    1C        C  527   2.770   4.247   4.360
    1C        C  528   2.642   4.076   4.484
    1C        C  529   2.680   4.143   4.602
    1C        C  530   2.588   3.953   4.729
    1C        C  531   2.636   4.087   4.724
    1C        C  532   2.538   3.899   4.851
    1C        C  533   2.522   3.994   4.957
    1C        C  534   3.615   4.555   2.039
    1C        C  535   3.746   4.505   2.042
    1C        C  536   3.532   4.537   2.154
    1C        C  537   3.601   4.508   2.275
    1C        C  538   3.389   4.510   2.398
    1C        C  539   3.531   4.514   2.397
    1C        C  540   3.316   4.506   2.519
    1C        C  541   3.390   4.509   2.639
    1C        C  542   3.181   4.483   2.764
    1C        C  543   3.321   4.505   2.762
    1C        C  544   3.115   4.464   2.887
    1C        C  545   3.184   4.486   3.009
    1C        C  546   2.995   4.399   3.130
    1C        C  547   3.120   4.465   3.133
    1C        C  548   2.936   4.361   3.253
    1C        C  549   2.995   4.398   3.376
    1C        C  550   2.826   4.280   3.502
    1C        C  551   2.935   4.371   3.501
    1C        C  552   2.773   4.234   3.624
    1C        C  553   2.823   4.287   3.745
    1C        C  554   2.693   4.121   3.871
    1C        C  555   2.779   4.234   3.868
    1C        C  556   2.652   4.068   3.995
    1C        C  557   2.688   4.131   4.117
    1C        C  558   2.594   3.944   4.242
    1C        C  559   2.651   4.073   4.240
    1C        C  560   2.564   3.880   4.365
    1C        C  561   2.588   3.946   4.487
    1C        C  562   2.530   3.745   4.613
    1C        C  563   2.555   3.884   4.610
    1C        C  564   2.515   3.680   4.738
    1C        C  565   2.511   3.759   4.856
    1C        C  566   2.523   3.543   4.976
    1C        C  567   2.522   3.682   4.972
    1C        C  568   3.322   4.469   2.039
    1C        C  569   3.392   4.508   2.153
    1C        C  570   3.182   4.468   2.276
    1C        C  571   3.320   4.503   2.275
    1C        C  572   3.112   4.452   2.397
    1C        C  573   3.178   4.479   2.520
    1C        C  574   2.984   4.402   2.644
    1C        C  575   3.111   4.464   2.643
    1C        C  576   2.928   4.360   2.767
    1C        C  577   2.991   4.396   2.888
    1C        C  578   2.822   4.270   3.012
    1C        C  579   2.931   4.359   3.010
    1C        C  580   2.771   4.223   3.136
    1C        C  581   2.824   4.275   3.255
    1C        C  582   2.692   4.115   3.380
    1C        C  583   2.780   4.226   3.380
    1C        C  584   2.658   4.055   3.503
    1C        C  585   2.690   4.120   3.625
    1C        C  586   2.591   3.936   3.752
    1C        C  587   2.654   4.062   3.749
    1C        C  588   2.569   3.873   3.877
    1C        C  589   2.593   3.940   3.999
    1C        C  590   2.537   3.737   4.126
    1C        C  591   2.573   3.874   4.122
    1C        C  592   2.524   3.671   4.250
    1C        C  593   2.528   3.743   4.371
    1C        C  594   2.509   3.532   4.495
    1C        C  595   2.515   3.673   4.493
    1C        C  596   2.517   3.463   4.618
    1C        C  597   2.516   3.538   4.738
    1C        C  598   2.531   3.324   4.860
    1C        C  599   2.523   3.465   4.859
    1C        C  600   2.533   3.248   4.978
    1C        C  601   3.192   4.424   2.039
    1C        C  602   2.976   4.396   2.156
    1C        C  603   3.114   4.436   2.155
    1C        C  604   2.917   4.361   2.280
    1C        C  605   2.982   4.398   2.401
    1C        C  606   2.815   4.270   2.526
    1C        C  607   2.922   4.363   2.524
    1C        C  608   2.769   4.215   2.648
    1C        C  609   2.820   4.270   2.768
    1C        C  610   2.678   4.115   2.891
    1C        C  611   2.767   4.225   2.891
    1C        C  612   2.642   4.054   3.014
    1C        C  613   2.683   4.113   3.136
    1C        C  614   2.588   3.927   3.264
    1C        C  615   2.646   4.056   3.260
    1C        C  616   2.567   3.862   3.387
    1C        C  617   2.599   3.927   3.509
    1C        C  618   2.528   3.730   3.635
    1C        C  619   2.568   3.866   3.632
    1C        C  620   2.518   3.663   3.759
    1C        C  621   2.532   3.736   3.879
    1C        C  622   2.516   3.528   4.006
    1C        C  623   2.523   3.669   4.003
    1C        C  624   2.522   3.459   4.129
    1C        C  625   2.521   3.530   4.251
    1C        C  626   2.540   3.321   4.376
    1C        C  627   2.514   3.460   4.374
    1C        C  628   2.551   3.251   4.499
    1C        C  629   2.533   3.323   4.619
    1C        C  630   2.593   3.117   4.741
    1C        C  631   2.546   3.251   4.740
    1C        C  632   2.613   3.047   4.864
    1C        C  633   2.553   3.109   4.978
    1C        C  634   2.784   4.294   2.050
    1C        C  635   2.887   4.389   2.044
    1C        C  636   2.751   4.222   2.165
    1C        C  637   2.806   4.273   2.285
    1C        C  638   2.671   4.108   2.406
    1C        C  639   2.761   4.217   2.407
    1C        C  640   2.633   4.048   2.528
    1C        C  641   2.677   4.108   2.648
    1C        C  642   2.578   3.923   2.776
    1C        C  643   2.639   4.050   2.772
    1C        C  644   2.560   3.854   2.898
    1C        C  645   2.589   3.923   3.018
    1C        C  646   2.524   3.724   3.145
    1C        C  647   2.566   3.859   3.142
    1C        C  648   2.510   3.655   3.267
    1C        C  649   2.529   3.726   3.388
    1C        C  650   2.511   3.519   3.516
    1C        C  651   2.516   3.660   3.513
    1C        C  652   2.514   3.450   3.640
    1C        C  653   2.515   3.521   3.762
    1C        C  654   2.534   3.314   3.886
    1C        C  655   2.510   3.454   3.885
    1C        C  656   2.553   3.249   4.010
    1C        C  657   2.539   3.319   4.131
    1C        C  658   2.598   3.117   4.257
    1C        C  659   2.556   3.252   4.254
    1C        C  660   2.629   3.051   4.378
    1C        C  661   2.595   3.117   4.498
    1C        C  662   2.702   2.934   4.624
    1C        C  663   2.622   3.051   4.620
    1C        C  664   2.747   2.875   4.744
    1C        C  665   2.693   2.929   4.864
    1C        C  666   2.736   2.863   4.980
    1C        C  667   2.680   4.021   2.051
    1C        C  668   2.675   4.103   2.164
    1C        C  669   2.587   3.909   2.292
    1C        C  670   2.638   4.042   2.285
    1C        C  671   2.559   3.844   2.414
    1C        C  672   2.576   3.919   2.532
    1C        C  673   2.519   3.718   2.657
    1C        C  674   2.549   3.856   2.655
    1C        C  675   2.511   3.647   2.779
    1C        C  676   2.523   3.718   2.901
    1C        C  677   2.503   3.510   3.026
    1C        C  678   2.511   3.651   3.025
    1C        C  679   2.510   3.442   3.149
    1C        C  680   2.506   3.514   3.270
    1C        C  681   2.534   3.307   3.398
    1C        C  682   2.515   3.447   3.394
    1C        C  683   2.552   3.241   3.521
    1C        C  684   2.534   3.310   3.643
    1C        C  685   2.597   3.109   3.768
    1C        C  686   2.547   3.242   3.766
    1C        C  687   2.635   3.052   3.892
    1C        C  688   2.604   3.117   4.013
    1C        C  689   2.707   2.933   4.138
    1C        C  690   2.630   3.052   4.136
    1C        C  691   2.753   2.880   4.260
    1C        C  692   2.710   2.935   4.383
    1C        C  693   2.751   2.877   4.505
    1C        C  694   2.621   3.894   2.054
    1C        C  695   2.518   3.706   2.176
    1C        C  696   2.572   3.836   2.172
    1C        C  697   2.499   3.636   2.297
    1C        C  698   2.517   3.709   2.417
    1C        C  699   2.493   3.500   2.540
    1C        C  700   2.503   3.641   2.540
    1C        C  701   2.498   3.430   2.663
    1C        C  702   2.506   3.506   2.781
    1C        C  703   2.523   3.297   2.910
    1C        C  704   2.507   3.437   2.905
    1C        C  705   2.545   3.230   3.033
    1C        C  706   2.534   3.302   3.153
    1C        C  707   2.597   3.102   3.276
    1C        C  708   2.548   3.235   3.277
    1C        C  709   2.630   3.043   3.400
    1C        C  710   2.600   3.108   3.522
    1C        C  711   2.707   2.929   3.647
    1C        C  712   2.629   3.046   3.646
    1C        C  713   2.751   2.873   3.769
    1C        C  714   2.711   2.932   3.890
    1C        C  715   2.749   2.877   4.015
    1C        C  716   2.448   3.497   2.062
    1C        C  717   2.488   3.631   2.061
    1C        C  718   2.467   3.419   2.182
    1C        C  719   2.479   3.495   2.301
    1C        C  720   2.517   3.284   2.423
    1C        C  721   2.488   3.423   2.422
    1C        C  722   2.536   3.218   2.546
    1C        C  723   2.522   3.290   2.667
    1C        C  724   2.587   3.092   2.787
    1C        C  725   2.533   3.223   2.790
    1C        C  726   2.616   3.029   2.910
    1C        C  727   2.591   3.096   3.032
    1C        C  728   2.699   2.916   3.156
    1C        C  729   2.620   3.033   3.155
    1C        C  730   2.747   2.866   3.279
    1C        C  731   2.704   2.923   3.402
    1C        C  732   2.747   2.869   3.525
    1C        C  733   2.487   3.194   2.069
    1C        C  734   2.489   3.278   2.181
    1C        C  735   2.586   3.083   2.301
    1C        C  736   2.528   3.213   2.301
    1C        C  737   2.611   3.017   2.423
    1C        C  738   2.583   3.085   2.544
    1C        C  739   2.690   2.903   2.669
    1C        C  740   2.614   3.023   2.667
    1C        C  741   2.735   2.850   2.791
    1C        C  742   2.691   2.910   2.912
    1C        C  743   2.739   2.857   3.034
    1C        C  744   2.546   3.068   2.069
    1C        C  745   2.684   2.893   2.182
    1C        C  746   2.610   3.013   2.181
    1C        C  747   2.728   2.838   2.304
    1C        C  748   2.684   2.896   2.425
    1C        C  749   2.729   2.842   2.548
    1C        C  750   2.729   2.833   2.064
    1C        C  751   3.656   2.296   1.984
    1C        O  752   3.719   2.193   2.020
    1C        O  753   3.693   2.325   1.853
    1C        C  754   4.621   3.047   1.974
    1C        O  755   4.579   2.997   1.866
    1C        O  756   4.750   3.004   2.007
    1C        C  757   4.455   4.225   1.977
    1C        O  758   4.550   4.288   2.029
    1C        O  759   4.393   4.287   1.868
    1C        C  760   3.591   4.665   1.943
    1C        O  761   3.644   4.779   1.956
    1C        O  762   3.575   4.647   1.805
    1C        C  763   2.874   4.503   1.951
    1C        O  764   2.873   4.481   1.827
    1C        O  765   2.812   4.622   1.991
    1C        C  766   2.331   3.487   1.972
    1C        O  767   2.327   3.415   1.869
    1C        O  768   2.198   3.510   2.010
    1C        C  769   4.704   3.601   5.035
    1C        O  770   4.715   3.570   5.157
    1C        O  771   4.828   3.575   4.977
    1C        C  772   4.261   4.437   5.052
    1C        O  773   4.237   4.411   5.173
    1C        O  774   4.381   4.509   5.039
    1C        C  775   4.147   2.509   5.060
    1C        O  776   4.171   2.388   5.037
    1C        O  777   4.143   2.546   5.195
    1C        C  778   2.846   4.549   5.019
    1C        O  779   2.745   4.615   4.981
    1C        O  780   2.876   4.575   5.153
    1C        C  781   2.461   3.035   5.067
    1C        O  782   2.346   2.990   5.040
    1C        O  783   2.476   3.034   5.205
    1C        C  784   2.419   3.979   5.062
    1C        O  785   2.299   4.005   5.031
    1C        O  786   2.452   3.980   5.198
    1C        C  787   2.945   2.409   2.010
    1C        O  788   2.937   2.415   1.884
    1C        O  789   2.926   2.274   2.033
    1C        C  790   3.168   2.362   5.043
    1C        O  791   3.180   2.247   4.993
    1C        O  792   3.130   2.348   5.177
    1C        H  793   4.245   3.034   5.037
    1C        H  794   4.171   2.815   5.069
    1C        H  795   4.491   3.120   5.053
    1C        H  796   4.482   3.376   5.053
    1C        H  797   4.520   3.797   5.051
    1C        H  798   4.425   3.984   5.054
    1C        H  799   4.314   4.182   5.049
    1C        H  800   4.013   4.515   5.036
    1C        H  801   3.817   4.613   5.025
    1C        H  802   3.582   4.609   5.039
    1C        H  803   3.397   4.491   5.039
    1C        H  804   3.152   4.521   5.047
    1C        H  805   3.883   2.494   5.070
    1C        H  806   3.668   2.432   5.069
    1C        H  807   2.987   2.539   5.052
    1C        H  808   3.442   2.467   5.077
    1C        H  809   2.905   2.782   5.064
    1C        H  810   2.694   2.897   5.073
    1C        H  811   2.501   3.297   5.067
    1C        H  812   2.555   3.499   5.068
    1C        H  813   2.527   3.728   5.069
    1C        H  814   2.596   4.179   5.040
    1C        H  815   2.792   4.278   5.048
    1C        H  816   2.708   2.882   1.971
    1C        H  817   2.856   2.686   1.976
    1C        H  818   3.199   2.406   1.993
    1C        H  819   3.427   2.398   1.981
    1C        H  820   3.861   2.487   1.976
    1C        H  821   4.049   2.630   1.965
    1C        H  822   4.268   2.706   1.985
    1C        H  823   4.343   2.945   1.973
    1C        H  824   4.625   3.299   1.990
    1C        H  825   4.448   3.513   1.974
    1C        H  826   4.465   3.739   1.954
    1C        H  827   3.806   4.545   1.964
    1C        H  828   3.948   4.350   1.941
    1C        H  829   4.185   4.309   1.956
    1C        H  830   4.499   3.954   1.965
    1C        H  831   2.607   3.839   1.964
    1C        H  832   2.703   4.063   1.955
    1C        H  833   2.697   4.313   1.990
    1C        H  834   3.385   4.432   1.960
    1C        H  835   3.175   4.335   1.982
    1C        H  836   2.534   3.012   1.979
    1C        H  837   2.422   3.206   1.984
    1C        H  838   2.465   3.686   1.973
    2V3OU   H29  839   2.805   3.549   6.406
    2V3OU   C27  840   2.781   3.502   6.505
    2V3OU   H27  841   2.715   3.571   6.564
    2V3OU   H28  842   2.726   3.407   6.482
    2V3OU   O11  843   2.905   3.478   6.572
    2V3OU   C15  844   2.913   3.389   6.677
    2V3OU   C13  845   3.045   3.372   6.725
    2V3OU   C14  846   3.071   3.267   6.813
    2V3OU   C16  847   2.968   3.187   6.861
    2V3OU    H6  848   2.990   3.099   6.923
    2V3OU   C12  849   3.212   3.229   6.837
    2V3OU    O2  850   3.236   3.132   6.913
    2V3OU   C10  851   3.325   3.307   6.783
    2V3OU    C8  852   3.458   3.272   6.804
    2V3OU   O10  853   3.491   3.154   6.863
    2V3OU   H26  854   3.403   3.113   6.867
    2V3OU    C6  855   3.566   3.348   6.749
    2V3OU    C5  856   3.533   3.466   6.683
    2V3OU    C4  857   3.702   3.290   6.739
    2V3OU    H4  858   3.718   3.220   6.826
    2V3OU    H5  859   3.712   3.229   6.644
    2V3OU    C2  860   3.815   3.393   6.743
    2V3OU    O6  861   3.806   3.474   6.860
    2V3OU   H21  862   3.756   3.554   6.835
    2V3OU    C3  863   3.782   3.492   6.631
    2V3OU    H2  864   3.865   3.566   6.625
    2V3OU    H3  865   3.781   3.433   6.536
    2V3OU   C25  866   3.952   3.327   6.726
    2V3OU    O7  867   4.005   3.295   6.619
    2V3OU   C26  868   4.029   3.286   6.850
    2V3OU   H22  869   4.065   3.383   6.892
    2V3OU   H23  870   4.114   3.218   6.823
    2V3OU    O8  871   3.963   3.204   6.944
    2V3OU   H24  872   3.917   3.264   7.006
    2V3OU    C1  873   3.646   3.558   6.646
    2V3OU    H1  874   3.621   3.612   6.549
    2V3OU    O3  875   3.659   3.655   6.750
    2V3OU   C19  876   3.614   3.789   6.728
    2V3OU    H9  877   3.520   3.802   6.667
    2V3OU    O4  878   3.711   3.844   6.642
    2V3OU   C20  879   3.843   3.871   6.689
    2V3OU   H10  880   3.897   3.776   6.716
    2V3OU   C24  881   3.610   3.853   6.867
    2V3OU   H16  882   3.544   3.790   6.932
    2V3OU   H17  883   3.560   3.952   6.846
    2V3OU   C23  884   3.750   3.873   6.925
    2V3OU   H15  885   3.790   3.768   6.942
    2V3OU    N1  886   3.737   3.956   0.026
    2V3OU   H19  887   3.803   3.925   0.095
    2V3OU   H20  888   3.646   3.935   0.060
    2V3OU   C21  889   3.845   3.944   6.824
    2V3OU   H11  890   3.949   3.924   6.864
    2V3OU    O5  891   3.826   4.084   6.824
    2V3OU   H18  892   3.780   4.104   6.907
    2V3OU   C22  893   3.908   3.945   6.573
    2V3OU   H12  894   3.862   4.047   6.559
    2V3OU   H13  895   3.903   3.885   6.479
    2V3OU   H14  896   4.018   3.955   6.594
    2V3OU   C11  897   3.153   3.469   6.701
    2V3OU    O1  898   3.134   3.581   6.649
    2V3OU    C9  899   3.293   3.422   6.707
    2V3OU    C7  900   3.397   3.506   6.666
    2V3OU    O9  901   3.379   3.610   6.577
    2V3OU   H25  902   3.283   3.621   6.578
    2V3OU   C17  903   2.809   3.310   6.731
    2V3OU    H7  904   2.707   3.340   6.707
    2V3OU   C18  905   2.836   3.211   6.824
    2V3OU    H8  906   2.755   3.147   6.861
    3SOL     OW  907   2.940   3.601   5.250
    3SOL    HW1  908   2.852   3.641   5.275
    3SOL    HW2  909   2.992   3.667   5.195
    4SOL     OW  910   1.159   0.303   0.265
    4SOL    HW1  911   1.075   0.254   0.243
    4SOL    HW2  912   1.144   0.360   0.346
    5SOL     OW  913   3.976   1.869   0.465
    5SOL    HW1  914   4.017   1.789   0.422
    5SOL    HW2  915   4.048   1.926   0.505
    6SOL     OW  916   3.118   2.086   2.023
    6SOL    HW1  917   3.050   2.159   2.020
    6SOL    HW2  918   3.149   2.064   1.931
    7SOL     OW  919   1.577   3.159   4.566
    7SOL    HW1  920   1.665   3.174   4.522
    7SOL    HW2  921   1.542   3.246   4.601
    8SOL     OW  922   1.068   1.845   6.107
    8SOL    HW1  923   1.058   1.945   6.115
    8SOL    HW2  924   1.004   1.810   6.039
    9SOL     OW  925   2.090   2.371   5.509
    9SOL    HW1  926   2.011   2.338   5.457
    9SOL    HW2  927   2.073   2.464   5.540
   10SOL     OW  928   5.648   4.883   0.941
   10SOL    HW1  929   5.730   4.838   0.904
   10SOL    HW2  930   5.651   4.881   1.041
   11SOL     OW  931   2.953   1.033   0.955
   11SOL    HW1  932   2.994   0.943   0.941
   11SOL    HW2  933   3.020   1.095   0.995
   12SOL     OW  934   5.610   4.902   1.226
   12SOL    HW1  935   5.511   4.906   1.212
   12SOL    HW2  936   5.630   4.847   1.308
   13SOL     OW  937   4.464   5.945   1.904
   13SOL    HW1  938   4.477   5.846   1.904
   13SOL    HW2  939   4.504   5.984   1.988
   14SOL     OW  940   4.604   6.004   0.891
   14SOL    HW1  941   4.659   6.087   0.880
   14SOL    HW2  942   4.517   6.015   0.842
   15SOL     OW  943   0.341   0.219   6.597
   15SOL    HW1  944   0.250   0.191   6.565
   15SOL    HW2  945   0.369   0.303   6.549
   16SOL     OW  946   1.763   4.933   5.616
   16SOL    HW1  947   1.683   4.890   5.658
   16SOL    HW2  948   1.736   4.977   5.530
   17SOL     OW  949   0.139   2.360   4.055
   17SOL    HW1  950   0.085   2.435   4.094
   17SOL    HW2  951   0.090   2.322   3.976
   18SOL     OW  952   2.390   0.206   5.279
   18SOL    HW1  953   2.490   0.208   5.282
   18SOL    HW2  954   2.354   0.181   5.368
   19SOL     OW  955   4.306   6.073   3.074
   19SOL    HW1  956   4.333   5.982   3.105
   19SOL    HW2  957   4.224   6.102   3.123
   20SOL     OW  958   0.182   1.789   4.440
   20SOL    HW1  959   0.142   1.880   4.441
   20SOL    HW2  960   0.115   1.723   4.405
   21SOL     OW  961   1.996   3.160   1.849
   21SOL    HW1  962   2.046   3.099   1.788
   21SOL    HW2  963   1.908   3.118   1.873
   22SOL     OW  964   0.446   0.522   0.241
   22SOL    HW1  965   0.490   0.490   0.324
   22SOL    HW2  966   0.385   0.599   0.262
   23SOL     OW  967   0.499   5.699   0.437
   23SOL    HW1  968   0.502   5.651   0.525
   23SOL    HW2  969   0.485   5.633   0.364
   24SOL     OW  970   4.419   0.785   6.759
   24SOL    HW1  971   4.469   0.824   6.837
   24SOL    HW2  972   4.326   0.822   6.758
   25SOL     OW  973   2.151   0.538   5.561
   25SOL    HW1  974   2.139   0.439   5.552
   25SOL    HW2  975   2.141   0.563   5.658
   26SOL     OW  976   2.245   6.360   5.291
   26SOL    HW1  977   2.170   6.301   5.319
   26SOL    HW2  978   2.208   6.444   5.252
   27SOL     OW  979   0.101   0.143   2.348
   27SOL    HW1  980   0.112   0.241   2.326
   27SOL    HW2  981   0.168   0.117   2.418
   28SOL     OW  982   2.015   0.660   5.155
   28SOL    HW1  983   1.944   0.591   5.162
   28SOL    HW2  984   2.093   0.624   5.104
   29SOL     OW  985   5.057   0.528   1.971
   29SOL    HW1  986   5.034   0.485   1.883
   29SOL    HW2  987   4.980   0.516   2.034
   30SOL     OW  988   4.855   6.828   4.656
   30SOL    HW1  989   4.874   6.754   4.592
   30SOL    HW2  990   4.941   6.858   4.699
   31SOL     OW  991   6.006   3.697   4.606
   31SOL    HW1  992   5.993   3.634   4.682
   31SOL    HW2  993   5.918   3.735   4.578
   32SOL     OW  994   3.631   1.508   1.556
   32SOL    HW1  995   3.550   1.515   1.615
   32SOL    HW2  996   3.606   1.532   1.462
   33SOL     OW  997   1.736   4.736   5.130
   33SOL    HW1  998   1.835   4.722   5.130
   33SOL    HW2  999   1.695   4.688   5.208
   34SOL     OW 1000   2.405   0.232   5.582
   34SOL    HW1 1001   2.494   0.263   5.549
   34SOL    HW2 1002   2.412   0.139   5.618
   35SOL     OW 1003   0.988   3.593   4.446
   35SOL    HW1 1004   0.998   3.497   4.417
   35SOL    HW2 1005   1.075   3.641   4.435
   36SOL     OW 1006   5.632   0.939   4.673
   36SOL    HW1 1007   5.539   0.962   4.701
   36SOL    HW2 1008   5.654   0.985   4.587
   37SOL     OW 1009   1.189   5.772   3.603
   37SOL    HW1 1010   1.233   5.696   3.650
   37SOL    HW2 1011   1.155   5.741   3.515
   38SOL     OW 1012   0.894   3.442   1.674
   38SOL    HW1 1013   0.814   3.469   1.726
   38SOL    HW2 1014   0.900   3.342   1.671
   39SOL     OW 1015   6.237   5.537   1.154
   39SOL    HW1 1016   6.145   5.503   1.132
   39SOL    HW2 1017   6.268   5.597   1.080
   40SOL     OW 1018   4.293   0.715   5.942
   40SOL    HW1 1019   4.275   0.617   5.944
   40SOL    HW2 1020   4.370   0.734   5.881
   41SOL     OW 1021   0.348   3.689   1.235
   41SOL    HW1 1022   0.399   3.686   1.149
   41SOL    HW2 1023   0.413   3.691   1.311
   42SOL     OW 1024   2.617   3.734   0.798
   42SOL    HW1 1025   2.551   3.685   0.855
   42SOL    HW2 1026   2.707   3.732   0.842
   43SOL     OW 1027   5.065   0.625   3.566
   43SOL    HW1 1028   5.101   0.534   3.543
   43SOL    HW2 1029   4.969   0.617   3.593
   44SOL     OW 1030   6.899   1.012   6.782
   44SOL    HW1 1031   6.865   1.096   6.740
   44SOL    HW2 1032   6.860   1.003   6.874
   45SOL     OW 1033   2.042   3.798   5.216
   45SOL    HW1 1034   1.982   3.875   5.197
   45SOL    HW2 1035   2.134   3.832   5.240
   46SOL     OW 1036   0.814   5.382   4.463
   46SOL    HW1 1037   0.738   5.327   4.497
   46SOL    HW2 1038   0.896   5.326   4.457
   47SOL     OW 1039   0.229   3.921   6.031
   47SOL    HW1 1040   0.306   3.888   5.977
   47SOL    HW2 1041   0.144   3.908   5.979
   48SOL     OW 1042   0.387   4.288   0.208
   48SOL    HW1 1043   0.378   4.380   0.244
   48SOL    HW2 1044   0.297   4.255   0.179
   49SOL     OW 1045   3.771   0.382   0.147
   49SOL    HW1 1046   3.687   0.369   0.201
   49SOL    HW2 1047   3.807   0.293   0.120
   50SOL     OW 1048   4.403   1.819   5.829
   50SOL    HW1 1049   4.479   1.799   5.891
   50SOL    HW2 1050   4.362   1.907   5.854
   51SOL     OW 1051   0.833   6.432   2.029
   51SOL    HW1 1052   0.890   6.383   1.963
   51SOL    HW2 1053   0.839   6.530   2.013
   52SOL     OW 1054   5.128   3.083   2.803
   52SOL    HW1 1055   5.117   3.004   2.742
   52SOL    HW2 1056   5.190   3.060   2.877
   53SOL     OW 1057   4.150   6.728   1.406
   53SOL    HW1 1058   4.244   6.760   1.418
   53SOL    HW2 1059   4.087   6.793   1.448
   54SOL     OW 1060   0.902   1.436   6.144
   54SOL    HW1 1061   0.961   1.496   6.197
   54SOL    HW2 1062   0.889   1.350   6.193
   55SOL     OW 1063   2.418   3.831   6.378
   55SOL    HW1 1064   2.471   3.773   6.440
   55SOL    HW2 1065   2.446   3.812   6.283
   56SOL     OW 1066   2.151   2.024   0.067
   56SOL    HW1 1067   2.217   1.949   0.069
   56SOL    HW2 1068   2.200   2.111   0.065
   57SOL     OW 1069   4.214   5.908   1.721
   57SOL    HW1 1070   4.246   5.822   1.682
   57SOL    HW2 1071   4.279   5.939   1.790
   58SOL     OW 1072   0.612   0.419   6.989
   58SOL    HW1 1073   0.584   0.451   0.062
   58SOL    HW2 1074   0.692   0.359   6.999
   59SOL     OW 1075   4.156   3.461   0.162
   59SOL    HW1 1076   4.081   3.453   0.227
   59SOL    HW2 1077   4.155   3.552   0.121
   60SOL     OW 1078   6.437   2.690   2.025
   60SOL    HW1 1079   6.535   2.674   2.017
   60SOL    HW2 1080   6.401   2.641   2.105
   61SOL     OW 1081   1.284   4.863   2.748
   61SOL    HW1 1082   1.279   4.874   2.649
   61SOL    HW2 1083   1.329   4.943   2.788
   62SOL     OW 1084   4.922   3.490   2.897
   62SOL    HW1 1085   4.880   3.435   2.825
   62SOL    HW2 1086   4.985   3.432   2.950
   63SOL     OW 1087   4.116   0.229   6.150
   63SOL    HW1 1088   4.146   0.247   6.244
   63SOL    HW2 1089   4.122   0.131   6.131
   64SOL     OW 1090   2.512   1.787   6.640
   64SOL    HW1 1091   2.540   1.698   6.677
   64SOL    HW2 1092   2.445   1.773   6.567
   65SOL     OW 1093   0.731   5.289   4.839
   65SOL    HW1 1094   0.788   5.275   4.920
   65SOL    HW2 1095   0.702   5.385   4.836
   66SOL     OW 1096   4.365   1.588   1.236
   66SOL    HW1 1097   4.296   1.660   1.226
   66SOL    HW2 1098   4.437   1.601   1.169
   67SOL     OW 1099   0.118   2.947   2.600
   67SOL    HW1 1100   0.173   2.943   2.683
   67SOL    HW2 1101   0.135   3.033   2.553
   68SOL     OW 1102   0.237   1.095   6.167
   68SOL    HW1 1103   0.233   1.157   6.245
   68SOL    HW2 1104   0.309   1.027   6.182
   69SOL     OW 1105   1.888   1.194   5.821
   69SOL    HW1 1106   1.886   1.118   5.756
   69SOL    HW2 1107   1.819   1.261   5.796
   70SOL     OW 1108   4.995   5.158   3.019
   70SOL    HW1 1109   5.075   5.099   3.031
   70SOL    HW2 1110   4.981   5.212   3.102
   71SOL     OW 1111   5.216   1.392   5.596
   71SOL    HW1 1112   5.202   1.293   5.596
   71SOL    HW2 1113   5.303   1.413   5.552
   72SOL     OW 1114   0.011   1.828   3.003
   72SOL    HW1 1115   0.091   1.769   3.013
   72SOL    HW2 1116   0.035   1.921   3.029
   73SOL     OW 1117   2.585   1.170   0.830
   73SOL    HW1 1118   2.613   1.261   0.801
   73SOL    HW2 1119   2.635   1.101   0.778
   74SOL     OW 1120   2.413   0.815   0.442
   74SOL    HW1 1121   2.390   0.906   0.407
   74SOL    HW2 1122   2.355   0.747   0.398
   75SOL     OW 1123   2.811   3.241   1.168
   75SOL    HW1 1124   2.750   3.223   1.091
   75SOL    HW2 1125   2.829   3.339   1.174
   76SOL     OW 1126   2.683   5.276   6.138
   76SOL    HW1 1127   2.619   5.299   6.212
   76SOL    HW2 1128   2.725   5.360   6.103
   77SOL     OW 1129   0.462   4.893   5.068
   77SOL    HW1 1130   0.440   4.797   5.050
   77SOL    HW2 1131   0.525   4.926   4.997
   78SOL     OW 1132   4.871   1.629   0.807
   78SOL    HW1 1133   4.913   1.583   0.729
   78SOL    HW2 1134   4.926   1.709   0.832
   79SOL     OW 1135   2.240   4.618   4.211
   79SOL    HW1 1136   2.248   4.677   4.131
   79SOL    HW2 1137   2.207   4.528   4.183
   80SOL     OW 1138   4.029   2.073   5.166
   80SOL    HW1 1139   4.067   2.051   5.256
   80SOL    HW2 1140   4.068   2.012   5.098
   81SOL     OW 1141   2.430   4.539   2.721
   81SOL    HW1 1142   2.389   4.468   2.664
   81SOL    HW2 1143   2.386   4.539   2.811
   82SOL     OW 1144   2.666   0.459   1.371
   82SOL    HW1 1145   2.706   0.492   1.285
   82SOL    HW2 1146   2.576   0.421   1.354
   83SOL     OW 1147   6.148   2.057   3.616
   83SOL    HW1 1148   6.202   2.007   3.548
   83SOL    HW2 1149   6.104   2.135   3.572
   84SOL     OW 1150   5.145   2.143   2.358
   84SOL    HW1 1151   5.052   2.137   2.394
   84SOL    HW2 1152   5.207   2.176   2.430
   85SOL     OW 1153   2.044   5.351   2.707
   85SOL    HW1 1154   1.967   5.415   2.703
   85SOL    HW2 1155   2.116   5.390   2.765
   86SOL     OW 1156   4.324   1.277   6.087
   86SOL    HW1 1157   4.388   1.282   6.163
   86SOL    HW2 1158   4.372   1.297   6.002
   87SOL     OW 1159   3.151   2.426   6.687
   87SOL    HW1 1160   3.166   2.331   6.715
   87SOL    HW2 1161   3.183   2.487   6.760
   88SOL     OW 1162   1.346   1.963   0.447
   88SOL    HW1 1163   1.409   2.006   0.511
   88SOL    HW2 1164   1.253   1.966   0.484
   89SOL     OW 1165   3.953   3.852   5.928
   89SOL    HW1 1166   3.965   3.787   5.854
   89SOL    HW2 1167   3.883   3.919   5.903
   90SOL     OW 1168   0.137   4.144   1.731
   90SOL    HW1 1169   0.208   4.097   1.679
   90SOL    HW2 1170   0.119   4.094   1.816
   91SOL     OW 1171   5.273   5.038   0.600
   91SOL    HW1 1172   5.193   5.038   0.661
   91SOL    HW2 1173   5.350   4.993   0.646
   92SOL     OW 1174   6.562   6.550   6.742
   92SOL    HW1 1175   6.608   6.633   6.772
   92SOL    HW2 1176   6.614   6.508   6.667
   93SOL     OW 1177   2.968   3.214   2.437
   93SOL    HW1 1178   3.055   3.196   2.482
   93SOL    HW2 1179   2.964   3.165   2.350
   94SOL     OW 1180   3.654   1.205   4.203
   94SOL    HW1 1181   3.572   1.213   4.147
   94SOL    HW2 1182   3.636   1.143   4.280
   95SOL     OW 1183   1.063   6.510   4.362
   95SOL    HW1 1184   1.147   6.561   4.343
   95SOL    HW2 1185   1.004   6.512   4.281
   96SOL     OW 1186   0.401   6.708   0.324
   96SOL    HW1 1187   0.425   6.626   0.272
   96SOL    HW2 1188   0.348   6.683   0.405
   97SOL     OW 1189   3.653   5.184   4.351
   97SOL    HW1 1190   3.712   5.104   4.359
   97SOL    HW2 1191   3.677   5.251   4.422
   98SOL     OW 1192   6.580   1.966   4.838
   98SOL    HW1 1193   6.558   1.881   4.788
   98SOL    HW2 1194   6.496   2.018   4.853
   99SOL     OW 1195   4.869   4.513   5.017
   99SOL    HW1 1196   4.917   4.513   4.929
   99SOL    HW2 1197   4.930   4.479   5.089
  100SOL     OW 1198   2.156   1.927   5.293
  100SOL    HW1 1199   2.066   1.971   5.298
  100SOL    HW2 1200   2.204   1.959   5.212
  101SOL     OW 1201   5.152   2.846   2.308
  101SOL    HW1 1202   5.138   2.944   2.295
  101SOL    HW2 1203   5.065   2.798   2.294
  102SOL     OW 1204   4.984   6.445   0.902
  102SOL    HW1 1205   4.994   6.542   0.880
  102SOL    HW2 1206   4.889   6.418   0.892
  103SOL     OW 1207   2.481   2.069   0.870
  103SOL    HW1 1208   2.534   2.019   0.802
  103SOL    HW2 1209   2.487   2.167   0.851
  104SOL     OW 1210   0.994   3.681   1.737
  104SOL    HW1 1211   0.950   3.596   1.709
  104SOL    HW2 1212   1.050   3.716   1.662
  105SOL     OW 1213   0.390   1.908   4.538
  105SOL    HW1 1214   0.303   1.874   4.502
  105SOL    HW2 1215   0.377   1.941   4.631
  106SOL     OW 1216   5.647   3.733   1.311
  106SOL    HW1 1217   5.701   3.723   1.394
  106SOL    HW2 1218   5.550   3.737   1.335
  107SOL     OW 1219   4.583   0.322   2.878
  107SOL    HW1 1220   4.581   0.415   2.842
  107SOL    HW2 1221   4.676   0.286   2.876
  108SOL     OW 1222   3.843   1.128   4.874
  108SOL    HW1 1223   3.749   1.095   4.866
  108SOL    HW2 1224   3.842   1.228   4.882
  109SOL     OW 1225   2.034   1.653   4.607
  109SOL    HW1 1226   2.039   1.622   4.511
  109SOL    HW2 1227   2.001   1.577   4.664
  110SOL     OW 1228   3.981   5.188   5.229
  110SOL    HW1 1229   4.040   5.129   5.283
  110SOL    HW2 1230   3.911   5.228   5.288
  111SOL     OW 1231   0.108   3.473   0.410
  111SOL    HW1 1232   0.166   3.402   0.369
  111SOL    HW2 1233   0.081   3.445   0.502
  112SOL     OW 1234   3.262   6.393   4.851
  112SOL    HW1 1235   3.320   6.471   4.826
  112SOL    HW2 1236   3.244   6.338   4.769
  113SOL     OW 1237   1.332   4.910   2.473
  113SOL    HW1 1238   1.392   4.989   2.484
  113SOL    HW2 1239   1.334   4.880   2.377
  114SOL     OW 1240   6.639   2.291   2.187
  114SOL    HW1 1241   6.541   2.275   2.183
  114SOL    HW2 1242   6.670   2.334   2.102
  115SOL     OW 1243   4.538   0.988   3.308
  115SOL    HW1 1244   4.575   1.004   3.400
  115SOL    HW2 1245   4.476   0.909   3.311
  116SOL     OW 1246   5.952   5.648   6.521
  116SOL    HW1 1247   5.977   5.701   6.602
  116SOL    HW2 1248   6.009   5.566   6.515
  117SOL     OW 1249   2.087   1.492   0.390
  117SOL    HW1 1250   2.160   1.543   0.435
  117SOL    HW2 1251   2.050   1.423   0.454
  118SOL     OW 1252   1.205   2.791   1.445
  118SOL    HW1 1253   1.238   2.706   1.486
  118SOL    HW2 1254   1.107   2.785   1.430
  119SOL     OW 1255   5.128   5.148   4.579
  119SOL    HW1 1256   5.155   5.066   4.528
  119SOL    HW2 1257   5.209   5.202   4.602
  120SOL     OW 1258   4.711   1.612   3.933
  120SOL    HW1 1259   4.658   1.602   4.017
  120SOL    HW2 1260   4.653   1.595   3.854
  121SOL     OW 1261   6.574   4.843   5.566
  121SOL    HW1 1262   6.532   4.799   5.645
  121SOL    HW2 1263   6.648   4.903   5.597
  122SOL     OW 1264   0.139   5.387   5.452
  122SOL    HW1 1265   0.217   5.412   5.395
  122SOL    HW2 1266   0.172   5.343   5.536
  123SOL     OW 1267   0.970   2.086   0.971
  123SOL    HW1 1268   1.018   2.164   1.012
  123SOL    HW2 1269   0.919   2.038   1.042
  124SOL     OW 1270   2.014   3.605   6.572
  124SOL    HW1 1271   2.038   3.701   6.590
  124SOL    HW2 1272   1.928   3.583   6.617
  125SOL     OW 1273   3.921   3.331   1.705
  125SOL    HW1 1274   4.001   3.326   1.646
  125SOL    HW2 1275   3.849   3.272   1.669
  126SOL     OW 1276   3.720   3.336   5.281
  126SOL    HW1 1277   3.648   3.384   5.330
  126SOL    HW2 1278   3.726   3.241   5.313
  127SOL     OW 1279   0.286   4.232   5.994
  127SOL    HW1 1280   0.246   4.140   5.996
  127SOL    HW2 1281   0.372   4.229   5.943
  128SOL     OW 1282   4.650   4.319   6.004
  128SOL    HW1 1283   4.735   4.266   6.011
  128SOL    HW2 1284   4.607   4.302   5.915
  129SOL     OW 1285   0.760   5.402   2.458
  129SOL    HW1 1286   0.743   5.430   2.553
  129SOL    HW2 1287   0.808   5.476   2.410
  130SOL     OW 1288   6.516   4.341   4.691
  130SOL    HW1 1289   6.568   4.401   4.630
  130SOL    HW2 1290   6.545   4.357   4.785
  131SOL     OW 1291   0.579   3.136   1.891
  131SOL    HW1 1292   0.579   3.052   1.946
  131SOL    HW2 1293   0.601   3.113   1.796
  132SOL     OW 1294   3.831   3.965   2.177
  132SOL    HW1 1295   3.881   3.908   2.112
  132SOL    HW2 1296   3.893   4.033   2.216
  133SOL     OW 1297   4.392   4.084   5.736
  133SOL    HW1 1298   4.343   4.004   5.771
  133SOL    HW2 1299   4.327   4.152   5.704
  134SOL     OW 1300   0.300   2.166   6.924
  134SOL    HW1 1301   0.299   2.106   6.844
  134SOL    HW2 1302   0.368   2.133   6.989
  135SOL     OW 1303   4.477   5.071   3.784
  135SOL    HW1 1304   4.392   5.063   3.732
  135SOL    HW2 1305   4.496   4.984   3.831
  136SOL     OW 1306   3.718   5.913   6.472
  136SOL    HW1 1307   3.701   5.950   6.563
  136SOL    HW2 1308   3.761   5.983   6.415
  137SOL     OW 1309   1.906   4.532   6.828
  137SOL    HW1 1310   1.810   4.551   6.847
  137SOL    HW2 1311   1.950   4.497   6.911
  138SOL     OW 1312   0.315   6.524   1.702
  138SOL    HW1 1313   0.275   6.560   1.617
  138SOL    HW2 1314   0.406   6.487   1.683
  139SOL     OW 1315   1.363   0.103   1.198
  139SOL    HW1 1316   1.310   0.117   1.114
  139SOL    HW2 1317   1.430   0.031   1.183
  140SOL     OW 1318   2.936   0.085   3.140
  140SOL    HW1 1319   2.975   0.021   3.206
  140SOL    HW2 1320   3.006   0.151   3.112
  141SOL     OW 1321   2.324   1.820   0.270
  141SOL    HW1 1322   2.300   1.811   0.173
  141SOL    HW2 1323   2.294   1.910   0.303
  142SOL     OW 1324   1.672   4.453   6.212
  142SOL    HW1 1325   1.661   4.440   6.310
  142SOL    HW2 1326   1.584   4.440   6.166
  143SOL     OW 1327   4.974   6.329   2.447
  143SOL    HW1 1328   5.006   6.347   2.354
  143SOL    HW2 1329   4.875   6.345   2.451
  144SOL     OW 1330   2.530   4.947   2.997
  144SOL    HW1 1331   2.602   4.878   3.004
  144SOL    HW2 1332   2.453   4.910   2.945
  145SOL     OW 1333   6.170   6.305   2.763
  145SOL    HW1 1334   6.204   6.340   2.676
  145SOL    HW2 1335   6.136   6.381   2.818
  146SOL     OW 1336   6.567   1.509   4.283
  146SOL    HW1 1337   6.630   1.432   4.273
  146SOL    HW2 1338   6.474   1.478   4.264
  147SOL     OW 1339   6.076   6.867   5.477
  147SOL    HW1 1340   6.017   6.906   5.406
  147SOL    HW2 1341   6.026   6.865   5.563
  148SOL     OW 1342   1.747   6.926   3.553
  148SOL    HW1 1343   1.744   6.960   3.648
  148SOL    HW2 1344   1.654   6.910   3.520
  149SOL     OW 1345   1.850   2.331   4.759
  149SOL    HW1 1346   1.936   2.292   4.727
  149SOL    HW2 1347   1.797   2.364   4.681
  150SOL     OW 1348   5.155   3.066   4.681
  150SOL    HW1 1349   5.062   3.078   4.645
  150SOL    HW2 1350   5.168   2.971   4.709
  151SOL     OW 1351   6.059   2.798   1.761
  151SOL    HW1 1352   6.159   2.797   1.758
  151SOL    HW2 1353   6.022   2.788   1.669
  152SOL     OW 1354   6.200   1.710   7.004
  152SOL    HW1 1355   6.277   1.646   0.000
  152SOL    HW2 1356   6.232   1.792   6.957
  153SOL     OW 1357   1.890   2.092   3.893
  153SOL    HW1 1358   1.930   2.046   3.814
  153SOL    HW2 1359   1.837   2.171   3.863
  154SOL     OW 1360   6.923   2.268   3.516
  154SOL    HW1 1361   7.014   2.290   3.551
  154SOL    HW2 1362   6.867   2.233   3.591
  155SOL     OW 1363   6.093   5.098   3.726
  155SOL    HW1 1364   6.083   5.071   3.822
  155SOL    HW2 1365   6.078   5.196   3.717
  156SOL     OW 1366   4.728   6.876   1.030
  156SOL    HW1 1367   4.681   6.953   0.990
  156SOL    HW2 1368   4.664   6.822   1.085
  157SOL     OW 1369   5.628   0.852   0.541
  157SOL    HW1 1370   5.618   0.946   0.509
  157SOL    HW2 1371   5.721   0.839   0.577
  158SOL     OW 1372   1.278   2.505   5.574
  158SOL    HW1 1373   1.316   2.578   5.630
  158SOL    HW2 1374   1.178   2.503   5.585
  159SOL     OW 1375   0.126   5.012   6.564
  159SOL    HW1 1376   0.149   5.108   6.580
  159SOL    HW2 1377   0.131   4.993   6.466
  160SOL     OW 1378   4.145   6.847   1.851
  160SOL    HW1 1379   4.219   6.781   1.866
  160SOL    HW2 1380   4.182   6.940   1.857
  161SOL     OW 1381   5.749   6.233   1.006
  161SOL    HW1 1382   5.744   6.143   0.963
  161SOL    HW2 1383   5.695   6.233   1.090
  162SOL     OW 1384   4.107   0.111   5.285
  162SOL    HW1 1385   4.091   0.015   5.264
  162SOL    HW2 1386   4.064   0.168   5.215
  163SOL     OW 1387   1.299   3.486   2.895
  163SOL    HW1 1388   1.269   3.409   2.839
  163SOL    HW2 1389   1.221   3.524   2.945
  164SOL     OW 1390   1.654   2.606   1.922
  164SOL    HW1 1391   1.648   2.518   1.968
  164SOL    HW2 1392   1.725   2.603   1.851
  165SOL     OW 1393   0.434   5.861   4.996
  165SOL    HW1 1394   0.393   5.951   4.982
  165SOL    HW2 1395   0.515   5.852   4.939
  166SOL     OW 1396   0.724   5.336   3.813
  166SOL    HW1 1397   0.806   5.342   3.756
  166SOL    HW2 1398   0.646   5.308   3.758
  167SOL     OW 1399   0.469   1.613   3.385
  167SOL    HW1 1400   0.454   1.577   3.477
  167SOL    HW2 1401   0.430   1.550   3.318
  168SOL     OW 1402   3.482   4.112   4.758
  168SOL    HW1 1403   3.445   4.024   4.728
  168SOL    HW2 1404   3.407   4.173   4.784
  169SOL     OW 1405   4.881   2.855   5.733
  169SOL    HW1 1406   4.958   2.912   5.763
  169SOL    HW2 1407   4.797   2.886   5.779
  170SOL     OW 1408   5.972   5.172   2.818
  170SOL    HW1 1409   5.963   5.075   2.797
  170SOL    HW2 1410   5.912   5.225   2.758
  171SOL     OW 1411   3.626   3.088   0.972
  171SOL    HW1 1412   3.642   3.048   1.062
  171SOL    HW2 1413   3.619   3.015   0.904
  172SOL     OW 1414   1.957   0.851   0.240
  172SOL    HW1 1415   1.885   0.905   0.196
  172SOL    HW2 1416   1.916   0.772   0.285
  173SOL     OW 1417   5.382   0.675   4.961
  173SOL    HW1 1418   5.306   0.731   4.992
  173SOL    HW2 1419   5.466   0.705   5.006
  174SOL     OW 1420   6.103   4.979   4.006
  174SOL    HW1 1421   6.069   5.052   4.066
  174SOL    HW2 1422   6.127   4.899   4.060
  175SOL     OW 1423   0.519   5.190   2.102
  175SOL    HW1 1424   0.422   5.202   2.078
  175SOL    HW2 1425   0.541   5.246   2.181
  176SOL     OW 1426   6.034   3.710   0.503
  176SOL    HW1 1427   6.051   3.775   0.429
  176SOL    HW2 1428   5.954   3.738   0.555
  177SOL     OW 1429   5.610   2.282   3.508
  177SOL    HW1 1430   5.513   2.263   3.490
  177SOL    HW2 1431   5.648   2.208   3.563
  178SOL     OW 1432   1.633   5.338   4.456
  178SOL    HW1 1433   1.560   5.400   4.429
  178SOL    HW2 1434   1.637   5.261   4.392
  179SOL     OW 1435   3.067   3.984   2.014
  179SOL    HW1 1436   3.050   3.888   1.993
  179SOL    HW2 1437   3.070   3.997   2.113
  180SOL     OW 1438   4.925   0.353   5.749
  180SOL    HW1 1439   4.885   0.410   5.821
  180SOL    HW2 1440   5.021   0.379   5.735
  181SOL     OW 1441   3.478   6.209   5.421
  181SOL    HW1 1442   3.417   6.185   5.346
  181SOL    HW2 1443   3.432   6.273   5.483
  182SOL     OW 1444   3.261   2.547   5.328
  182SOL    HW1 1445   3.243   2.625   5.268
  182SOL    HW2 1446   3.228   2.463   5.285
  183SOL     OW 1447   1.925   0.802   2.607
  183SOL    HW1 1448   1.837   0.757   2.588
  183SOL    HW2 1449   1.982   0.798   2.525
  184SOL     OW 1450   5.691   6.558   3.964
  184SOL    HW1 1451   5.627   6.593   3.896
  184SOL    HW2 1452   5.725   6.468   3.936
  185SOL     OW 1453   0.708   5.951   5.466
  185SOL    HW1 1454   0.651   6.013   5.521
  185SOL    HW2 1455   0.649   5.899   5.404
  186SOL     OW 1456   3.332   5.166   0.938
  186SOL    HW1 1457   3.401   5.118   0.992
  186SOL    HW2 1458   3.339   5.138   0.842
  187SOL     OW 1459   4.045   5.427   0.322
  187SOL    HW1 1460   4.120   5.408   0.258
  187SOL    HW2 1461   3.991   5.504   0.289
  188SOL     OW 1462   1.415   4.435   3.615
  188SOL    HW1 1463   1.330   4.484   3.594
  188SOL    HW2 1464   1.474   4.494   3.671
  189SOL     OW 1465   6.232   3.778   5.846
  189SOL    HW1 1466   6.328   3.789   5.873
  189SOL    HW2 1467   6.190   3.868   5.835
  190SOL     OW 1468   6.206   6.383   6.908
  190SOL    HW1 1469   6.124   6.427   6.945
  190SOL    HW2 1470   6.273   6.369   6.981
  191SOL     OW 1471   2.014   3.766   6.250
  191SOL    HW1 1472   2.037   3.840   6.313
  191SOL    HW2 1473   1.947   3.705   6.293
  192SOL     OW 1474   0.910   6.706   0.724
  192SOL    HW1 1475   0.895   6.798   0.689
  192SOL    HW2 1476   0.836   6.646   0.693
  193SOL     OW 1477   2.771   6.822   1.934
  193SOL    HW1 1478   2.832   6.899   1.916
  193SOL    HW2 1479   2.676   6.852   1.925
  194SOL     OW 1480   4.296   6.454   3.608
  194SOL    HW1 1481   4.339   6.388   3.546
  194SOL    HW2 1482   4.231   6.510   3.556
  195SOL     OW 1483   3.114   1.345   1.287
  195SOL    HW1 1484   3.040   1.411   1.295
  195SOL    HW2 1485   3.197   1.384   1.327
  196SOL     OW 1486   3.871   3.052   1.646
  196SOL    HW1 1487   3.832   2.966   1.677
  196SOL    HW2 1488   3.863   3.058   1.547
  197SOL     OW 1489   0.836   0.050   1.299
  197SOL    HW1 1490   0.837   6.969   1.283
  197SOL    HW2 1491   0.864   0.068   1.394
  198SOL     OW 1492   5.926   0.276   5.241
  198SOL    HW1 1493   6.020   0.246   5.227
  198SOL    HW2 1494   5.893   0.245   5.330
  199SOL     OW 1495   1.640   0.741   2.896
  199SOL    HW1 1496   1.706   0.687   2.844
  199SOL    HW2 1497   1.599   0.810   2.836
  200SOL     OW 1498   1.568   3.319   3.586
  200SOL    HW1 1499   1.543   3.376   3.508
  200SOL    HW2 1500   1.664   3.292   3.578
  201SOL     OW 1501   5.385   1.160   6.861
  201SOL    HW1 1502   5.477   1.189   6.889
  201SOL    HW2 1503   5.391   1.108   6.775
  202SOL     OW 1504   4.103   0.620   2.684
  202SOL    HW1 1505   4.027   0.685   2.682
  202SOL    HW2 1506   4.188   0.669   2.663
  203SOL     OW 1507   5.805   2.995   0.863
  203SOL    HW1 1508   5.864   3.031   0.791
  203SOL    HW2 1509   5.833   2.902   0.887
  204SOL     OW 1510   2.264   5.935   0.605
  204SOL    HW1 1511   2.343   5.876   0.625
  204SOL    HW2 1512   2.181   5.894   0.643
  205SOL     OW 1513   5.308   0.687   0.831
  205SOL    HW1 1514   5.245   0.759   0.802
  205SOL    HW2 1515   5.256   0.608   0.864
  206SOL     OW 1516   0.257   6.122   1.575
  206SOL    HW1 1517   0.333   6.060   1.555
  206SOL    HW2 1518   0.177   6.069   1.604
  207SOL     OW 1519   6.487   2.700   6.097
  207SOL    HW1 1520   6.483   2.784   6.043
  207SOL    HW2 1521   6.410   2.641   6.072
  208SOL     OW 1522   4.942   3.464   1.522
  208SOL    HW1 1523   4.998   3.420   1.452
  208SOL    HW2 1524   4.845   3.453   1.501
  209SOL     OW 1525   6.480   0.722   4.050
  209SOL    HW1 1526   6.570   0.710   4.007
  209SOL    HW2 1527   6.492   0.734   4.148
  210SOL     OW 1528   5.185   2.511   6.691
  210SOL    HW1 1529   5.270   2.558   6.711
  210SOL    HW2 1530   5.182   2.485   6.595
  211SOL     OW 1531   0.164   4.907   1.896
  211SOL    HW1 1532   0.148   4.834   1.829
  211SOL    HW2 1533   0.203   4.987   1.850
  212SOL     OW 1534   0.997   5.490   5.118
  212SOL    HW1 1535   1.029   5.584   5.125
  212SOL    HW2 1536   1.024   5.440   5.201
  213SOL     OW 1537   4.417   2.143   1.127
  213SOL    HW1 1538   4.433   2.231   1.172
  213SOL    HW2 1539   4.377   2.080   1.193
  214SOL     OW 1540   0.168   5.497   3.813
  214SOL    HW1 1541   0.116   5.448   3.883
  214SOL    HW2 1542   0.221   5.431   3.759
  215SOL     OW 1543   3.925   3.497   3.429
  215SOL    HW1 1544   3.848   3.501   3.492
  215SOL    HW2 1545   3.980   3.415   3.448
  216SOL     OW 1546   3.817   6.583   4.665
  216SOL    HW1 1547   3.753   6.656   4.641
  216SOL    HW2 1548   3.854   6.600   4.757
  217SOL     OW 1549   6.308   2.076   4.887
  217SOL    HW1 1550   6.332   1.993   4.938
  217SOL    HW2 1551   6.210   2.077   4.868
  218SOL     OW 1552   2.280   4.695   5.575
  218SOL    HW1 1553   2.328   4.607   5.580
  218SOL    HW2 1554   2.292   4.745   5.661
  219SOL     OW 1555   3.636   6.611   6.450
  219SOL    HW1 1556   3.570   6.686   6.441
  219SOL    HW2 1557   3.701   6.632   6.524
  220SOL     OW 1558   0.991   5.286   0.117
  220SOL    HW1 1559   1.052   5.234   0.057
  220SOL    HW2 1560   1.040   5.363   0.157
  221SOL     OW 1561   6.165   4.492   4.375
  221SOL    HW1 1562   6.216   4.493   4.461
  221SOL    HW2 1563   6.071   4.521   4.391
  222SOL     OW 1564   1.299   0.214   4.666
  222SOL    HW1 1565   1.282   0.119   4.692
  222SOL    HW2 1566   1.302   0.270   4.749
  223SOL     OW 1567   5.668   5.465   1.904
  223SOL    HW1 1568   5.580   5.421   1.920
  223SOL    HW2 1569   5.705   5.435   1.817
  224SOL     OW 1570   5.309   4.242   2.452
  224SOL    HW1 1571   5.284   4.163   2.509
  224SOL    HW2 1572   5.240   4.313   2.461
  225SOL     OW 1573   4.370   6.279   1.434
  225SOL    HW1 1574   4.307   6.329   1.494
  225SOL    HW2 1575   4.340   6.184   1.425
  226SOL     OW 1576   1.564   5.364   2.659
  226SOL    HW1 1577   1.620   5.334   2.582
  226SOL    HW2 1578   1.509   5.443   2.631
  227SOL     OW 1579   0.783   3.722   3.018
  227SOL    HW1 1580   0.684   3.719   3.027
  227SOL    HW2 1581   0.807   3.732   2.921
  228SOL     OW 1582   3.880   5.436   3.173
  228SOL    HW1 1583   3.823   5.506   3.217
  228SOL    HW2 1584   3.914   5.471   3.086
  229SOL     OW 1585   5.661   5.993   2.277
  229SOL    HW1 1586   5.660   5.983   2.376
  229SOL    HW2 1587   5.755   5.987   2.243
  230SOL     OW 1588   0.964   4.636   4.895
  230SOL    HW1 1589   0.938   4.578   4.818
  230SOL    HW2 1590   1.045   4.688   4.871
  231SOL     OW 1591   0.197   1.897   6.731
  231SOL    HW1 1592   0.221   1.817   6.677
  231SOL    HW2 1593   0.136   1.870   6.806
  232SOL     OW 1594   1.700   3.223   0.399
  232SOL    HW1 1595   1.664   3.206   0.490
  232SOL    HW2 1596   1.761   3.303   0.401
  233SOL     OW 1597   3.578   0.144   0.777
  233SOL    HW1 1598   3.504   0.079   0.762
  233SOL    HW2 1599   3.607   0.183   0.689
  234SOL     OW 1600   1.461   5.285   0.539
  234SOL    HW1 1601   1.461   5.247   0.447
  234SOL    HW2 1602   1.387   5.245   0.593
  235SOL     OW 1603   4.418   2.958   5.743
  235SOL    HW1 1604   4.419   3.048   5.701
  235SOL    HW2 1605   4.338   2.949   5.802
  236SOL     OW 1606   6.932   0.331   6.566
  236SOL    HW1 1607   6.890   0.346   6.477
  236SOL    HW2 1608   6.864   0.295   6.630
  237SOL     OW 1609   5.994   0.602   2.550
  237SOL    HW1 1610   6.058   0.526   2.557
  237SOL    HW2 1611   5.988   0.649   2.638
  238SOL     OW 1612   0.298   2.038   3.109
  238SOL    HW1 1613   0.347   1.961   3.148
  238SOL    HW2 1614   0.213   2.053   3.160
  239SOL     OW 1615   6.404   4.803   6.222
  239SOL    HW1 1616   6.371   4.806   6.316
  239SOL    HW2 1617   6.399   4.895   6.182
  240SOL     OW 1618   0.300   2.864   4.323
  240SOL    HW1 1619   0.320   2.776   4.366
  240SOL    HW2 1620   0.373   2.929   4.344
  241SOL     OW 1621   6.072   2.655   4.302
  241SOL    HW1 1622   6.093   2.742   4.348
  241SOL    HW2 1623   5.995   2.611   4.347
  242SOL     OW 1624   2.567   2.534   3.331
  242SOL    HW1 1625   2.657   2.497   3.306
  242SOL    HW2 1626   2.548   2.513   3.427
  243SOL     OW 1627   5.145   1.371   6.536
  243SOL    HW1 1628   5.207   1.398   6.462
  243SOL    HW2 1629   5.123   1.274   6.528
  244SOL     OW 1630   1.717   0.596   5.734
  244SOL    HW1 1631   1.679   0.625   5.646
  244SOL    HW2 1632   1.791   0.657   5.760
  245SOL     OW 1633   5.263   1.935   4.654
  245SOL    HW1 1634   5.340   1.949   4.715
  245SOL    HW2 1635   5.296   1.926   4.560
  246SOL     OW 1636   5.485   3.911   4.537
  246SOL    HW1 1637   5.439   4.000   4.540
  246SOL    HW2 1638   5.516   3.893   4.443
  247SOL     OW 1639   1.781   0.188   2.815
  247SOL    HW1 1640   1.794   0.091   2.833
  247SOL    HW2 1641   1.840   0.216   2.739
  248SOL     OW 1642   6.535   2.360   3.166
  248SOL    HW1 1643   6.447   2.314   3.154
  248SOL    HW2 1644   6.607   2.292   3.177
  249SOL     OW 1645   1.915   6.382   4.614
  249SOL    HW1 1646   1.857   6.301   4.603
  249SOL    HW2 1647   1.865   6.463   4.585
  250SOL     OW 1648   5.882   2.731   0.132
  250SOL    HW1 1649   5.845   2.651   0.180
  250SOL    HW2 1650   5.807   2.782   0.090
  251SOL     OW 1651   2.313   0.133   2.650
  251SOL    HW1 1652   2.395   0.078   2.664
  251SOL    HW2 1653   2.336   0.211   2.591
  252SOL     OW 1654   6.813   3.164   6.720
  252SOL    HW1 1655   6.861   3.234   6.773
  252SOL    HW2 1656   6.728   3.201   6.684
  253SOL     OW 1657   1.858   4.597   5.384
  253SOL    HW1 1658   1.772   4.647   5.395
  253SOL    HW2 1659   1.923   4.628   5.453
  254SOL     OW 1660   5.028   3.509   0.031
  254SOL    HW1 1661   4.929   3.501   0.045
  254SOL    HW2 1662   5.076   3.470   0.109
  255SOL     OW 1663   4.263   2.266   1.874
  255SOL    HW1 1664   4.190   2.316   1.921
  255SOL    HW2 1665   4.257   2.282   1.776
  256SOL     OW 1666   0.449   6.100   1.084
  256SOL    HW1 1667   0.527   6.142   1.038
  256SOL    HW2 1668   0.368   6.158   1.071
  257SOL     OW 1669   3.163   6.003   6.346
  257SOL    HW1 1670   3.263   5.997   6.350
  257SOL    HW2 1671   3.129   6.048   6.429
  258SOL     OW 1672   4.983   5.397   4.327
  258SOL    HW1 1673   5.054   5.465   4.344
  258SOL    HW2 1674   4.900   5.442   4.295
  259SOL     OW 1675   6.892   1.051   1.712
  259SOL    HW1 1676   6.847   1.032   1.799
  259SOL    HW2 1677   6.924   0.965   1.671
  260SOL     OW 1678   6.140   6.983   5.880
  260SOL    HW1 1679   6.062   6.934   5.844
  260SOL    HW2 1680   6.187   6.927   5.948
  261SOL     OW 1681   0.229   1.206   3.160
  261SOL    HW1 1682   0.198   1.121   3.204
  261SOL    HW2 1683   0.218   1.198   3.061
  262SOL     OW 1684   1.922   5.706   0.969
  262SOL    HW1 1685   1.913   5.623   0.915
  262SOL    HW2 1686   1.888   5.689   1.062
  263SOL     OW 1687   1.053   5.034   5.089
  263SOL    HW1 1688   1.048   4.954   5.149
  263SOL    HW2 1689   1.147   5.068   5.086
  264SOL     OW 1690   3.983   3.770   0.916
  264SOL    HW1 1691   4.020   3.697   0.973
  264SOL    HW2 1692   3.990   3.744   0.819
  265SOL     OW 1693   4.181   5.813   4.057
  265SOL    HW1 1694   4.117   5.742   4.029
  265SOL    HW2 1695   4.189   5.813   4.157
  266SOL     OW 1696   4.328   3.945   0.034
  266SOL    HW1 1697   4.418   3.923   7.016
  266SOL    HW2 1698   4.337   4.011   0.109
  267SOL     OW 1699   2.483   2.278   6.214
  267SOL    HW1 1700   2.526   2.199   6.258
  267SOL    HW2 1701   2.548   2.353   6.207
  268SOL     OW 1702   1.541   4.057   2.426
  268SOL    HW1 1703   1.548   4.150   2.464
  268SOL    HW2 1704   1.479   4.058   2.347
  269SOL     OW 1705   2.733   1.677   5.524
  269SOL    HW1 1706   2.742   1.683   5.624
  269SOL    HW2 1707   2.770   1.589   5.493
  270SOL     OW 1708   5.364   5.301   4.597
  270SOL    HW1 1709   5.335   5.393   4.623
  270SOL    HW2 1710   5.439   5.271   4.657
  271SOL     OW 1711   2.565   0.494   0.214
  271SOL    HW1 1712   2.611   0.516   0.300
  271SOL    HW2 1713   2.509   0.571   0.185
  272SOL     OW 1714   5.693   4.355   7.005
  272SOL    HW1 1715   5.603   4.369   6.964
  272SOL    HW2 1716   5.703   4.416   0.067
  273SOL     OW 1717   0.501   5.750   4.054
  273SOL    HW1 1718   0.474   5.741   3.958
  273SOL    HW2 1719   0.601   5.746   4.061
  274SOL     OW 1720   5.091   3.109   2.266
  274SOL    HW1 1721   5.000   3.129   2.228
  274SOL    HW2 1722   5.161   3.144   2.204
  275SOL     OW 1723   5.823   4.999   5.760
  275SOL    HW1 1724   5.823   5.097   5.739
  275SOL    HW2 1725   5.730   4.964   5.759
  276SOL     OW 1726   0.796   0.462   4.542
  276SOL    HW1 1727   0.736   0.459   4.462
  276SOL    HW2 1728   0.850   0.546   4.540
  277SOL     OW 1729   3.892   3.197   5.667
  277SOL    HW1 1730   3.896   3.111   5.617
  277SOL    HW2 1731   3.906   3.273   5.604
  278SOL     OW 1732   6.090   4.925   1.857
  278SOL    HW1 1733   6.031   4.999   1.826
  278SOL    HW2 1734   6.095   4.925   1.956
  279SOL     OW 1735   6.430   3.330   4.133
  279SOL    HW1 1736   6.518   3.358   4.171
  279SOL    HW2 1737   6.443   3.266   4.058
  280SOL     OW 1738   4.395   1.304   2.645
  280SOL    HW1 1739   4.399   1.354   2.558
  280SOL    HW2 1740   4.341   1.220   2.633
  281SOL     OW 1741   5.076   5.575   5.795
  281SOL    HW1 1742   5.067   5.615   5.886
  281SOL    HW2 1743   5.003   5.609   5.736
  282SOL     OW 1744   0.652   1.507   0.168
  282SOL    HW1 1745   0.705   1.588   0.145
  282SOL    HW2 1746   0.697   1.459   0.244
  283SOL     OW 1747   6.386   3.951   1.952
  283SOL    HW1 1748   6.333   3.876   1.915
  283SOL    HW2 1749   6.336   3.993   2.028
  284SOL     OW 1750   5.682   6.999   2.564
  284SOL    HW1 1751   5.696   6.929   2.493
  284SOL    HW2 1752   5.674   0.071   2.520
  285SOL     OW 1753   5.069   5.999   6.028
  285SOL    HW1 1754   5.017   5.922   6.065
  285SOL    HW2 1755   5.103   5.976   5.937
  286SOL     OW 1756   3.659   5.700   5.211
  286SOL    HW1 1757   3.572   5.652   5.213
  286SOL    HW2 1758   3.734   5.634   5.204
  287SOL     OW 1759   4.255   6.765   1.154
  287SOL    HW1 1760   4.214   6.747   1.065
  287SOL    HW2 1761   4.189   6.745   1.226
  288SOL     OW 1762   3.520   0.739   0.363
  288SOL    HW1 1763   3.449   0.804   0.336
  288SOL    HW2 1764   3.605   0.761   0.315
  289SOL     OW 1765   5.324   5.354   4.918
  289SOL    HW1 1766   5.240   5.308   4.888
  289SOL    HW2 1767   5.301   5.444   4.955
  290SOL     OW 1768   2.803   1.184   4.634
  290SOL    HW1 1769   2.705   1.177   4.656
  290SOL    HW2 1770   2.857   1.137   4.703
  291SOL     OW 1771   5.941   1.223   4.890
  291SOL    HW1 1772   5.906   1.132   4.915
  291SOL    HW2 1773   6.034   1.213   4.854
  292SOL     OW 1774   2.171   0.475   3.931
  292SOL    HW1 1775   2.129   0.472   3.840
  292SOL    HW2 1776   2.219   0.562   3.943
  293SOL     OW 1777   5.775   0.780   3.330
  293SOL    HW1 1778   5.760   0.711   3.259
  293SOL    HW2 1779   5.780   0.735   3.419
  294SOL     OW 1780   6.794   0.869   6.431
  294SOL    HW1 1781   6.728   0.795   6.424
  294SOL    HW2 1782   6.761   0.949   6.381
  295SOL     OW 1783   0.678   1.015   5.023
  295SOL    HW1 1784   0.594   1.020   5.077
  295SOL    HW2 1785   0.756   1.042   5.081
  296SOL     OW 1786   6.898   1.384   6.920
  296SOL    HW1 1787   6.895   1.393   0.002
  296SOL    HW2 1788   6.986   1.416   6.886
  297SOL     OW 1789   5.251   4.479   3.079
  297SOL    HW1 1790   5.299   4.556   3.121
  297SOL    HW2 1791   5.154   4.485   3.100
  298SOL     OW 1792   4.206   6.439   5.440
  298SOL    HW1 1793   4.204   6.407   5.345
  298SOL    HW2 1794   4.112   6.441   5.475
  299SOL     OW 1795   6.977   1.146   6.067
  299SOL    HW1 1796   7.014   1.092   5.991
  299SOL    HW2 1797   0.024   1.144   6.143
  300SOL     OW 1798   3.978   6.321   4.292
  300SOL    HW1 1799   3.882   6.344   4.280
  300SOL    HW2 1800   4.030   6.349   4.211
  301SOL     OW 1801   6.590   6.968   5.252
  301SOL    HW1 1802   6.519   0.021   5.258
  301SOL    HW2 1803   6.563   6.888   5.306
  302SOL     OW 1804   0.826   6.686   2.024
  302SOL    HW1 1805   0.867   6.766   1.980
  302SOL    HW2 1806   0.868   6.671   2.113
  303SOL     OW 1807   4.739   5.405   2.775
  303SOL    HW1 1808   4.660   5.385   2.716
  303SOL    HW2 1809   4.707   5.424   2.867
  304SOL     OW 1810   1.376   1.561   4.994
  304SOL    HW1 1811   1.404   1.567   4.898
  304SOL    HW2 1812   1.409   1.475   5.032
  305SOL     OW 1813   2.901   1.578   0.914
  305SOL    HW1 1814   2.858   1.580   1.004
  305SOL    HW2 1815   2.906   1.484   0.880
  306SOL     OW 1816   0.589   6.647   2.756
  306SOL    HW1 1817   0.626   6.703   2.830
  306SOL    HW2 1818   0.661   6.585   2.722
  307SOL     OW 1819   4.201   3.418   4.910
  307SOL    HW1 1820   4.260   3.492   4.875
  307SOL    HW2 1821   4.127   3.401   4.845
  308SOL     OW 1822   6.328   3.072   0.625
  308SOL    HW1 1823   6.407   3.119   0.586
  308SOL    HW2 1824   6.352   3.038   0.716
  309SOL     OW 1825   1.917   5.268   0.148
  309SOL    HW1 1826   1.942   5.347   0.204
  309SOL    HW2 1827   1.999   5.219   0.120
  310SOL     OW 1828   4.761   6.039   5.544
  310SOL    HW1 1829   4.797   6.133   5.547
  310SOL    HW2 1830   4.761   6.006   5.450
  311SOL     OW 1831   1.811   6.147   2.041
  311SOL    HW1 1832   1.763   6.076   2.093
  311SOL    HW2 1833   1.755   6.230   2.039
  312SOL     OW 1834   3.442   0.364   4.577
  312SOL    HW1 1835   3.430   0.462   4.593
  312SOL    HW2 1836   3.514   0.329   4.637
  313SOL     OW 1837   3.334   2.917   3.710
  313SOL    HW1 1838   3.322   2.830   3.663
  313SOL    HW2 1839   3.247   2.945   3.751
  314SOL     OW 1840   2.139   4.217   6.315
  314SOL    HW1 1841   2.185   4.289   6.366
  314SOL    HW2 1842   2.050   4.251   6.282
  315SOL     OW 1843   5.987   7.012   4.541
  315SOL    HW1 1844   5.918   6.987   4.473
  315SOL    HW2 1845   6.074   0.014   4.494
  316SOL     OW 1846   4.061   1.063   4.732
  316SOL    HW1 1847   4.060   0.983   4.673
  316SOL    HW2 1848   3.972   1.074   4.776
  317SOL     OW 1849   0.481   0.932   2.100
  317SOL    HW1 1850   0.459   0.997   2.027
  317SOL    HW2 1851   0.405   0.926   2.164
  318SOL     OW 1852   1.084   1.720   3.804
  318SOL    HW1 1853   1.141   1.802   3.810
  318SOL    HW2 1854   0.989   1.746   3.788
  319SOL     OW 1855   0.340   2.168   2.027
  319SOL    HW1 1856   0.243   2.147   2.036
  319SOL    HW2 1857   0.393   2.084   2.021
  320SOL     OW 1858   5.146   1.082   6.577
  320SOL    HW1 1859   5.077   1.009   6.571
  320SOL    HW2 1860   5.185   1.084   6.669
  321SOL     OW 1861   4.470   3.367   1.128
  321SOL    HW1 1862   4.376   3.334   1.127
  321SOL    HW2 1863   4.532   3.294   1.099
  322SOL     OW 1864   3.263   2.183   0.460
  322SOL    HW1 1865   3.200   2.110   0.434
  322SOL    HW2 1866   3.355   2.147   0.468
  323SOL     OW 1867   0.435   4.299   1.568
  323SOL    HW1 1868   0.503   4.373   1.570
  323SOL    HW2 1869   0.373   4.309   1.645
  324SOL     OW 1870   6.622   0.531   3.665
  324SOL    HW1 1871   6.607   0.614   3.612
  324SOL    HW2 1872   6.706   0.486   3.635
  325SOL     OW 1873   6.552   2.706   0.549
  325SOL    HW1 1874   6.516   2.658   0.629
  325SOL    HW2 1875   6.633   2.658   0.515
  326SOL     OW 1876   5.966   5.840   6.072
  326SOL    HW1 1877   5.891   5.907   6.070
  326SOL    HW2 1878   5.929   5.748   6.085
  327SOL     OW 1879   4.109   5.974   6.458
  327SOL    HW1 1880   4.048   5.906   6.416
  327SOL    HW2 1881   4.076   5.996   6.550
  328SOL     OW 1882   2.291   4.246   3.426
  328SOL    HW1 1883   2.358   4.233   3.353
  328SOL    HW2 1884   2.217   4.305   3.393
  329SOL     OW 1885   3.216   2.927   2.911
  329SOL    HW1 1886   3.218   2.827   2.920
  329SOL    HW2 1887   3.187   2.952   2.818
  330SOL     OW 1888   1.767   3.824   6.605
  330SOL    HW1 1889   1.745   3.912   6.564
  330SOL    HW2 1890   1.748   3.751   6.539
  331SOL     OW 1891   4.999   5.723   4.189
  331SOL    HW1 1892   5.074   5.683   4.242
  331SOL    HW2 1893   4.924   5.656   4.183
  332SOL     OW 1894   6.002   2.072   2.810
  332SOL    HW1 1895   5.996   2.083   2.909
  332SOL    HW2 1896   5.979   2.158   2.765
  333SOL     OW 1897   3.187   6.002   3.845
  333SOL    HW1 1898   3.107   5.970   3.794
  333SOL    HW2 1899   3.181   5.971   3.940
  334SOL     OW 1900   3.799   3.227   4.016
  334SOL    HW1 1901   3.747   3.142   4.017
  334SOL    HW2 1902   3.844   3.238   3.927
  335SOL     OW 1903   4.365   1.532   6.936
  335SOL    HW1 1904   4.394   1.590   7.013
  335SOL    HW2 1905   4.272   1.556   6.910
  336SOL     OW 1906   3.705   1.786   4.787
  336SOL    HW1 1907   3.711   1.882   4.759
  336SOL    HW2 1908   3.619   1.747   4.754
  337SOL     OW 1909   1.186   1.751   5.182
  337SOL    HW1 1910   1.220   1.693   5.108
  337SOL    HW2 1911   1.102   1.797   5.152
  338SOL     OW 1912   5.346   1.426   1.491
  338SOL    HW1 1913   5.367   1.417   1.588
  338SOL    HW2 1914   5.288   1.506   1.476
  339SOL     OW 1915   3.284   4.989   5.519
  339SOL    HW1 1916   3.369   5.027   5.483
  339SOL    HW2 1917   3.289   4.984   5.619
  340SOL     OW 1918   5.512   4.335   4.880
  340SOL    HW1 1919   5.585   4.307   4.816
  340SOL    HW2 1920   5.546   4.410   4.937
  341SOL     OW 1921   6.193   0.253   1.808
  341SOL    HW1 1922   6.256   0.289   1.878
  341SOL    HW2 1923   6.109   0.308   1.808
  342SOL     OW 1924   4.834   0.596   1.195
  342SOL    HW1 1925   4.780   0.564   1.272
  342SOL    HW2 1926   4.773   0.616   1.118
  343SOL     OW 1927   5.466   0.474   2.041
  343SOL    HW1 1928   5.411   0.557   2.028
  343SOL    HW2 1929   5.415   0.410   2.099
  344SOL     OW 1930   6.348   3.083   1.646
  344SOL    HW1 1931   6.334   2.984   1.650
  344SOL    HW2 1932   6.317   3.118   1.558
  345SOL     OW 1933   0.201   3.264   3.685
  345SOL    HW1 1934   0.172   3.177   3.646
  345SOL    HW2 1935   0.143   3.338   3.648
  346SOL     OW 1936   0.421   0.358   3.591
  346SOL    HW1 1937   0.340   0.350   3.533
  346SOL    HW2 1938   0.439   0.269   3.634
  347SOL     OW 1939   1.901   4.150   1.406
  347SOL    HW1 1940   1.879   4.202   1.489
  347SOL    HW2 1941   1.836   4.075   1.396
  348SOL     OW 1942   6.067   4.792   0.901
  348SOL    HW1 1943   5.974   4.780   0.866
  348SOL    HW2 1944   6.095   4.711   0.951
  349SOL     OW 1945   6.142   5.169   6.664
  349SOL    HW1 1946   6.242   5.157   6.662
  349SOL    HW2 1947   6.098   5.080   6.660
  350SOL     OW 1948   2.775   0.331   0.963
  350SOL    HW1 1949   2.692   0.376   0.929
  350SOL    HW2 1950   2.835   0.311   0.885
  351SOL     OW 1951   3.563   4.149   1.213
  351SOL    HW1 1952   3.636   4.216   1.227
  351SOL    HW2 1953   3.568   4.079   1.285
  352SOL     OW 1954   3.979   0.741   2.246
  352SOL    HW1 1955   4.017   0.719   2.157
  352SOL    HW2 1956   3.930   0.661   2.283
  353SOL     OW 1957   2.589   6.158   0.489
  353SOL    HW1 1958   2.573   6.231   0.423
  353SOL    HW2 1959   2.522   6.165   0.564
  354SOL     OW 1960   2.337   2.216   0.630
  354SOL    HW1 1961   2.411   2.257   0.684
  354SOL    HW2 1962   2.267   2.285   0.612
  355SOL     OW 1963   0.099   2.658   2.482
  355SOL    HW1 1964   0.080   2.651   2.384
  355SOL    HW2 1965   0.031   2.716   2.525
  356SOL     OW 1966   2.712   0.071   6.002
  356SOL    HW1 1967   2.619   0.044   5.977
  356SOL    HW2 1968   2.742   0.017   6.081
  357SOL     OW 1969   6.258   6.175   4.597
  357SOL    HW1 1970   6.347   6.179   4.642
  357SOL    HW2 1971   6.197   6.115   4.649
  358SOL     OW 1972   3.479   6.229   0.032
  358SOL    HW1 1973   3.481   6.164   0.108
  358SOL    HW2 1974   3.541   6.305   0.052
  359SOL     OW 1975   2.025   2.249   0.698
  359SOL    HW1 1976   2.007   2.229   0.602
  359SOL    HW2 1977   1.994   2.341   0.719
  360SOL     OW 1978   1.622   4.271   2.704
  360SOL    HW1 1979   1.710   4.319   2.705
  360SOL    HW2 1980   1.572   4.293   2.621
  361SOL     OW 1981   6.165   3.174   2.434
  361SOL    HW1 1982   6.149   3.087   2.388
  361SOL    HW2 1983   6.235   3.226   2.384
  362SOL     OW 1984   4.104   3.597   2.717
  362SOL    HW1 1985   4.155   3.626   2.637
  362SOL    HW2 1986   4.068   3.504   2.702
  363SOL     OW 1987   4.489   5.645   1.402
  363SOL    HW1 1988   4.459   5.563   1.353
  363SOL    HW2 1989   4.587   5.660   1.384
  364SOL     OW 1990   1.195   0.560   0.006
  364SOL    HW1 1991   1.255   0.614   6.964
  364SOL    HW2 1992   1.219   0.577   0.102
  365SOL     OW 1993   5.178   0.509   3.997
  365SOL    HW1 1994   5.207   0.523   3.902
  365SOL    HW2 1995   5.118   0.585   4.024
  366SOL     OW 1996   5.626   1.252   6.986
  366SOL    HW1 1997   5.623   1.311   0.049
  366SOL    HW2 1998   5.659   1.161   7.012
  367SOL     OW 1999   6.237   0.084   6.793
  367SOL    HW1 2000   6.265   0.026   6.717
  367SOL    HW2 2001   6.211   0.026   6.871
  368SOL     OW 2002   2.707   1.301   5.423
  368SOL    HW1 2003   2.759   1.218   5.441
  368SOL    HW2 2004   2.768   1.380   5.431
  369SOL     OW 2005   4.859   3.716   6.862
  369SOL    HW1 2006   4.918   3.646   6.903
  369SOL    HW2 2007   4.892   3.736   6.769
  370SOL     OW 2008   1.599   1.990   3.865
  370SOL    HW1 2009   1.640   2.080   3.854
  370SOL    HW2 2010   1.584   1.949   3.776
  371SOL     OW 2011   2.715   4.974   0.752
  371SOL    HW1 2012   2.624   4.989   0.791
  371SOL    HW2 2013   2.711   4.985   0.653
  372SOL     OW 2014   2.927   5.941   5.731
  372SOL    HW1 2015   2.990   5.880   5.778
  372SOL    HW2 2016   2.921   6.028   5.780
  373SOL     OW 2017   5.175   4.374   2.794
  373SOL    HW1 2018   5.173   4.412   2.886
  373SOL    HW2 2019   5.208   4.280   2.797
  374SOL     OW 2020   2.034   2.608   2.322
  374SOL    HW1 2021   2.095   2.541   2.278
  374SOL    HW2 2022   2.075   2.699   2.317
  375SOL     OW 2023   6.881   5.048   4.064
  375SOL    HW1 2024   6.821   5.041   3.984
  375SOL    HW2 2025   6.965   5.096   4.039
  376SOL     OW 2026   4.872   0.509   3.314
  376SOL    HW1 2027   4.941   0.582   3.308
  376SOL    HW2 2028   4.861   0.466   3.224
  377SOL     OW 2029   2.488   3.482   6.157
  377SOL    HW1 2030   2.395   3.515   6.174
  377SOL    HW2 2031   2.550   3.560   6.147
  378SOL     OW 2032   4.072   0.981   1.224
  378SOL    HW1 2033   4.041   0.892   1.192
  378SOL    HW2 2034   4.018   1.010   1.302
  379SOL     OW 2035   3.198   3.703   0.757
  379SOL    HW1 2036   3.223   3.713   0.853
  379SOL    HW2 2037   3.242   3.622   0.719
  380SOL     OW 2038   5.010   1.593   0.011
  380SOL    HW1 2039   5.088   1.584   0.073
  380SOL    HW2 2040   5.004   1.512   6.971
  381SOL     OW 2041   0.484   3.340   2.038
  381SOL    HW1 2042   0.387   3.341   2.063
  381SOL    HW2 2043   0.501   3.266   1.974
  382SOL     OW 2044   6.539   0.158   0.884
  382SOL    HW1 2045   6.506   0.158   0.978
  382SOL    HW2 2046   6.636   0.134   0.882
  383SOL     OW 2047   5.400   3.095   1.126
  383SOL    HW1 2048   5.373   3.023   1.062
  383SOL    HW2 2049   5.490   3.130   1.102
  384SOL     OW 2050   1.239   3.062   4.657
  384SOL    HW1 2051   1.209   2.989   4.718
  384SOL    HW2 2052   1.327   3.098   4.688
  385SOL     OW 2053   4.879   2.844   6.992
  385SOL    HW1 2054   4.881   2.813   6.897
  385SOL    HW2 2055   4.805   2.910   7.004
  386SOL     OW 2056   3.335   6.184   5.181
  386SOL    HW1 2057   3.383   6.198   5.095
  386SOL    HW2 2058   3.331   6.087   5.203
  387SOL     OW 2059   1.598   6.581   3.784
  387SOL    HW1 2060   1.656   6.511   3.742
  387SOL    HW2 2061   1.502   6.560   3.765
  388SOL     OW 2062   1.339   5.524   5.727
  388SOL    HW1 2063   1.370   5.600   5.670
  388SOL    HW2 2064   1.419   5.478   5.767
  389SOL     OW 2065   4.011   2.159   6.632
  389SOL    HW1 2066   4.091   2.151   6.692
  389SOL    HW2 2067   3.946   2.225   6.672
  390SOL     OW 2068   3.199   1.519   3.771
  390SOL    HW1 2069   3.182   1.422   3.790
  390SOL    HW2 2070   3.183   1.572   3.854
  391SOL     OW 2071   0.625   1.047   0.634
  391SOL    HW1 2072   0.560   1.121   0.652
  391SOL    HW2 2073   0.716   1.074   0.665
  392SOL     OW 2074   4.156   5.441   4.187
  392SOL    HW1 2075   4.213   5.444   4.105
  392SOL    HW2 2076   4.062   5.419   4.161
  393SOL     OW 2077   5.717   2.991   6.039
  393SOL    HW1 2078   5.813   2.970   6.057
  393SOL    HW2 2079   5.672   2.912   5.996
  394SOL     OW 2080   2.019   1.197   6.726
  394SOL    HW1 2081   2.084   1.192   6.650
  394SOL    HW2 2082   1.984   1.290   6.734
  395SOL     OW 2083   6.876   3.001   1.161
  395SOL    HW1 2084   6.855   2.941   1.083
  395SOL    HW2 2085   6.863   3.096   1.133
  396SOL     OW 2086   4.103   2.660   5.541
  396SOL    HW1 2087   4.198   2.647   5.512
  396SOL    HW2 2088   4.044   2.665   5.460
  397SOL     OW 2089   4.703   6.990   6.508
  397SOL    HW1 2090   4.620   6.953   6.550
  397SOL    HW2 2091   4.763   6.916   6.479
  398SOL     OW 2092   6.014   4.083   2.304
  398SOL    HW1 2093   6.010   4.152   2.376
  398SOL    HW2 2094   6.104   4.084   2.261
  399SOL     OW 2095   2.680   5.916   1.510
  399SOL    HW1 2096   2.581   5.932   1.508
  399SOL    HW2 2097   2.715   5.910   1.417
  400SOL     OW 2098   1.966   4.585   5.628
  400SOL    HW1 2099   2.052   4.536   5.611
  400SOL    HW2 2100   1.952   4.593   5.726
  401SOL     OW 2101   6.291   1.254   1.344
  401SOL    HW1 2102   6.341   1.270   1.429
  401SOL    HW2 2103   6.244   1.166   1.348
  402SOL     OW 2104   0.454   5.571   0.675
  402SOL    HW1 2105   0.512   5.643   0.715
  402SOL    HW2 2106   0.412   5.518   0.748
  403SOL     OW 2107   5.326   4.847   0.213
  403SOL    HW1 2108   5.261   4.845   0.290
  403SOL    HW2 2109   5.416   4.876   0.246
  404SOL     OW 2110   0.003   5.868   4.653
  404SOL    HW1 2111   0.021   5.965   4.637
  404SOL    HW2 2112   0.039   5.814   4.578
  405SOL     OW 2113   1.426   1.392   1.669
  405SOL    HW1 2114   1.337   1.392   1.714
  405SOL    HW2 2115   1.495   1.357   1.732
  406SOL     OW 2116   1.378   3.300   3.871
  406SOL    HW1 2117   1.460   3.351   3.847
  406SOL    HW2 2118   1.371   3.218   3.815
  407SOL     OW 2119   3.271   2.093   3.830
  407SOL    HW1 2120   3.193   2.070   3.888
  407SOL    HW2 2121   3.266   2.188   3.802
  408SOL     OW 2122   2.039   0.044   3.584
  408SOL    HW1 2123   1.941   0.059   3.598
  408SOL    HW2 2124   2.059   0.044   3.486
  409SOL     OW 2125   7.015   4.804   4.330
  409SOL    HW1 2126   0.074   4.866   4.346
  409SOL    HW2 2127   0.025   4.711   4.351
  410SOL     OW 2128   2.589   6.450   6.083
  410SOL    HW1 2129   2.573   6.421   5.989
  410SOL    HW2 2130   2.687   6.462   6.098
  411SOL     OW 2131   0.511   4.322   5.413
  411SOL    HW1 2132   0.455   4.378   5.474
  411SOL    HW2 2133   0.483   4.226   5.420
  412SOL     OW 2134   3.595   6.440   2.972
  412SOL    HW1 2135   3.680   6.414   2.925
  412SOL    HW2 2136   3.527   6.368   2.960
  413SOL     OW 2137   2.160   0.314   1.786
  413SOL    HW1 2138   2.103   0.333   1.866
  413SOL    HW2 2139   2.103   0.274   1.714
  414SOL     OW 2140   4.961   4.600   0.749
  414SOL    HW1 2141   5.058   4.623   0.740
  414SOL    HW2 2142   4.948   4.505   0.723
  415SOL     OW 2143   3.835   6.862   3.008
  415SOL    HW1 2144   3.828   6.960   2.990
  415SOL    HW2 2145   3.840   6.812   2.922
  416SOL     OW 2146   3.600   5.831   0.142
  416SOL    HW1 2147   3.686   5.872   0.174
  416SOL    HW2 2148   3.545   5.802   0.220
  417SOL     OW 2149   5.315   5.692   0.924
  417SOL    HW1 2150   5.252   5.755   0.878
  417SOL    HW2 2151   5.270   5.653   1.004
  418SOL     OW 2152   0.126   5.177   6.307
  418SOL    HW1 2153   0.173   5.264   6.315
  418SOL    HW2 2154   0.122   5.150   6.210
  419SOL     OW 2155   4.859   5.879   6.146
  419SOL    HW1 2156   4.851   5.915   6.239
  419SOL    HW2 2157   4.775   5.833   6.120
  420SOL     OW 2158   5.636   4.092   6.721
  420SOL    HW1 2159   5.709   4.061   6.661
  420SOL    HW2 2160   5.659   4.071   6.816
  421SOL     OW 2161   1.438   6.172   6.510
  421SOL    HW1 2162   1.512   6.227   6.547
  421SOL    HW2 2163   1.468   6.130   6.424
  422SOL     OW 2164   6.264   3.735   6.618
  422SOL    HW1 2165   6.348   3.711   6.570
  422SOL    HW2 2166   6.226   3.819   6.579
  423SOL     OW 2167   1.212   3.349   6.390
  423SOL    HW1 2168   1.303   3.387   6.376
  423SOL    HW2 2169   1.181   3.370   6.483
  424SOL     OW 2170   2.264   4.180   6.065
  424SOL    HW1 2171   2.210   4.117   6.008
  424SOL    HW2 2172   2.225   4.183   6.157
  425SOL     OW 2173   2.602   0.654   0.437
  425SOL    HW1 2174   2.680   0.715   0.445
  425SOL    HW2 2175   2.518   0.706   0.455
  426SOL     OW 2176   0.706   3.631   0.034
  426SOL    HW1 2177   0.699   3.557   6.985
  426SOL    HW2 2178   0.770   3.606   0.107
  427SOL     OW 2179   4.350   3.053   0.272
  427SOL    HW1 2180   4.429   2.998   0.244
  427SOL    HW2 2181   4.322   3.113   0.196
  428SOL     OW 2182   4.086   1.087   4.233
  428SOL    HW1 2183   4.040   1.081   4.145
  428SOL    HW2 2184   4.049   1.164   4.285
  429SOL     OW 2185   3.802   6.318   0.290
  429SOL    HW1 2186   3.808   6.298   0.388
  429SOL    HW2 2187   3.713   6.290   0.256
  430SOL     OW 2188   2.961   1.006   4.401
  430SOL    HW1 2189   2.950   1.073   4.474
  430SOL    HW2 2190   2.921   1.041   4.316
  431SOL     OW 2191   3.749   0.954   6.620
  431SOL    HW1 2192   3.765   0.927   6.715
  431SOL    HW2 2193   3.720   1.050   6.617
  432SOL     OW 2194   6.572   1.534   1.042
  432SOL    HW1 2195   6.497   1.558   1.103
  432SOL    HW2 2196   6.562   1.439   1.012
  433SOL     OW 2197   3.888   6.131   4.964
  433SOL    HW1 2198   3.888   6.043   5.013
  433SOL    HW2 2199   3.878   6.114   4.866
  434SOL     OW 2200   6.738   3.414   0.562
  434SOL    HW1 2201   6.678   3.399   0.641
  434SOL    HW2 2202   6.719   3.505   0.523
  435SOL     OW 2203   3.546   3.335   0.880
  435SOL    HW1 2204   3.570   3.246   0.919
  435SOL    HW2 2205   3.488   3.385   0.944
  436SOL     OW 2206   2.562   1.352   1.485
  436SOL    HW1 2207   2.475   1.338   1.533
  436SOL    HW2 2208   2.569   1.287   1.409
  437SOL     OW 2209   5.986   6.632   6.199
  437SOL    HW1 2210   5.910   6.687   6.163
  437SOL    HW2 2211   6.040   6.688   6.262
  438SOL     OW 2212   1.425   3.323   0.860
  438SOL    HW1 2213   1.359   3.325   0.935
  438SOL    HW2 2214   1.393   3.382   0.786
  439SOL     OW 2215   6.476   5.006   1.988
  439SOL    HW1 2216   6.427   4.964   1.912
  439SOL    HW2 2217   6.455   4.956   2.072
  440SOL     OW 2218   1.755   2.854   2.595
  440SOL    HW1 2219   1.787   2.855   2.500
  440SOL    HW2 2220   1.832   2.840   2.657
  441SOL     OW 2221   0.084   1.395   3.311
  441SOL    HW1 2222   0.063   1.361   3.402
  441SOL    HW2 2223   0.174   1.361   3.282
  442SOL     OW 2224   1.136   4.927   6.309
  442SOL    HW1 2225   1.231   4.901   6.292
  442SOL    HW2 2226   1.080   4.903   6.229
  443SOL     OW 2227   0.316   4.923   5.731
  443SOL    HW1 2228   0.388   4.920   5.801
  443SOL    HW2 2229   0.233   4.882   5.767
  444SOL     OW 2230   5.620   2.988   6.894
  444SOL    HW1 2231   5.521   2.999   6.885
  444SOL    HW2 2232   5.643   2.891   6.886
  445SOL     OW 2233   1.721   3.467   2.933
  445SOL    HW1 2234   1.670   3.383   2.915
  445SOL    HW2 2235   1.658   3.540   2.958
  446SOL     OW 2236   1.852   5.030   4.200
  446SOL    HW1 2237   1.860   5.099   4.272
  446SOL    HW2 2238   1.870   4.939   4.238
  447SOL     OW 2239   0.734   6.051   0.831
  447SOL    HW1 2240   0.780   6.140   0.833
  447SOL    HW2 2241   0.744   6.007   0.920
  448SOL     OW 2242   4.400   0.646   5.487
  448SOL    HW1 2243   4.448   0.640   5.574
  448SOL    HW2 2244   4.435   0.575   5.425
  449SOL     OW 2245   5.814   0.534   4.641
  449SOL    HW1 2246   5.770   0.482   4.568
  449SOL    HW2 2247   5.750   0.602   4.677
  450SOL     OW 2248   6.536   5.919   2.861
  450SOL    HW1 2249   6.610   5.966   2.814
  450SOL    HW2 2250   6.521   5.960   2.950
  451SOL     OW 2251   5.890   3.819   3.804
  451SOL    HW1 2252   5.961   3.887   3.790
  451SOL    HW2 2253   5.930   3.736   3.843
  452SOL     OW 2254   6.458   4.676   5.774
  452SOL    HW1 2255   6.388   4.632   5.830
  452SOL    HW2 2256   6.536   4.614   5.765
  453SOL     OW 2257   3.527   1.316   6.167
  453SOL    HW1 2258   3.494   1.410   6.167
  453SOL    HW2 2259   3.622   1.314   6.135
  454SOL     OW 2260   0.524   6.062   0.639
  454SOL    HW1 2261   0.587   6.030   0.710
  454SOL    HW2 2262   0.462   5.987   0.615
  455SOL     OW 2263   5.297   1.612   4.868
  455SOL    HW1 2264   5.378   1.633   4.923
  455SOL    HW2 2265   5.309   1.649   4.776
  456SOL     OW 2266   3.979   5.657   0.593
  456SOL    HW1 2267   4.060   5.701   0.553
  456SOL    HW2 2268   3.905   5.659   0.526
  457SOL     OW 2269   0.841   4.262   1.381
  457SOL    HW1 2270   0.804   4.223   1.296
  457SOL    HW2 2271   0.911   4.329   1.358
  458SOL     OW 2272   0.607   0.175   5.672
  458SOL    HW1 2273   0.578   0.094   5.722
  458SOL    HW2 2274   0.665   0.148   5.595
  459SOL     OW 2275   1.278   0.687   3.233
  459SOL    HW1 2276   1.340   0.735   3.295
  459SOL    HW2 2277   1.331   0.652   3.156
  460SOL     OW 2278   6.335   2.173   3.188
  460SOL    HW1 2279   6.273   2.184   3.266
  460SOL    HW2 2280   6.363   2.077   3.181
  461SOL     OW 2281   5.128   4.579   6.125
  461SOL    HW1 2282   5.043   4.535   6.097
  461SOL    HW2 2283   5.159   4.539   6.211
  462SOL     OW 2284   3.393   2.810   0.241
  462SOL    HW1 2285   3.328   2.880   0.213
  462SOL    HW2 2286   3.358   2.760   0.320
  463SOL     OW 2287   5.934   5.887   2.298
  463SOL    HW1 2288   5.918   5.789   2.283
  463SOL    HW2 2289   5.927   5.907   2.395
  464SOL     OW 2290   1.949   1.944   5.818
  464SOL    HW1 2291   2.009   1.869   5.789
  464SOL    HW2 2292   1.990   2.031   5.791
  465SOL     OW 2293   0.803   3.425   6.335
  465SOL    HW1 2294   0.789   3.504   6.276
  465SOL    HW2 2295   0.889   3.380   6.311
  466SOL     OW 2296   1.609   0.603   3.375
  466SOL    HW1 2297   1.686   0.631   3.318
  466SOL    HW2 2298   1.571   0.684   3.420
  467SOL     OW 2299   1.805   1.467   5.089
  467SOL    HW1 2300   1.848   1.451   5.000
  467SOL    HW2 2301   1.781   1.563   5.098
  468SOL     OW 2302   3.020   3.585   3.408
  468SOL    HW1 2303   3.077   3.515   3.366
  468SOL    HW2 2304   2.978   3.550   3.491
  469SOL     OW 2305   3.743   7.017   6.364
  469SOL    HW1 2306   3.735   7.004   6.462
  469SOL    HW2 2307   3.662   0.045   6.329
  470SOL     OW 2308   4.514   0.067   3.395
  470SOL    HW1 2309   4.472   0.005   3.329
  470SOL    HW2 2310   4.584   0.018   3.447
  471SOL     OW 2311   2.535   2.538   4.218
  471SOL    HW1 2312   2.564   2.540   4.122
  471SOL    HW2 2313   2.596   2.480   4.270
  472SOL     OW 2314   4.035   4.356   5.331
  472SOL    HW1 2315   4.116   4.380   5.277
  472SOL    HW2 2316   3.984   4.284   5.284
  473SOL     OW 2317   0.139   4.230   4.073
  473SOL    HW1 2318   0.088   4.160   4.023
  473SOL    HW2 2319   0.082   4.267   4.146
  474SOL     OW 2320   5.012   4.790   5.349
  474SOL    HW1 2321   4.955   4.869   5.374
  474SOL    HW2 2322   5.108   4.810   5.369
  475SOL     OW 2323   2.502   6.793   0.325
  475SOL    HW1 2324   2.596   6.829   0.319
  475SOL    HW2 2325   2.450   6.846   0.392
  476SOL     OW 2326   6.707   5.777   3.191
  476SOL    HW1 2327   6.659   5.824   3.118
  476SOL    HW2 2328   6.655   5.695   3.218
  477SOL     OW 2329   1.748   4.544   4.333
  477SOL    HW1 2330   1.732   4.450   4.302
  477SOL    HW2 2331   1.726   4.551   4.430
  478SOL     OW 2332   1.331   5.018   3.604
  478SOL    HW1 2333   1.325   4.970   3.692
  478SOL    HW2 2334   1.242   5.014   3.559
  479SOL     OW 2335   4.270   1.969   1.852
  479SOL    HW1 2336   4.253   2.067   1.858
  479SOL    HW2 2337   4.184   1.922   1.831
  480SOL     OW 2338   1.470   6.193   3.689
  480SOL    HW1 2339   1.530   6.251   3.635
  480SOL    HW2 2340   1.492   6.204   3.786
  481SOL     OW 2341   2.171   0.444   1.046
  481SOL    HW1 2342   2.129   0.402   1.126
  481SOL    HW2 2343   2.130   0.533   1.029
  482SOL     OW 2344   5.444   5.594   0.505
  482SOL    HW1 2345   5.466   5.606   0.602
  482SOL    HW2 2346   5.433   5.496   0.486
  483SOL     OW 2347   5.493   1.904   2.893
  483SOL    HW1 2348   5.520   1.842   2.820
  483SOL    HW2 2349   5.427   1.970   2.858
  484SOL     OW 2350   6.406   1.654   3.822
  484SOL    HW1 2351   6.447   1.705   3.897
  484SOL    HW2 2352   6.308   1.673   3.819
  485SOL     OW 2353   2.814   6.275   0.601
  485SOL    HW1 2354   2.765   6.205   0.549
  485SOL    HW2 2355   2.820   6.247   0.696
  486SOL     OW 2356   6.762   0.512   5.875
  486SOL    HW1 2357   6.764   0.437   5.941
  486SOL    HW2 2358   6.747   0.474   5.783
  487SOL     OW 2359   6.741   2.430   6.411
  487SOL    HW1 2360   6.694   2.439   6.499
  487SOL    HW2 2361   6.728   2.337   6.376
  488SOL     OW 2362   1.112   4.672   3.022
  488SOL    HW1 2363   1.190   4.658   2.961
  488SOL    HW2 2364   1.071   4.583   3.044
  489SOL     OW 2365   3.221   5.239   6.135
  489SOL    HW1 2366   3.170   5.159   6.168
  489SOL    HW2 2367   3.318   5.229   6.158
  490SOL     OW 2368   4.943   0.563   4.388
  490SOL    HW1 2369   4.976   0.643   4.438
  490SOL    HW2 2370   4.852   0.581   4.351
  491SOL     OW 2371   0.776   3.021   3.510
  491SOL    HW1 2372   0.844   3.014   3.437
  491SOL    HW2 2373   0.783   2.942   3.570
  492SOL     OW 2374   1.824   1.380   4.774
  492SOL    HW1 2375   1.920   1.381   4.800
  492SOL    HW2 2376   1.793   1.474   4.760
  493SOL     OW 2377   6.073   4.161   4.453
  493SOL    HW1 2378   6.020   4.131   4.531
  493SOL    HW2 2379   6.170   4.144   4.469
  494SOL     OW 2380   5.827   0.753   6.695
  494SOL    HW1 2381   5.762   0.683   6.665
  494SOL    HW2 2382   5.914   0.742   6.646
  495SOL     OW 2383   5.065   4.264   0.041
  495SOL    HW1 2384   5.115   4.335   0.091
  495SOL    HW2 2385   5.127   4.187   0.022
  496SOL     OW 2386   6.054   3.489   2.828
  496SOL    HW1 2387   6.083   3.579   2.859
  496SOL    HW2 2388   6.041   3.491   2.729
  497SOL     OW 2389   4.295   0.001   4.232
  497SOL    HW1 2390   4.342   7.016   4.320
  497SOL    HW2 2391   4.208   0.049   4.242
  498SOL     OW 2392   1.253   3.381   1.056
  498SOL    HW1 2393   1.165   3.389   1.009
  498SOL    HW2 2394   1.253   3.299   1.114
  499SOL     OW 2395   3.476   1.381   5.143
  499SOL    HW1 2396   3.418   1.458   5.115
  499SOL    HW2 2397   3.492   1.385   5.242
  500SOL     OW 2398   0.943   4.279   2.809
  500SOL    HW1 2399   0.906   4.367   2.838
  500SOL    HW2 2400   0.998   4.240   2.883
  501SOL     OW 2401   0.604   4.742   6.282
  501SOL    HW1 2402   0.664   4.687   6.340
  501SOL    HW2 2403   0.620   4.839   6.301
  502SOL     OW 2404   2.274   4.690   5.993
  502SOL    HW1 2405   2.266   4.790   5.986
  502SOL    HW2 2406   2.370   4.664   5.996
  503SOL     OW 2407   6.804   5.296   4.486
  503SOL    HW1 2408   6.804   5.223   4.418
  503SOL    HW2 2409   6.723   5.353   4.474
  504SOL     OW 2410   1.377   4.821   4.863
  504SOL    HW1 2411   1.425   4.898   4.906
  504SOL    HW2 2412   1.278   4.833   4.874
  505SOL     OW 2413   3.478   6.581   4.575
  505SOL    HW1 2414   3.426   6.592   4.660
  505SOL    HW2 2415   3.436   6.636   4.503
  506SOL     OW 2416   2.173   3.400   0.762
  506SOL    HW1 2417   2.074   3.400   0.746
  506SOL    HW2 2418   2.192   3.366   0.853
  507SOL     OW 2419   3.713   1.899   4.314
  507SOL    HW1 2420   3.810   1.885   4.296
  507SOL    HW2 2421   3.668   1.811   4.324
  508SOL     OW 2422   6.203   5.382   4.526
  508SOL    HW1 2423   6.265   5.447   4.482
  508SOL    HW2 2424   6.128   5.360   4.463
  509SOL     OW 2425   4.796   3.211   1.760
  509SOL    HW1 2426   4.754   3.130   1.802
  509SOL    HW2 2427   4.735   3.248   1.690
  510SOL     OW 2428   0.537   4.216   4.625
  510SOL    HW1 2429   0.637   4.215   4.620
  510SOL    HW2 2430   0.499   4.155   4.555
  511SOL     OW 2431   0.513   5.951   1.291
  511SOL    HW1 2432   0.467   5.988   1.210
  511SOL    HW2 2433   0.589   6.010   1.316
  512SOL     OW 2434   1.928   3.950   5.709
  512SOL    HW1 2435   2.023   3.926   5.689
  512SOL    HW2 2436   1.917   4.049   5.709
  513SOL     OW 2437   0.418   5.307   4.341
  513SOL    HW1 2438   0.458   5.367   4.272
  513SOL    HW2 2439   0.483   5.293   4.416
  514SOL     OW 2440   5.303   1.674   3.364
  514SOL    HW1 2441   5.376   1.711   3.307
  514SOL    HW2 2442   5.332   1.588   3.404
  515SOL     OW 2443   3.028   5.756   0.260
  515SOL    HW1 2444   3.090   5.688   0.300
  515SOL    HW2 2445   3.019   5.740   0.162
  516SOL     OW 2446   1.425   4.229   3.413
  516SOL    HW1 2447   1.474   4.297   3.359
  516SOL    HW2 2448   1.377   4.275   3.488
  517SOL     OW 2449   4.618   0.400   5.783
  517SOL    HW1 2450   4.587   0.371   5.692
  517SOL    HW2 2451   4.660   0.322   5.830
  518SOL     OW 2452   1.728   1.341   0.064
  518SOL    HW1 2453   1.665   1.379   7.014
  518SOL    HW2 2454   1.765   1.255   0.031
  519SOL     OW 2455   0.899   6.485   0.166
  519SOL    HW1 2456   0.908   6.527   0.256
  519SOL    HW2 2457   0.852   6.549   0.104
  520SOL     OW 2458   5.948   4.604   4.508
  520SOL    HW1 2459   5.851   4.630   4.508
  520SOL    HW2 2460   5.962   4.530   4.574
  521SOL     OW 2461   6.611   0.965   0.096
  521SOL    HW1 2462   6.516   0.988   0.074
  521SOL    HW2 2463   6.617   0.940   0.193
  522SOL     OW 2464   3.245   4.023   5.544
  522SOL    HW1 2465   3.176   4.016   5.473
  522SOL    HW2 2466   3.211   4.081   5.618
  523SOL     OW 2467   6.649   6.937   3.605
  523SOL    HW1 2468   6.640   7.011   3.538
  523SOL    HW2 2469   6.729   6.882   3.583
  524SOL     OW 2470   4.041   0.795   4.639
  524SOL    HW1 2471   3.963   0.745   4.676
  524SOL    HW2 2472   4.125   0.762   4.682
  525SOL     OW 2473   3.692   2.880   6.837
  525SOL    HW1 2474   3.647   2.792   6.825
  525SOL    HW2 2475   3.627   2.954   6.819
  526SOL     OW 2476   4.189   6.508   4.468
  526SOL    HW1 2477   4.112   6.474   4.413
  526SOL    HW2 2478   4.227   6.590   4.424
  527SOL     OW 2479   0.767   1.174   0.262
  527SOL    HW1 2480   0.680   1.128   0.244
  527SOL    HW2 2481   0.750   1.261   0.307
  528SOL     OW 2482   1.384   1.823   6.377
  528SOL    HW1 2483   1.305   1.872   6.412
  528SOL    HW2 2484   1.464   1.845   6.433
  529SOL     OW 2485   6.977   4.966   4.553
  529SOL    HW1 2486   6.956   4.977   4.456
  529SOL    HW2 2487   6.918   5.026   4.607
  530SOL     OW 2488   0.221   2.761   5.315
  530SOL    HW1 2489   0.176   2.721   5.235
  530SOL    HW2 2490   0.291   2.826   5.285
  531SOL     OW 2491   6.953   0.175   6.822
  531SOL    HW1 2492   6.978   0.078   6.823
  531SOL    HW2 2493   0.004   0.228   6.872
  532SOL     OW 2494   2.183   1.177   5.784
  532SOL    HW1 2495   2.088   1.208   5.789
  532SOL    HW2 2496   2.187   1.093   5.730
  533SOL     OW 2497   4.553   0.958   5.572
  533SOL    HW1 2498   4.641   0.996   5.545
  533SOL    HW2 2499   4.509   0.916   5.492
  534SOL     OW 2500   3.057   5.659   3.053
  534SOL    HW1 2501   3.110   5.737   3.087
  534SOL    HW2 2502   3.043   5.593   3.126
  535SOL     OW 2503   6.835   3.920   1.872
  535SOL    HW1 2504   6.760   3.854   1.872
  535SOL    HW2 2505   6.878   3.921   1.781
  536SOL     OW 2506   1.817   6.041   1.444
  536SOL    HW1 2507   1.756   6.094   1.502
  536SOL    HW2 2508   1.904   6.089   1.433
  537SOL     OW 2509   2.479   6.986   3.099
  537SOL    HW1 2510   2.500   6.902   3.049
  537SOL    HW2 2511   2.406   6.968   3.164
  538SOL     OW 2512   1.616   5.458   4.174
  538SOL    HW1 2513   1.705   5.414   4.166
  538SOL    HW2 2514   1.628   5.558   4.170
  539SOL     OW 2515   1.667   5.324   1.511
  539SOL    HW1 2516   1.613   5.341   1.428
  539SOL    HW2 2517   1.611   5.343   1.592
  540SOL     OW 2518   2.549   2.669   1.220
  540SOL    HW1 2519   2.640   2.677   1.260
  540SOL    HW2 2520   2.481   2.707   1.283
  541SOL     OW 2521   4.689   5.603   5.046
  541SOL    HW1 2522   4.631   5.682   5.029
  541SOL    HW2 2523   4.645   5.520   5.012
  542SOL     OW 2524   5.658   0.370   6.342
  542SOL    HW1 2525   5.625   0.300   6.278
  542SOL    HW2 2526   5.692   0.448   6.290
  543SOL     OW 2527   6.397   6.972   2.512
  543SOL    HW1 2528   6.410   6.965   2.413
  543SOL    HW2 2529   6.473   6.928   2.558
  544SOL     OW 2530   0.866   5.607   0.473
  544SOL    HW1 2531   0.832   5.514   0.490
  544SOL    HW2 2532   0.872   5.656   0.560
  545SOL     OW 2533   2.913   1.833   3.586
  545SOL    HW1 2534   2.860   1.772   3.527
  545SOL    HW2 2535   2.906   1.801   3.681
  546SOL     OW 2536   1.298   1.983   6.706
  546SOL    HW1 2537   1.277   2.072   6.747
  546SOL    HW2 2538   1.395   1.979   6.681
  547SOL     OW 2539   3.402   2.041   0.776
  547SOL    HW1 2540   3.424   1.972   0.845
  547SOL    HW2 2541   3.411   2.001   0.685
  548SOL     OW 2542   3.111   3.237   5.446
  548SOL    HW1 2543   3.093   3.151   5.494
  548SOL    HW2 2544   3.027   3.266   5.399
  549SOL     OW 2545   0.658   4.503   0.719
  549SOL    HW1 2546   0.693   4.583   0.768
  549SOL    HW2 2547   0.700   4.420   0.756
  550SOL     OW 2548   6.780   4.737   0.617
  550SOL    HW1 2549   6.804   4.654   0.668
  550SOL    HW2 2550   6.801   4.724   0.520
  551SOL     OW 2551   0.250   0.269   0.383
  551SOL    HW1 2552   0.254   0.368   0.395
  551SOL    HW2 2553   0.269   0.246   0.287
  552SOL     OW 2554   4.880   5.435   0.259
  552SOL    HW1 2555   4.798   5.474   0.218
  552SOL    HW2 2556   4.941   5.510   0.287
  553SOL     OW 2557   1.246   2.187   1.320
  553SOL    HW1 2558   1.239   2.089   1.302
  553SOL    HW2 2559   1.343   2.212   1.325
  554SOL     OW 2560   4.357   5.262   4.666
  554SOL    HW1 2561   4.328   5.352   4.633
  554SOL    HW2 2562   4.383   5.205   4.588
  555SOL     OW 2563   1.380   4.392   5.787
  555SOL    HW1 2564   1.345   4.306   5.749
  555SOL    HW2 2565   1.411   4.451   5.712
  556SOL     OW 2566   6.422   3.855   2.606
  556SOL    HW1 2567   6.358   3.932   2.611
  556SOL    HW2 2568   6.424   3.808   2.694
  557SOL     OW 2569   6.312   5.829   5.522
  557SOL    HW1 2570   6.401   5.833   5.476
  557SOL    HW2 2571   6.311   5.750   5.583
  558SOL     OW 2572   4.005   3.728   5.667
  558SOL    HW1 2573   4.035   3.693   5.579
  558SOL    HW2 2574   3.964   3.819   5.655
  559SOL     OW 2575   5.097   5.402   6.425
  559SOL    HW1 2576   5.121   5.342   6.349
  559SOL    HW2 2577   5.060   5.349   6.501
  560SOL     OW 2578   4.400   6.612   0.759
  560SOL    HW1 2579   4.405   6.555   0.677
  560SOL    HW2 2580   4.492   6.632   0.792
  561SOL     OW 2581   4.866   0.045   2.915
  561SOL    HW1 2582   4.852   0.142   2.899
  561SOL    HW2 2583   4.948   0.031   2.971
  562SOL     OW 2584   6.115   6.728   1.342
  562SOL    HW1 2585   6.030   6.716   1.393
  562SOL    HW2 2586   6.191   6.688   1.393
  563SOL     OW 2587   2.746   0.269   5.053
  563SOL    HW1 2588   2.706   0.359   5.074
  563SOL    HW2 2589   2.843   0.269   5.078
  564SOL     OW 2590   0.805   1.173   5.314
  564SOL    HW1 2591   0.898   1.152   5.284
  564SOL    HW2 2592   0.774   1.258   5.271
  565SOL     OW 2593   4.478   3.511   5.995
  565SOL    HW1 2594   4.450   3.418   6.020
  565SOL    HW2 2595   4.410   3.551   5.933
  566SOL     OW 2596   6.851   4.475   1.974
  566SOL    HW1 2597   6.945   4.483   2.008
  566SOL    HW2 2598   6.820   4.381   1.984
  567SOL     OW 2599   3.860   3.735   6.140
  567SOL    HW1 2600   3.940   3.734   6.200
  567SOL    HW2 2601   3.885   3.778   6.053
  568SOL     OW 2602   2.635   0.894   6.401
  568SOL    HW1 2603   2.579   0.961   6.450
  568SOL    HW2 2604   2.731   0.908   6.423
  569SOL     OW 2605   1.975   4.460   6.547
  569SOL    HW1 2606   1.958   4.533   6.481
  569SOL    HW2 2607   1.938   4.487   6.636
  570SOL     OW 2608   0.209   5.575   6.631
  570SOL    HW1 2609   0.212   5.669   6.595
  570SOL    HW2 2610   0.167   5.575   6.722
  571SOL     OW 2611   4.706   5.958   2.559
  571SOL    HW1 2612   4.677   5.910   2.642
  571SOL    HW2 2613   4.784   6.017   2.580
  572SOL     OW 2614   1.805   3.816   3.880
  572SOL    HW1 2615   1.772   3.771   3.797
  572SOL    HW2 2616   1.890   3.864   3.860
  573SOL     OW 2617   4.078   2.573   0.164
  573SOL    HW1 2618   4.121   2.644   0.108
  573SOL    HW2 2619   4.052   2.496   0.107
  574SOL     OW 2620   2.718   2.111   3.415
  574SOL    HW1 2621   2.682   2.018   3.405
  574SOL    HW2 2622   2.809   2.107   3.455
  575SOL     OW 2623   4.321   2.701   6.057
  575SOL    HW1 2624   4.295   2.693   5.961
  575SOL    HW2 2625   4.279   2.628   6.110
  576SOL     OW 2626   0.621   3.442   3.348
  576SOL    HW1 2627   0.537   3.396   3.319
  576SOL    HW2 2628   0.670   3.384   3.413
  577SOL     OW 2629   4.143   1.954   3.471
  577SOL    HW1 2630   4.100   1.916   3.552
  577SOL    HW2 2631   4.145   2.054   3.478
  578SOL     OW 2632   6.684   3.706   4.752
  578SOL    HW1 2633   6.644   3.793   4.724
  578SOL    HW2 2634   6.754   3.722   4.821
  579SOL     OW 2635   4.274   3.548   0.790
  579SOL    HW1 2636   4.190   3.600   0.774
  579SOL    HW2 2637   4.321   3.585   0.870
  580SOL     OW 2638   6.934   0.206   0.189
  580SOL    HW1 2639   6.885   0.133   0.142
  580SOL    HW2 2640   6.898   0.294   0.159
  581SOL     OW 2641   3.800   3.466   3.683
  581SOL    HW1 2642   3.886   3.484   3.731
  581SOL    HW2 2643   3.791   3.368   3.665
  582SOL     OW 2644   0.179   4.031   0.373
  582SOL    HW1 2645   0.190   4.119   0.419
  582SOL    HW2 2646   0.138   3.965   0.436
  583SOL     OW 2647   2.857   6.815   6.716
  583SOL    HW1 2648   2.767   6.856   6.724
  583SOL    HW2 2649   2.855   6.741   6.649
  584SOL     OW 2650   1.554   5.292   4.734
  584SOL    HW1 2651   1.461   5.324   4.754
  584SOL    HW2 2652   1.583   5.327   4.646
  585SOL     OW 2653   5.462   1.908   5.137
  585SOL    HW1 2654   5.373   1.928   5.095
  585SOL    HW2 2655   5.477   1.809   5.137
  586SOL     OW 2656   3.130   5.383   1.174
  586SOL    HW1 2657   3.230   5.383   1.186
  586SOL    HW2 2658   3.108   5.417   1.083
  587SOL     OW 2659   2.334   2.966   6.222
  587SOL    HW1 2660   2.292   2.979   6.132
  587SOL    HW2 2661   2.263   2.973   6.293
  588SOL     OW 2662   2.082   0.127   2.244
  588SOL    HW1 2663   2.117   0.064   2.313
  588SOL    HW2 2664   2.009   0.084   2.192
  589SOL     OW 2665   4.910   5.300   1.711
  589SOL    HW1 2666   4.835   5.244   1.746
  589SOL    HW2 2667   4.992   5.244   1.703
  590SOL     OW 2668   0.547   3.894   1.863
  590SOL    HW1 2669   0.617   3.965   1.851
  590SOL    HW2 2670   0.487   3.892   1.783
  591SOL     OW 2671   2.419   0.209   2.935
  591SOL    HW1 2672   2.447   0.142   3.004
  591SOL    HW2 2673   2.393   0.161   2.851
  592SOL     OW 2674   5.061   0.301   6.284
  592SOL    HW1 2675   4.968   0.308   6.317
  592SOL    HW2 2676   5.082   0.205   6.264
  593SOL     OW 2677   0.328   0.605   4.751
  593SOL    HW1 2678   0.428   0.597   4.754
  593SOL    HW2 2679   0.292   0.605   4.844
  594SOL     OW 2680   5.478   2.407   1.453
  594SOL    HW1 2681   5.548   2.377   1.518
  594SOL    HW2 2682   5.387   2.396   1.495
  595SOL     OW 2683   2.796   6.872   3.999
  595SOL    HW1 2684   2.730   6.823   4.055
  595SOL    HW2 2685   2.857   6.926   4.057
  596SOL     OW 2686   0.522   4.672   2.504
  596SOL    HW1 2687   0.497   4.767   2.485
  596SOL    HW2 2688   0.621   4.660   2.493
  597SOL     OW 2689   4.445   1.963   5.436
  597SOL    HW1 2690   4.536   1.967   5.393
  597SOL    HW2 2691   4.388   1.897   5.388
  598SOL     OW 2692   3.778   3.610   1.681
  598SOL    HW1 2693   3.746   3.689   1.733
  598SOL    HW2 2694   3.845   3.559   1.735
  599SOL     OW 2695   5.655   5.808   3.609
  599SOL    HW1 2696   5.677   5.788   3.513
  599SOL    HW2 2697   5.579   5.873   3.612
  600SOL     OW 2698   3.059   2.080   0.219
  600SOL    HW1 2699   3.108   2.081   0.132
  600SOL    HW2 2700   3.068   1.991   0.262
  601SOL     OW 2701   1.754   4.887   2.053
  601SOL    HW1 2702   1.758   4.792   2.024
  601SOL    HW2 2703   1.818   4.903   2.127
  602SOL     OW 2704   0.174   0.761   2.840
  602SOL    HW1 2705   0.157   0.811   2.754
  602SOL    HW2 2706   0.097   0.700   2.858
  603SOL     OW 2707   4.632   1.309   2.988
  603SOL    HW1 2708   4.601   1.382   2.927
  603SOL    HW2 2709   4.553   1.272   3.038
  604SOL     OW 2710   1.193   3.159   5.827
  604SOL    HW1 2711   1.248   3.107   5.893
  604SOL    HW2 2712   1.202   3.256   5.847
  605SOL     OW 2713   5.282   0.437   4.551
  605SOL    HW1 2714   5.308   0.527   4.518
  605SOL    HW2 2715   5.311   0.427   4.647
  606SOL     OW 2716   2.107   6.880   2.336
  606SOL    HW1 2717   2.042   6.831   2.278
  606SOL    HW2 2718   2.192   6.896   2.285
  607SOL     OW 2719   3.682   0.207   4.657
  607SOL    HW1 2720   3.713   0.256   4.739
  607SOL    HW2 2721   3.756   0.150   4.622
  608SOL     OW 2722   6.215   2.769   0.990
  608SOL    HW1 2723   6.124   2.776   0.949
  608SOL    HW2 2724   6.237   2.672   1.005
  609SOL     OW 2725   3.591   4.185   5.169
  609SOL    HW1 2726   3.653   4.146   5.237
  609SOL    HW2 2727   3.547   4.266   5.206
  610SOL     OW 2728   6.433   2.317   4.900
  610SOL    HW1 2729   6.383   2.230   4.908
  610SOL    HW2 2730   6.477   2.322   4.811
  611SOL     OW 2731   6.688   6.769   0.466
  611SOL    HW1 2732   6.599   6.757   0.422
  611SOL    HW2 2733   6.755   6.708   0.422
  612SOL     OW 2734   1.646   4.400   6.471
  612SOL    HW1 2735   1.577   4.331   6.452
  612SOL    HW2 2736   1.727   4.357   6.512
  613SOL     OW 2737   3.644   1.189   6.995
  613SOL    HW1 2738   3.696   1.228   6.920
  613SOL    HW2 2739   3.703   1.176   0.057
  614SOL     OW 2740   5.413   2.301   0.752
  614SOL    HW1 2741   5.417   2.229   0.682
  614SOL    HW2 2742   5.499   2.351   0.753
  615SOL     OW 2743   6.144   5.700   0.599
  615SOL    HW1 2744   6.049   5.730   0.608
  615SOL    HW2 2745   6.159   5.664   0.507
  616SOL     OW 2746   4.821   1.502   4.865
  616SOL    HW1 2747   4.851   1.459   4.951
  616SOL    HW2 2748   4.738   1.458   4.833
  617SOL     OW 2749   6.291   0.299   5.098
  617SOL    HW1 2750   6.380   0.344   5.094
  617SOL    HW2 2751   6.261   0.276   5.005
  618SOL     OW 2752   5.158   4.848   1.058
  618SOL    HW1 2753   5.160   4.855   1.157
  618SOL    HW2 2754   5.245   4.813   1.025
  619SOL     OW 2755   1.530   0.058   6.897
  619SOL    HW1 2756   1.589   0.052   6.978
  619SOL    HW2 2757   1.536   6.991   6.845
  620SOL     OW 2758   4.692   1.933   1.663
  620SOL    HW1 2759   4.672   2.030   1.655
  620SOL    HW2 2760   4.745   1.903   1.583
  621SOL     OW 2761   1.716   6.823   6.639
  621SOL    HW1 2762   1.741   6.920   6.641
  621SOL    HW2 2763   1.798   6.768   6.625
  622SOL     OW 2764   0.483   3.092   5.867
  622SOL    HW1 2765   0.582   3.090   5.876
  622SOL    HW2 2766   0.458   3.078   5.771
  623SOL     OW 2767   6.454   1.520   2.787
  623SOL    HW1 2768   6.536   1.498   2.841
  623SOL    HW2 2769   6.479   1.584   2.715
  624SOL     OW 2770   5.980   1.099   6.232
  624SOL    HW1 2771   6.057   1.157   6.257
  624SOL    HW2 2772   5.973   1.023   6.297
  625SOL     OW 2773   3.137   1.109   1.415
  625SOL    HW1 2774   3.116   1.190   1.360
  625SOL    HW2 2775   3.081   1.109   1.498
  626SOL     OW 2776   0.151   6.509   3.884
  626SOL    HW1 2777   0.140   6.481   3.789
  626SOL    HW2 2778   0.240   6.553   3.895
  627SOL     OW 2779   6.494   4.203   5.948
  627SOL    HW1 2780   6.578   4.218   6.000
  627SOL    HW2 2781   6.492   4.109   5.915
  628SOL     OW 2782   3.903   4.291   6.683
  628SOL    HW1 2783   3.999   4.263   6.691
  628SOL    HW2 2784   3.844   4.217   6.714
  629SOL     OW 2785   2.214   7.005   6.778
  629SOL    HW1 2786   2.147   0.002   6.705
  629SOL    HW2 2787   2.200   6.914   6.817
  630SOL     OW 2788   6.456   2.098   0.695
  630SOL    HW1 2789   6.398   2.047   0.758
  630SOL    HW2 2790   6.552   2.080   0.717
  631SOL     OW 2791   1.831   3.593   2.173
  631SOL    HW1 2792   1.925   3.560   2.167
  631SOL    HW2 2793   1.828   3.673   2.233
  632SOL     OW 2794   3.821   4.788   1.448
  632SOL    HW1 2795   3.864   4.842   1.520
  632SOL    HW2 2796   3.871   4.800   1.362
  633SOL     OW 2797   1.177   6.191   6.739
  633SOL    HW1 2798   1.085   6.152   6.732
  633SOL    HW2 2799   1.244   6.121   6.714
  634SOL     OW 2800   2.280   3.532   5.554
  634SOL    HW1 2801   2.342   3.611   5.555
  634SOL    HW2 2802   2.239   3.523   5.463
  635SOL     OW 2803   6.708   6.129   6.607
  635SOL    HW1 2804   6.719   6.188   6.687
  635SOL    HW2 2805   6.731   6.035   6.631
  636SOL     OW 2806   1.567   1.937   4.739
  636SOL    HW1 2807   1.515   2.017   4.770
  636SOL    HW2 2808   1.665   1.954   4.751
  637SOL     OW 2809   6.529   1.620   2.112
  637SOL    HW1 2810   6.511   1.680   2.034
  637SOL    HW2 2811   6.495   1.528   2.092
  638SOL     OW 2812   0.129   3.674   5.654
  638SOL    HW1 2813   0.064   3.721   5.594
  638SOL    HW2 2814   0.186   3.613   5.600
  639SOL     OW 2815   5.697   3.395   0.853
  639SOL    HW1 2816   5.796   3.379   0.861
  639SOL    HW2 2817   5.671   3.471   0.912
  640SOL     OW 2818   6.391   3.687   2.378
  640SOL    HW1 2819   6.397   3.747   2.458
  640SOL    HW2 2820   6.297   3.683   2.345
  641SOL     OW 2821   2.192   5.968   4.444
  641SOL    HW1 2822   2.168   5.886   4.392
  641SOL    HW2 2823   2.282   6.001   4.414
  642SOL     OW 2824   1.066   5.308   4.412
  642SOL    HW1 2825   1.096   5.373   4.342
  642SOL    HW2 2826   1.095   5.340   4.502
  643SOL     OW 2827   4.380   4.921   0.284
  643SOL    HW1 2828   4.410   4.834   0.244
  643SOL    HW2 2829   4.454   4.960   0.338
  644SOL     OW 2830   5.960   0.572   4.925
  644SOL    HW1 2831   5.893   0.561   4.851
  644SOL    HW2 2832   5.922   0.536   5.010
  645SOL     OW 2833   3.863   6.041   2.399
  645SOL    HW1 2834   3.868   6.055   2.300
  645SOL    HW2 2835   3.772   6.064   2.432
  646SOL     OW 2836   3.311   1.142   5.267
  646SOL    HW1 2837   3.243   1.215   5.264
  646SOL    HW2 2838   3.274   1.064   5.318
  647SOL     OW 2839   2.096   2.214   6.885
  647SOL    HW1 2840   2.084   2.213   6.786
  647SOL    HW2 2841   2.123   2.123   6.916
  648SOL     OW 2842   4.985   2.287   3.561
  648SOL    HW1 2843   5.050   2.307   3.635
  648SOL    HW2 2844   5.034   2.245   3.484
  649SOL     OW 2845   4.219   5.908   0.997
  649SOL    HW1 2846   4.204   5.879   1.092
  649SOL    HW2 2847   4.131   5.927   0.954
  650SOL     OW 2848   2.474   3.873   1.380
  650SOL    HW1 2849   2.553   3.842   1.434
  650SOL    HW2 2850   2.499   3.874   1.283
  651SOL     OW 2851   6.837   1.653   3.182
  651SOL    HW1 2852   6.872   1.678   3.272
  651SOL    HW2 2853   6.872   1.716   3.113
  652SOL     OW 2854   4.007   5.956   0.844
  652SOL    HW1 2855   4.000   5.895   0.764
  652SOL    HW2 2856   3.917   5.991   0.867
  653SOL     OW 2857   1.420   0.405   3.121
  653SOL    HW1 2858   1.509   0.374   3.090
  653SOL    HW2 2859   1.386   0.477   3.060
  654SOL     OW 2860   1.426   0.211   6.173
  654SOL    HW1 2861   1.420   0.311   6.170
  654SOL    HW2 2862   1.364   0.172   6.105
  655SOL     OW 2863   1.243   3.907   1.889
  655SOL    HW1 2864   1.230   3.995   1.935
  655SOL    HW2 2865   1.197   3.835   1.941
  656SOL     OW 2866   2.404   0.683   0.127
  656SOL    HW1 2867   2.340   0.692   0.050
  656SOL    HW2 2868   2.353   0.661   0.210
  657SOL     OW 2869   3.746   3.569   4.406
  657SOL    HW1 2870   3.681   3.526   4.469
  657SOL    HW2 2871   3.729   3.537   4.313
  658SOL     OW 2872   2.401   0.593   5.219
  658SOL    HW1 2873   2.475   0.544   5.172
  658SOL    HW2 2874   2.439   0.645   5.295
  659SOL     OW 2875   1.433   5.050   6.896
  659SOL    HW1 2876   1.341   5.087   6.908
  659SOL    HW2 2877   1.500   5.111   6.940
  660SOL     OW 2878   5.690   3.698   2.145
  660SOL    HW1 2879   5.674   3.733   2.237
  660SOL    HW2 2880   5.604   3.700   2.093
  661SOL     OW 2881   4.166   5.596   4.431
  661SOL    HW1 2882   4.183   5.687   4.391
  661SOL    HW2 2883   4.132   5.535   4.360
  662SOL     OW 2884   6.887   3.375   6.903
  662SOL    HW1 2885   6.916   3.467   6.875
  662SOL    HW2 2886   6.962   3.330   6.951
  663SOL     OW 2887   1.635   4.075   6.119
  663SOL    HW1 2888   1.689   4.135   6.060
  663SOL    HW2 2889   1.564   4.029   6.065
  664SOL     OW 2890   2.016   0.309   5.853
  664SOL    HW1 2891   2.086   0.332   5.920
  664SOL    HW2 2892   1.977   0.220   5.875
  665SOL     OW 2893   2.048   4.503   2.903
  665SOL    HW1 2894   2.134   4.539   2.939
  665SOL    HW2 2895   1.972   4.558   2.937
  666SOL     OW 2896   3.273   0.301   0.112
  666SOL    HW1 2897   3.268   0.292   0.211
  666SOL    HW2 2898   3.228   0.224   0.068
  667SOL     OW 2899   1.590   3.058   2.142
  667SOL    HW1 2900   1.496   3.093   2.146
  667SOL    HW2 2901   1.645   3.103   2.212
  668SOL     OW 2902   5.040   0.139   0.682
  668SOL    HW1 2903   4.979   0.064   0.707
  668SOL    HW2 2904   5.098   0.163   0.760
  669SOL     OW 2905   6.353   5.725   2.783
  669SOL    HW1 2906   6.421   5.798   2.794
  669SOL    HW2 2907   6.265   5.756   2.820
  670SOL     OW 2908   3.047   3.995   3.129
  670SOL    HW1 2909   3.060   3.968   3.225
  670SOL    HW2 2910   3.052   4.094   3.121
  671SOL     OW 2911   1.628   0.327   6.787
  671SOL    HW1 2912   1.588   0.281   6.866
  671SOL    HW2 2913   1.686   0.403   6.819
  672SOL     OW 2914   0.426   2.264   3.048
  672SOL    HW1 2915   0.414   2.325   3.127
  672SOL    HW2 2916   0.390   2.173   3.071
  673SOL     OW 2917   4.990   0.837   6.636
  673SOL    HW1 2918   4.981   0.765   6.568
  673SOL    HW2 2919   5.070   0.818   6.694
  674SOL     OW 2920   6.583   2.626   4.456
  674SOL    HW1 2921   6.616   2.532   4.467
  674SOL    HW2 2922   6.658   2.684   4.423
  675SOL     OW 2923   5.889   0.017   3.708
  675SOL    HW1 2924   5.985   0.022   3.734
  675SOL    HW2 2925   5.880   6.991   3.618
  676SOL     OW 2926   3.379   5.007   4.966
  676SOL    HW1 2927   3.410   5.046   5.052
  676SOL    HW2 2928   3.279   5.013   4.961
  677SOL     OW 2929   5.013   6.440   0.495
  677SOL    HW1 2930   5.025   6.462   0.399
  677SOL    HW2 2931   5.057   6.511   0.551
  678SOL     OW 2932   2.427   0.704   6.480
  678SOL    HW1 2933   2.508   0.763   6.478
  678SOL    HW2 2934   2.427   0.644   6.400
  679SOL     OW 2935   6.879   0.081   2.659
  679SOL    HW1 2936   6.836   0.166   2.628
  679SOL    HW2 2937   6.811   0.008   2.661
  680SOL     OW 2938   5.973   3.336   4.262
  680SOL    HW1 2939   6.046   3.403   4.271
  680SOL    HW2 2940   6.010   3.253   4.220
  681SOL     OW 2941   0.906   5.207   3.192
  681SOL    HW1 2942   0.807   5.214   3.179
  681SOL    HW2 2943   0.925   5.183   3.287
  682SOL     OW 2944   0.468   0.012   5.863
  682SOL    HW1 2945   0.503   6.935   5.865
  682SOL    HW2 2946   0.449   0.042   5.957
  683SOL     OW 2947   5.259   1.172   1.436
  683SOL    HW1 2948   5.313   1.256   1.436
  683SOL    HW2 2949   5.217   1.159   1.526
  684SOL     OW 2950   6.626   5.907   6.027
  684SOL    HW1 2951   6.650   5.813   6.004
  684SOL    HW2 2952   6.709   5.956   6.056
  685SOL     OW 2953   6.099   0.488   4.678
  685SOL    HW1 2954   6.116   0.572   4.627
  685SOL    HW2 2955   6.014   0.496   4.729
  686SOL     OW 2956   5.874   4.317   1.078
  686SOL    HW1 2957   5.849   4.221   1.078
  686SOL    HW2 2958   5.950   4.332   1.014
  687SOL     OW 2959   5.401   2.609   6.925
  687SOL    HW1 2960   5.477   2.544   6.926
  687SOL    HW2 2961   5.327   2.574   6.982
  688SOL     OW 2962   6.461   2.714   5.146
  688SOL    HW1 2963   6.493   2.647   5.213
  688SOL    HW2 2964   6.413   2.666   5.072
  689SOL     OW 2965   5.260   4.937   4.362
  689SOL    HW1 2966   5.265   4.841   4.336
  689SOL    HW2 2967   5.315   4.953   4.444
  690SOL     OW 2968   6.734   2.383   4.498
  690SOL    HW1 2969   6.817   2.397   4.552
  690SOL    HW2 2970   6.669   2.327   4.550
  691SOL     OW 2971   1.029   2.829   6.761
  691SOL    HW1 2972   1.110   2.865   6.807
  691SOL    HW2 2973   0.964   2.904   6.745
  692SOL     OW 2974   2.323   0.216   4.036
  692SOL    HW1 2975   2.285   0.127   4.012
  692SOL    HW2 2976   2.363   0.259   3.956
  693SOL     OW 2977   5.919   1.093   3.530
  693SOL    HW1 2978   5.941   1.052   3.618
  693SOL    HW2 2979   5.820   1.100   3.520
  694SOL     OW 2980   1.352   0.341   2.678
  694SOL    HW1 2981   1.315   0.318   2.588
  694SOL    HW2 2982   1.324   0.434   2.702
  695SOL     OW 2983   4.655   5.726   6.386
  695SOL    HW1 2984   4.691   5.633   6.384
  695SOL    HW2 2985   4.721   5.787   6.429
  696SOL     OW 2986   5.453   5.764   2.393
  696SOL    HW1 2987   5.537   5.798   2.435
  696SOL    HW2 2988   5.465   5.760   2.293
  697SOL     OW 2989   1.263   3.994   2.995
  697SOL    HW1 2990   1.238   3.949   2.909
  697SOL    HW2 2991   1.362   3.998   3.003
  698SOL     OW 2992   4.739   6.489   4.490
  698SOL    HW1 2993   4.640   6.500   4.478
  698SOL    HW2 2994   4.772   6.416   4.430
  699SOL     OW 2995   1.777   5.759   6.164
  699SOL    HW1 2996   1.795   5.832   6.230
  699SOL    HW2 2997   1.849   5.690   6.169
  700SOL     OW 2998   2.079   2.228   4.664
  700SOL    HW1 2999   2.124   2.138   4.664
  700SOL    HW2 3000   2.037   2.243   4.575
  701SOL     OW 3001   0.549   4.620   6.045
  701SOL    HW1 3002   0.449   4.617   6.049
  701SOL    HW2 3003   0.584   4.666   6.127
  702SOL     OW 3004   5.909   6.241   5.343
  702SOL    HW1 3005   5.879   6.185   5.420
  702SOL    HW2 3006   5.990   6.201   5.301
  703SOL     OW 3007   5.860   3.609   6.258
  703SOL    HW1 3008   5.811   3.532   6.219
  703SOL    HW2 3009   5.857   3.687   6.196
  704SOL     OW 3010   2.319   6.934   2.137
  704SOL    HW1 3011   2.364   7.017   2.103
  704SOL    HW2 3012   2.290   6.878   2.060
  705SOL     OW 3013   1.386   1.692   4.278
  705SOL    HW1 3014   1.437   1.745   4.346
  705SOL    HW2 3015   1.406   1.728   4.187
  706SOL     OW 3016   5.567   3.595   3.643
  706SOL    HW1 3017   5.566   3.576   3.545
  706SOL    HW2 3018   5.662   3.600   3.675
  707SOL     OW 3019   4.846   2.929   2.907
  707SOL    HW1 3020   4.848   3.013   2.851
  707SOL    HW2 3021   4.772   2.870   2.875
  708SOL     OW 3022   5.184   1.126   1.685
  708SOL    HW1 3023   5.251   1.106   1.756
  708SOL    HW2 3024   5.112   1.184   1.722
  709SOL     OW 3025   1.540   3.919   6.460
  709SOL    HW1 3026   1.467   3.865   6.503
  709SOL    HW2 3027   1.560   3.881   6.370
  710SOL     OW 3028   3.363   3.449   3.634
  710SOL    HW1 3029   3.304   3.473   3.711
  710SOL    HW2 3030   3.453   3.490   3.647
  711SOL     OW 3031   1.223   0.732   3.820
  711SOL    HW1 3032   1.299   0.697   3.873
  711SOL    HW2 3033   1.137   0.710   3.866
  712SOL     OW 3034   6.852   4.829   3.512
  712SOL    HW1 3035   6.769   4.855   3.561
  712SOL    HW2 3036   6.930   4.876   3.553
  713SOL     OW 3037   2.452   3.760   5.484
  713SOL    HW1 3038   2.382   3.800   5.425
  713SOL    HW2 3039   2.538   3.754   5.433
  714SOL     OW 3040   4.424   5.058   4.494
  714SOL    HW1 3041   4.416   4.959   4.482
  714SOL    HW2 3042   4.343   5.103   4.457
  715SOL     OW 3043   6.665   0.056   6.047
  715SOL    HW1 3044   6.637   0.118   6.120
  715SOL    HW2 3045   6.611   6.990   6.051
  716SOL     OW 3046   6.552   5.865   6.643
  716SOL    HW1 3047   6.577   5.777   6.602
  716SOL    HW2 3048   6.457   5.885   6.620
  717SOL     OW 3049   5.718   2.498   6.251
  717SOL    HW1 3050   5.791   2.548   6.297
  717SOL    HW2 3051   5.715   2.523   6.155
  718SOL     OW 3052   3.395   3.132   0.607
  718SOL    HW1 3053   3.427   3.082   0.526
  718SOL    HW2 3054   3.430   3.226   0.603
  719SOL     OW 3055   6.435   4.176   6.559
  719SOL    HW1 3056   6.350   4.200   6.512
  719SOL    HW2 3057   6.422   4.186   6.658
  720SOL     OW 3058   3.829   0.893   5.778
  720SOL    HW1 3059   3.837   0.794   5.763
  720SOL    HW2 3060   3.897   0.922   5.845
  721SOL     OW 3061   1.433   7.002   5.605
  721SOL    HW1 3062   1.387   6.925   5.560
  721SOL    HW2 3063   1.384   0.069   5.583
  722SOL     OW 3064   4.673   1.269   5.284
  722SOL    HW1 3065   4.744   1.234   5.223
  722SOL    HW2 3066   4.673   1.369   5.281
  723SOL     OW 3067   0.209   3.806   1.660
  723SOL    HW1 3068   0.190   3.736   1.591
  723SOL    HW2 3069   0.261   3.880   1.619
  724SOL     OW 3070   0.430   2.671   4.506
  724SOL    HW1 3071   0.425   2.639   4.600
  724SOL    HW2 3072   0.477   2.603   4.450
  725SOL     OW 3073   2.334   5.187   2.228
  725SOL    HW1 3074   2.378   5.098   2.219
  725SOL    HW2 3075   2.235   5.175   2.240
  726SOL     OW 3076   5.708   6.326   6.495
  726SOL    HW1 3077   5.720   6.412   6.544
  726SOL    HW2 3078   5.796   6.281   6.485
  727SOL     OW 3079   1.663   4.854   4.494
  727SOL    HW1 3080   1.715   4.847   4.579
  727SOL    HW2 3081   1.725   4.862   4.416
  728SOL     OW 3082   6.426   1.873   6.252
  728SOL    HW1 3083   6.422   1.773   6.252
  728SOL    HW2 3084   6.493   1.903   6.184
  729SOL     OW 3085   4.076   1.643   0.690
  729SOL    HW1 3086   4.147   1.618   0.756
  729SOL    HW2 3087   4.000   1.686   0.738
  730SOL     OW 3088   6.063   1.315   3.866
  730SOL    HW1 3089   6.094   1.381   3.935
  730SOL    HW2 3090   6.032   1.232   3.911
  731SOL     OW 3091   0.466   2.148   3.913
  731SOL    HW1 3092   0.543   2.086   3.899
  731SOL    HW2 3093   0.451   2.161   4.011
  732SOL     OW 3094   0.417   3.657   3.707
  732SOL    HW1 3095   0.435   3.559   3.701
  732SOL    HW2 3096   0.481   3.698   3.772
  733SOL     OW 3097   5.032   4.567   4.796
  733SOL    HW1 3098   5.130   4.547   4.786
  733SOL    HW2 3099   4.979   4.484   4.774
  734SOL     OW 3100   0.789   6.631   6.959
  734SOL    HW1 3101   0.747   6.713   6.921
  734SOL    HW2 3102   0.856   6.594   6.895
  735SOL     OW 3103   3.769   4.236   0.049
  735SOL    HW1 3104   3.684   4.286   0.036
  735SOL    HW2 3105   3.750   4.144   0.082
  736SOL     OW 3106   5.894   0.998   2.343
  736SOL    HW1 3107   5.796   0.985   2.328
  736SOL    HW2 3108   5.939   1.011   2.255
  737SOL     OW 3109   5.199   3.713   0.272
  737SOL    HW1 3110   5.293   3.744   0.287
  737SOL    HW2 3111   5.158   3.765   0.198
  738SOL     OW 3112   6.200   3.802   4.437
  738SOL    HW1 3113   6.265   3.728   4.417
  738SOL    HW2 3114   6.124   3.765   4.490
  739SOL     OW 3115   4.795   6.175   6.175
  739SOL    HW1 3116   4.815   6.267   6.208
  739SOL    HW2 3117   4.776   6.115   6.253
  740SOL     OW 3118   5.986   6.745   0.453
  740SOL    HW1 3119   5.966   6.648   0.439
  740SOL    HW2 3120   6.001   6.762   0.551
  741SOL     OW 3121   1.765   0.338   3.722
  741SOL    HW1 3122   1.729   0.354   3.630
  741SOL    HW2 3123   1.864   0.349   3.721
  742SOL     OW 3124   1.156   6.176   2.499
  742SOL    HW1 3125   1.184   6.256   2.446
  742SOL    HW2 3126   1.056   6.166   2.495
  743SOL     OW 3127   1.734   3.210   2.302
  743SOL    HW1 3128   1.777   3.262   2.376
  743SOL    HW2 3129   1.726   3.268   2.221
  744SOL     OW 3130   6.915   5.147   0.522
  744SOL    HW1 3131   6.839   5.106   0.572
  744SOL    HW2 3132   6.902   5.246   0.516
  745SOL     OW 3133   1.229   6.532   1.693
  745SOL    HW1 3134   1.153   6.467   1.694
  745SOL    HW2 3135   1.279   6.526   1.779
  746SOL     OW 3136   3.076   6.972   3.370
  746SOL    HW1 3137   3.056   6.900   3.436
  746SOL    HW2 3138   3.150   0.012   3.406
  747SOL     OW 3139   6.977   4.227   0.406
  747SOL    HW1 3140   0.049   4.229   0.450
  747SOL    HW2 3141   6.914   4.172   0.460
  748SOL     OW 3142   3.188   3.031   3.414
  748SOL    HW1 3143   3.260   2.992   3.472
  748SOL    HW2 3144   3.218   3.032   3.319
  749SOL     OW 3145   5.308   2.931   5.664
  749SOL    HW1 3146   5.408   2.927   5.654
  749SOL    HW2 3147   5.267   2.860   5.607
  750SOL     OW 3148   3.009   3.139   2.186
  750SOL    HW1 3149   3.017   3.079   2.107
  750SOL    HW2 3150   3.045   3.229   2.164
  751SOL     OW 3151   5.645   1.168   0.291
  751SOL    HW1 3152   5.550   1.138   0.299
  751SOL    HW2 3153   5.648   1.262   0.259
  752SOL     OW 3154   4.433   0.461   2.279
  752SOL    HW1 3155   4.456   0.507   2.365
  752SOL    HW2 3156   4.379   0.523   2.222
  753SOL     OW 3157   3.561   1.749   1.827
  753SOL    HW1 3158   3.593   1.828   1.879
  753SOL    HW2 3159   3.561   1.772   1.730
  754SOL     OW 3160   4.951   5.255   6.590
  754SOL    HW1 3161   4.925   5.159   6.593
  754SOL    HW2 3162   4.957   5.291   6.684
  755SOL     OW 3163   5.881   4.946   2.492
  755SOL    HW1 3164   5.927   4.881   2.432
  755SOL    HW2 3165   5.818   5.003   2.438
  756SOL     OW 3166   2.039   6.865   4.253
  756SOL    HW1 3167   2.129   6.847   4.292
  756SOL    HW2 3168   1.996   6.778   4.228
  757SOL     OW 3169   0.268   0.756   4.266
  757SOL    HW1 3170   0.236   0.836   4.214
  757SOL    HW2 3171   0.193   0.721   4.322
  758SOL     OW 3172   4.216   1.959   0.567
  758SOL    HW1 3173   4.272   1.893   0.616
  758SOL    HW2 3174   4.270   2.001   0.494
  759SOL     OW 3175   2.159   0.300   1.369
  759SOL    HW1 3176   2.095   0.307   1.445
  759SOL    HW2 3177   2.123   0.237   1.300
  760SOL     OW 3178   4.675   1.553   6.318
  760SOL    HW1 3179   4.681   1.638   6.369
  760SOL    HW2 3180   4.672   1.476   6.381
  761SOL     OW 3181   5.248   0.750   6.715
  761SOL    HW1 3182   5.285   0.779   6.627
  761SOL    HW2 3183   5.322   0.743   6.782
  762SOL     OW 3184   2.475   4.516   5.042
  762SOL    HW1 3185   2.425   4.454   4.981
  762SOL    HW2 3186   2.554   4.553   4.993
  763SOL     OW 3187   0.675   4.716   0.938
  763SOL    HW1 3188   0.584   4.740   0.973
  763SOL    HW2 3189   0.745   4.744   1.004
  764SOL     OW 3190   6.129   1.293   2.504
  764SOL    HW1 3191   6.215   1.290   2.553
  764SOL    HW2 3192   6.146   1.316   2.408
  765SOL     OW 3193   0.990   6.463   2.962
  765SOL    HW1 3194   1.064   6.530   2.955
  765SOL    HW2 3195   0.983   6.413   2.875
  766SOL     OW 3196   0.280   5.780   0.141
  766SOL    HW1 3197   0.371   5.819   0.158
  766SOL    HW2 3198   0.214   5.820   0.204
  767SOL     OW 3199   5.960   6.174   1.456
  767SOL    HW1 3200   5.980   6.113   1.533
  767SOL    HW2 3201   5.894   6.243   1.483
  768SOL     OW 3202   2.589   6.426   4.242
  768SOL    HW1 3203   2.683   6.461   4.239
  768SOL    HW2 3204   2.541   6.466   4.320
  769SOL     OW 3205   3.402   0.486   0.336
  769SOL    HW1 3206   3.448   0.572   0.358
  769SOL    HW2 3207   3.312   0.484   0.380
  770SOL     OW 3208   3.468   5.592   4.949
  770SOL    HW1 3209   3.497   5.680   4.912
  770SOL    HW2 3210   3.546   5.546   4.992
  771SOL     OW 3211   0.427   6.944   4.782
  771SOL    HW1 3212   0.476   6.994   4.854
  771SOL    HW2 3213   0.462   6.850   4.776
  772SOL     OW 3214   0.824   2.998   6.659
  772SOL    HW1 3215   0.807   3.041   6.570
  772SOL    HW2 3216   0.738   2.990   6.709
  773SOL     OW 3217   6.775   3.481   1.877
  773SOL    HW1 3218   6.862   3.484   1.829
  773SOL    HW2 3219   6.737   3.389   1.872
  774SOL     OW 3220   1.216   1.124   1.944
  774SOL    HW1 3221   1.123   1.137   1.978
  774SOL    HW2 3222   1.216   1.132   1.844
  775SOL     OW 3223   1.857   2.779   4.245
  775SOL    HW1 3224   1.789   2.712   4.218
  775SOL    HW2 3225   1.812   2.864   4.273
  776SOL     OW 3226   2.425   1.240   5.482
  776SOL    HW1 3227   2.525   1.237   5.472
  776SOL    HW2 3228   2.401   1.308   5.551
  777SOL     OW 3229   4.012   0.229   6.819
  777SOL    HW1 3230   4.025   0.149   6.761
  777SOL    HW2 3231   4.060   0.307   6.778
  778SOL     OW 3232   4.614   5.999   5.037
  778SOL    HW1 3233   4.554   5.923   5.014
  778SOL    HW2 3234   4.692   6.000   4.974
  779SOL     OW 3235   0.458   0.353   2.423
  779SOL    HW1 3236   0.419   0.427   2.477
  779SOL    HW2 3237   0.461   0.269   2.478
  780SOL     OW 3238   5.514   2.330   5.108
  780SOL    HW1 3239   5.443   2.274   5.151
  780SOL    HW2 3240   5.582   2.271   5.064
  781SOL     OW 3241   1.726   4.167   0.139
  781SOL    HW1 3242   1.712   4.260   0.174
  781SOL    HW2 3243   1.658   4.148   0.068
  782SOL     OW 3244   0.243   5.517   0.510
  782SOL    HW1 3245   0.318   5.537   0.574
  782SOL    HW2 3246   0.257   5.427   0.469
  783SOL     OW 3247   1.653   5.462   0.655
  783SOL    HW1 3248   1.676   5.439   0.750
  783SOL    HW2 3249   1.574   5.409   0.626
  784SOL     OW 3250   5.276   5.478   3.150
  784SOL    HW1 3251   5.224   5.557   3.119
  784SOL    HW2 3252   5.291   5.485   3.248
  785SOL     OW 3253   6.129   2.901   3.188
  785SOL    HW1 3254   6.225   2.890   3.213
  785SOL    HW2 3255   6.079   2.942   3.264
  786SOL     OW 3256   6.366   6.316   1.525
  786SOL    HW1 3257   6.302   6.287   1.453
  786SOL    HW2 3258   6.318   6.319   1.613
  787SOL     OW 3259   4.008   1.280   6.636
  787SOL    HW1 3260   3.990   1.333   6.553
  787SOL    HW2 3261   4.088   1.222   6.623
  788SOL     OW 3262   6.996   4.444   3.503
  788SOL    HW1 3263   6.973   4.349   3.480
  788SOL    HW2 3264   6.913   4.492   3.530
  789SOL     OW 3265   6.378   3.155   0.295
  789SOL    HW1 3266   6.406   3.059   0.309
  789SOL    HW2 3267   6.279   3.159   0.281
  790SOL     OW 3268   2.476   0.429   4.158
  790SOL    HW1 3269   2.462   0.445   4.256
  790SOL    HW2 3270   2.417   0.355   4.127
  791SOL     OW 3271   3.382   0.826   4.260
  791SOL    HW1 3272   3.412   0.802   4.168
  791SOL    HW2 3273   3.282   0.826   4.264
  792SOL     OW 3274   5.456   0.798   3.996
  792SOL    HW1 3275   5.498   0.886   4.017
  792SOL    HW2 3276   5.469   0.777   3.899
  793SOL     OW 3277   0.284   6.819   6.658
  793SOL    HW1 3278   0.337   6.826   6.573
  793SOL    HW2 3279   0.249   6.726   6.668
  794SOL     OW 3280   3.877   5.226   4.743
  794SOL    HW1 3281   3.868   5.127   4.738
  794SOL    HW2 3282   3.923   5.251   4.828
  795SOL     OW 3283   4.997   5.475   6.840
  795SOL    HW1 3284   5.094   5.498   6.846
  795SOL    HW2 3285   4.971   5.418   6.918
  796SOL     OW 3286   0.870   1.707   5.983
  796SOL    HW1 3287   0.904   1.616   5.963
  796SOL    HW2 3288   0.811   1.704   6.064
  797SOL     OW 3289   5.780   3.132   5.628
  797SOL    HW1 3290   5.739   3.220   5.608
  797SOL    HW2 3291   5.807   3.088   5.542
  798SOL     OW 3292   6.372   0.722   4.291
  798SOL    HW1 3293   6.422   0.805   4.317
  798SOL    HW2 3294   6.291   0.748   4.238
  799SOL     OW 3295   6.571   3.664   3.782
  799SOL    HW1 3296   6.479   3.703   3.792
  799SOL    HW2 3297   6.610   3.694   3.695
  800SOL     OW 3298   0.501   2.619   2.652
  800SOL    HW1 3299   0.443   2.568   2.588
  800SOL    HW2 3300   0.547   2.556   2.714
  801SOL     OW 3301   0.266   3.639   3.421
  801SOL    HW1 3302   0.330   3.634   3.497
  801SOL    HW2 3303   0.295   3.711   3.357
  802SOL     OW 3304   6.554   1.292   0.913
  802SOL    HW1 3305   6.572   1.339   0.826
  802SOL    HW2 3306   6.639   1.249   0.946
  803SOL     OW 3307   2.278   6.794   4.363
  803SOL    HW1 3308   2.219   6.763   4.437
  803SOL    HW2 3309   2.341   6.864   4.397
  804SOL     OW 3310   5.806   5.806   0.558
  804SOL    HW1 3311   5.827   5.709   0.563
  804SOL    HW2 3312   5.788   5.831   0.462
  805SOL     OW 3313   2.045   2.644   6.338
  805SOL    HW1 3314   2.018   2.715   6.272
  805SOL    HW2 3315   2.034   2.554   6.296
  806SOL     OW 3316   4.147   6.350   0.379
  806SOL    HW1 3317   4.085   6.271   0.380
  806SOL    HW2 3318   4.117   6.416   0.448
  807SOL     OW 3319   0.338   1.011   3.536
  807SOL    HW1 3320   0.296   0.977   3.451
  807SOL    HW2 3321   0.336   1.111   3.537
  808SOL     OW 3322   5.710   3.792   4.984
  808SOL    HW1 3323   5.631   3.847   5.010
  808SOL    HW2 3324   5.685   3.731   4.909
  809SOL     OW 3325   0.000   5.564   5.806
  809SOL    HW1 3326   6.936   5.622   5.810
  809SOL    HW2 3327   0.059   5.594   5.731
  810SOL     OW 3328   6.005   5.063   5.973
  810SOL    HW1 3329   6.080   5.102   5.920
  810SOL    HW2 3330   5.927   5.045   5.913
  811SOL     OW 3331   3.067   4.841   2.889
  811SOL    HW1 3332   3.151   4.801   2.853
  811SOL    HW2 3333   3.035   4.914   2.828
  812SOL     OW 3334   7.002   0.539   2.828
  812SOL    HW1 3335   0.070   0.513   2.873
  812SOL    HW2 3336   6.925   0.496   2.875
  813SOL     OW 3337   4.984   4.937   1.749
  813SOL    HW1 3338   4.913   4.954   1.818
  813SOL    HW2 3339   5.052   4.874   1.786
  814SOL     OW 3340   5.302   5.311   1.526
  814SOL    HW1 3341   5.267   5.242   1.591
  814SOL    HW2 3342   5.290   5.278   1.433
  815SOL     OW 3343   1.003   1.201   1.438
  815SOL    HW1 3344   0.907   1.173   1.441
  815SOL    HW2 3345   1.044   1.170   1.352
  816SOL     OW 3346   5.697   0.465   1.797
  816SOL    HW1 3347   5.641   0.496   1.874
  816SOL    HW2 3348   5.682   0.367   1.782
  817SOL     OW 3349   0.608   2.552   1.765
  817SOL    HW1 3350   0.530   2.490   1.779
  817SOL    HW2 3351   0.678   2.533   1.833
  818SOL     OW 3352   5.772   1.445   2.941
  818SOL    HW1 3353   5.709   1.473   2.868
  818SOL    HW2 3354   5.863   1.482   2.923
  819SOL     OW 3355   0.093   5.113   2.659
  819SOL    HW1 3356   0.126   5.190   2.712
  819SOL    HW2 3357   0.053   5.145   2.573
  820SOL     OW 3358   2.475   3.362   5.875
  820SOL    HW1 3359   2.574   3.365   5.866
  820SOL    HW2 3360   2.450   3.308   5.956
  821SOL     OW 3361   1.305   4.281   0.512
  821SOL    HW1 3362   1.353   4.359   0.471
  821SOL    HW2 3363   1.371   4.210   0.536
  822SOL     OW 3364   0.299   3.399   5.222
  822SOL    HW1 3365   0.375   3.407   5.286
  822SOL    HW2 3366   0.223   3.352   5.268
  823SOL     OW 3367   4.189   4.202   1.439
  823SOL    HW1 3368   4.207   4.182   1.536
  823SOL    HW2 3369   4.195   4.301   1.424
  824SOL     OW 3370   6.381   2.936   6.473
  824SOL    HW1 3371   6.394   2.953   6.570
  824SOL    HW2 3372   6.460   2.887   6.437
  825SOL     OW 3373   1.963   3.024   1.341
  825SOL    HW1 3374   1.958   2.937   1.390
  825SOL    HW2 3375   1.872   3.048   1.307
  826SOL     OW 3376   0.976   1.731   6.763
  826SOL    HW1 3377   0.900   1.674   6.795
  826SOL    HW2 3378   1.063   1.691   6.791
  827SOL     OW 3379   3.683   4.608   1.219
  827SOL    HW1 3380   3.676   4.545   1.141
  827SOL    HW2 3381   3.619   4.684   1.205
  828SOL     OW 3382   5.803   1.229   5.433
  828SOL    HW1 3383   5.837   1.179   5.354
  828SOL    HW2 3384   5.798   1.168   5.512
  829SOL     OW 3385   4.239   4.277   5.610
  829SOL    HW1 3386   4.267   4.370   5.632
  829SOL    HW2 3387   4.139   4.270   5.613
  830SOL     OW 3388   4.217   3.416   6.440
  830SOL    HW1 3389   4.223   3.495   6.502
  830SOL    HW2 3390   4.129   3.370   6.453
  831SOL     OW 3391   5.219   1.704   5.394
  831SOL    HW1 3392   5.292   1.647   5.432
  831SOL    HW2 3393   5.205   1.680   5.298
  832SOL     OW 3394   2.770   1.499   5.771
  832SOL    HW1 3395   2.721   1.443   5.838
  832SOL    HW2 3396   2.833   1.441   5.719
  833SOL     OW 3397   1.299   0.428   5.216
  833SOL    HW1 3398   1.335   0.521   5.217
  833SOL    HW2 3399   1.202   0.431   5.189
  834SOL     OW 3400   2.878   4.775   5.579
  834SOL    HW1 3401   2.880   4.686   5.625
  834SOL    HW2 3402   2.834   4.765   5.490
  835SOL     OW 3403   4.042   1.913   2.890
  835SOL    HW1 3404   3.963   1.885   2.944
  835SOL    HW2 3405   4.016   1.989   2.831
  836SOL     OW 3406   2.193   1.139   5.390
  836SOL    HW1 3407   2.286   1.171   5.407
  836SOL    HW2 3408   2.196   1.042   5.363
  837SOL     OW 3409   4.079   1.667   4.278
  837SOL    HW1 3410   4.086   1.580   4.326
  837SOL    HW2 3411   3.983   1.688   4.260
  838SOL     OW 3412   0.413   6.488   2.415
  838SOL    HW1 3413   0.319   6.475   2.445
  838SOL    HW2 3414   0.453   6.568   2.460
  839SOL     OW 3415   2.216   1.797   2.195
  839SOL    HW1 3416   2.143   1.859   2.167
  839SOL    HW2 3417   2.190   1.749   2.278
  840SOL     OW 3418   1.845   0.997   5.272
  840SOL    HW1 3419   1.923   0.935   5.276
  840SOL    HW2 3420   1.831   1.040   5.361
  841SOL     OW 3421   0.474   3.751   0.776
  841SOL    HW1 3422   0.504   3.721   0.867
  841SOL    HW2 3423   0.441   3.672   0.725
  842SOL     OW 3424   3.928   4.870   3.896
  842SOL    HW1 3425   3.996   4.805   3.932
  842SOL    HW2 3426   3.854   4.879   3.962
  843SOL     OW 3427   6.684   2.815   1.345
  843SOL    HW1 3428   6.681   2.908   1.309
  843SOL    HW2 3429   6.755   2.763   1.298
  844SOL     OW 3430   5.473   4.893   6.299
  844SOL    HW1 3431   5.499   4.990   6.295
  844SOL    HW2 3432   5.555   4.837   6.309
  845SOL     OW 3433   2.086   5.178   5.516
  845SOL    HW1 3434   2.066   5.095   5.568
  845SOL    HW2 3435   2.023   5.250   5.544
  846SOL     OW 3436   5.032   1.894   0.231
  846SOL    HW1 3437   4.965   1.898   0.158
  846SOL    HW2 3438   5.042   1.799   0.262
  847SOL     OW 3439   5.096   4.445   1.858
  847SOL    HW1 3440   5.187   4.405   1.857
  847SOL    HW2 3441   5.041   4.402   1.930
  848SOL     OW 3442   5.595   0.495   5.706
  848SOL    HW1 3443   5.617   0.398   5.721
  848SOL    HW2 3444   5.575   0.510   5.610
  849SOL     OW 3445   0.977   7.007   3.963
  849SOL    HW1 3446   1.018   0.078   3.941
  849SOL    HW2 3447   1.049   6.939   3.975
  850SOL     OW 3448   2.872   0.949   3.256
  850SOL    HW1 3449   2.859   0.931   3.354
  850SOL    HW2 3450   2.845   0.868   3.204
  851SOL     OW 3451   6.750   1.368   6.018
  851SOL    HW1 3452   6.839   1.323   6.020
  851SOL    HW2 3453   6.762   1.467   6.026
  852SOL     OW 3454   3.416   5.215   4.573
  852SOL    HW1 3455   3.435   5.124   4.610
  852SOL    HW2 3456   3.419   5.283   4.646
  853SOL     OW 3457   0.896   4.027   0.409
  853SOL    HW1 3458   0.809   4.075   0.399
  853SOL    HW2 3459   0.958   4.054   0.335
  854SOL     OW 3460   6.426   5.205   0.950
  854SOL    HW1 3461   6.412   5.242   1.042
  854SOL    HW2 3462   6.428   5.280   0.884
  855SOL     OW 3463   4.656   0.387   0.400
  855SOL    HW1 3464   4.628   0.326   0.326
  855SOL    HW2 3465   4.751   0.368   0.424
  856SOL     OW 3466   1.383   0.682   5.226
  856SOL    HW1 3467   1.482   0.679   5.214
  856SOL    HW2 3468   1.356   0.773   5.258
  857SOL     OW 3469   6.240   4.321   2.175
  857SOL    HW1 3470   6.323   4.336   2.122
  857SOL    HW2 3471   6.176   4.265   2.122
  858SOL     OW 3472   3.446   3.913   1.913
  858SOL    HW1 3473   3.385   3.834   1.905
  858SOL    HW2 3474   3.401   3.995   1.877
  859SOL     OW 3475   6.882   4.432   1.051
  859SOL    HW1 3476   6.826   4.495   1.104
  859SOL    HW2 3477   6.862   4.442   0.954
  860SOL     OW 3478   1.592   4.245   5.642
  860SOL    HW1 3479   1.604   4.316   5.712
  860SOL    HW2 3480   1.525   4.275   5.574
  861SOL     OW 3481   4.400   4.371   6.265
  861SOL    HW1 3482   4.415   4.469   6.253
  861SOL    HW2 3483   4.377   4.352   6.360
  862SOL     OW 3484   4.454   4.497   3.627
  862SOL    HW1 3485   4.553   4.510   3.632
  862SOL    HW2 3486   4.428   4.478   3.532
  863SOL     OW 3487   6.211   3.244   1.457
  863SOL    HW1 3488   6.219   3.311   1.531
  863SOL    HW2 3489   6.115   3.219   1.444
  864SOL     OW 3490   0.979   6.202   1.903
  864SOL    HW1 3491   0.997   6.138   1.829
  864SOL    HW2 3492   1.034   6.176   1.983
  865SOL     OW 3493   1.505   1.265   3.903
  865SOL    HW1 3494   1.478   1.310   3.818
  865SOL    HW2 3495   1.475   1.320   3.981
  866SOL     OW 3496   4.237   1.004   1.745
  866SOL    HW1 3497   4.225   1.003   1.844
  866SOL    HW2 3498   4.327   0.968   1.721
  867SOL     OW 3499   2.973   1.625   5.948
  867SOL    HW1 3500   2.890   1.606   5.895
  867SOL    HW2 3501   2.980   1.724   5.965
  868SOL     OW 3502   4.969   1.856   3.119
  868SOL    HW1 3503   4.884   1.844   3.069
  868SOL    HW2 3504   4.979   1.953   3.144
  869SOL     OW 3505   6.881   3.733   0.590
  869SOL    HW1 3506   6.916   3.725   0.683
  869SOL    HW2 3507   6.951   3.774   0.531
  870SOL     OW 3508   6.044   1.217   0.587
  870SOL    HW1 3509   6.126   1.269   0.564
  870SOL    HW2 3510   6.070   1.133   0.634
  871SOL     OW 3511   6.856   4.499   0.428
  871SOL    HW1 3512   6.772   4.500   0.374
  871SOL    HW2 3513   6.900   4.410   0.419
  872SOL     OW 3514   6.855   1.592   2.178
  872SOL    HW1 3515   6.798   1.662   2.222
  872SOL    HW2 3516   6.827   1.582   2.082
  873SOL     OW 3517   4.022   0.046   4.344
  873SOL    HW1 3518   3.988   0.107   4.273
  873SOL    HW2 3519   4.009   6.968   4.315
  874SOL     OW 3520   1.340   3.753   6.589
  874SOL    HW1 3521   1.266   3.727   6.526
  874SOL    HW2 3522   1.378   3.670   6.630
  875SOL     OW 3523   5.975   6.358   6.218
  875SOL    HW1 3524   5.880   6.340   6.194
  875SOL    HW2 3525   5.995   6.455   6.204
  876SOL     OW 3526   2.913   2.208   1.696
  876SOL    HW1 3527   2.826   2.202   1.648
  876SOL    HW2 3528   2.908   2.279   1.767
  877SOL     OW 3529   6.236   6.003   6.092
  877SOL    HW1 3530   6.313   6.004   6.156
  877SOL    HW2 3531   6.166   5.940   6.125
  878SOL     OW 3532   4.421   3.596   1.029
  878SOL    HW1 3533   4.457   3.681   1.067
  878SOL    HW2 3534   4.473   3.519   1.065
  879SOL     OW 3535   5.260   3.288   3.178
  879SOL    HW1 3536   5.283   3.384   3.160
  879SOL    HW2 3537   5.163   3.280   3.200
  880SOL     OW 3538   4.674   6.938   1.361
  880SOL    HW1 3539   4.760   6.958   1.408
  880SOL    HW2 3540   4.646   6.844   1.382
  881SOL     OW 3541   5.101   5.658   3.041
  881SOL    HW1 3542   5.138   5.726   2.978
  881SOL    HW2 3543   5.015   5.621   3.004
  882SOL     OW 3544   0.803   2.328   4.784
  882SOL    HW1 3545   0.816   2.353   4.689
  882SOL    HW2 3546   0.705   2.326   4.806
  883SOL     OW 3547   3.299   5.002   6.786
  883SOL    HW1 3548   3.211   4.961   6.765
  883SOL    HW2 3549   3.316   4.997   6.884
  884SOL     OW 3550   4.060   4.775   1.088
  884SOL    HW1 3551   4.018   4.712   1.024
  884SOL    HW2 3552   4.043   4.869   1.058
  885SOL     OW 3553   3.597   5.733   6.314
  885SOL    HW1 3554   3.655   5.791   6.372
  885SOL    HW2 3555   3.655   5.674   6.257
  886SOL     OW 3556   4.295   2.471   6.233
  886SOL    HW1 3557   4.223   2.402   6.226
  886SOL    HW2 3558   4.383   2.426   6.246
  887SOL     OW 3559   6.318   6.666   5.069
  887SOL    HW1 3560   6.360   6.576   5.054
  887SOL    HW2 3561   6.263   6.663   5.153
  888SOL     OW 3562   6.599   1.203   3.564
  888SOL    HW1 3563   6.541   1.282   3.585
  888SOL    HW2 3564   6.690   1.234   3.538
  889SOL     OW 3565   0.771   0.691   4.784
  889SOL    HW1 3566   0.740   0.611   4.835
  889SOL    HW2 3567   0.857   0.669   4.738
  890SOL     OW 3568   2.505   3.040   0.529
  890SOL    HW1 3569   2.506   3.047   0.629
  890SOL    HW2 3570   2.496   3.131   0.490
  891SOL     OW 3571   6.224   2.928   5.724
  891SOL    HW1 3572   6.274   3.015   5.730
  891SOL    HW2 3573   6.193   2.901   5.815
  892SOL     OW 3574   2.204   4.630   2.083
  892SOL    HW1 3575   2.198   4.727   2.109
  892SOL    HW2 3576   2.292   4.593   2.115
  893SOL     OW 3577   1.984   0.377   2.013
  893SOL    HW1 3578   1.937   0.452   1.966
  893SOL    HW2 3579   1.927   0.295   2.010
  894SOL     OW 3580   1.223   4.924   4.331
  894SOL    HW1 3581   1.290   4.930   4.405
  894SOL    HW2 3582   1.220   5.010   4.281
  895SOL     OW 3583   2.536   1.355   4.329
  895SOL    HW1 3584   2.628   1.391   4.346
  895SOL    HW2 3585   2.541   1.261   4.296
  896SOL     OW 3586   4.830   0.344   3.529
  896SOL    HW1 3587   4.911   0.310   3.578
  896SOL    HW2 3588   4.849   0.347   3.431
  897SOL     OW 3589   6.410   1.233   6.921
  897SOL    HW1 3590   6.352   1.291   6.864
  897SOL    HW2 3591   6.357   1.156   6.955
  898SOL     OW 3592   4.870   5.760   3.546
  898SOL    HW1 3593   4.866   5.853   3.583
  898SOL    HW2 3594   4.915   5.700   3.612
  899SOL     OW 3595   1.449   4.767   0.109
  899SOL    HW1 3596   1.535   4.804   0.145
  899SOL    HW2 3597   1.450   4.668   0.116
  900SOL     OW 3598   0.157   5.894   3.659
  900SOL    HW1 3599   0.118   5.804   3.640
  900SOL    HW2 3600   0.241   5.906   3.605
  901SOL     OW 3601   6.624   1.979   3.378
  901SOL    HW1 3602   6.599   1.883   3.388
  901SOL    HW2 3603   6.558   2.035   3.429
  902SOL     OW 3604   1.535   5.995   0.083
  902SOL    HW1 3605   1.504   6.017   0.176
  902SOL    HW2 3606   1.617   5.938   0.088
  903SOL     OW 3607   0.971   4.756   6.457
  903SOL    HW1 3608   1.055   4.701   6.463
  903SOL    HW2 3609   0.993   4.845   6.418
  904SOL     OW 3610   1.291   2.385   4.303
  904SOL    HW1 3611   1.234   2.308   4.274
  904SOL    HW2 3612   1.238   2.470   4.300
  905SOL     OW 3613   6.257   3.080   3.575
  905SOL    HW1 3614   6.281   3.037   3.662
  905SOL    HW2 3615   6.293   3.173   3.573
  906SOL     OW 3616   6.895   2.881   5.500
  906SOL    HW1 3617   6.868   2.868   5.404
  906SOL    HW2 3618   6.818   2.861   5.560
  907SOL     OW 3619   6.881   4.062   3.059
  907SOL    HW1 3620   6.823   3.982   3.074
  907SOL    HW2 3621   6.933   4.050   2.974
  908SOL     OW 3622   2.524   0.936   3.507
  908SOL    HW1 3623   2.595   1.006   3.502
  908SOL    HW2 3624   2.441   0.975   3.547
  909SOL     OW 3625   3.284   6.897   2.527
  909SOL    HW1 3626   3.255   6.953   2.449
  909SOL    HW2 3627   3.326   6.955   2.597
  910SOL     OW 3628   1.300   0.556   2.427
  910SOL    HW1 3629   1.253   0.558   2.339
  910SOL    HW2 3630   1.352   0.471   2.436
  911SOL     OW 3631   1.301   2.599   0.986
  911SOL    HW1 3632   1.221   2.540   0.974
  911SOL    HW2 3633   1.357   2.565   1.062
  912SOL     OW 3634   2.040   0.946   1.072
  912SOL    HW1 3635   2.092   0.910   0.995
  912SOL    HW2 3636   2.030   1.045   1.062
  913SOL     OW 3637   2.025   0.567   1.601
  913SOL    HW1 3638   2.076   0.645   1.565
  913SOL    HW2 3639   2.089   0.494   1.626
  914SOL     OW 3640   3.064   4.863   2.240
  914SOL    HW1 3641   3.102   4.828   2.154
  914SOL    HW2 3642   2.966   4.846   2.242
  915SOL     OW 3643   3.297   2.387   1.276
  915SOL    HW1 3644   3.208   2.428   1.260
  915SOL    HW2 3645   3.285   2.290   1.301
  916SOL     OW 3646   0.397   3.702   2.733
  916SOL    HW1 3647   0.446   3.717   2.819
  916SOL    HW2 3648   0.461   3.710   2.657
  917SOL     OW 3649   3.896   0.844   5.489
  917SOL    HW1 3650   3.961   0.783   5.442
  917SOL    HW2 3651   3.846   0.792   5.557
  918SOL     OW 3652   6.771   2.392   5.089
  918SOL    HW1 3653   6.842   2.397   5.159
  918SOL    HW2 3654   6.774   2.303   5.045
  919SOL     OW 3655   0.753   0.081   0.872
  919SOL    HW1 3656   0.659   0.114   0.886
  919SOL    HW2 3657   0.801   0.077   0.959
  920SOL     OW 3658   1.347   1.913   2.599
  920SOL    HW1 3659   1.339   1.862   2.513
  920SOL    HW2 3660   1.443   1.921   2.623
  921SOL     OW 3661   4.351   4.133   0.204
  921SOL    HW1 3662   4.268   4.172   0.164
  921SOL    HW2 3663   4.431   4.168   0.156
  922SOL     OW 3664   2.314   5.999   6.496
  922SOL    HW1 3665   2.273   5.909   6.513
  922SOL    HW2 3666   2.408   5.998   6.530
  923SOL     OW 3667   3.450   1.003   6.959
  923SOL    HW1 3668   3.526   1.067   6.969
  923SOL    HW2 3669   3.372   1.035   7.013
  924SOL     OW 3670   5.616   5.130   1.961
  924SOL    HW1 3671   5.681   5.201   1.986
  924SOL    HW2 3672   5.654   5.074   1.888
  925SOL     OW 3673   5.733   1.973   1.654
  925SOL    HW1 3674   5.709   1.880   1.681
  925SOL    HW2 3675   5.728   1.982   1.555
  926SOL     OW 3676   3.853   5.931   1.595
  926SOL    HW1 3677   3.795   5.982   1.659
  926SOL    HW2 3678   3.943   5.974   1.591
  927SOL     OW 3679   5.474   5.443   5.360
  927SOL    HW1 3680   5.396   5.502   5.382
  927SOL    HW2 3681   5.456   5.396   5.273
  928SOL     OW 3682   0.008   1.391   1.582
  928SOL    HW1 3683   7.009   1.339   1.666
  928SOL    HW2 3684   6.939   1.430   1.550
  929SOL     OW 3685   6.734   2.026   2.227
  929SOL    HW1 3686   6.686   2.113   2.233
  929SOL    HW2 3687   6.809   2.024   2.294
  930SOL     OW 3688   6.009   4.230   2.555
  930SOL    HW1 3689   5.926   4.273   2.591
  930SOL    HW2 3690   6.066   4.300   2.511
  931SOL     OW 3691   0.104   2.977   1.268
  931SOL    HW1 3692   0.105   3.062   1.320
  931SOL    HW2 3693   0.010   2.944   1.259
  932SOL     OW 3694   4.809   6.269   0.530
  932SOL    HW1 3695   4.887   6.331   0.529
  932SOL    HW2 3696   4.773   6.258   0.438
  933SOL     OW 3697   0.574   6.380   3.329
  933SOL    HW1 3698   0.580   6.344   3.421
  933SOL    HW2 3699   0.652   6.348   3.275
  934SOL     OW 3700   4.175   1.991   4.913
  934SOL    HW1 3701   4.157   1.918   4.847
  934SOL    HW2 3702   4.137   2.077   4.879
  935SOL     OW 3703   0.898   4.052   4.299
  935SOL    HW1 3704   0.974   4.004   4.255
  935SOL    HW2 3705   0.828   4.074   4.231
  936SOL     OW 3706   0.746   0.924   1.848
  936SOL    HW1 3707   0.749   0.977   1.764
  936SOL    HW2 3708   0.727   0.986   1.925
  937SOL     OW 3709   4.888   2.110   2.671
  937SOL    HW1 3710   4.878   2.018   2.708
  937SOL    HW2 3711   4.804   2.137   2.625
  938SOL     OW 3712   0.586   0.859   6.372
  938SOL    HW1 3713   0.637   0.943   6.392
  938SOL    HW2 3714   0.626   0.783   6.423
  939SOL     OW 3715   0.206   0.907   4.820
  939SOL    HW1 3716   0.294   0.938   4.783
  939SOL    HW2 3717   0.216   0.815   4.857
  940SOL     OW 3718   6.148   0.052   3.783
  940SOL    HW1 3719   6.162   0.089   3.691
  940SOL    HW2 3720   6.210   6.993   3.798
  941SOL     OW 3721   5.613   3.008   4.675
  941SOL    HW1 3722   5.597   3.012   4.577
  941SOL    HW2 3723   5.553   2.939   4.715
  942SOL     OW 3724   4.221   6.159   6.320
  942SOL    HW1 3725   4.203   6.085   6.384
  942SOL    HW2 3726   4.206   6.247   6.364
  943SOL     OW 3727   5.192   1.539   0.202
  943SOL    HW1 3728   5.214   1.596   0.281
  943SOL    HW2 3729   5.267   1.474   0.187
  944SOL     OW 3730   5.015   4.690   4.391
  944SOL    HW1 3731   5.069   4.759   4.343
  944SOL    HW2 3732   4.923   4.725   4.406
  945SOL     OW 3733   6.074   3.031   6.312
  945SOL    HW1 3734   6.054   3.089   6.233
  945SOL    HW2 3735   6.066   2.935   6.286
  946SOL     OW 3736   6.480   2.967   5.978
  946SOL    HW1 3737   6.577   2.946   5.965
  946SOL    HW2 3738   6.462   3.061   5.950
  947SOL     OW 3739   1.336   1.761   6.085
  947SOL    HW1 3740   1.354   1.794   6.177
  947SOL    HW2 3741   1.245   1.792   6.056
  948SOL     OW 3742   3.506   2.053   1.158
  948SOL    HW1 3743   3.447   2.096   1.090
  948SOL    HW2 3744   3.593   2.100   1.162
  949SOL     OW 3745   5.438   5.088   5.885
  949SOL    HW1 3746   5.373   5.125   5.818
  949SOL    HW2 3747   5.443   5.150   5.964
  950SOL     OW 3748   3.785   5.224   0.964
  950SOL    HW1 3749   3.715   5.275   0.915
  950SOL    HW2 3750   3.853   5.287   1.001
  951SOL     OW 3751   0.447   3.214   3.240
  951SOL    HW1 3752   0.366   3.266   3.266
  951SOL    HW2 3753   0.474   3.153   3.314
  952SOL     OW 3754   4.589   1.606   1.055
  952SOL    HW1 3755   4.659   1.574   1.119
  952SOL    HW2 3756   4.632   1.658   0.981
  953SOL     OW 3757   4.089   6.532   5.793
  953SOL    HW1 3758   4.058   6.515   5.700
  953SOL    HW2 3759   4.091   6.631   5.810
  954SOL     OW 3760   6.611   6.218   1.553
  954SOL    HW1 3761   6.563   6.132   1.573
  954SOL    HW2 3762   6.544   6.292   1.544
  955SOL     OW 3763   1.372   6.214   3.422
  955SOL    HW1 3764   1.363   6.269   3.505
  955SOL    HW2 3765   1.412   6.126   3.445
  956SOL     OW 3766   1.745   2.828   0.617
  956SOL    HW1 3767   1.818   2.896   0.609
  956SOL    HW2 3768   1.674   2.863   0.677
  957SOL     OW 3769   2.439   5.867   4.354
  957SOL    HW1 3770   2.503   5.936   4.319
  957SOL    HW2 3771   2.460   5.848   4.450
  958SOL     OW 3772   4.288   2.649   6.640
  958SOL    HW1 3773   4.247   2.630   6.550
  958SOL    HW2 3774   4.268   2.744   6.666
  959SOL     OW 3775   1.726   4.425   0.195
  959SOL    HW1 3776   1.711   4.468   0.284
  959SOL    HW2 3777   1.685   4.482   0.124
  960SOL     OW 3778   1.607   3.990   5.708
  960SOL    HW1 3779   1.599   4.089   5.699
  960SOL    HW2 3780   1.703   3.966   5.727
  961SOL     OW 3781   3.771   6.398   6.916
  961SOL    HW1 3782   3.679   6.364   6.896
  961SOL    HW2 3783   3.776   6.496   6.897
  962SOL     OW 3784   0.469   0.007   3.899
  962SOL    HW1 3785   0.533   6.968   3.952
  962SOL    HW2 3786   0.397   6.966   3.861
  963SOL     OW 3787   5.762   6.907   3.101
  963SOL    HW1 3788   5.690   6.958   3.148
  963SOL    HW2 3789   5.780   6.949   3.011
  964SOL     OW 3790   6.244   4.429   1.564
  964SOL    HW1 3791   6.323   4.381   1.526
  964SOL    HW2 3792   6.203   4.375   1.637
  965SOL     OW 3793   1.935   2.049   0.240
  965SOL    HW1 3794   1.940   1.950   0.242
  965SOL    HW2 3795   1.999   2.085   0.172
  966SOL     OW 3796   5.484   1.842   1.787
  966SOL    HW1 3797   5.463   1.926   1.836
  966SOL    HW2 3798   5.426   1.835   1.706
  967SOL     OW 3799   0.519   5.547   3.056
  967SOL    HW1 3800   0.428   5.531   3.018
  967SOL    HW2 3801   0.581   5.580   2.985
  968SOL     OW 3802   0.205   4.636   0.470
  968SOL    HW1 3803   0.155   4.719   0.444
  968SOL    HW2 3804   0.174   4.559   0.415
  969SOL     OW 3805   3.380   0.082   6.604
  969SOL    HW1 3806   3.422   0.099   6.693
  969SOL    HW2 3807   3.323   0.160   6.578
  970SOL     OW 3808   5.551   4.357   6.674
  970SOL    HW1 3809   5.576   4.264   6.700
  970SOL    HW2 3810   5.511   4.404   6.753
  971SOL     OW 3811   0.451   1.927   0.260
  971SOL    HW1 3812   0.431   1.833   0.284
  971SOL    HW2 3813   0.495   1.930   0.169
  972SOL     OW 3814   3.969   6.676   6.255
  972SOL    HW1 3815   4.050   6.687   6.197
  972SOL    HW2 3816   3.887   6.678   6.198
  973SOL     OW 3817   6.175   2.935   5.987
  973SOL    HW1 3818   6.150   3.021   6.033
  973SOL    HW2 3819   6.272   2.916   6.003
  974SOL     OW 3820   2.021   0.322   4.153
  974SOL    HW1 3821   1.983   0.237   4.117
  974SOL    HW2 3822   2.066   0.372   4.080
  975SOL     OW 3823   2.833   6.653   4.278
  975SOL    HW1 3824   2.824   6.732   4.339
  975SOL    HW2 3825   2.768   6.661   4.203
  976SOL     OW 3826   0.238   4.972   4.298
  976SOL    HW1 3827   0.245   4.976   4.199
  976SOL    HW2 3828   0.322   4.933   4.336
  977SOL     OW 3829   0.860   2.373   2.063
  977SOL    HW1 3830   0.949   2.415   2.042
  977SOL    HW2 3831   0.866   2.275   2.049
  978SOL     OW 3832   6.019   2.763   3.586
  978SOL    HW1 3833   5.956   2.832   3.621
  978SOL    HW2 3834   6.102   2.763   3.641
  979SOL     OW 3835   5.821   1.318   2.642
  979SOL    HW1 3836   5.875   1.237   2.619
  979SOL    HW2 3837   5.776   1.305   2.730
  980SOL     OW 3838   6.174   5.801   5.258
  980SOL    HW1 3839   6.197   5.813   5.354
  980SOL    HW2 3840   6.146   5.707   5.241
  981SOL     OW 3841   6.201   3.184   0.016
  981SOL    HW1 3842   6.183   3.209   0.111
  981SOL    HW2 3843   6.127   3.217   6.975
  982SOL     OW 3844   1.638   4.878   6.860
  982SOL    HW1 3845   1.677   4.864   6.950
  982SOL    HW2 3846   1.560   4.940   6.866
  983SOL     OW 3847   5.856   1.502   3.404
  983SOL    HW1 3848   5.932   1.566   3.391
  983SOL    HW2 3849   5.872   1.447   3.486
  984SOL     OW 3850   4.863   3.337   5.167
  984SOL    HW1 3851   4.826   3.284   5.243
  984SOL    HW2 3852   4.792   3.399   5.132
  985SOL     OW 3853   2.306   4.525   0.111
  985SOL    HW1 3854   2.375   4.471   0.159
  985SOL    HW2 3855   2.291   4.487   0.019
  986SOL     OW 3856   5.295   4.239   5.067
  986SOL    HW1 3857   5.368   4.283   5.016
  986SOL    HW2 3858   5.326   4.220   5.161
  987SOL     OW 3859   2.612   1.086   2.923
  987SOL    HW1 3860   2.689   1.114   2.865
  987SOL    HW2 3861   2.630   1.113   3.017
  988SOL     OW 3862   3.795   3.557   1.392
  988SOL    HW1 3863   3.754   3.611   1.465
  988SOL    HW2 3864   3.835   3.474   1.431
  989SOL     OW 3865   1.143   1.133   4.676
  989SOL    HW1 3866   1.044   1.129   4.691
  989SOL    HW2 3867   1.186   1.055   4.721
  990SOL     OW 3868   4.560   5.965   2.162
  990SOL    HW1 3869   4.611   5.884   2.190
  990SOL    HW2 3870   4.533   6.018   2.242
  991SOL     OW 3871   6.148   1.657   6.072
  991SOL    HW1 3872   6.075   1.606   6.119
  991SOL    HW2 3873   6.191   1.598   6.004
  992SOL     OW 3874   0.126   2.715   0.716
  992SOL    HW1 3875   0.125   2.619   0.686
  992SOL    HW2 3876   0.197   2.764   0.666
  993SOL     OW 3877   4.345   6.678   4.050
  993SOL    HW1 3878   4.285   6.610   4.009
  993SOL    HW2 3879   4.438   6.667   4.015
  994SOL     OW 3880   2.934   3.750   3.689
  994SOL    HW1 3881   2.925   3.820   3.761
  994SOL    HW2 3882   2.874   3.673   3.709
  995SOL     OW 3883   1.386   1.702   4.751
  995SOL    HW1 3884   1.429   1.681   4.663
  995SOL    HW2 3885   1.428   1.784   4.791
  996SOL     OW 3886   2.179   3.103   0.127
  996SOL    HW1 3887   2.113   3.160   0.080
  996SOL    HW2 3888   2.267   3.107   0.080
  997SOL     OW 3889   6.915   1.015   0.719
  997SOL    HW1 3890   6.903   1.084   0.648
  997SOL    HW2 3891   6.870   1.046   0.803
  998SOL     OW 3892   4.839   6.561   3.467
  998SOL    HW1 3893   4.839   6.475   3.519
  998SOL    HW2 3894   4.930   6.603   3.473
  999SOL     OW 3895   6.576   4.658   6.493
  999SOL    HW1 3896   6.513   4.620   6.425
  999SOL    HW2 3897   6.572   4.604   6.577
 1000SOL     OW 3898   3.664   1.667   5.451
 1000SOL    HW1 3899   3.636   1.579   5.413
 1000SOL    HW2 3900   3.608   1.740   5.411
 1001SOL     OW 3901   4.771   1.009   4.767
 1001SOL    HW1 3902   4.743   0.960   4.684
 1001SOL    HW2 3903   4.836   1.081   4.742
 1002SOL     OW 3904   0.133   0.887   0.706
 1002SOL    HW1 3905   0.196   0.910   0.780
 1002SOL    HW2 3906   0.047   0.937   0.718
 1003SOL     OW 3907   4.488   5.196   2.338
 1003SOL    HW1 3908   4.488   5.096   2.337
 1003SOL    HW2 3909   4.402   5.229   2.375
 1004SOL     OW 3910   6.048   6.247   6.708
 1004SOL    HW1 3911   6.121   6.281   6.768
 1004SOL    HW2 3912   5.981   6.197   6.763
 1005SOL     OW 3913   5.376   6.447   3.149
 1005SOL    HW1 3914   5.426   6.504   3.084
 1005SOL    HW2 3915   5.441   6.399   3.209
 1006SOL     OW 3916   1.744   5.834   0.111
 1006SOL    HW1 3917   1.768   5.766   0.180
 1006SOL    HW2 3918   1.728   5.788   0.024
 1007SOL     OW 3919   6.055   1.926   2.579
 1007SOL    HW1 3920   5.961   1.903   2.556
 1007SOL    HW2 3921   6.058   1.978   2.664
 1008SOL     OW 3922   3.582   1.050   5.216
 1008SOL    HW1 3923   3.486   1.064   5.239
 1008SOL    HW2 3924   3.599   1.082   5.123
 1009SOL     OW 3925   3.018   6.381   5.508
 1009SOL    HW1 3926   2.928   6.391   5.549
 1009SOL    HW2 3927   3.031   6.287   5.477
 1010SOL     OW 3928   4.867   6.322   5.563
 1010SOL    HW1 3929   4.916   6.299   5.647
 1010SOL    HW2 3930   4.841   6.418   5.564
 1011SOL     OW 3931   2.660   5.084   4.228
 1011SOL    HW1 3932   2.712   5.169   4.238
 1011SOL    HW2 3933   2.686   5.020   4.301
 1012SOL     OW 3934   2.790   6.205   0.887
 1012SOL    HW1 3935   2.877   6.223   0.933
 1012SOL    HW2 3936   2.715   6.220   0.950
 1013SOL     OW 3937   0.575   0.119   0.173
 1013SOL    HW1 3938   0.500   0.066   0.212
 1013SOL    HW2 3939   0.541   0.174   0.096
 1014SOL     OW 3940   5.974   6.751   6.802
 1014SOL    HW1 3941   5.986   6.722   6.707
 1014SOL    HW2 3942   6.030   6.832   6.819
 1015SOL     OW 3943   2.621   7.010   4.699
 1015SOL    HW1 3944   2.674   6.986   4.780
 1015SOL    HW2 3945   2.682   0.025   4.627
 1016SOL     OW 3946   4.240   3.292   1.812
 1016SOL    HW1 3947   4.183   3.224   1.859
 1016SOL    HW2 3948   4.303   3.245   1.750
 1017SOL     OW 3949   4.851   6.887   6.259
 1017SOL    HW1 3950   4.845   6.846   6.168
 1017SOL    HW2 3951   4.766   6.935   6.280
 1018SOL     OW 3952   1.090   1.456   1.428
 1018SOL    HW1 3953   1.057   1.362   1.428
 1018SOL    HW2 3954   1.056   1.504   1.509
 1019SOL     OW 3955   5.769   0.550   0.703
 1019SOL    HW1 3956   5.843   0.617   0.709
 1019SOL    HW2 3957   5.707   0.575   0.629
 1020SOL     OW 3958   4.084   1.765   1.521
 1020SOL    HW1 3959   4.135   1.833   1.573
 1020SOL    HW2 3960   4.141   1.685   1.506
 1021SOL     OW 3961   5.639   1.231   1.634
 1021SOL    HW1 3962   5.712   1.283   1.678
 1021SOL    HW2 3963   5.558   1.288   1.625
 1022SOL     OW 3964   2.885   3.640   0.085
 1022SOL    HW1 3965   2.881   3.624   0.184
 1022SOL    HW2 3966   2.808   3.698   0.057
 1023SOL     OW 3967   6.956   1.204   4.140
 1023SOL    HW1 3968   0.026   1.249   4.159
 1023SOL    HW2 3969   6.952   1.178   4.043
 1024SOL     OW 3970   6.444   2.383   4.020
 1024SOL    HW1 3971   6.476   2.454   4.083
 1024SOL    HW2 3972   6.345   2.372   4.031
 1025SOL     OW 3973   2.352   4.458   1.405
 1025SOL    HW1 3974   2.293   4.377   1.396
 1025SOL    HW2 3975   2.330   4.506   1.490
 1026SOL     OW 3976   0.461   2.684   6.586
 1026SOL    HW1 3977   0.451   2.653   6.492
 1026SOL    HW2 3978   0.449   2.784   6.590
 1027SOL     OW 3979   1.805   4.944   0.686
 1027SOL    HW1 3980   1.821   4.903   0.776
 1027SOL    HW2 3981   1.726   5.005   0.690
 1028SOL     OW 3982   0.459   5.473   6.676
 1028SOL    HW1 3983   0.372   5.505   6.640
 1028SOL    HW2 3984   0.495   5.541   6.740
 1029SOL     OW 3985   4.259   0.947   4.363
 1029SOL    HW1 3986   4.245   0.848   4.360
 1029SOL    HW2 3987   4.186   0.992   4.311
 1030SOL     OW 3988   4.390   4.790   4.459
 1030SOL    HW1 3989   4.317   4.767   4.523
 1030SOL    HW2 3990   4.446   4.708   4.442
 1031SOL     OW 3991   2.378   5.852   1.409
 1031SOL    HW1 3992   2.337   5.921   1.349
 1031SOL    HW2 3993   2.323   5.768   1.405
 1032SOL     OW 3994   0.907   2.102   4.940
 1032SOL    HW1 3995   0.953   2.157   5.011
 1032SOL    HW2 3996   0.883   2.160   4.863
 1033SOL     OW 3997   3.001   0.269   2.376
 1033SOL    HW1 3998   3.043   0.322   2.301
 1033SOL    HW2 3999   3.045   0.179   2.382
 1034SOL     OW 4000   0.079   5.377   2.162
 1034SOL    HW1 4001   0.110   5.284   2.141
 1034SOL    HW2 4002   0.146   5.443   2.127
 1035SOL     OW 4003   3.209   2.135   3.439
 1035SOL    HW1 4004   3.271   2.148   3.362
 1035SOL    HW2 4005   3.206   2.038   3.464
 1036SOL     OW 4006   4.553   6.554   6.629
 1036SOL    HW1 4007   4.623   6.621   6.654
 1036SOL    HW2 4008   4.569   6.469   6.678
 1037SOL     OW 4009   3.636   1.014   5.998
 1037SOL    HW1 4010   3.701   0.993   5.924
 1037SOL    HW2 4011   3.545   1.027   5.960
 1038SOL     OW 4012   3.220   1.681   4.934
 1038SOL    HW1 4013   3.161   1.612   4.894
 1038SOL    HW2 4014   3.181   1.772   4.917
 1039SOL     OW 4015   5.232   1.712   2.157
 1039SOL    HW1 4016   5.141   1.686   2.189
 1039SOL    HW2 4017   5.241   1.812   2.158
 1040SOL     OW 4018   5.949   4.868   4.859
 1040SOL    HW1 4019   6.004   4.932   4.912
 1040SOL    HW2 4020   5.852   4.886   4.875
 1041SOL     OW 4021   1.520   6.769   5.038
 1041SOL    HW1 4022   1.437   6.713   5.033
 1041SOL    HW2 4023   1.495   6.865   5.045
 1042SOL     OW 4024   4.604   4.769   0.485
 1042SOL    HW1 4025   4.520   4.749   0.535
 1042SOL    HW2 4026   4.634   4.688   0.436
 1043SOL     OW 4027   4.482   0.266   6.199
 1043SOL    HW1 4028   4.557   0.203   6.219
 1043SOL    HW2 4029   4.398   0.231   6.241
 1044SOL     OW 4030   4.046   3.902   4.043
 1044SOL    HW1 4031   4.042   3.831   3.973
 1044SOL    HW2 4032   4.137   3.943   4.043
 1045SOL     OW 4033   1.856   1.736   2.575
 1045SOL    HW1 4034   1.891   1.752   2.483
 1045SOL    HW2 4035   1.915   1.781   2.641
 1046SOL     OW 4036   2.647   0.921   2.330
 1046SOL    HW1 4037   2.733   0.871   2.315
 1046SOL    HW2 4038   2.665   1.019   2.328
 1047SOL     OW 4039   0.381   6.464   2.136
 1047SOL    HW1 4040   0.465   6.420   2.105
 1047SOL    HW2 4041   0.378   6.464   2.236
 1048SOL     OW 4042   6.971   3.500   5.174
 1048SOL    HW1 4043   0.013   3.464   5.103
 1048SOL    HW2 4044   6.888   3.538   5.132
 1049SOL     OW 4045   0.352   3.778   5.807
 1049SOL    HW1 4046   0.275   3.744   5.754
 1049SOL    HW2 4047   0.435   3.729   5.780
 1050SOL     OW 4048   3.004   0.324   1.697
 1050SOL    HW1 4049   3.016   0.228   1.723
 1050SOL    HW2 4050   2.962   0.328   1.607
 1051SOL     OW 4051   5.227   3.613   2.278
 1051SOL    HW1 4052   5.199   3.556   2.201
 1051SOL    HW2 4053   5.324   3.598   2.297
 1052SOL     OW 4054   2.635   6.533   3.732
 1052SOL    HW1 4055   2.610   6.630   3.733
 1052SOL    HW2 4056   2.628   6.498   3.639
 1053SOL     OW 4057   3.606   5.369   2.930
 1053SOL    HW1 4058   3.509   5.383   2.952
 1053SOL    HW2 4059   3.648   5.311   2.999
 1054SOL     OW 4060   3.550   5.948   5.527
 1054SOL    HW1 4061   3.510   6.012   5.461
 1054SOL    HW2 4062   3.587   5.998   5.605
 1055SOL     OW 4063   3.810   4.938   4.360
 1055SOL    HW1 4064   3.762   4.946   4.447
 1055SOL    HW2 4065   3.879   4.866   4.367
 1056SOL     OW 4066   2.806   5.743   0.391
 1056SOL    HW1 4067   2.791   5.788   0.479
 1056SOL    HW2 4068   2.901   5.756   0.363
 1057SOL     OW 4069   3.805   3.841   1.452
 1057SOL    HW1 4070   3.851   3.855   1.363
 1057SOL    HW2 4071   3.869   3.799   1.516
 1058SOL     OW 4072   2.365   0.345   2.488
 1058SOL    HW1 4073   2.441   0.402   2.456
 1058SOL    HW2 4074   2.279   0.388   2.462
 1059SOL     OW 4075   4.211   6.752   0.861
 1059SOL    HW1 4076   4.237   6.848   0.856
 1059SOL    HW2 4077   4.278   6.696   0.813
 1060SOL     OW 4078   3.352   1.771   3.702
 1060SOL    HW1 4079   3.361   1.827   3.784
 1060SOL    HW2 4080   3.308   1.684   3.726
 1061SOL     OW 4081   2.538   5.285   1.097
 1061SOL    HW1 4082   2.584   5.329   1.019
 1061SOL    HW2 4083   2.449   5.250   1.067
 1062SOL     OW 4084   5.484   3.957   4.834
 1062SOL    HW1 4085   5.472   3.951   4.734
 1062SOL    HW2 4086   5.394   3.961   4.878
 1063SOL     OW 4087   3.895   2.136   5.995
 1063SOL    HW1 4088   3.840   2.061   6.030
 1063SOL    HW2 4089   3.968   2.101   5.937
 1064SOL     OW 4090   0.792   3.150   2.307
 1064SOL    HW1 4091   0.847   3.107   2.379
 1064SOL    HW2 4092   0.707   3.099   2.295
 1065SOL     OW 4093   3.877   5.636   0.179
 1065SOL    HW1 4094   3.851   5.649   0.084
 1065SOL    HW2 4095   3.944   5.705   0.206
 1066SOL     OW 4096   5.626   6.653   3.497
 1066SOL    HW1 4097   5.569   6.664   3.416
 1066SOL    HW2 4098   5.682   6.571   3.488
 1067SOL     OW 4099   3.422   4.571   0.691
 1067SOL    HW1 4100   3.449   4.485   0.735
 1067SOL    HW2 4101   3.479   4.645   0.727
 1068SOL     OW 4102   1.056   5.435   2.152
 1068SOL    HW1 4103   1.085   5.498   2.224
 1068SOL    HW2 4104   1.137   5.401   2.104
 1069SOL     OW 4105   3.788   3.992   2.986
 1069SOL    HW1 4106   3.771   4.083   3.023
 1069SOL    HW2 4107   3.716   3.969   2.920
 1070SOL     OW 4108   1.220   6.445   0.471
 1070SOL    HW1 4109   1.221   6.465   0.373
 1070SOL    HW2 4110   1.146   6.495   0.515
 1071SOL     OW 4111   4.565   5.584   3.741
 1071SOL    HW1 4112   4.596   5.489   3.739
 1071SOL    HW2 4113   4.629   5.639   3.794
 1072SOL     OW 4114   4.373   5.511   3.498
 1072SOL    HW1 4115   4.406   5.560   3.579
 1072SOL    HW2 4116   4.428   5.536   3.419
 1073SOL     OW 4117   2.868   5.666   3.610
 1073SOL    HW1 4118   2.824   5.622   3.532
 1073SOL    HW2 4119   2.832   5.758   3.622
 1074SOL     OW 4120   2.436   5.163   3.807
 1074SOL    HW1 4121   2.511   5.169   3.741
 1074SOL    HW2 4122   2.462   5.105   3.883
 1075SOL     OW 4123   0.659   4.402   3.059
 1075SOL    HW1 4124   0.577   4.422   3.112
 1075SOL    HW2 4125   0.712   4.330   3.103
 1076SOL     OW 4126   5.275   3.523   3.388
 1076SOL    HW1 4127   5.278   3.423   3.383
 1076SOL    HW2 4128   5.216   3.551   3.463
 1077SOL     OW 4129   3.848   0.988   2.184
 1077SOL    HW1 4130   3.887   0.898   2.202
 1077SOL    HW2 4131   3.819   0.994   2.088
 1078SOL     OW 4132   6.212   2.530   1.935
 1078SOL    HW1 4133   6.205   2.517   1.836
 1078SOL    HW2 4134   6.288   2.592   1.955
 1079SOL     OW 4135   1.733   4.936   2.929
 1079SOL    HW1 4136   1.771   5.009   2.985
 1079SOL    HW2 4137   1.636   4.922   2.953
 1080SOL     OW 4138   2.509   5.478   3.789
 1080SOL    HW1 4139   2.604   5.468   3.819
 1080SOL    HW2 4140   2.503   5.461   3.691
 1081SOL     OW 4141   1.378   0.624   0.715
 1081SOL    HW1 4142   1.317   0.661   0.645
 1081SOL    HW2 4143   1.472   0.622   0.681
 1082SOL     OW 4144   1.867   0.761   1.206
 1082SOL    HW1 4145   1.919   0.838   1.170
 1082SOL    HW2 4146   1.791   0.796   1.261
 1083SOL     OW 4147   3.519   3.501   1.640
 1083SOL    HW1 4148   3.613   3.534   1.644
 1083SOL    HW2 4149   3.462   3.570   1.594
 1084SOL     OW 4150   6.178   4.317   1.805
 1084SOL    HW1 4151   6.145   4.396   1.857
 1084SOL    HW2 4152   6.150   4.233   1.850
 1085SOL     OW 4153   1.903   5.982   3.504
 1085SOL    HW1 4154   1.947   6.054   3.449
 1085SOL    HW2 4155   1.960   5.900   3.503
 1086SOL     OW 4156   2.650   6.317   2.185
 1086SOL    HW1 4157   2.735   6.335   2.135
 1086SOL    HW2 4158   2.633   6.219   2.187
 1087SOL     OW 4159   3.648   3.033   5.312
 1087SOL    HW1 4160   3.551   3.043   5.286
 1087SOL    HW2 4161   3.660   2.946   5.360
 1088SOL     OW 4162   6.767   5.284   2.443
 1088SOL    HW1 4163   6.731   5.206   2.392
 1088SOL    HW2 4164   6.692   5.335   2.484
 1089SOL     OW 4165   7.016   1.015   3.525
 1089SOL    HW1 4166   6.981   0.940   3.580
 1089SOL    HW2 4167   6.955   1.030   3.447
 1090SOL     OW 4168   3.186   2.142   6.740
 1090SOL    HW1 4169   3.238   2.073   6.690
 1090SOL    HW2 4170   3.090   2.138   6.713
 1091SOL     OW 4171   1.331   1.960   5.903
 1091SOL    HW1 4172   1.276   1.923   5.829
 1091SOL    HW2 4173   1.368   1.885   5.958
 1092SOL     OW 4174   3.004   4.828   1.131
 1092SOL    HW1 4175   2.978   4.800   1.038
 1092SOL    HW2 4176   3.035   4.923   1.130
 1093SOL     OW 4177   0.308   2.040   1.433
 1093SOL    HW1 4178   0.273   2.109   1.369
 1093SOL    HW2 4179   0.249   2.037   1.514
 1094SOL     OW 4180   0.744   5.653   2.872
 1094SOL    HW1 4181   0.735   5.576   2.809
 1094SOL    HW2 4182   0.731   5.739   2.822
 1095SOL     OW 4183   1.692   3.236   5.425
 1095SOL    HW1 4184   1.749   3.188   5.358
 1095SOL    HW2 4185   1.604   3.259   5.384
 1096SOL     OW 4186   3.952   3.001   2.350
 1096SOL    HW1 4187   4.018   3.018   2.276
 1096SOL    HW2 4188   3.898   3.083   2.366
 1097SOL     OW 4189   2.876   5.406   5.240
 1097SOL    HW1 4190   2.923   5.321   5.216
 1097SOL    HW2 4191   2.878   5.418   5.340
 1098SOL     OW 4192   2.659   0.647   2.857
 1098SOL    HW1 4193   2.660   0.558   2.811
 1098SOL    HW2 4194   2.588   0.704   2.816
 1099SOL     OW 4195   3.374   0.445   2.450
 1099SOL    HW1 4196   3.291   0.494   2.425
 1099SOL    HW2 4197   3.453   0.490   2.406
 1100SOL     OW 4198   6.893   0.491   0.423
 1100SOL    HW1 4199   6.817   0.555   0.436
 1100SOL    HW2 4200   6.868   0.423   0.354
 1101SOL     OW 4201   6.160   4.304   1.028
 1101SOL    HW1 4202   6.232   4.265   1.085
 1101SOL    HW2 4203   6.163   4.262   0.937
 1102SOL     OW 4204   6.410   4.074   4.186
 1102SOL    HW1 4205   6.449   3.984   4.205
 1102SOL    HW2 4206   6.436   4.138   4.258
 1103SOL     OW 4207   0.663   2.346   6.703
 1103SOL    HW1 4208   0.723   2.424   6.721
 1103SOL    HW2 4209   0.714   2.261   6.718
 1104SOL     OW 4210   3.194   5.439   5.299
 1104SOL    HW1 4211   3.124   5.385   5.346
 1104SOL    HW2 4212   3.167   5.452   5.203
 1105SOL     OW 4213   4.369   5.804   0.815
 1105SOL    HW1 4214   4.448   5.765   0.861
 1105SOL    HW2 4215   4.304   5.839   0.883
 1106SOL     OW 4216   0.869   2.133   6.522
 1106SOL    HW1 4217   0.813   2.192   6.463
 1106SOL    HW2 4218   0.818   2.110   6.605
 1107SOL     OW 4219   6.660   6.643   1.656
 1107SOL    HW1 4220   6.632   6.650   1.560
 1107SOL    HW2 4221   6.578   6.632   1.713
 1108SOL     OW 4222   1.194   0.946   0.278
 1108SOL    HW1 4223   1.200   0.849   0.253
 1108SOL    HW2 4224   1.154   0.998   0.202
 1109SOL     OW 4225   4.048   1.942   3.215
 1109SOL    HW1 4226   4.067   1.933   3.312
 1109SOL    HW2 4227   4.117   1.893   3.162
 1110SOL     OW 4228   3.615   3.766   3.127
 1110SOL    HW1 4229   3.561   3.816   3.195
 1110SOL    HW2 4230   3.587   3.670   3.126
 1111SOL     OW 4231   4.066   6.970   6.800
 1111SOL    HW1 4232   3.991   6.945   6.861
 1111SOL    HW2 4233   4.092   6.891   6.744
 1112SOL     OW 4234   0.975   1.362   2.492
 1112SOL    HW1 4235   0.941   1.320   2.577
 1112SOL    HW2 4236   0.909   1.430   2.460
 1113SOL     OW 4237   0.228   4.402   1.729
 1113SOL    HW1 4238   0.221   4.459   1.811
 1113SOL    HW2 4239   0.178   4.317   1.742
 1114SOL     OW 4240   5.834   1.030   5.606
 1114SOL    HW1 4241   5.770   0.957   5.585
 1114SOL    HW2 4242   5.928   0.995   5.605
 1115SOL     OW 4243   1.875   4.785   0.335
 1115SOL    HW1 4244   1.867   4.882   0.359
 1115SOL    HW2 4245   1.957   4.747   0.378
 1116SOL     OW 4246   3.093   6.449   6.530
 1116SOL    HW1 4247   3.044   6.365   6.508
 1116SOL    HW2 4248   3.181   6.425   6.573
 1117SOL     OW 4249   3.048   2.608   0.684
 1117SOL    HW1 4250   3.086   2.515   0.687
 1117SOL    HW2 4251   3.122   2.674   0.699
 1118SOL     OW 4252   2.018   2.257   1.240
 1118SOL    HW1 4253   1.981   2.182   1.185
 1118SOL    HW2 4254   2.060   2.324   1.178
 1119SOL     OW 4255   3.052   3.168   3.609
 1119SOL    HW1 4256   3.095   3.133   3.693
 1119SOL    HW2 4257   3.087   3.117   3.531
 1120SOL     OW 4258   3.117   1.397   3.155
 1120SOL    HW1 4259   3.120   1.300   3.179
 1120SOL    HW2 4260   3.203   1.423   3.111
 1121SOL     OW 4261   4.763   4.128   2.814
 1121SOL    HW1 4262   4.839   4.192   2.805
 1121SOL    HW2 4263   4.677   4.178   2.807
 1122SOL     OW 4264   4.512   5.114   6.744
 1122SOL    HW1 4265   4.480   5.208   6.750
 1122SOL    HW2 4266   4.604   5.107   6.783
 1123SOL     OW 4267   3.767   0.559   2.120
 1123SOL    HW1 4268   3.840   0.564   2.053
 1123SOL    HW2 4269   3.799   0.510   2.201
 1124SOL     OW 4270   2.581   4.754   3.454
 1124SOL    HW1 4271   2.623   4.782   3.368
 1124SOL    HW2 4272   2.549   4.835   3.503
 1125SOL     OW 4273   3.228   4.632   5.494
 1125SOL    HW1 4274   3.182   4.563   5.439
 1125SOL    HW2 4275   3.171   4.714   5.500
 1126SOL     OW 4276   6.298   0.641   2.178
 1126SOL    HW1 4277   6.237   0.691   2.239
 1126SOL    HW2 4278   6.389   0.682   2.182
 1127SOL     OW 4279   3.048   5.580   5.833
 1127SOL    HW1 4280   2.959   5.591   5.788
 1127SOL    HW2 4281   3.113   5.540   5.769
 1128SOL     OW 4282   2.395   1.729   5.321
 1128SOL    HW1 4283   2.419   1.814   5.274
 1128SOL    HW2 4284   2.471   1.664   5.314
 1129SOL     OW 4285   3.986   5.761   6.340
 1129SOL    HW1 4286   4.038   5.679   6.318
 1129SOL    HW2 4287   3.905   5.737   6.393
 1130SOL     OW 4288   1.100   4.806   5.265
 1130SOL    HW1 4289   1.092   4.708   5.248
 1130SOL    HW2 4290   1.049   4.830   5.348
 1131SOL     OW 4291   0.974   3.899   5.715
 1131SOL    HW1 4292   0.956   3.897   5.616
 1131SOL    HW2 4293   0.966   3.992   5.748
 1132SOL     OW 4294   5.141   6.536   4.701
 1132SOL    HW1 4295   5.147   6.440   4.673
 1132SOL    HW2 4296   5.058   6.577   4.663
 1133SOL     OW 4297   6.998   2.111   0.106
 1133SOL    HW1 4298   0.061   2.168   0.120
 1133SOL    HW2 4299   6.991   2.044   0.180
 1134SOL     OW 4300   0.150   3.380   5.854
 1134SOL    HW1 4301   0.104   3.468   5.843
 1134SOL    HW2 4302   0.184   3.371   5.948
 1135SOL     OW 4303   6.797   1.953   3.736
 1135SOL    HW1 4304   6.870   1.963   3.804
 1135SOL    HW2 4305   6.838   1.942   3.645
 1136SOL     OW 4306   3.703   5.318   3.922
 1136SOL    HW1 4307   3.789   5.324   3.972
 1136SOL    HW2 4308   3.698   5.230   3.873
 1137SOL     OW 4309   0.673   0.553   6.712
 1137SOL    HW1 4310   0.632   0.463   6.725
 1137SOL    HW2 4311   0.740   0.570   6.783
 1138SOL     OW 4312   1.091   2.363   5.847
 1138SOL    HW1 4313   1.069   2.433   5.915
 1138SOL    HW2 4314   1.071   2.398   5.755
 1139SOL     OW 4315   6.996   0.048   2.911
 1139SOL    HW1 4316   6.953   0.065   2.822
 1139SOL    HW2 4317   6.929   0.059   2.984
 1140SOL     OW 4318   4.449   2.109   3.296
 1140SOL    HW1 4319   4.387   2.031   3.298
 1140SOL    HW2 4320   4.434   2.161   3.212
 1141SOL     OW 4321   0.479   0.104   6.139
 1141SOL    HW1 4322   0.402   0.105   6.203
 1141SOL    HW2 4323   0.534   0.022   6.154
 1142SOL     OW 4324   5.635   0.221   5.690
 1142SOL    HW1 4325   5.715   0.220   5.632
 1142SOL    HW2 4326   5.568   0.154   5.657
 1143SOL     OW 4327   5.467   2.714   1.406
 1143SOL    HW1 4328   5.379   2.753   1.379
 1143SOL    HW2 4329   5.458   2.614   1.415
 1144SOL     OW 4330   0.972   6.870   4.721
 1144SOL    HW1 4331   0.893   6.928   4.740
 1144SOL    HW2 4332   1.035   6.918   4.660
 1145SOL     OW 4333   2.996   5.155   5.203
 1145SOL    HW1 4334   2.993   5.128   5.106
 1145SOL    HW2 4335   3.008   5.073   5.259
 1146SOL     OW 4336   5.781   1.900   2.043
 1146SOL    HW1 4337   5.744   1.922   1.953
 1146SOL    HW2 4338   5.710   1.915   2.112
 1147SOL     OW 4339   6.687   3.845   2.449
 1147SOL    HW1 4340   6.596   3.846   2.492
 1147SOL    HW2 4341   6.730   3.756   2.465
 1148SOL     OW 4342   5.787   6.779   6.063
 1148SOL    HW1 4343   5.782   6.857   6.002
 1148SOL    HW2 4344   5.736   6.702   6.024
 1149SOL     OW 4345   4.939   3.458   2.613
 1149SOL    HW1 4346   5.009   3.504   2.668
 1149SOL    HW2 4347   4.879   3.526   2.571
 1150SOL     OW 4348   2.464   5.931   5.071
 1150SOL    HW1 4349   2.505   5.842   5.090
 1150SOL    HW2 4350   2.450   5.941   4.973
 1151SOL     OW 4351   2.072   5.314   0.679
 1151SOL    HW1 4352   2.154   5.272   0.640
 1151SOL    HW2 4353   1.996   5.304   0.615
 1152SOL     OW 4354   6.695   0.992   3.717
 1152SOL    HW1 4355   6.663   1.075   3.671
 1152SOL    HW2 4356   6.617   0.931   3.734
 1153SOL     OW 4357   1.660   4.504   2.228
 1153SOL    HW1 4358   1.594   4.434   2.254
 1153SOL    HW2 4359   1.671   4.570   2.302
 1154SOL     OW 4360   1.546   3.628   1.844
 1154SOL    HW1 4361   1.476   3.561   1.868
 1154SOL    HW2 4362   1.509   3.693   1.778
 1155SOL     OW 4363   4.964   0.959   2.192
 1155SOL    HW1 4364   5.053   0.919   2.210
 1155SOL    HW2 4365   4.973   1.033   2.125
 1156SOL     OW 4366   2.938   1.090   4.136
 1156SOL    HW1 4367   2.906   1.034   4.060
 1156SOL    HW2 4368   3.037   1.094   4.135
 1157SOL     OW 4369   1.936   3.556   3.901
 1157SOL    HW1 4370   1.895   3.505   3.977
 1157SOL    HW2 4371   1.876   3.631   3.875
 1158SOL     OW 4372   4.681   5.596   5.328
 1158SOL    HW1 4373   4.702   5.500   5.346
 1158SOL    HW2 4374   4.694   5.616   5.231
 1159SOL     OW 4375   6.078   4.102   3.018
 1159SOL    HW1 4376   6.158   4.049   2.988
 1159SOL    HW2 4377   6.012   4.040   3.061
 1160SOL     OW 4378   2.721   2.408   1.488
 1160SOL    HW1 4379   2.729   2.441   1.582
 1160SOL    HW2 4380   2.808   2.421   1.440
 1161SOL     OW 4381   4.028   1.447   3.051
 1161SOL    HW1 4382   4.106   1.504   3.024
 1161SOL    HW2 4383   4.060   1.355   3.074
 1162SOL     OW 4384   3.248   4.643   1.171
 1162SOL    HW1 4385   3.303   4.703   1.230
 1162SOL    HW2 4386   3.156   4.682   1.160
 1163SOL     OW 4387   4.753   6.422   3.698
 1163SOL    HW1 4388   4.766   6.335   3.651
 1163SOL    HW2 4389   4.657   6.450   3.689
 1164SOL     OW 4390   6.510   4.208   4.389
 1164SOL    HW1 4391   6.526   4.302   4.419
 1164SOL    HW2 4392   6.442   4.165   4.449
 1165SOL     OW 4393   0.250   5.117   1.748
 1165SOL    HW1 4394   0.274   5.065   1.666
 1165SOL    HW2 4395   0.183   5.187   1.725
 1166SOL     OW 4396   3.376   1.050   5.903
 1166SOL    HW1 4397   3.363   1.072   5.806
 1166SOL    HW2 4398   3.334   1.120   5.959
 1167SOL     OW 4399   4.356   1.584   5.536
 1167SOL    HW1 4400   4.344   1.490   5.504
 1167SOL    HW2 4401   4.452   1.598   5.562
 1168SOL     OW 4402   5.743   1.293   4.304
 1168SOL    HW1 4403   5.775   1.260   4.393
 1168SOL    HW2 4404   5.721   1.390   4.310
 1169SOL     OW 4405   2.228   2.344   1.055
 1169SOL    HW1 4406   2.233   2.284   0.975
 1169SOL    HW2 4407   2.291   2.310   1.125
 1170SOL     OW 4408   2.384   0.903   2.259
 1170SOL    HW1 4409   2.481   0.902   2.281
 1170SOL    HW2 4410   2.371   0.872   2.164
 1171SOL     OW 4411   4.436   0.514   0.970
 1171SOL    HW1 4412   4.353   0.567   0.981
 1171SOL    HW2 4413   4.414   0.425   0.929
 1172SOL     OW 4414   3.613   3.291   5.748
 1172SOL    HW1 4415   3.568   3.202   5.737
 1172SOL    HW2 4416   3.696   3.292   5.692
 1173SOL     OW 4417   5.834   5.908   6.519
 1173SOL    HW1 4418   5.813   5.926   6.615
 1173SOL    HW2 4419   5.859   5.993   6.473
 1174SOL     OW 4420   3.575   5.739   6.731
 1174SOL    HW1 4421   3.517   5.722   6.652
 1174SOL    HW2 4422   3.531   5.807   6.791
 1175SOL     OW 4423   0.137   5.197   4.896
 1175SOL    HW1 4424   0.117   5.222   4.802
 1175SOL    HW2 4425   0.095   5.108   4.916
 1176SOL     OW 4426   5.980   3.044   1.474
 1176SOL    HW1 4427   5.952   2.948   1.479
 1176SOL    HW2 4428   5.916   3.094   1.416
 1177SOL     OW 4429   6.735   2.800   5.255
 1177SOL    HW1 4430   6.777   2.804   5.164
 1177SOL    HW2 4431   6.681   2.883   5.271
 1178SOL     OW 4432   4.830   4.824   2.242
 1178SOL    HW1 4433   4.826   4.924   2.245
 1178SOL    HW2 4434   4.844   4.795   2.148
 1179SOL     OW 4435   1.371   5.259   6.415
 1179SOL    HW1 4436   1.406   5.177   6.461
 1179SOL    HW2 4437   1.281   5.241   6.378
 1180SOL     OW 4438   2.513   1.080   4.251
 1180SOL    HW1 4439   2.417   1.092   4.227
 1180SOL    HW2 4440   2.565   1.055   4.169
 1181SOL     OW 4441   1.168   4.114   2.062
 1181SOL    HW1 4442   1.123   4.097   2.150
 1181SOL    HW2 4443   1.159   4.210   2.037
 1182SOL     OW 4444   6.801   3.583   3.982
 1182SOL    HW1 4445   6.746   3.595   3.900
 1182SOL    HW2 4446   6.755   3.520   4.045
 1183SOL     OW 4447   4.313   6.450   0.999
 1183SOL    HW1 4448   4.356   6.490   0.919
 1183SOL    HW2 4449   4.326   6.351   0.997
 1184SOL     OW 4450   4.357   3.118   6.697
 1184SOL    HW1 4451   4.356   3.218   6.697
 1184SOL    HW2 4452   4.263   3.085   6.687
 1185SOL     OW 4453   3.445   1.711   6.530
 1185SOL    HW1 4454   3.490   1.673   6.610
 1185SOL    HW2 4455   3.500   1.692   6.448
 1186SOL     OW 4456   4.100   6.806   5.254
 1186SOL    HW1 4457   4.012   6.768   5.283
 1186SOL    HW2 4458   4.119   6.776   5.160
 1187SOL     OW 4459   0.406   2.653   5.020
 1187SOL    HW1 4460   0.403   2.561   5.058
 1187SOL    HW2 4461   0.445   2.716   5.087
 1188SOL     OW 4462   2.262   0.916   5.667
 1188SOL    HW1 4463   2.357   0.933   5.693
 1188SOL    HW2 4464   2.260   0.855   5.587
 1189SOL     OW 4465   0.622   1.631   1.447
 1189SOL    HW1 4466   0.553   1.667   1.384
 1189SOL    HW2 4467   0.599   1.658   1.540
 1190SOL     OW 4468   2.935   6.096   1.648
 1190SOL    HW1 4469   2.969   6.052   1.564
 1190SOL    HW2 4470   2.869   6.166   1.624
 1191SOL     OW 4471   1.770   3.981   1.777
 1191SOL    HW1 4472   1.806   3.892   1.804
 1191SOL    HW2 4473   1.678   3.993   1.814
 1192SOL     OW 4474   3.471   5.543   2.484
 1192SOL    HW1 4475   3.493   5.617   2.420
 1192SOL    HW2 4476   3.437   5.582   2.569
 1193SOL     OW 4477   2.849   2.274   3.864
 1193SOL    HW1 4478   2.749   2.273   3.865
 1193SOL    HW2 4479   2.882   2.254   3.772
 1194SOL     OW 4480   6.545   2.447   2.543
 1194SOL    HW1 4481   6.467   2.408   2.495
 1194SOL    HW2 4482   6.571   2.533   2.499
 1195SOL     OW 4483   4.168   0.498   6.781
 1195SOL    HW1 4484   4.125   0.526   6.867
 1195SOL    HW2 4485   4.147   0.564   6.710
 1196SOL     OW 4486   1.470   5.435   3.364
 1196SOL    HW1 4487   1.420   5.423   3.278
 1196SOL    HW2 4488   1.561   5.395   3.355
 1197SOL     OW 4489   3.763   4.866   0.018
 1197SOL    HW1 4490   3.829   4.863   0.093
 1197SOL    HW2 4491   3.747   4.961   7.009
 1198SOL     OW 4492   3.684   1.312   3.237
 1198SOL    HW1 4493   3.723   1.246   3.301
 1198SOL    HW2 4494   3.738   1.396   3.239
 1199SOL     OW 4495   3.467   3.968   3.976
 1199SOL    HW1 4496   3.476   3.939   3.881
 1199SOL    HW2 4497   3.500   3.896   4.036
 1200SOL     OW 4498   5.025   4.169   1.212
 1200SOL    HW1 4499   5.021   4.069   1.209
 1200SOL    HW2 4500   4.977   4.202   1.293
 1201SOL     OW 4501   2.016   1.670   5.726
 1201SOL    HW1 4502   2.035   1.709   5.636
 1201SOL    HW2 4503   2.102   1.649   5.772
 1202SOL     OW 4504   6.234   6.788   4.329
 1202SOL    HW1 4505   6.281   6.767   4.415
 1202SOL    HW2 4506   6.299   6.778   4.253
 1203SOL     OW 4507   5.358   6.939   2.203
 1203SOL    HW1 4508   5.438   6.927   2.144
 1203SOL    HW2 4509   5.375   7.012   2.269
 1204SOL     OW 4510   2.560   0.167   0.478
 1204SOL    HW1 4511   2.565   0.264   0.498
 1204SOL    HW2 4512   2.499   0.122   0.544
 1205SOL     OW 4513   1.092   2.665   6.494
 1205SOL    HW1 4514   1.099   2.622   6.584
 1205SOL    HW2 4515   1.182   2.701   6.468
 1206SOL     OW 4516   6.298   1.694   5.401
 1206SOL    HW1 4517   6.302   1.597   5.377
 1206SOL    HW2 4518   6.301   1.705   5.500
 1207SOL     OW 4519   6.410   6.142   5.893
 1207SOL    HW1 4520   6.398   6.103   5.984
 1207SOL    HW2 4521   6.338   6.110   5.833
 1208SOL     OW 4522   3.418   4.177   3.084
 1208SOL    HW1 4523   3.510   4.197   3.119
 1208SOL    HW2 4524   3.358   4.154   3.160
 1209SOL     OW 4525   6.806   3.388   4.905
 1209SOL    HW1 4526   6.854   3.475   4.892
 1209SOL    HW2 4527   6.790   3.345   4.816
 1210SOL     OW 4528   2.706   0.077   4.395
 1210SOL    HW1 4529   2.659   0.059   4.309
 1210SOL    HW2 4530   2.725   0.175   4.402
 1211SOL     OW 4531   6.743   3.597   3.547
 1211SOL    HW1 4532   6.659   3.584   3.495
 1211SOL    HW2 4533   6.807   3.652   3.494
 1212SOL     OW 4534   1.272   4.053   2.512
 1212SOL    HW1 4535   1.231   4.017   2.595
 1212SOL    HW2 4536   1.371   4.045   2.517
 1213SOL     OW 4537   6.480   3.660   4.994
 1213SOL    HW1 4538   6.443   3.668   4.902
 1213SOL    HW2 4539   6.578   3.642   4.990
 1214SOL     OW 4540   0.413   1.883   0.682
 1214SOL    HW1 4541   0.479   1.912   0.612
 1214SOL    HW2 4542   0.362   1.804   0.649
 1215SOL     OW 4543   0.643   0.288   1.907
 1215SOL    HW1 4544   0.670   0.200   1.948
 1215SOL    HW2 4545   0.556   0.277   1.859
 1216SOL     OW 4546   1.906   0.241   0.974
 1216SOL    HW1 4547   1.910   0.298   0.893
 1216SOL    HW2 4548   1.810   0.229   1.001
 1217SOL     OW 4549   1.627   2.678   3.156
 1217SOL    HW1 4550   1.549   2.694   3.095
 1217SOL    HW2 4551   1.606   2.601   3.217
 1218SOL     OW 4552   0.130   4.228   3.734
 1218SOL    HW1 4553   0.124   4.220   3.635
 1218SOL    HW2 4554   0.162   4.320   3.758
 1219SOL     OW 4555   1.384   6.096   2.653
 1219SOL    HW1 4556   1.328   6.144   2.586
 1219SOL    HW2 4557   1.332   6.080   2.736
 1220SOL     OW 4558   6.623   4.326   3.079
 1220SOL    HW1 4559   6.626   4.335   3.179
 1220SOL    HW2 4560   6.712   4.348   3.041
 1221SOL     OW 4561   4.576   4.839   7.015
 1221SOL    HW1 4562   4.631   4.763   0.032
 1221SOL    HW2 4563   4.618   4.925   0.024
 1222SOL     OW 4564   6.707   5.156   1.068
 1222SOL    HW1 4565   6.631   5.117   1.017
 1222SOL    HW2 4566   6.686   5.155   1.166
 1223SOL     OW 4567   0.853   4.291   5.049
 1223SOL    HW1 4568   0.898   4.269   5.135
 1223SOL    HW2 4569   0.821   4.386   5.051
 1224SOL     OW 4570   4.027   5.392   1.699
 1224SOL    HW1 4571   4.037   5.463   1.629
 1224SOL    HW2 4572   4.095   5.320   1.683
 1225SOL     OW 4573   5.342   1.720   6.527
 1225SOL    HW1 4574   5.408   1.785   6.490
 1225SOL    HW2 4575   5.257   1.767   6.549
 1226SOL     OW 4576   5.878   5.550   0.584
 1226SOL    HW1 4577   5.937   5.514   0.512
 1226SOL    HW2 4578   5.801   5.489   0.597
 1227SOL     OW 4579   6.051   4.410   0.680
 1227SOL    HW1 4580   5.967   4.437   0.633
 1227SOL    HW2 4581   6.114   4.488   0.683
 1228SOL     OW 4582   4.266   3.654   5.169
 1228SOL    HW1 4583   4.203   3.702   5.107
 1228SOL    HW2 4584   4.302   3.573   5.123
 1229SOL     OW 4585   1.770   5.469   2.045
 1229SOL    HW1 4586   1.854   5.416   2.033
 1229SOL    HW2 4587   1.791   5.556   2.090
 1230SOL     OW 4588   5.325   4.690   7.015
 1230SOL    HW1 4589   5.331   4.762   0.067
 1230SOL    HW2 4590   5.399   4.702   6.949
 1231SOL     OW 4591   2.099   0.669   0.935
 1231SOL    HW1 4592   2.054   0.706   0.854
 1231SOL    HW2 4593   2.198   0.670   0.923
 1232SOL     OW 4594   2.310   2.001   6.050
 1232SOL    HW1 4595   2.343   1.977   5.958
 1232SOL    HW2 4596   2.349   2.088   6.078
 1233SOL     OW 4597   0.142   5.188   4.603
 1233SOL    HW1 4598   0.072   5.117   4.606
 1233SOL    HW2 4599   0.146   5.227   4.511
 1234SOL     OW 4600   6.949   4.107   5.300
 1234SOL    HW1 4601   6.878   4.176   5.317
 1234SOL    HW2 4602   0.009   4.123   5.360
 1235SOL     OW 4603   6.652   5.129   6.958
 1235SOL    HW1 4604   6.577   5.187   6.989
 1235SOL    HW2 4605   6.636   5.035   6.989
 1236SOL     OW 4606   0.371   0.876   2.962
 1236SOL    HW1 4607   0.306   0.823   2.907
 1236SOL    HW2 4608   0.417   0.944   2.903
 1237SOL     OW 4609   0.313   0.464   5.358
 1237SOL    HW1 4610   0.374   0.441   5.282
 1237SOL    HW2 4611   0.355   0.536   5.413
 1238SOL     OW 4612   0.655   0.828   4.490
 1238SOL    HW1 4613   0.583   0.835   4.560
 1238SOL    HW2 4614   0.724   0.898   4.507
 1239SOL     OW 4615   4.866   4.981   3.421
 1239SOL    HW1 4616   4.796   4.991   3.349
 1239SOL    HW2 4617   4.823   4.993   3.510
 1240SOL     OW 4618   0.737   4.112   1.889
 1240SOL    HW1 4619   0.771   4.153   1.805
 1240SOL    HW2 4620   0.794   4.033   1.913
 1241SOL     OW 4621   3.321   5.820   6.090
 1241SOL    HW1 4622   3.286   5.789   6.178
 1241SOL    HW2 4623   3.402   5.878   6.106
 1242SOL     OW 4624   2.469   5.761   0.688
 1242SOL    HW1 4625   2.481   5.685   0.625
 1242SOL    HW2 4626   2.466   5.727   0.782
 1243SOL     OW 4627   0.737   4.384   4.082
 1243SOL    HW1 4628   0.793   4.453   4.035
 1243SOL    HW2 4629   0.648   4.377   4.036
 1244SOL     OW 4630   6.145   6.468   4.512
 1244SOL    HW1 4631   6.178   6.381   4.549
 1244SOL    HW2 4632   6.212   6.540   4.532
 1245SOL     OW 4633   4.377   0.084   1.684
 1245SOL    HW1 4634   4.281   0.086   1.657
 1245SOL    HW2 4635   4.406   7.007   1.697
 1246SOL     OW 4636   5.202   2.362   2.158
 1246SOL    HW1 4637   5.181   2.404   2.246
 1246SOL    HW2 4638   5.293   2.319   2.163
 1247SOL     OW 4639   4.470   6.510   2.729
 1247SOL    HW1 4640   4.562   6.548   2.733
 1247SOL    HW2 4641   4.450   6.459   2.812
 1248SOL     OW 4642   0.155   0.305   4.987
 1248SOL    HW1 4643   0.248   0.340   4.975
 1248SOL    HW2 4644   0.091   0.362   4.935
 1249SOL     OW 4645   6.468   6.757   0.323
 1249SOL    HW1 4646   6.458   6.837   0.264
 1249SOL    HW2 4647   6.394   6.692   0.305
 1250SOL     OW 4648   0.365   4.100   4.823
 1250SOL    HW1 4649   0.268   4.097   4.799
 1250SOL    HW2 4650   0.414   4.157   4.757
 1251SOL     OW 4651   1.972   0.404   3.272
 1251SOL    HW1 4652   1.983   0.467   3.195
 1251SOL    HW2 4653   2.038   0.329   3.264
 1252SOL     OW 4654   2.543   5.092   6.338
 1252SOL    HW1 4655   2.526   5.190   6.347
 1252SOL    HW2 4656   2.549   5.051   6.429
 1253SOL     OW 4657   3.438   5.073   0.717
 1253SOL    HW1 4658   3.445   5.084   0.618
 1253SOL    HW2 4659   3.487   4.991   0.746
 1254SOL     OW 4660   6.925   1.115   3.862
 1254SOL    HW1 4661   6.868   1.185   3.904
 1254SOL    HW2 4662   6.871   1.064   3.794
 1255SOL     OW 4663   5.679   2.060   6.684
 1255SOL    HW1 4664   5.690   1.997   6.760
 1255SOL    HW2 4665   5.605   2.028   6.625
 1256SOL     OW 4666   6.281   6.369   5.987
 1256SOL    HW1 4667   6.347   6.443   5.969
 1256SOL    HW2 4668   6.302   6.290   5.930
 1257SOL     OW 4669   7.000   6.285   2.158
 1257SOL    HW1 4670   0.056   6.300   2.091
 1257SOL    HW2 4671   0.015   6.222   2.229
 1258SOL     OW 4672   5.234   5.877   6.536
 1258SOL    HW1 4673   5.310   5.845   6.592
 1258SOL    HW2 4674   5.176   5.938   6.590
 1259SOL     OW 4675   6.176   6.843   4.929
 1259SOL    HW1 4676   6.243   6.792   4.984
 1259SOL    HW2 4677   6.087   6.799   4.937
 1260SOL     OW 4678   3.332   0.716   0.669
 1260SOL    HW1 4679   3.363   0.649   0.602
 1260SOL    HW2 4680   3.409   0.773   0.697
 1261SOL     OW 4681   0.704   4.058   5.036
 1261SOL    HW1 4682   0.676   4.026   4.945
 1261SOL    HW2 4683   0.763   4.137   5.027
 1262SOL     OW 4684   4.907   6.695   0.737
 1262SOL    HW1 4685   5.001   6.696   0.702
 1262SOL    HW2 4686   4.885   6.785   0.775
 1263SOL     OW 4687   6.995   1.352   1.005
 1263SOL    HW1 4688   0.031   1.314   1.081
 1263SOL    HW2 4689   6.946   1.433   1.036
 1264SOL     OW 4690   5.761   2.705   5.142
 1264SOL    HW1 4691   5.732   2.797   5.115
 1264SOL    HW2 4692   5.689   2.662   5.196
 1265SOL     OW 4693   5.700   5.486   4.230
 1265SOL    HW1 4694   5.644   5.517   4.153
 1265SOL    HW2 4695   5.764   5.416   4.199
 1266SOL     OW 4696   2.321   0.736   4.043
 1266SOL    HW1 4697   2.314   0.819   3.988
 1266SOL    HW2 4698   2.417   0.710   4.052
 1267SOL     OW 4699   0.171   4.672   2.307
 1267SOL    HW1 4700   0.119   4.635   2.231
 1267SOL    HW2 4701   0.247   4.610   2.328
 1268SOL     OW 4702   6.211   4.379   6.225
 1268SOL    HW1 4703   6.224   4.390   6.127
 1268SOL    HW2 4704   6.278   4.435   6.274
 1269SOL     OW 4705   1.291   3.463   5.837
 1269SOL    HW1 4706   1.383   3.428   5.818
 1269SOL    HW2 4707   1.259   3.516   5.759
 1270SOL     OW 4708   1.155   2.169   3.693
 1270SOL    HW1 4709   1.235   2.209   3.648
 1270SOL    HW2 4710   1.092   2.134   3.623
 1271SOL     OW 4711   5.163   3.798   3.069
 1271SOL    HW1 4712   5.120   3.834   2.986
 1271SOL    HW2 4713   5.096   3.746   3.122
 1272SOL     OW 4714   5.536   6.670   0.816
 1272SOL    HW1 4715   5.622   6.633   0.851
 1272SOL    HW2 4716   5.536   6.665   0.716
 1273SOL     OW 4717   2.521   6.474   4.495
 1273SOL    HW1 4718   2.567   6.530   4.564
 1273SOL    HW2 4719   2.434   6.441   4.531
 1274SOL     OW 4720   5.401   2.289   1.727
 1274SOL    HW1 4721   5.312   2.332   1.710
 1274SOL    HW2 4722   5.448   2.338   1.800
 1275SOL     OW 4723   3.678   1.214   3.718
 1275SOL    HW1 4724   3.671   1.127   3.767
 1275SOL    HW2 4725   3.608   1.277   3.753
 1276SOL     OW 4726   5.398   6.715   3.316
 1276SOL    HW1 4727   5.418   6.742   3.222
 1276SOL    HW2 4728   5.361   6.622   3.317
 1277SOL     OW 4729   0.602   1.842   4.816
 1277SOL    HW1 4730   0.538   1.901   4.767
 1277SOL    HW2 4731   0.696   1.875   4.802
 1278SOL     OW 4732   2.850   1.642   4.788
 1278SOL    HW1 4733   2.757   1.616   4.763
 1278SOL    HW2 4734   2.851   1.734   4.827
 1279SOL     OW 4735   1.862   5.041   0.426
 1279SOL    HW1 4736   1.870   5.012   0.521
 1279SOL    HW2 4737   1.841   5.139   0.423
 1280SOL     OW 4738   0.763   6.303   3.160
 1280SOL    HW1 4739   0.766   6.396   3.122
 1280SOL    HW2 4740   0.831   6.246   3.114
 1281SOL     OW 4741   0.910   6.467   4.052
 1281SOL    HW1 4742   0.844   6.478   4.126
 1281SOL    HW2 4743   0.924   6.554   4.006
 1282SOL     OW 4744   1.606   6.629   2.438
 1282SOL    HW1 4745   1.701   6.603   2.419
 1282SOL    HW2 4746   1.545   6.583   2.374
 1283SOL     OW 4747   5.537   4.589   4.964
 1283SOL    HW1 4748   5.448   4.605   5.007
 1283SOL    HW2 4749   5.610   4.605   5.031
 1284SOL     OW 4750   2.847   2.245   2.975
 1284SOL    HW1 4751   2.804   2.172   3.028
 1284SOL    HW2 4752   2.870   2.211   2.884
 1285SOL     OW 4753   6.040   2.373   5.756
 1285SOL    HW1 4754   6.042   2.357   5.854
 1285SOL    HW2 4755   5.969   2.316   5.714
 1286SOL     OW 4756   5.312   6.017   0.715
 1286SOL    HW1 4757   5.410   6.000   0.704
 1286SOL    HW2 4758   5.261   5.934   0.694
 1287SOL     OW 4759   6.051   3.209   6.102
 1287SOL    HW1 4760   6.107   3.291   6.111
 1287SOL    HW2 4761   5.985   3.221   6.028
 1288SOL     OW 4762   7.014   3.017   3.365
 1288SOL    HW1 4763   6.956   2.938   3.347
 1288SOL    HW2 4764   0.036   3.050   3.279
 1289SOL     OW 4765   0.173   5.077   2.954
 1289SOL    HW1 4766   0.137   5.060   3.046
 1289SOL    HW2 4767   0.271   5.097   2.960
 1290SOL     OW 4768   6.544   0.239   2.149
 1290SOL    HW1 4769   6.565   0.193   2.063
 1290SOL    HW2 4770   6.568   0.179   2.226
 1291SOL     OW 4771   1.851   5.611   1.219
 1291SOL    HW1 4772   1.846   5.586   1.316
 1291SOL    HW2 4773   1.813   5.537   1.164
 1292SOL     OW 4774   1.638   6.843   0.869
 1292SOL    HW1 4775   1.670   6.760   0.915
 1292SOL    HW2 4776   1.552   6.823   0.821
 1293SOL     OW 4777   6.769   1.236   6.723
 1293SOL    HW1 4778   6.795   1.290   6.802
 1293SOL    HW2 4779   6.765   1.294   6.642
 1294SOL     OW 4780   0.528   1.853   4.121
 1294SOL    HW1 4781   0.562   1.946   4.106
 1294SOL    HW2 4782   0.558   1.820   4.211
 1295SOL     OW 4783   5.065   4.374   0.384
 1295SOL    HW1 4784   5.066   4.451   0.321
 1295SOL    HW2 4785   5.093   4.291   0.335
 1296SOL     OW 4786   3.452   1.308   0.630
 1296SOL    HW1 4787   3.457   1.389   0.689
 1296SOL    HW2 4788   3.544   1.282   0.601
 1297SOL     OW 4789   5.445   0.976   6.056
 1297SOL    HW1 4790   5.400   0.927   6.131
 1297SOL    HW2 4791   5.538   1.002   6.085
 1298SOL     OW 4792   5.989   2.734   2.993
 1298SOL    HW1 4793   6.020   2.763   2.903
 1298SOL    HW2 4794   6.018   2.800   3.062
 1299SOL     OW 4795   1.291   4.394   4.242
 1299SOL    HW1 4796   1.280   4.417   4.339
 1299SOL    HW2 4797   1.349   4.463   4.198
 1300SOL     OW 4798   3.840   2.932   3.018
 1300SOL    HW1 4799   3.899   2.854   3.040
 1300SOL    HW2 4800   3.812   2.927   2.922
 1301SOL     OW 4801   0.683   0.864   1.557
 1301SOL    HW1 4802   0.780   0.843   1.570
 1301SOL    HW2 4803   0.633   0.781   1.533
 1302SOL     OW 4804   2.822   5.841   5.302
 1302SOL    HW1 4805   2.900   5.793   5.343
 1302SOL    HW2 4806   2.778   5.898   5.371
 1303SOL     OW 4807   3.009   0.059   1.984
 1303SOL    HW1 4808   3.037   0.083   1.891
 1303SOL    HW2 4809   2.932   0.117   2.011
 1304SOL     OW 4810   3.575   0.841   5.651
 1304SOL    HW1 4811   3.604   0.746   5.636
 1304SOL    HW2 4812   3.565   0.857   5.749
 1305SOL     OW 4813   5.835   6.910   4.340
 1305SOL    HW1 4814   5.748   6.909   4.292
 1305SOL    HW2 4815   5.890   6.831   4.311
 1306SOL     OW 4816   1.639   5.461   3.641
 1306SOL    HW1 4817   1.676   5.421   3.557
 1306SOL    HW2 4818   1.711   5.469   3.709
 1307SOL     OW 4819   1.287   0.958   5.244
 1307SOL    HW1 4820   1.206   1.017   5.249
 1307SOL    HW2 4821   1.334   0.975   5.157
 1308SOL     OW 4822   4.422   6.771   3.387
 1308SOL    HW1 4823   4.324   6.753   3.385
 1308SOL    HW2 4824   4.451   6.786   3.482
 1309SOL     OW 4825   6.250   2.886   4.115
 1309SOL    HW1 4826   6.284   2.886   4.209
 1309SOL    HW2 4827   6.292   2.810   4.065
 1310SOL     OW 4828   5.718   4.028   5.905
 1310SOL    HW1 4829   5.626   4.061   5.927
 1310SOL    HW2 4830   5.712   3.958   5.833
 1311SOL     OW 4831   4.979   4.894   0.202
 1311SOL    HW1 4832   5.000   4.887   0.105
 1311SOL    HW2 4833   4.952   4.804   0.237
 1312SOL     OW 4834   6.956   1.204   2.336
 1312SOL    HW1 4835   7.009   1.285   2.360
 1312SOL    HW2 4836   6.884   1.230   2.271
 1313SOL     OW 4837   4.185   4.927   4.971
 1313SOL    HW1 4838   4.275   4.884   4.963
 1313SOL    HW2 4839   4.195   5.025   4.983
 1314SOL     OW 4840   0.037   0.927   6.385
 1314SOL    HW1 4841   6.967   0.896   6.420
 1314SOL    HW2 4842   0.037   1.026   6.376
 1315SOL     OW 4843   1.157   6.682   4.061
 1315SOL    HW1 4844   1.113   6.615   4.000
 1315SOL    HW2 4845   1.094   6.759   4.076
 1316SOL     OW 4846   3.437   5.847   4.070
 1316SOL    HW1 4847   3.434   5.752   4.103
 1316SOL    HW2 4848   3.470   5.848   3.976
 1317SOL     OW 4849   0.126   3.033   3.604
 1317SOL    HW1 4850   0.038   2.997   3.637
 1317SOL    HW2 4851   0.137   3.010   3.507
 1318SOL     OW 4852   0.773   6.831   2.293
 1318SOL    HW1 4853   0.679   6.833   2.258
 1318SOL    HW2 4854   0.771   6.815   2.392
 1319SOL     OW 4855   0.511   6.568   0.951
 1319SOL    HW1 4856   0.571   6.640   0.916
 1319SOL    HW2 4857   0.460   6.603   1.029
 1320SOL     OW 4858   5.220   5.078   5.208
 1320SOL    HW1 4859   5.265   5.084   5.119
 1320SOL    HW2 4860   5.126   5.113   5.200
 1321SOL     OW 4861   3.559   1.098   0.825
 1321SOL    HW1 4862   3.545   1.189   0.786
 1321SOL    HW2 4863   3.612   1.106   0.910
 1322SOL     OW 4864   4.923   1.290   6.276
 1322SOL    HW1 4865   4.910   1.287   6.375
 1322SOL    HW2 4866   4.879   1.211   6.233
 1323SOL     OW 4867   6.547   0.929   4.346
 1323SOL    HW1 4868   6.642   0.905   4.366
 1323SOL    HW2 4869   6.530   1.023   4.373
 1324SOL     OW 4870   1.183   2.815   0.413
 1324SOL    HW1 4871   1.255   2.808   0.482
 1324SOL    HW2 4872   1.098   2.779   0.450
 1325SOL     OW 4873   4.578   5.102   3.525
 1325SOL    HW1 4874   4.552   5.012   3.488
 1325SOL    HW2 4875   4.529   5.118   3.610
 1326SOL     OW 4876   5.377   4.078   4.219
 1326SOL    HW1 4877   5.281   4.100   4.205
 1326SOL    HW2 4878   5.385   3.982   4.248
 1327SOL     OW 4879   3.126   6.278   3.412
 1327SOL    HW1 4880   3.211   6.271   3.360
 1327SOL    HW2 4881   3.063   6.205   3.385
 1328SOL     OW 4882   2.275   1.973   1.702
 1328SOL    HW1 4883   2.329   1.967   1.618
 1328SOL    HW2 4884   2.265   2.069   1.729
 1329SOL     OW 4885   0.900   5.919   1.356
 1329SOL    HW1 4886   0.836   5.991   1.384
 1329SOL    HW2 4887   0.930   5.868   1.436
 1330SOL     OW 4888   5.881   6.550   1.968
 1330SOL    HW1 4889   5.932   6.541   1.883
 1330SOL    HW2 4890   5.796   6.600   1.951
 1331SOL     OW 4891   0.765   2.226   1.390
 1331SOL    HW1 4892   0.831   2.197   1.460
 1331SOL    HW2 4893   0.789   2.183   1.303
 1332SOL     OW 4894   4.696   1.985   0.287
 1332SOL    HW1 4895   4.735   2.050   0.352
 1332SOL    HW2 4896   4.746   1.991   0.201
 1333SOL     OW 4897   4.213   3.268   5.407
 1333SOL    HW1 4898   4.149   3.280   5.482
 1333SOL    HW2 4899   4.205   3.175   5.370
 1334SOL     OW 4900   1.653   3.478   4.433
 1334SOL    HW1 4901   1.582   3.457   4.500
 1334SOL    HW2 4902   1.737   3.502   4.481
 1335SOL     OW 4903   1.948   5.324   3.767
 1335SOL    HW1 4904   2.009   5.402   3.755
 1335SOL    HW2 4905   1.998   5.250   3.813
 1336SOL     OW 4906   0.501   6.581   5.081
 1336SOL    HW1 4907   0.570   6.588   5.009
 1336SOL    HW2 4908   0.485   6.671   5.121
 1337SOL     OW 4909   3.146   0.383   6.910
 1337SOL    HW1 4910   3.197   0.378   6.823
 1337SOL    HW2 4911   3.203   0.344   6.983
 1338SOL     OW 4912   3.817   4.766   0.610
 1338SOL    HW1 4913   3.837   4.854   0.654
 1338SOL    HW2 4914   3.725   4.768   0.572
 1339SOL     OW 4915   0.217   4.120   6.529
 1339SOL    HW1 4916   0.292   4.186   6.523
 1339SOL    HW2 4917   0.252   4.029   6.507
 1340SOL     OW 4918   2.970   2.093   6.106
 1340SOL    HW1 4919   2.965   2.193   6.117
 1340SOL    HW2 4920   2.996   2.071   6.013
 1341SOL     OW 4921   5.444   1.498   4.187
 1341SOL    HW1 4922   5.482   1.495   4.280
 1341SOL    HW2 4923   5.416   1.592   4.166
 1342SOL     OW 4924   0.460   6.179   0.389
 1342SOL    HW1 4925   0.488   6.143   0.477
 1342SOL    HW2 4926   0.362   6.163   0.375
 1343SOL     OW 4927   2.967   6.195   3.114
 1343SOL    HW1 4928   3.053   6.159   3.078
 1343SOL    HW2 4929   2.977   6.293   3.132
 1344SOL     OW 4930   4.623   1.640   2.345
 1344SOL    HW1 4931   4.595   1.545   2.331
 1344SOL    HW2 4932   4.564   1.700   2.292
 1345SOL     OW 4933   6.166   5.542   2.420
 1345SOL    HW1 4934   6.155   5.482   2.341
 1345SOL    HW2 4935   6.263   5.563   2.433
 1346SOL     OW 4936   6.561   1.715   3.262
 1346SOL    HW1 4937   6.541   1.626   3.304
 1346SOL    HW2 4938   6.654   1.713   3.224
 1347SOL     OW 4939   4.372   0.952   3.963
 1347SOL    HW1 4940   4.411   1.030   4.012
 1347SOL    HW2 4941   4.274   0.966   3.950
 1348SOL     OW 4942   5.362   6.190   4.672
 1348SOL    HW1 4943   5.344   6.246   4.753
 1348SOL    HW2 4944   5.294   6.212   4.601
 1349SOL     OW 4945   5.337   1.520   6.722
 1349SOL    HW1 4946   5.321   1.589   6.651
 1349SOL    HW2 4947   5.282   1.439   6.702
 1350SOL     OW 4948   3.785   1.478   4.508
 1350SOL    HW1 4949   3.745   1.549   4.450
 1350SOL    HW2 4950   3.713   1.432   4.560
 1351SOL     OW 4951   1.278   1.538   4.080
 1351SOL    HW1 4952   1.277   1.598   4.000
 1351SOL    HW2 4953   1.283   1.594   4.163
 1352SOL     OW 4954   1.086   6.027   4.630
 1352SOL    HW1 4955   1.031   5.944   4.625
 1352SOL    HW2 4956   1.141   6.035   4.546
 1353SOL     OW 4957   2.747   3.340   5.927
 1353SOL    HW1 4958   2.779   3.297   6.011
 1353SOL    HW2 4959   2.775   3.284   5.849
 1354SOL     OW 4960   0.163   6.442   6.576
 1354SOL    HW1 4961   0.218   6.399   6.647
 1354SOL    HW2 4962   0.112   6.372   6.526
 1355SOL     OW 4963   5.271   3.454   0.380
 1355SOL    HW1 4964   5.199   3.389   0.402
 1355SOL    HW2 4965   5.230   3.542   0.355
 1356SOL     OW 4966   3.568   3.322   2.803
 1356SOL    HW1 4967   3.483   3.269   2.805
 1356SOL    HW2 4968   3.574   3.371   2.715
 1357SOL     OW 4969   3.749   2.204   5.470
 1357SOL    HW1 4970   3.677   2.209   5.539
 1357SOL    HW2 4971   3.762   2.109   5.442
 1358SOL     OW 4972   1.601   3.120   5.118
 1358SOL    HW1 4973   1.681   3.153   5.068
 1358SOL    HW2 4974   1.546   3.199   5.147
 1359SOL     OW 4975   0.546   1.667   6.797
 1359SOL    HW1 4976   0.632   1.616   6.796
 1359SOL    HW2 4977   0.479   1.618   6.853
 1360SOL     OW 4978   2.916   3.396   4.641
 1360SOL    HW1 4979   2.831   3.355   4.674
 1360SOL    HW2 4980   2.957   3.450   4.715
 1361SOL     OW 4981   1.520   6.408   1.090
 1361SOL    HW1 4982   1.453   6.467   1.046
 1361SOL    HW2 4983   1.588   6.379   1.023
 1362SOL     OW 4984   3.450   1.121   6.311
 1362SOL    HW1 4985   3.464   1.192   6.242
 1362SOL    HW2 4986   3.469   1.032   6.271
 1363SOL     OW 4987   6.624   6.223   1.099
 1363SOL    HW1 4988   6.598   6.127   1.111
 1363SOL    HW2 4989   6.586   6.278   1.174
 1364SOL     OW 4990   1.315   3.062   0.785
 1364SOL    HW1 4991   1.329   3.158   0.809
 1364SOL    HW2 4992   1.332   3.004   0.865
 1365SOL     OW 4993   1.391   2.754   6.791
 1365SOL    HW1 4994   1.316   2.791   6.846
 1365SOL    HW2 4995   1.460   2.824   6.776
 1366SOL     OW 4996   3.971   1.380   1.828
 1366SOL    HW1 4997   3.936   1.293   1.795
 1366SOL    HW2 4998   3.971   1.447   1.753
 1367SOL     OW 4999   1.473   0.172   4.455
 1367SOL    HW1 5000   1.407   0.206   4.523
 1367SOL    HW2 5001   1.501   0.079   4.478
 1368SOL     OW 5002   1.631   5.974   5.028
 1368SOL    HW1 5003   1.578   5.900   5.069
 1368SOL    HW2 5004   1.717   5.938   4.992
 1369SOL     OW 5005   2.253   5.635   3.160
 1369SOL    HW1 5006   2.214   5.577   3.231
 1369SOL    HW2 5007   2.233   5.731   3.180
 1370SOL     OW 5008   6.726   2.808   2.849
 1370SOL    HW1 5009   6.675   2.769   2.926
 1370SOL    HW2 5010   6.750   2.903   2.869
 1371SOL     OW 5011   6.367   1.622   6.723
 1371SOL    HW1 5012   6.409   1.685   6.789
 1371SOL    HW2 5013   6.339   1.539   6.770
 1372SOL     OW 5014   5.065   2.275   1.920
 1372SOL    HW1 5015   5.099   2.292   2.012
 1372SOL    HW2 5016   4.967   2.251   1.924
 1373SOL     OW 5017   4.375   2.504   1.494
 1373SOL    HW1 5018   4.317   2.555   1.431
 1373SOL    HW2 5019   4.371   2.545   1.585
 1374SOL     OW 5020   3.211   3.825   3.786
 1374SOL    HW1 5021   3.138   3.774   3.742
 1374SOL    HW2 5022   3.174   3.906   3.831
 1375SOL     OW 5023   5.782   4.287   5.169
 1375SOL    HW1 5024   5.854   4.222   5.192
 1375SOL    HW2 5025   5.718   4.244   5.105
 1376SOL     OW 5026   3.092   4.688   5.972
 1376SOL    HW1 5027   3.059   4.743   5.895
 1376SOL    HW2 5028   3.062   4.730   6.058
 1377SOL     OW 5029   1.004   2.041   3.504
 1377SOL    HW1 5030   1.077   1.975   3.485
 1377SOL    HW2 5031   0.974   2.083   3.418
 1378SOL     OW 5032   4.742   2.712   3.591
 1378SOL    HW1 5033   4.711   2.675   3.679
 1378SOL    HW2 5034   4.723   2.810   3.587
 1379SOL     OW 5035   4.871   5.956   6.394
 1379SOL    HW1 5036   4.947   6.020   6.403
 1379SOL    HW2 5037   4.844   5.924   6.484
 1380SOL     OW 5038   0.201   6.338   4.198
 1380SOL    HW1 5039   0.249   6.424   4.184
 1380SOL    HW2 5040   0.220   6.276   4.122
 1381SOL     OW 5041   6.940   2.335   6.168
 1381SOL    HW1 5042   6.927   2.427   6.206
 1381SOL    HW2 5043   6.874   2.273   6.209
 1382SOL     OW 5044   4.461   2.346   5.512
 1382SOL    HW1 5045   4.415   2.413   5.454
 1382SOL    HW2 5046   4.539   2.390   5.557
 1383SOL     OW 5047   5.402   0.336   0.776
 1383SOL    HW1 5048   5.466   0.401   0.736
 1383SOL    HW2 5049   5.356   0.379   0.854
 1384SOL     OW 5050   5.480   1.765   2.610
 1384SOL    HW1 5051   5.510   1.755   2.515
 1384SOL    HW2 5052   5.389   1.805   2.612
 1385SOL     OW 5053   6.880   6.584   1.835
 1385SOL    HW1 5054   6.875   6.486   1.853
 1385SOL    HW2 5055   6.824   6.606   1.755
 1386SOL     OW 5056   1.700   0.309   4.334
 1386SOL    HW1 5057   1.729   0.379   4.400
 1386SOL    HW2 5058   1.623   0.258   4.371
 1387SOL     OW 5059   0.880   5.959   1.730
 1387SOL    HW1 5060   0.963   5.976   1.677
 1387SOL    HW2 5061   0.807   5.930   1.669
 1388SOL     OW 5062   6.395   1.234   1.584
 1388SOL    HW1 5063   6.344   1.149   1.575
 1388SOL    HW2 5064   6.460   1.226   1.659
 1389SOL     OW 5065   6.569   1.009   1.175
 1389SOL    HW1 5066   6.586   0.946   1.099
 1389SOL    HW2 5067   6.472   1.036   1.174
 1390SOL     OW 5068   1.138   1.574   4.407
 1390SOL    HW1 5069   1.219   1.617   4.365
 1390SOL    HW2 5070   1.160   1.480   4.433
 1391SOL     OW 5071   0.734   3.291   3.544
 1391SOL    HW1 5072   0.750   3.193   3.535
 1391SOL    HW2 5073   0.737   3.317   3.640
 1392SOL     OW 5074   5.532   5.531   3.646
 1392SOL    HW1 5075   5.549   5.480   3.730
 1392SOL    HW2 5076   5.618   5.558   3.604
 1393SOL     OW 5077   3.605   4.923   6.589
 1393SOL    HW1 5078   3.605   5.019   6.619
 1393SOL    HW2 5079   3.689   4.879   6.620
 1394SOL     OW 5080   1.203   6.891   6.697
 1394SOL    HW1 5081   1.231   6.855   6.608
 1394SOL    HW2 5082   1.235   6.986   6.706
 1395SOL     OW 5083   4.097   4.691   6.472
 1395SOL    HW1 5084   4.010   4.740   6.478
 1395SOL    HW2 5085   4.124   4.660   6.563
 1396SOL     OW 5086   5.043   5.909   3.232
 1396SOL    HW1 5087   5.046   5.837   3.163
 1396SOL    HW2 5088   5.049   5.998   3.188
 1397SOL     OW 5089   5.820   6.115   4.943
 1397SOL    HW1 5090   5.742   6.163   4.904
 1397SOL    HW2 5091   5.826   6.023   4.904
 1398SOL     OW 5092   1.646   0.228   5.267
 1398SOL    HW1 5093   1.614   0.272   5.351
 1398SOL    HW2 5094   1.738   0.262   5.245
 1399SOL     OW 5095   2.829   5.346   2.263
 1399SOL    HW1 5096   2.869   5.386   2.345
 1399SOL    HW2 5097   2.835   5.247   2.268
 1400SOL     OW 5098   0.809   0.473   3.292
 1400SOL    HW1 5099   0.741   0.491   3.362
 1400SOL    HW2 5100   0.888   0.532   3.306
 1401SOL     OW 5101   6.843   2.290   4.245
 1401SOL    HW1 5102   6.822   2.321   4.338
 1401SOL    HW2 5103   6.890   2.364   4.196
 1402SOL     OW 5104   5.781   2.487   0.200
 1402SOL    HW1 5105   5.683   2.466   0.195
 1402SOL    HW2 5106   5.814   2.469   0.292
 1403SOL     OW 5107   4.168   0.882   2.014
 1403SOL    HW1 5108   4.202   0.901   2.106
 1403SOL    HW2 5109   4.192   0.788   1.988
 1404SOL     OW 5110   4.373   1.312   0.126
 1404SOL    HW1 5111   4.280   1.290   0.098
 1404SOL    HW2 5112   4.373   1.397   0.178
 1405SOL     OW 5113   3.767   2.696   0.770
 1405SOL    HW1 5114   3.789   2.615   0.823
 1405SOL    HW2 5115   3.791   2.681   0.674
 1406SOL     OW 5116   1.058   3.250   2.122
 1406SOL    HW1 5117   0.969   3.220   2.090
 1406SOL    HW2 5118   1.130   3.215   2.061
 1407SOL     OW 5119   6.797   2.315   2.636
 1407SOL    HW1 5120   6.731   2.358   2.575
 1407SOL    HW2 5121   6.756   2.304   2.727
 1408SOL     OW 5122   6.612   5.116   6.508
 1408SOL    HW1 5123   6.612   5.173   6.425
 1408SOL    HW2 5124   6.652   5.027   6.487
 1409SOL     OW 5125   0.616   1.184   3.893
 1409SOL    HW1 5126   0.641   1.088   3.904
 1409SOL    HW2 5127   0.691   1.242   3.925
 1410SOL     OW 5128   6.911   1.746   6.689
 1410SOL    HW1 5129   6.963   1.735   6.773
 1410SOL    HW2 5130   6.955   1.695   6.615
 1411SOL     OW 5131   1.853   1.560   1.500
 1411SOL    HW1 5132   1.781   1.498   1.470
 1411SOL    HW2 5133   1.941   1.530   1.463
 1412SOL     OW 5134   1.723   2.376   0.485
 1412SOL    HW1 5135   1.652   2.352   0.418
 1412SOL    HW2 5136   1.762   2.465   0.461
 1413SOL     OW 5137   3.100   7.002   3.818
 1413SOL    HW1 5138   3.152   6.917   3.829
 1413SOL    HW2 5139   3.160   0.057   3.787
 1414SOL     OW 5140   1.595   1.211   2.513
 1414SOL    HW1 5141   1.505   1.185   2.478
 1414SOL    HW2 5142   1.606   1.310   2.508
 1415SOL     OW 5143   5.782   6.861   4.832
 1415SOL    HW1 5144   5.729   6.881   4.749
 1415SOL    HW2 5145   5.719   6.849   4.909
 1416SOL     OW 5146   4.753   5.410   3.505
 1416SOL    HW1 5147   4.696   5.388   3.425
 1416SOL    HW2 5148   4.729   5.348   3.580
 1417SOL     OW 5149   3.743   2.844   5.749
 1417SOL    HW1 5150   3.712   2.758   5.708
 1417SOL    HW2 5151   3.694   2.920   5.708
 1418SOL     OW 5152   3.217   4.108   3.877
 1418SOL    HW1 5153   3.296   4.066   3.921
 1418SOL    HW2 5154   3.135   4.087   3.929
 1419SOL     OW 5155   3.241   6.005   3.560
 1419SOL    HW1 5156   3.331   6.021   3.519
 1419SOL    HW2 5157   3.247   6.016   3.659
 1420SOL     OW 5158   0.332   6.399   2.981
 1420SOL    HW1 5159   0.382   6.443   3.056
 1420SOL    HW2 5160   0.238   6.434   2.979
 1421SOL     OW 5161   3.561   1.170   3.042
 1421SOL    HW1 5162   3.527   1.225   2.966
 1421SOL    HW2 5163   3.607   1.229   3.108
 1422SOL     OW 5164   2.445   6.255   0.878
 1422SOL    HW1 5165   2.353   6.292   0.865
 1422SOL    HW2 5166   2.441   6.156   0.875
 1423SOL     OW 5167   4.792   0.936   2.616
 1423SOL    HW1 5168   4.810   0.864   2.684
 1423SOL    HW2 5169   4.712   0.989   2.643
 1424SOL     OW 5170   6.487   5.333   2.498
 1424SOL    HW1 5171   6.453   5.404   2.560
 1424SOL    HW2 5172   6.438   5.248   2.516
 1425SOL     OW 5173   2.079   0.515   4.361
 1425SOL    HW1 5174   2.069   0.440   4.296
 1425SOL    HW2 5175   2.110   0.597   4.312
 1426SOL     OW 5176   1.730   1.407   5.869
 1426SOL    HW1 5177   1.743   1.496   5.825
 1426SOL    HW2 5178   1.705   1.422   5.965
 1427SOL     OW 5179   5.521   2.019   5.886
 1427SOL    HW1 5180   5.459   2.097   5.885
 1427SOL    HW2 5181   5.594   2.036   5.952
 1428SOL     OW 5182   5.900   0.695   1.014
 1428SOL    HW1 5183   5.896   0.780   0.961
 1428SOL    HW2 5184   5.810   0.652   1.016
 1429SOL     OW 5185   5.576   5.924   0.102
 1429SOL    HW1 5186   5.672   5.896   0.100
 1429SOL    HW2 5187   5.534   5.895   0.188
 1430SOL     OW 5188   3.097   4.864   2.557
 1430SOL    HW1 5189   3.003   4.858   2.592
 1430SOL    HW2 5190   3.105   4.808   2.475
 1431SOL     OW 5191   2.292   0.534   0.608
 1431SOL    HW1 5192   2.205   0.580   0.588
 1431SOL    HW2 5193   2.345   0.590   0.672
 1432SOL     OW 5194   3.265   0.105   1.534
 1432SOL    HW1 5195   3.355   0.081   1.500
 1432SOL    HW2 5196   3.257   0.205   1.540
 1433SOL     OW 5197   5.291   6.974   3.475
 1433SOL    HW1 5198   5.318   6.952   3.569
 1433SOL    HW2 5199   5.284   6.889   3.423
 1434SOL     OW 5200   0.856   1.263   4.953
 1434SOL    HW1 5201   0.913   1.320   4.893
 1434SOL    HW2 5202   0.787   1.320   4.997
 1435SOL     OW 5203   6.764   2.228   3.752
 1435SOL    HW1 5204   6.675   2.270   3.736
 1435SOL    HW2 5205   6.751   2.137   3.792
 1436SOL     OW 5206   5.160   3.439   1.319
 1436SOL    HW1 5207   5.134   3.493   1.238
 1436SOL    HW2 5208   5.216   3.496   1.379
 1437SOL     OW 5209   4.943   0.801   2.878
 1437SOL    HW1 5210   4.855   0.791   2.925
 1437SOL    HW2 5211   4.994   0.877   2.918
 1438SOL     OW 5212   2.592   0.035   2.142
 1438SOL    HW1 5213   2.589   6.952   2.151
 1438SOL    HW2 5214   2.623   0.059   2.050
 1439SOL     OW 5215   0.585   5.796   2.170
 1439SOL    HW1 5216   0.633   5.759   2.091
 1439SOL    HW2 5217   0.630   5.766   2.254
 1440SOL     OW 5218   2.596   2.888   1.474
 1440SOL    HW1 5219   2.501   2.870   1.446
 1440SOL    HW2 5220   2.609   2.858   1.568
 1441SOL     OW 5221   4.551   6.306   6.729
 1441SOL    HW1 5222   4.557   6.284   6.826
 1441SOL    HW2 5223   4.488   6.243   6.684
 1442SOL     OW 5224   5.358   5.519   1.745
 1442SOL    HW1 5225   5.380   5.476   1.832
 1442SOL    HW2 5226   5.349   5.449   1.674
 1443SOL     OW 5227   6.743   2.590   2.220
 1443SOL    HW1 5228   6.790   2.595   2.132
 1443SOL    HW2 5229   6.727   2.494   2.244
 1444SOL     OW 5230   0.607   6.345   5.235
 1444SOL    HW1 5231   0.569   6.430   5.197
 1444SOL    HW2 5232   0.692   6.366   5.283
 1445SOL     OW 5233   1.078   2.274   1.121
 1445SOL    HW1 5234   1.143   2.233   1.186
 1445SOL    HW2 5235   1.067   2.371   1.142
 1446SOL     OW 5236   6.522   5.282   1.655
 1446SOL    HW1 5237   6.564   5.239   1.734
 1446SOL    HW2 5238   6.593   5.314   1.592
 1447SOL     OW 5239   0.342   6.593   4.224
 1447SOL    HW1 5240   0.352   6.610   4.322
 1447SOL    HW2 5241   0.304   6.675   4.180
 1448SOL     OW 5242   1.759   1.161   5.486
 1448SOL    HW1 5243   1.660   1.176   5.482
 1448SOL    HW2 5244   1.804   1.218   5.418
 1449SOL     OW 5245   1.774   3.105   2.808
 1449SOL    HW1 5246   1.724   3.042   2.749
 1449SOL    HW2 5247   1.872   3.086   2.802
 1450SOL     OW 5248   3.052   2.191   2.753
 1450SOL    HW1 5249   3.009   2.199   2.663
 1450SOL    HW2 5250   3.088   2.098   2.764
 1451SOL     OW 5251   4.334   2.049   2.726
 1451SOL    HW1 5252   4.384   2.000   2.797
 1451SOL    HW2 5253   4.351   2.007   2.637
 1452SOL     OW 5254   4.417   3.053   5.368
 1452SOL    HW1 5255   4.454   2.963   5.393
 1452SOL    HW2 5256   4.319   3.054   5.384
 1453SOL     OW 5257   1.226   3.659   5.447
 1453SOL    HW1 5258   1.233   3.566   5.410
 1453SOL    HW2 5259   1.204   3.654   5.544
 1454SOL     OW 5260   2.923   2.146   2.504
 1454SOL    HW1 5261   2.886   2.173   2.415
 1454SOL    HW2 5262   2.906   2.049   2.520
 1455SOL     OW 5263   0.611   5.704   2.445
 1455SOL    HW1 5264   0.706   5.687   2.419
 1455SOL    HW2 5265   0.599   5.688   2.543
 1456SOL     OW 5266   6.678   5.521   3.830
 1456SOL    HW1 5267   6.698   5.496   3.925
 1456SOL    HW2 5268   6.581   5.505   3.812
 1457SOL     OW 5269   0.989   5.297   5.647
 1457SOL    HW1 5270   1.033   5.359   5.711
 1457SOL    HW2 5271   0.892   5.288   5.670
 1458SOL     OW 5272   6.890   5.572   4.919
 1458SOL    HW1 5273   6.886   5.478   4.884
 1458SOL    HW2 5274   6.832   5.631   4.862
 1459SOL     OW 5275   0.088   6.328   5.632
 1459SOL    HW1 5276   0.126   6.236   5.627
 1459SOL    HW2 5277   0.064   6.360   5.540
 1460SOL     OW 5278   1.507   6.199   4.924
 1460SOL    HW1 5279   1.553   6.287   4.937
 1460SOL    HW2 5280   1.574   6.125   4.928
 1461SOL     OW 5281   5.897   3.912   3.408
 1461SOL    HW1 5282   5.980   3.907   3.464
 1461SOL    HW2 5283   5.817   3.919   3.468
 1462SOL     OW 5284   0.959   1.823   2.105
 1462SOL    HW1 5285   0.991   1.896   2.166
 1462SOL    HW2 5286   0.860   1.817   2.108
 1463SOL     OW 5287   1.856   4.877   6.660
 1463SOL    HW1 5288   1.778   4.873   6.722
 1463SOL    HW2 5289   1.861   4.969   6.619
 1464SOL     OW 5290   0.920   4.287   5.551
 1464SOL    HW1 5291   0.995   4.310   5.613
 1464SOL    HW2 5292   0.858   4.365   5.543
 1465SOL     OW 5293   0.971   2.954   5.854
 1465SOL    HW1 5294   1.065   2.989   5.860
 1465SOL    HW2 5295   0.972   2.856   5.835
 1466SOL     OW 5296   5.881   0.886   2.807
 1466SOL    HW1 5297   5.794   0.929   2.828
 1466SOL    HW2 5298   5.923   0.932   2.729
 1467SOL     OW 5299   0.186   0.254   3.859
 1467SOL    HW1 5300   0.208   0.199   3.779
 1467SOL    HW2 5301   0.262   0.251   3.924
 1468SOL     OW 5302   3.574   6.464   3.751
 1468SOL    HW1 5303   3.519   6.436   3.673
 1468SOL    HW2 5304   3.628   6.545   3.726
 1469SOL     OW 5305   5.722   4.578   3.025
 1469SOL    HW1 5306   5.814   4.615   3.021
 1469SOL    HW2 5307   5.721   4.500   3.088
 1470SOL     OW 5308   6.119   1.904   1.883
 1470SOL    HW1 5309   6.085   1.989   1.843
 1470SOL    HW2 5310   6.048   1.864   1.941
 1471SOL     OW 5311   5.079   6.870   0.073
 1471SOL    HW1 5312   5.044   6.815   0.150
 1471SOL    HW2 5313   5.056   6.824   7.005
 1472SOL     OW 5314   2.518   0.880   6.763
 1472SOL    HW1 5315   2.430   0.925   6.750
 1472SOL    HW2 5316   2.576   0.935   6.823
 1473SOL     OW 5317   1.861   5.602   3.486
 1473SOL    HW1 5318   1.772   5.588   3.528
 1473SOL    HW2 5319   1.925   5.639   3.554
 1474SOL     OW 5320   1.621   4.005   1.420
 1474SOL    HW1 5321   1.547   4.040   1.478
 1474SOL    HW2 5322   1.590   3.923   1.372
 1475SOL     OW 5323   6.587   0.176   6.475
 1475SOL    HW1 5324   6.538   0.089   6.466
 1475SOL    HW2 5325   6.653   0.185   6.400
 1476SOL     OW 5326   5.879   0.176   6.677
 1476SOL    HW1 5327   5.793   0.178   6.626
 1476SOL    HW2 5328   5.861   0.192   6.774
 1477SOL     OW 5329   3.280   4.122   1.822
 1477SOL    HW1 5330   3.261   4.137   1.725
 1477SOL    HW2 5331   3.194   4.112   1.872
 1478SOL     OW 5332   4.863   4.320   6.453
 1478SOL    HW1 5333   4.764   4.316   6.439
 1478SOL    HW2 5334   4.910   4.277   6.376
 1479SOL     OW 5335   4.699   4.597   1.082
 1479SOL    HW1 5336   4.633   4.528   1.051
 1479SOL    HW2 5337   4.674   4.686   1.043
 1480SOL     OW 5338   3.162   1.884   3.506
 1480SOL    HW1 5339   3.067   1.866   3.531
 1480SOL    HW2 5340   3.222   1.826   3.561
 1481SOL     OW 5341   4.292   1.734   5.291
 1481SOL    HW1 5342   4.319   1.679   5.370
 1481SOL    HW2 5343   4.371   1.750   5.233
 1482SOL     OW 5344   6.590   1.313   1.783
 1482SOL    HW1 5345   6.672   1.286   1.832
 1482SOL    HW2 5346   6.530   1.366   1.844
 1483SOL     OW 5347   6.405   6.508   0.492
 1483SOL    HW1 5348   6.463   6.479   0.415
 1483SOL    HW2 5349   6.309   6.491   0.470
 1484SOL     OW 5350   2.694   6.184   5.292
 1484SOL    HW1 5351   2.749   6.129   5.354
 1484SOL    HW2 5352   2.600   6.191   5.327
 1485SOL     OW 5353   5.128   3.768   3.576
 1485SOL    HW1 5354   5.060   3.821   3.527
 1485SOL    HW2 5355   5.083   3.697   3.630
 1486SOL     OW 5356   5.944   6.454   4.147
 1486SOL    HW1 5357   5.994   6.406   4.220
 1486SOL    HW2 5358   5.991   6.439   4.060
 1487SOL     OW 5359   5.827   0.659   0.194
 1487SOL    HW1 5360   5.848   0.563   0.214
 1487SOL    HW2 5361   5.841   0.677   0.097
 1488SOL     OW 5362   6.508   2.920   2.483
 1488SOL    HW1 5363   6.505   2.966   2.572
 1488SOL    HW2 5364   6.562   2.836   2.491
 1489SOL     OW 5365   3.096   5.492   6.873
 1489SOL    HW1 5366   3.188   5.459   6.890
 1489SOL    HW2 5367   3.064   5.459   6.784
 1490SOL     OW 5368   5.977   2.737   2.241
 1490SOL    HW1 5369   5.907   2.723   2.311
 1490SOL    HW2 5370   6.006   2.649   2.204
 1491SOL     OW 5371   5.328   3.019   4.346
 1491SOL    HW1 5372   5.381   3.097   4.380
 1491SOL    HW2 5373   5.351   2.937   4.398
 1492SOL     OW 5374   1.236   2.708   2.063
 1492SOL    HW1 5375   1.299   2.719   1.986
 1492SOL    HW2 5376   1.156   2.766   2.049
 1493SOL     OW 5377   6.033   1.845   6.260
 1493SOL    HW1 5378   6.056   1.800   6.174
 1493SOL    HW2 5379   5.971   1.922   6.242
 1494SOL     OW 5380   1.400   3.446   6.671
 1494SOL    HW1 5381   1.442   3.359   6.645
 1494SOL    HW2 5382   1.303   3.443   6.648
 1495SOL     OW 5383   5.997   4.145   3.990
 1495SOL    HW1 5384   5.965   4.126   4.083
 1495SOL    HW2 5385   5.987   4.243   3.971
 1496SOL     OW 5386   6.796   6.559   5.711
 1496SOL    HW1 5387   6.826   6.488   5.774
 1496SOL    HW2 5388   6.867   6.631   5.707
 1497SOL     OW 5389   4.611   2.228   2.613
 1497SOL    HW1 5390   4.607   2.299   2.542
 1497SOL    HW2 5391   4.519   2.190   2.626
 1498SOL     OW 5392   3.524   4.326   0.822
 1498SOL    HW1 5393   3.540   4.228   0.838
 1498SOL    HW2 5394   3.482   4.366   0.903
 1499SOL     OW 5395   0.867   4.340   4.302
 1499SOL    HW1 5396   0.814   4.350   4.218
 1499SOL    HW2 5397   0.923   4.258   4.297
 1500SOL     OW 5398   2.271   5.271   1.783
 1500SOL    HW1 5399   2.326   5.266   1.867
 1500SOL    HW2 5400   2.204   5.345   1.792
 1501SOL     OW 5401   5.470   1.005   1.313
 1501SOL    HW1 5402   5.561   0.997   1.354
 1501SOL    HW2 5403   5.406   1.042   1.380
 1502SOL     OW 5404   0.962   6.199   6.049
 1502SOL    HW1 5405   0.866   6.201   6.020
 1502SOL    HW2 5406   0.969   6.157   6.139
 1503SOL     OW 5407   6.329   5.731   2.216
 1503SOL    HW1 5408   6.383   5.650   2.241
 1503SOL    HW2 5409   6.350   5.806   2.279
 1504SOL     OW 5410   1.521   6.916   3.379
 1504SOL    HW1 5411   1.445   6.855   3.405
 1504SOL    HW2 5412   1.486   7.008   3.362
 1505SOL     OW 5413   6.790   4.463   4.797
 1505SOL    HW1 5414   6.870   4.498   4.845
 1505SOL    HW2 5415   6.735   4.407   4.859
 1506SOL     OW 5416   0.858   1.131   0.720
 1506SOL    HW1 5417   0.927   1.125   0.647
 1506SOL    HW2 5418   0.896   1.092   0.804
 1507SOL     OW 5419   2.256   2.456   3.662
 1507SOL    HW1 5420   2.191   2.408   3.603
 1507SOL    HW2 5421   2.345   2.459   3.617
 1508SOL     OW 5422   1.379   0.788   1.722
 1508SOL    HW1 5423   1.467   0.833   1.739
 1508SOL    HW2 5424   1.314   0.816   1.793
 1509SOL     OW 5425   4.403   0.878   4.583
 1509SOL    HW1 5426   4.368   0.816   4.654
 1509SOL    HW2 5427   4.329   0.904   4.522
 1510SOL     OW 5428   2.710   6.944   5.477
 1510SOL    HW1 5429   2.697   0.005   5.417
 1510SOL    HW2 5430   2.712   6.975   5.572
 1511SOL     OW 5431   4.030   4.063   5.215
 1511SOL    HW1 5432   4.113   4.066   5.271
 1511SOL    HW2 5433   4.051   4.022   5.126
 1512SOL     OW 5434   5.387   6.535   1.057
 1512SOL    HW1 5435   5.406   6.567   0.964
 1512SOL    HW2 5436   5.423   6.442   1.067
 1513SOL     OW 5437   3.278   6.619   5.427
 1513SOL    HW1 5438   3.298   6.570   5.342
 1513SOL    HW2 5439   3.298   6.561   5.505
 1514SOL     OW 5440   3.347   1.840   0.245
 1514SOL    HW1 5441   3.300   1.753   0.257
 1514SOL    HW2 5442   3.288   1.903   0.193
 1515SOL     OW 5443   3.529   1.051   1.852
 1515SOL    HW1 5444   3.482   1.076   1.768
 1515SOL    HW2 5445   3.474   1.078   1.931
 1516SOL     OW 5446   6.888   6.955   6.493
 1516SOL    HW1 5447   6.842   7.008   6.563
 1516SOL    HW2 5448   6.880   6.857   6.514
 1517SOL     OW 5449   2.272   6.387   2.641
 1517SOL    HW1 5450   2.285   6.472   2.692
 1517SOL    HW2 5451   2.260   6.311   2.705
 1518SOL     OW 5452   1.297   2.485   6.645
 1518SOL    HW1 5453   1.217   2.462   6.701
 1518SOL    HW2 5454   1.380   2.464   6.697
 1519SOL     OW 5455   0.512   4.274   6.841
 1519SOL    HW1 5456   0.569   4.216   6.782
 1519SOL    HW2 5457   0.495   4.361   6.796
 1520SOL     OW 5458   0.037   6.659   3.367
 1520SOL    HW1 5459   0.002   6.743   3.326
 1520SOL    HW2 5460   0.041   6.587   3.297
 1521SOL     OW 5461   2.421   5.040   6.874
 1521SOL    HW1 5462   2.441   4.980   6.952
 1521SOL    HW2 5463   2.506   5.080   6.840
 1522SOL     OW 5464   6.103   6.225   3.723
 1522SOL    HW1 5465   6.081   6.291   3.795
 1522SOL    HW2 5466   6.018   6.191   3.683
 1523SOL     OW 5467   2.749   6.614   0.633
 1523SOL    HW1 5468   2.784   6.574   0.717
 1523SOL    HW2 5469   2.778   6.558   0.555
 1524SOL     OW 5470   1.986   2.662   4.536
 1524SOL    HW1 5471   2.052   2.729   4.502
 1524SOL    HW2 5472   1.894   2.686   4.503
 1525SOL     OW 5473   6.417   4.187   0.164
 1525SOL    HW1 5474   6.513   4.194   0.140
 1525SOL    HW2 5475   6.379   4.102   0.126
 1526SOL     OW 5476   0.903   1.261   1.787
 1526SOL    HW1 5477   0.946   1.238   1.699
 1526SOL    HW2 5478   0.921   1.357   1.809
 1527SOL     OW 5479   5.164   1.186   4.522
 1527SOL    HW1 5480   5.083   1.170   4.465
 1527SOL    HW2 5481   5.137   1.187   4.619
 1528SOL     OW 5482   3.360   3.410   2.145
 1528SOL    HW1 5483   3.336   3.315   2.128
 1528SOL    HW2 5484   3.454   3.427   2.115
 1529SOL     OW 5485   4.121   0.888   5.652
 1529SOL    HW1 5486   4.022   0.892   5.639
 1529SOL    HW2 5487   4.158   0.810   5.600
 1530SOL     OW 5488   3.025   6.898   2.191
 1530SOL    HW1 5489   3.035   6.953   2.108
 1530SOL    HW2 5490   2.931   6.906   2.225
 1531SOL     OW 5491   5.593   6.129   4.516
 1531SOL    HW1 5492   5.514   6.160   4.570
 1531SOL    HW2 5493   5.653   6.207   4.498
 1532SOL     OW 5494   2.870   5.082   2.269
 1532SOL    HW1 5495   2.934   5.063   2.343
 1532SOL    HW2 5496   2.920   5.097   2.184
 1533SOL     OW 5497   5.559   6.143   1.580
 1533SOL    HW1 5498   5.641   6.193   1.551
 1533SOL    HW2 5499   5.579   6.092   1.663
 1534SOL     OW 5500   2.118   5.270   6.553
 1534SOL    HW1 5501   2.078   5.196   6.499
 1534SOL    HW2 5502   2.213   5.248   6.575
 1535SOL     OW 5503   4.657   4.653   3.324
 1535SOL    HW1 5504   4.690   4.617   3.411
 1535SOL    HW2 5505   4.735   4.679   3.267
 1536SOL     OW 5506   4.276   4.350   6.525
 1536SOL    HW1 5507   4.233   4.436   6.552
 1536SOL    HW2 5508   4.309   4.302   6.606
 1537SOL     OW 5509   3.200   5.883   2.061
 1537SOL    HW1 5510   3.266   5.941   2.108
 1537SOL    HW2 5511   3.166   5.930   1.980
 1538SOL     OW 5512   2.275   1.420   0.810
 1538SOL    HW1 5513   2.333   1.450   0.885
 1538SOL    HW2 5514   2.332   1.389   0.734
 1539SOL     OW 5515   0.161   3.033   0.894
 1539SOL    HW1 5516   0.176   3.012   0.797
 1539SOL    HW2 5517   0.065   3.058   0.908
 1540SOL     OW 5518   3.760   5.389   3.505
 1540SOL    HW1 5519   3.765   5.290   3.491
 1540SOL    HW2 5520   3.845   5.421   3.548
 1541SOL     OW 5521   4.909   2.449   5.341
 1541SOL    HW1 5522   4.870   2.533   5.303
 1541SOL    HW2 5523   4.836   2.388   5.371
 1542SOL     OW 5524   0.612   4.349   2.803
 1542SOL    HW1 5525   0.649   4.257   2.789
 1542SOL    HW2 5526   0.638   4.382   2.893
 1543SOL     OW 5527   3.856   5.070   1.262
 1543SOL    HW1 5528   3.939   5.033   1.304
 1543SOL    HW2 5529   3.825   5.150   1.312
 1544SOL     OW 5530   4.025   3.469   4.149
 1544SOL    HW1 5531   4.029   3.542   4.216
 1544SOL    HW2 5532   4.059   3.384   4.190
 1545SOL     OW 5533   6.481   4.954   1.009
 1545SOL    HW1 5534   6.468   5.050   0.981
 1545SOL    HW2 5535   6.486   4.949   1.109
 1546SOL     OW 5536   6.535   6.307   5.526
 1546SOL    HW1 5537   6.452   6.344   5.568
 1546SOL    HW2 5538   6.584   6.251   5.594
 1547SOL     OW 5539   1.709   2.947   6.511
 1547SOL    HW1 5540   1.633   2.942   6.446
 1547SOL    HW2 5541   1.785   2.999   6.471
 1548SOL     OW 5542   0.073   2.283   0.415
 1548SOL    HW1 5543   0.138   2.210   0.397
 1548SOL    HW2 5544   0.053   2.332   0.330
 1549SOL     OW 5545   5.392   0.588   4.157
 1549SOL    HW1 5546   5.405   0.674   4.108
 1549SOL    HW2 5547   5.312   0.540   4.121
 1550SOL     OW 5548   3.040   4.007   4.537
 1550SOL    HW1 5549   2.985   3.927   4.562
 1550SOL    HW2 5550   3.078   4.049   4.620
 1551SOL     OW 5551   6.881   5.230   5.854
 1551SOL    HW1 5552   6.975   5.201   5.874
 1551SOL    HW2 5553   6.822   5.209   5.932
 1552SOL     OW 5554   2.583   4.181   1.077
 1552SOL    HW1 5555   2.554   4.255   1.016
 1552SOL    HW2 5556   2.521   4.177   1.156
 1553SOL     OW 5557   1.489   2.111   5.395
 1553SOL    HW1 5558   1.431   2.189   5.374
 1553SOL    HW2 5559   1.516   2.115   5.492
 1554SOL     OW 5560   4.599   1.830   3.413
 1554SOL    HW1 5561   4.669   1.779   3.465
 1554SOL    HW2 5562   4.627   1.925   3.405
 1555SOL     OW 5563   6.280   4.829   5.025
 1555SOL    HW1 5564   6.207   4.893   5.049
 1555SOL    HW2 5565   6.364   4.879   5.007
 1556SOL     OW 5566   1.904   0.959   5.666
 1556SOL    HW1 5567   1.936   0.905   5.587
 1556SOL    HW2 5568   1.815   0.999   5.645
 1557SOL     OW 5569   1.513   1.454   6.104
 1557SOL    HW1 5570   1.451   1.491   6.034
 1557SOL    HW2 5571   1.504   1.507   6.188
 1558SOL     OW 5572   6.776   6.993   4.252
 1558SOL    HW1 5573   6.799   6.949   4.339
 1558SOL    HW2 5574   6.727   0.060   4.270
 1559SOL     OW 5575   1.632   1.107   6.100
 1559SOL    HW1 5576   1.581   1.153   6.028
 1559SOL    HW2 5577   1.643   1.169   6.178
 1560SOL     OW 5578   6.928   0.576   1.040
 1560SOL    HW1 5579   0.003   0.606   1.017
 1560SOL    HW2 5580   6.893   0.516   0.968
 1561SOL     OW 5581   6.196   6.465   1.869
 1561SOL    HW1 5582   6.260   6.390   1.850
 1561SOL    HW2 5583   6.187   6.477   1.967
 1562SOL     OW 5584   5.263   6.881   4.458
 1562SOL    HW1 5585   5.336   6.827   4.416
 1562SOL    HW2 5586   5.243   6.961   4.401
 1563SOL     OW 5587   2.717   6.881   6.210
 1563SOL    HW1 5588   2.764   6.937   6.278
 1563SOL    HW2 5589   2.773   6.801   6.187
 1564SOL     OW 5590   1.851   2.899   3.144
 1564SOL    HW1 5591   1.800   2.974   3.187
 1564SOL    HW2 5592   1.795   2.816   3.143
 1565SOL     OW 5593   6.480   4.602   1.176
 1565SOL    HW1 5594   6.405   4.616   1.240
 1565SOL    HW2 5595   6.458   4.645   1.089
 1566SOL     OW 5596   5.728   4.306   2.333
 1566SOL    HW1 5597   5.709   4.216   2.294
 1566SOL    HW2 5598   5.687   4.377   2.276
 1567SOL     OW 5599   6.754   5.636   5.524
 1567SOL    HW1 5600   6.842   5.629   5.479
 1567SOL    HW2 5601   6.750   5.572   5.601
 1568SOL     OW 5602   0.451   6.442   0.711
 1568SOL    HW1 5603   0.391   6.363   0.725
 1568SOL    HW2 5604   0.460   6.493   0.796
 1569SOL     OW 5605   3.610   5.827   4.854
 1569SOL    HW1 5606   3.669   5.833   4.934
 1569SOL    HW2 5607   3.658   5.778   4.781
 1570SOL     OW 5608   2.612   1.818   2.010
 1570SOL    HW1 5609   2.658   1.892   2.059
 1570SOL    HW2 5610   2.631   1.825   1.912
 1571SOL     OW 5611   0.513   2.365   6.463
 1571SOL    HW1 5612   0.459   2.439   6.421
 1571SOL    HW2 5613   0.530   2.387   6.559
 1572SOL     OW 5614   0.667   5.575   3.908
 1572SOL    HW1 5615   0.682   5.483   3.873
 1572SOL    HW2 5616   0.744   5.634   3.883
 1573SOL     OW 5617   4.172   0.304   0.048
 1573SOL    HW1 5618   4.102   0.272   7.001
 1573SOL    HW2 5619   4.158   0.401   0.066
 1574SOL     OW 5620   5.187   3.736   1.947
 1574SOL    HW1 5621   5.159   3.651   1.902
 1574SOL    HW2 5622   5.119   3.807   1.930
 1575SOL     OW 5623   3.468   2.612   0.080
 1575SOL    HW1 5624   3.467   2.684   0.150
 1575SOL    HW2 5625   3.492   2.525   0.121
 1576SOL     OW 5626   6.256   5.471   3.361
 1576SOL    HW1 5627   6.324   5.541   3.341
 1576SOL    HW2 5628   6.284   5.385   3.320
 1577SOL     OW 5629   1.789   0.717   0.922
 1577SOL    HW1 5630   1.746   0.649   0.981
 1577SOL    HW2 5631   1.882   0.735   0.954
 1578SOL     OW 5632   6.079   6.127   4.861
 1578SOL    HW1 5633   6.091   6.049   4.799
 1578SOL    HW2 5634   5.994   6.117   4.911
 1579SOL     OW 5635   0.060   1.280   3.554
 1579SOL    HW1 5636   0.132   1.285   3.624
 1579SOL    HW2 5637   0.045   1.184   3.529
 1580SOL     OW 5638   3.672   4.032   5.587
 1580SOL    HW1 5639   3.661   4.022   5.686
 1580SOL    HW2 5640   3.619   4.111   5.556
 1581SOL     OW 5641   6.189   3.314   4.649
 1581SOL    HW1 5642   6.216   3.323   4.553
 1581SOL    HW2 5643   6.252   3.365   4.706
 1582SOL     OW 5644   6.516   6.669   4.050
 1582SOL    HW1 5645   6.439   6.654   3.988
 1582SOL    HW2 5646   6.514   6.763   4.084
 1583SOL     OW 5647   2.457   3.100   0.794
 1583SOL    HW1 5648   2.386   3.128   0.859
 1583SOL    HW2 5649   2.533   3.164   0.799
 1584SOL     OW 5650   1.783   0.082   6.624
 1584SOL    HW1 5651   1.707   0.143   6.600
 1584SOL    HW2 5652   1.848   0.132   6.681
 1585SOL     OW 5653   5.569   1.148   5.813
 1585SOL    HW1 5654   5.599   1.055   5.792
 1585SOL    HW2 5655   5.638   1.213   5.781
 1586SOL     OW 5656   4.067   3.698   2.970
 1586SOL    HW1 5657   4.083   3.660   2.879
 1586SOL    HW2 5658   4.140   3.668   3.032
 1587SOL     OW 5659   1.924   6.787   6.050
 1587SOL    HW1 5660   1.988   6.756   5.979
 1587SOL    HW2 5661   1.910   6.885   6.042
 1588SOL     OW 5662   6.791   4.142   0.571
 1588SOL    HW1 5663   6.768   4.084   0.649
 1588SOL    HW2 5664   6.709   4.165   0.520
 1589SOL     OW 5665   5.247   5.065   3.095
 1589SOL    HW1 5666   5.327   5.006   3.086
 1589SOL    HW2 5667   5.207   5.053   3.185
 1590SOL     OW 5668   2.097   6.087   4.655
 1590SOL    HW1 5669   2.169   6.135   4.705
 1590SOL    HW2 5670   2.135   6.046   4.572
 1591SOL     OW 5671   2.442   3.293   0.430
 1591SOL    HW1 5672   2.385   3.357   0.482
 1591SOL    HW2 5673   2.512   3.343   0.381
 1592SOL     OW 5674   3.591   3.742   4.121
 1592SOL    HW1 5675   3.522   3.738   4.193
 1592SOL    HW2 5676   3.615   3.649   4.092
 1593SOL     OW 5677   0.979   4.730   3.689
 1593SOL    HW1 5678   0.892   4.763   3.724
 1593SOL    HW2 5679   1.046   4.726   3.763
 1594SOL     OW 5680   0.859   5.678   2.331
 1594SOL    HW1 5681   0.942   5.679   2.385
 1594SOL    HW2 5682   0.876   5.720   2.242
 1595SOL     OW 5683   6.425   3.373   4.850
 1595SOL    HW1 5684   6.434   3.274   4.866
 1595SOL    HW2 5685   6.385   3.416   4.931
 1596SOL     OW 5686   3.373   4.809   6.490
 1596SOL    HW1 5687   3.394   4.787   6.394
 1596SOL    HW2 5688   3.458   4.835   6.537
 1597SOL     OW 5689   2.570   6.575   1.314
 1597SOL    HW1 5690   2.489   6.544   1.264
 1597SOL    HW2 5691   2.648   6.516   1.292
 1598SOL     OW 5692   6.855   5.647   1.741
 1598SOL    HW1 5693   6.760   5.627   1.764
 1598SOL    HW2 5694   6.859   5.695   1.654
 1599SOL     OW 5695   3.000   5.410   0.448
 1599SOL    HW1 5696   2.926   5.452   0.500
 1599SOL    HW2 5697   3.059   5.358   0.510
 1600SOL     OW 5698   3.468   1.437   4.766
 1600SOL    HW1 5699   3.463   1.537   4.764
 1600SOL    HW2 5700   3.481   1.402   4.674
 1601SOL     OW 5701   1.504   5.083   4.901
 1601SOL    HW1 5702   1.422   5.107   4.952
 1601SOL    HW2 5703   1.533   5.162   4.845
 1602SOL     OW 5704   6.613   3.075   1.724
 1602SOL    HW1 5705   6.668   3.096   1.805
 1602SOL    HW2 5706   6.524   3.120   1.731
 1603SOL     OW 5707   5.848   6.696   1.110
 1603SOL    HW1 5708   5.823   6.792   1.100
 1603SOL    HW2 5709   5.948   6.687   1.114
 1604SOL     OW 5710   1.155   5.138   4.179
 1604SOL    HW1 5711   1.106   5.206   4.234
 1604SOL    HW2 5712   1.213   5.185   4.112
 1605SOL     OW 5713   5.173   5.177   1.995
 1605SOL    HW1 5714   5.264   5.196   2.032
 1605SOL    HW2 5715   5.140   5.090   2.031
 1606SOL     OW 5716   6.057   5.204   4.879
 1606SOL    HW1 5717   6.140   5.198   4.824
 1606SOL    HW2 5718   5.981   5.237   4.823
 1607SOL     OW 5719   5.601   3.968   1.663
 1607SOL    HW1 5720   5.544   3.896   1.702
 1607SOL    HW2 5721   5.563   4.057   1.688
 1608SOL     OW 5722   2.542   6.950   1.024
 1608SOL    HW1 5723   2.455   6.993   1.049
 1608SOL    HW2 5724   2.561   6.967   0.927
 1609SOL     OW 5725   5.936   2.365   5.225
 1609SOL    HW1 5726   6.026   2.358   5.182
 1609SOL    HW2 5727   5.924   2.457   5.263
 1610SOL     OW 5728   4.422   6.826   3.702
 1610SOL    HW1 5729   4.381   6.789   3.786
 1610SOL    HW2 5730   4.383   6.916   3.683
 1611SOL     OW 5731   4.471   3.594   1.632
 1611SOL    HW1 5732   4.546   3.660   1.634
 1611SOL    HW2 5733   4.388   3.637   1.667
 1612SOL     OW 5734   2.961   0.066   4.831
 1612SOL    HW1 5735   3.001   7.005   4.783
 1612SOL    HW2 5736   2.930   0.134   4.764
 1613SOL     OW 5737   2.295   0.116   1.913
 1613SOL    HW1 5738   2.295   0.027   1.867
 1613SOL    HW2 5739   2.253   0.184   1.853
 1614SOL     OW 5740   6.619   2.123   5.357
 1614SOL    HW1 5741   6.709   2.099   5.321
 1614SOL    HW2 5742   6.550   2.114   5.285
 1615SOL     OW 5743   6.520   5.529   5.390
 1615SOL    HW1 5744   6.449   5.553   5.455
 1615SOL    HW2 5745   6.604   5.579   5.413
 1616SOL     OW 5746   2.551   2.272   5.697
 1616SOL    HW1 5747   2.613   2.197   5.676
 1616SOL    HW2 5748   2.598   2.340   5.752
 1617SOL     OW 5749   3.092   1.122   3.152
 1617SOL    HW1 5750   3.015   1.072   3.191
 1617SOL    HW2 5751   3.097   1.104   3.054
 1618SOL     OW 5752   5.286   2.890   2.033
 1618SOL    HW1 5753   5.281   2.900   2.132
 1618SOL    HW2 5754   5.194   2.895   1.994
 1619SOL     OW 5755   1.379   3.238   4.872
 1619SOL    HW1 5756   1.462   3.294   4.873
 1619SOL    HW2 5757   1.318   3.268   4.945
 1620SOL     OW 5758   3.403   5.903   1.147
 1620SOL    HW1 5759   3.435   5.869   1.235
 1620SOL    HW2 5760   3.318   5.858   1.122
 1621SOL     OW 5761   2.448   2.381   1.432
 1621SOL    HW1 5762   2.544   2.408   1.444
 1621SOL    HW2 5763   2.444   2.292   1.387
 1622SOL     OW 5764   2.183   2.598   5.382
 1622SOL    HW1 5765   2.271   2.603   5.334
 1622SOL    HW2 5766   2.117   2.547   5.327
 1623SOL     OW 5767   2.451   2.174   4.508
 1623SOL    HW1 5768   2.418   2.265   4.533
 1623SOL    HW2 5769   2.418   2.107   4.574
 1624SOL     OW 5770   1.978   0.414   0.299
 1624SOL    HW1 5771   1.955   0.410   0.202
 1624SOL    HW2 5772   1.917   0.354   0.351
 1625SOL     OW 5773   1.614   0.205   0.982
 1625SOL    HW1 5774   1.560   0.197   0.899
 1625SOL    HW2 5775   1.625   0.115   1.025
 1626SOL     OW 5776   2.192   3.478   6.396
 1626SOL    HW1 5777   2.147   3.540   6.460
 1626SOL    HW2 5778   2.249   3.531   6.333
 1627SOL     OW 5779   4.655   4.253   3.164
 1627SOL    HW1 5780   4.662   4.252   3.264
 1627SOL    HW2 5781   4.701   4.172   3.127
 1628SOL     OW 5782   4.211   3.197   0.097
 1628SOL    HW1 5783   4.129   3.171   0.046
 1628SOL    HW2 5784   4.218   3.296   0.100
 1629SOL     OW 5785   1.964   2.444   3.323
 1629SOL    HW1 5786   2.054   2.401   3.327
 1629SOL    HW2 5787   1.965   2.518   3.255
 1630SOL     OW 5788   5.655   4.700   4.227
 1630SOL    HW1 5789   5.717   4.759   4.176
 1630SOL    HW2 5790   5.638   4.738   4.317
 1631SOL     OW 5791   1.359   0.480   5.733
 1631SOL    HW1 5792   1.308   0.446   5.812
 1631SOL    HW2 5793   1.390   0.573   5.751
 1632SOL     OW 5794   3.921   6.627   6.814
 1632SOL    HW1 5795   3.989   6.583   6.755
 1632SOL    HW2 5796   3.950   6.621   6.909
 1633SOL     OW 5797   6.520   3.823   2.861
 1633SOL    HW1 5798   6.575   3.773   2.794
 1633SOL    HW2 5799   6.573   3.833   2.946
 1634SOL     OW 5800   3.729   0.814   1.198
 1634SOL    HW1 5801   3.698   0.865   1.279
 1634SOL    HW2 5802   3.683   0.725   1.195
 1635SOL     OW 5803   1.831   3.729   3.635
 1635SOL    HW1 5804   1.842   3.820   3.595
 1635SOL    HW2 5805   1.773   3.673   3.576
 1636SOL     OW 5806   2.349   6.380   0.538
 1636SOL    HW1 5807   2.263   6.336   0.563
 1636SOL    HW2 5808   2.393   6.416   0.620
 1637SOL     OW 5809   1.246   2.901   2.322
 1637SOL    HW1 5810   1.212   2.821   2.273
 1637SOL    HW2 5811   1.339   2.883   2.355
 1638SOL     OW 5812   0.748   2.446   5.748
 1638SOL    HW1 5813   0.667   2.395   5.719
 1638SOL    HW2 5814   0.774   2.418   5.841
 1639SOL     OW 5815   3.715   5.206   2.720
 1639SOL    HW1 5816   3.706   5.286   2.779
 1639SOL    HW2 5817   3.625   5.180   2.685
 1640SOL     OW 5818   5.470   6.943   0.968
 1640SOL    HW1 5819   5.478   0.003   0.905
 1640SOL    HW2 5820   5.511   6.862   0.926
 1641SOL     OW 5821   6.323   2.529   4.536
 1641SOL    HW1 5822   6.294   2.624   4.542
 1641SOL    HW2 5823   6.419   2.525   4.509
 1642SOL     OW 5824   0.180   2.500   0.969
 1642SOL    HW1 5825   0.110   2.571   0.971
 1642SOL    HW2 5826   0.146   2.420   0.918
 1643SOL     OW 5827   4.106   0.367   5.586
 1643SOL    HW1 5828   4.172   0.293   5.592
 1643SOL    HW2 5829   4.039   0.346   5.515
 1644SOL     OW 5830   3.713   1.292   1.140
 1644SOL    HW1 5831   3.801   1.295   1.092
 1644SOL    HW2 5832   3.728   1.284   1.238
 1645SOL     OW 5833   2.359   5.570   5.740
 1645SOL    HW1 5834   2.434   5.503   5.745
 1645SOL    HW2 5835   2.359   5.612   5.649
 1646SOL     OW 5836   2.980   3.513   0.344
 1646SOL    HW1 5837   3.063   3.493   0.394
 1646SOL    HW2 5838   2.975   3.455   0.262
 1647SOL     OW 5839   5.908   3.099   2.122
 1647SOL    HW1 5840   5.921   3.015   2.070
 1647SOL    HW2 5841   5.812   3.110   2.145
 1648SOL     OW 5842   2.796   0.538   3.559
 1648SOL    HW1 5843   2.812   0.484   3.641
 1648SOL    HW2 5844   2.866   0.515   3.490
 1649SOL     OW 5845   2.862   0.718   4.465
 1649SOL    HW1 5846   2.898   0.657   4.395
 1649SOL    HW2 5847   2.885   0.813   4.443
 1650SOL     OW 5848   2.805   6.850   4.456
 1650SOL    HW1 5849   2.761   6.937   4.434
 1650SOL    HW2 5850   2.895   6.866   4.495
 1651SOL     OW 5851   1.382   6.817   2.526
 1651SOL    HW1 5852   1.386   6.840   2.623
 1651SOL    HW2 5853   1.452   6.750   2.504
 1652SOL     OW 5854   4.122   3.474   1.365
 1652SOL    HW1 5855   4.033   3.430   1.353
 1652SOL    HW2 5856   4.115   3.546   1.433
 1653SOL     OW 5857   1.269   4.218   1.042
 1653SOL    HW1 5858   1.203   4.207   1.117
 1653SOL    HW2 5859   1.306   4.129   1.017
 1654SOL     OW 5860   0.899   2.554   3.832
 1654SOL    HW1 5861   0.915   2.645   3.794
 1654SOL    HW2 5862   0.824   2.510   3.783
 1655SOL     OW 5863   4.251   4.110   5.369
 1655SOL    HW1 5864   4.197   4.166   5.431
 1655SOL    HW2 5865   4.332   4.160   5.340
 1656SOL     OW 5866   0.194   3.401   2.110
 1656SOL    HW1 5867   0.220   3.446   2.196
 1656SOL    HW2 5868   0.129   3.328   2.130
 1657SOL     OW 5869   1.249   0.761   5.999
 1657SOL    HW1 5870   1.157   0.729   5.978
 1657SOL    HW2 5871   1.303   0.685   6.036
 1658SOL     OW 5872   6.051   6.771   3.504
 1658SOL    HW1 5873   6.133   6.780   3.447
 1658SOL    HW2 5874   5.978   6.827   3.466
 1659SOL     OW 5875   5.809   2.490   6.599
 1659SOL    HW1 5876   5.852   2.400   6.596
 1659SOL    HW2 5877   5.873   2.558   6.565
 1660SOL     OW 5878   2.392   5.689   3.478
 1660SOL    HW1 5879   2.416   5.786   3.488
 1660SOL    HW2 5880   2.462   5.633   3.522
 1661SOL     OW 5881   2.541   0.791   3.274
 1661SOL    HW1 5882   2.527   0.818   3.369
 1661SOL    HW2 5883   2.637   0.766   3.259
 1662SOL     OW 5884   0.638   1.377   3.693
 1662SOL    HW1 5885   0.674   1.340   3.607
 1662SOL    HW2 5886   0.610   1.302   3.753
 1663SOL     OW 5887   1.042   0.370   3.191
 1663SOL    HW1 5888   1.084   0.434   3.255
 1663SOL    HW2 5889   0.945   0.393   3.179
 1664SOL     OW 5890   1.953   5.896   4.154
 1664SOL    HW1 5891   1.995   5.841   4.226
 1664SOL    HW2 5892   1.911   5.836   4.086
 1665SOL     OW 5893   0.239   0.986   4.130
 1665SOL    HW1 5894   0.237   1.061   4.196
 1665SOL    HW2 5895   0.303   1.008   4.056
 1666SOL     OW 5896   6.259   2.288   6.845
 1666SOL    HW1 5897   6.286   2.246   6.932
 1666SOL    HW2 5898   6.256   2.387   6.856
 1667SOL     OW 5899   6.812   0.122   0.801
 1667SOL    HW1 5900   6.874   0.116   0.880
 1667SOL    HW2 5901   6.804   0.031   0.759
 1668SOL     OW 5902   2.201   0.195   4.536
 1668SOL    HW1 5903   2.201   0.287   4.575
 1668SOL    HW2 5904   2.118   0.181   4.483
 1669SOL     OW 5905   5.279   5.959   6.269
 1669SOL    HW1 5906   5.205   5.924   6.211
 1669SOL    HW2 5907   5.264   5.928   6.364
 1670SOL     OW 5908   6.785   3.447   5.763
 1670SOL    HW1 5909   6.704   3.505   5.758
 1670SOL    HW2 5910   6.762   3.355   5.730
 1671SOL     OW 5911   6.416   4.701   0.926
 1671SOL    HW1 5912   6.329   4.684   0.973
 1671SOL    HW2 5913   6.443   4.796   0.939
 1672SOL     OW 5914   2.207   4.419   2.620
 1672SOL    HW1 5915   2.122   4.403   2.671
 1672SOL    HW2 5916   2.202   4.376   2.530
 1673SOL     OW 5917   6.330   3.494   3.194
 1673SOL    HW1 5918   6.263   3.547   3.143
 1673SOL    HW2 5919   6.405   3.467   3.133
 1674SOL     OW 5920   2.360   5.583   0.063
 1674SOL    HW1 5921   2.357   5.680   0.090
 1674SOL    HW2 5922   2.454   5.557   0.042
 1675SOL     OW 5923   5.148   2.170   6.348
 1675SOL    HW1 5924   5.117   2.144   6.439
 1675SOL    HW2 5925   5.093   2.124   6.278
 1676SOL     OW 5926   3.076   1.861   3.057
 1676SOL    HW1 5927   3.170   1.851   3.023
 1676SOL    HW2 5928   3.052   1.958   3.059
 1677SOL     OW 5929   5.243   0.211   6.053
 1677SOL    HW1 5930   5.220   0.300   6.092
 1677SOL    HW2 5931   5.190   0.140   6.098
 1678SOL     OW 5932   4.847   6.596   2.291
 1678SOL    HW1 5933   4.787   6.554   2.360
 1678SOL    HW2 5934   4.933   6.545   2.286
 1679SOL     OW 5935   6.360   4.671   0.019
 1679SOL    HW1 5936   6.304   4.677   0.101
 1679SOL    HW2 5937   6.356   4.578   7.000
 1680SOL     OW 5938   0.029   2.329   5.472
 1680SOL    HW1 5939   6.970   2.267   5.491
 1680SOL    HW2 5940   0.035   2.399   5.544
 1681SOL     OW 5941   4.918   5.485   0.742
 1681SOL    HW1 5942   4.988   5.507   0.673
 1681SOL    HW2 5943   4.921   5.388   0.764
 1682SOL     OW 5944   7.003   3.591   5.855
 1682SOL    HW1 5945   0.028   3.642   5.780
 1682SOL    HW2 5946   6.937   3.526   5.819
 1683SOL     OW 5947   5.935   5.306   5.445
 1683SOL    HW1 5948   5.963   5.263   5.360
 1683SOL    HW2 5949   6.007   5.368   5.477
 1684SOL     OW 5950   0.609   6.984   4.458
 1684SOL    HW1 5951   0.659   6.920   4.399
 1684SOL    HW2 5952   0.619   0.059   4.422
 1685SOL     OW 5953   1.078   1.983   6.920
 1685SOL    HW1 5954   1.176   1.992   6.939
 1685SOL    HW2 5955   1.061   1.896   6.874
 1686SOL     OW 5956   1.421   0.043   6.391
 1686SOL    HW1 5957   1.496   6.996   6.404
 1686SOL    HW2 5958   1.433   0.090   6.304
 1687SOL     OW 5959   2.629   6.617   2.499
 1687SOL    HW1 5960   2.572   6.587   2.422
 1687SOL    HW2 5961   2.725   6.595   2.480
 1688SOL     OW 5962   0.620   1.851   3.626
 1688SOL    HW1 5963   0.672   1.934   3.649
 1688SOL    HW2 5964   0.657   1.773   3.676
 1689SOL     OW 5965   2.095   1.780   1.763
 1689SOL    HW1 5966   2.027   1.797   1.692
 1689SOL    HW2 5967   2.176   1.837   1.747
 1690SOL     OW 5968   1.356   1.720   0.329
 1690SOL    HW1 5969   1.346   1.807   0.378
 1690SOL    HW2 5970   1.427   1.730   0.259
 1691SOL     OW 5971   4.931   3.933   3.498
 1691SOL    HW1 5972   4.878   3.978   3.570
 1691SOL    HW2 5973   5.003   3.993   3.467
 1692SOL     OW 5974   0.719   6.478   4.238
 1692SOL    HW1 5975   0.644   6.539   4.213
 1692SOL    HW2 5976   0.684   6.403   4.294
 1693SOL     OW 5977   3.606   2.128   3.960
 1693SOL    HW1 5978   3.701   2.155   3.977
 1693SOL    HW2 5979   3.576   2.166   3.872
 1694SOL     OW 5980   6.384   6.260   5.271
 1694SOL    HW1 5981   6.418   6.307   5.352
 1694SOL    HW2 5982   6.304   6.206   5.295
 1695SOL     OW 5983   3.613   1.721   6.310
 1695SOL    HW1 5984   3.672   1.677   6.377
 1695SOL    HW2 5985   3.603   1.818   6.333
 1696SOL     OW 5986   3.469   5.634   2.066
 1696SOL    HW1 5987   3.390   5.664   2.119
 1696SOL    HW2 5988   3.550   5.682   2.098
 1697SOL     OW 5989   1.631   1.567   1.979
 1697SOL    HW1 5990   1.609   1.636   1.910
 1697SOL    HW2 5991   1.708   1.511   1.947
 1698SOL     OW 5992   5.127   1.140   6.861
 1698SOL    HW1 5993   5.225   1.159   6.875
 1698SOL    HW2 5994   5.073   1.203   6.917
 1699SOL     OW 5995   2.610   4.577   1.425
 1699SOL    HW1 5996   2.684   4.548   1.485
 1699SOL    HW2 5997   2.538   4.507   1.423
 1700SOL     OW 5998   5.532   2.779   4.461
 1700SOL    HW1 5999   5.437   2.781   4.492
 1700SOL    HW2 6000   5.546   2.701   4.400
 1701SOL     OW 6001   5.647   2.947   5.036
 1701SOL    HW1 6002   5.582   2.894   4.983
 1701SOL    HW2 6003   5.597   3.007   5.099
 1702SOL     OW 6004   5.181   3.131   1.361
 1702SOL    HW1 6005   5.253   3.098   1.424
 1702SOL    HW2 6006   5.197   3.227   1.340
 1703SOL     OW 6007   2.168   3.891   1.526
 1703SOL    HW1 6008   2.262   3.881   1.494
 1703SOL    HW2 6009   2.167   3.944   1.611
 1704SOL     OW 6010   6.936   1.684   2.473
 1704SOL    HW1 6011   6.923   1.604   2.415
 1704SOL    HW2 6012   6.999   1.662   2.548
 1705SOL     OW 6013   4.002   3.365   2.598
 1705SOL    HW1 6014   3.998   3.293   2.667
 1705SOL    HW2 6015   4.056   3.333   2.520
 1706SOL     OW 6016   2.417   0.509   6.273
 1706SOL    HW1 6017   2.338   0.554   6.233
 1706SOL    HW2 6018   2.485   0.491   6.202
 1707SOL     OW 6019   4.847   1.479   2.153
 1707SOL    HW1 6020   4.785   1.504   2.079
 1707SOL    HW2 6021   4.896   1.560   2.185
 1708SOL     OW 6022   0.434   4.302   0.924
 1708SOL    HW1 6023   0.403   4.348   0.840
 1708SOL    HW2 6024   0.476   4.214   0.899
 1709SOL     OW 6025   3.261   5.508   3.877
 1709SOL    HW1 6026   3.335   5.541   3.935
 1709SOL    HW2 6027   3.294   5.430   3.823
 1710SOL     OW 6028   6.616   4.310   4.938
 1710SOL    HW1 6029   6.564   4.337   5.019
 1710SOL    HW2 6030   6.649   4.216   4.948
 1711SOL     OW 6031   0.819   4.301   5.953
 1711SOL    HW1 6032   0.843   4.317   6.048
 1711SOL    HW2 6033   0.840   4.382   5.898
 1712SOL     OW 6034   1.514   4.189   2.069
 1712SOL    HW1 6035   1.602   4.211   2.027
 1712SOL    HW2 6036   1.471   4.114   2.018
 1713SOL     OW 6037   2.592   3.891   1.132
 1713SOL    HW1 6038   2.678   3.862   1.174
 1713SOL    HW2 6039   2.598   3.988   1.108
 1714SOL     OW 6040   4.873   1.358   0.892
 1714SOL    HW1 6041   4.862   1.455   0.914
 1714SOL    HW2 6042   4.790   1.325   0.846
 1715SOL     OW 6043   1.217   3.676   3.282
 1715SOL    HW1 6044   1.259   3.590   3.252
 1715SOL    HW2 6045   1.221   3.681   3.382
 1716SOL     OW 6046   0.046   6.690   0.177
 1716SOL    HW1 6047   0.134   6.659   0.140
 1716SOL    HW2 6048   0.059   6.721   0.271
 1717SOL     OW 6049   3.084   0.769   0.044
 1717SOL    HW1 6050   3.174   0.726   0.035
 1717SOL    HW2 6051   3.013   0.699   0.042
 1718SOL     OW 6052   1.834   4.334   5.481
 1718SOL    HW1 6053   1.827   4.429   5.454
 1718SOL    HW2 6054   1.747   4.302   5.519
 1719SOL     OW 6055   2.240   2.841   0.515
 1719SOL    HW1 6056   2.314   2.804   0.571
 1719SOL    HW2 6057   2.262   2.935   0.487
 1720SOL     OW 6058   0.272   2.204   2.492
 1720SOL    HW1 6059   0.301   2.116   2.529
 1720SOL    HW2 6060   0.306   2.278   2.550
 1721SOL     OW 6061   0.895   5.756   3.881
 1721SOL    HW1 6062   0.850   5.826   3.825
 1721SOL    HW2 6063   0.985   5.789   3.909
 1722SOL     OW 6064   5.492   0.003   1.956
 1722SOL    HW1 6065   5.511   6.987   1.863
 1722SOL    HW2 6066   5.406   0.053   1.956
 1723SOL     OW 6067   6.168   0.888   3.251
 1723SOL    HW1 6068   6.070   0.908   3.247
 1723SOL    HW2 6069   6.214   0.937   3.177
 1724SOL     OW 6070   5.018   0.452   6.995
 1724SOL    HW1 6071   4.924   0.484   6.982
 1724SOL    HW2 6072   5.018   0.375   0.041
 1725SOL     OW 6073   4.056   5.885   1.981
 1725SOL    HW1 6074   4.068   5.801   2.034
 1725SOL    HW2 6075   4.098   5.873   1.891
 1726SOL     OW 6076   5.948   4.573   4.894
 1726SOL    HW1 6077   5.993   4.565   4.983
 1726SOL    HW2 6078   5.928   4.669   4.875
 1727SOL     OW 6079   2.757   4.841   5.937
 1727SOL    HW1 6080   2.737   4.823   6.034
 1727SOL    HW2 6081   2.766   4.754   5.889
 1728SOL     OW 6082   4.851   5.572   3.292
 1728SOL    HW1 6083   4.841   5.670   3.272
 1728SOL    HW2 6084   4.834   5.556   3.389
 1729SOL     OW 6085   6.873   2.785   2.608
 1729SOL    HW1 6086   6.819   2.787   2.692
 1729SOL    HW2 6087   6.922   2.872   2.598
 1730SOL     OW 6088   4.285   2.346   4.543
 1730SOL    HW1 6089   4.268   2.337   4.642
 1730SOL    HW2 6090   4.381   2.371   4.528
 1731SOL     OW 6091   0.440   6.836   6.427
 1731SOL    HW1 6092   0.394   6.782   6.357
 1731SOL    HW2 6093   0.527   6.793   6.451
 1732SOL     OW 6094   1.047   4.429   6.736
 1732SOL    HW1 6095   0.982   4.482   6.792
 1732SOL    HW2 6096   1.140   4.456   6.759
 1733SOL     OW 6097   1.622   4.128   6.648
 1733SOL    HW1 6098   1.592   4.096   6.558
 1733SOL    HW2 6099   1.720   4.149   6.645
 1734SOL     OW 6100   5.479   4.007   0.688
 1734SOL    HW1 6101   5.445   3.918   0.656
 1734SOL    HW2 6102   5.401   4.068   0.704
 1735SOL     OW 6103   4.798   5.590   6.680
 1735SOL    HW1 6104   4.795   5.548   6.589
 1735SOL    HW2 6105   4.881   5.558   6.728
 1736SOL     OW 6106   3.871   3.064   0.594
 1736SOL    HW1 6107   3.929   3.143   0.616
 1736SOL    HW2 6108   3.929   2.987   0.566
 1737SOL     OW 6109   0.793   6.128   3.406
 1737SOL    HW1 6110   0.861   6.200   3.391
 1737SOL    HW2 6111   0.720   6.163   3.465
 1738SOL     OW 6112   0.627   1.299   2.119
 1738SOL    HW1 6113   0.627   1.237   2.198
 1738SOL    HW2 6114   0.674   1.254   2.042
 1739SOL     OW 6115   4.237   1.645   6.545
 1739SOL    HW1 6116   4.205   1.701   6.469
 1739SOL    HW2 6117   4.305   1.579   6.512
 1740SOL     OW 6118   0.818   1.729   0.081
 1740SOL    HW1 6119   0.773   1.789   0.015
 1740SOL    HW2 6120   0.894   1.682   0.037
 1741SOL     OW 6121   0.623   0.321   2.743
 1741SOL    HW1 6122   0.584   0.369   2.665
 1741SOL    HW2 6123   0.700   0.374   2.780
 1742SOL     OW 6124   6.293   6.115   3.905
 1742SOL    HW1 6125   6.353   6.191   3.929
 1742SOL    HW2 6126   6.229   6.145   3.833
 1743SOL     OW 6127   4.138   1.649   0.425
 1743SOL    HW1 6128   4.215   1.591   0.396
 1743SOL    HW2 6129   4.135   1.652   0.525
 1744SOL     OW 6130   4.131   6.452   1.783
 1744SOL    HW1 6131   4.196   6.454   1.708
 1744SOL    HW2 6132   4.059   6.520   1.767
 1745SOL     OW 6133   0.649   2.331   5.137
 1745SOL    HW1 6134   0.705   2.413   5.146
 1745SOL    HW2 6135   0.632   2.292   5.227
 1746SOL     OW 6136   2.837   1.199   0.010
 1746SOL    HW1 6137   2.903   1.161   0.075
 1746SOL    HW2 6138   2.791   1.125   6.979
 1747SOL     OW 6139   3.644   6.796   4.649
 1747SOL    HW1 6140   3.596   6.879   4.680
 1747SOL    HW2 6141   3.577   6.730   4.616
 1748SOL     OW 6142   5.786   0.806   1.814
 1748SOL    HW1 6143   5.790   0.775   1.909
 1748SOL    HW2 6144   5.704   0.768   1.770
 1749SOL     OW 6145   5.186   6.754   6.068
 1749SOL    HW1 6146   5.088   6.769   6.084
 1749SOL    HW2 6147   5.212   6.665   6.104
 1750SOL     OW 6148   3.533   0.949   3.190
 1750SOL    HW1 6149   3.601   0.961   3.262
 1750SOL    HW2 6150   3.550   1.013   3.116
 1751SOL     OW 6151   2.249   5.653   4.398
 1751SOL    HW1 6152   2.310   5.681   4.473
 1751SOL    HW2 6153   2.300   5.593   4.336
 1752SOL     OW 6154   6.749   1.661   5.983
 1752SOL    HW1 6155   6.837   1.708   5.972
 1752SOL    HW2 6156   6.710   1.644   5.893
 1753SOL     OW 6157   1.926   6.744   2.199
 1753SOL    HW1 6158   1.889   6.658   2.235
 1753SOL    HW2 6159   1.857   6.815   2.202
 1754SOL     OW 6160   3.272   3.020   3.170
 1754SOL    HW1 6161   3.239   3.011   3.076
 1754SOL    HW2 6162   3.371   3.012   3.171
 1755SOL     OW 6163   0.058   4.088   6.730
 1755SOL    HW1 6164   0.100   4.147   6.799
 1755SOL    HW2 6165   0.104   4.100   6.642
 1756SOL     OW 6166   5.785   5.262   5.683
 1756SOL    HW1 6167   5.851   5.237   5.612
 1756SOL    HW2 6168   5.699   5.290   5.642
 1757SOL     OW 6169   3.667   0.398   5.181
 1757SOL    HW1 6170   3.605   0.390   5.103
 1757SOL    HW2 6171   3.693   0.493   5.193
 1758SOL     OW 6172   2.227   1.412   3.125
 1758SOL    HW1 6173   2.144   1.371   3.163
 1758SOL    HW2 6174   2.261   1.356   3.050
 1759SOL     OW 6175   6.917   6.042   5.878
 1759SOL    HW1 6176   6.975   5.966   5.850
 1759SOL    HW2 6177   6.910   6.044   5.978
 1760SOL     OW 6178   4.525   6.552   3.713
 1760SOL    HW1 6179   4.433   6.537   3.678
 1760SOL    HW2 6180   4.549   6.649   3.704
 1761SOL     OW 6181   5.953   3.330   0.925
 1761SOL    HW1 6182   6.009   3.413   0.927
 1761SOL    HW2 6183   6.008   3.252   0.954
 1762SOL     OW 6184   6.141   2.729   0.203
 1762SOL    HW1 6185   6.047   2.724   0.170
 1762SOL    HW2 6186   6.182   2.816   0.175
 1763SOL     OW 6187   1.858   2.243   4.157
 1763SOL    HW1 6188   1.764   2.271   4.178
 1763SOL    HW2 6189   1.856   2.166   4.094
 1764SOL     OW 6190   6.506   3.820   3.233
 1764SOL    HW1 6191   6.540   3.862   3.317
 1764SOL    HW2 6192   6.406   3.817   3.236
 1765SOL     OW 6193   1.844   3.145   6.378
 1765SOL    HW1 6194   1.825   3.233   6.421
 1765SOL    HW2 6195   1.929   3.151   6.326
 1766SOL     OW 6196   5.869   4.281   5.698
 1766SOL    HW1 6197   5.813   4.240   5.626
 1766SOL    HW2 6198   5.829   4.259   5.787
 1767SOL     OW 6199   6.893   4.970   1.203
 1767SOL    HW1 6200   6.841   5.022   1.271
 1767SOL    HW2 6201   6.830   4.913   1.150
 1768SOL     OW 6202   6.385   0.453   3.291
 1768SOL    HW1 6203   6.401   0.520   3.219
 1768SOL    HW2 6204   6.326   0.494   3.361
 1769SOL     OW 6205   4.832   0.699   3.961
 1769SOL    HW1 6206   4.850   0.604   3.985
 1769SOL    HW2 6207   4.733   0.712   3.950
 1770SOL     OW 6208   3.424   5.593   5.289
 1770SOL    HW1 6209   3.444   5.606   5.386
 1770SOL    HW2 6210   3.339   5.541   5.279
 1771SOL     OW 6211   5.080   5.916   0.036
 1771SOL    HW1 6212   5.019   5.895   6.977
 1771SOL    HW2 6213   5.162   5.963   0.002
 1772SOL     OW 6214   2.219   6.021   2.300
 1772SOL    HW1 6215   2.239   6.105   2.352
 1772SOL    HW2 6216   2.291   6.006   2.232
 1773SOL     OW 6217   2.085   6.721   0.098
 1773SOL    HW1 6218   2.100   6.818   0.116
 1773SOL    HW2 6219   1.988   6.699   0.111
 1774SOL     OW 6220   2.339   5.356   1.322
 1774SOL    HW1 6221   2.400   5.377   1.246
 1774SOL    HW2 6222   2.390   5.309   1.394
 1775SOL     OW 6223   0.713   5.327   0.173
 1775SOL    HW1 6224   0.787   5.287   0.226
 1775SOL    HW2 6225   0.742   5.417   0.138
 1776SOL     OW 6226   2.859   6.055   4.985
 1776SOL    HW1 6227   2.946   6.102   4.995
 1776SOL    HW2 6228   2.822   6.033   5.075
 1777SOL     OW 6229   4.323   6.160   6.657
 1777SOL    HW1 6230   4.253   6.200   6.599
 1777SOL    HW2 6231   4.328   6.061   6.641
 1778SOL     OW 6232   0.693   3.582   6.053
 1778SOL    HW1 6233   0.600   3.568   6.018
 1778SOL    HW2 6234   0.692   3.656   6.121
 1779SOL     OW 6235   3.913   6.588   4.935
 1779SOL    HW1 6236   4.002   6.616   4.973
 1779SOL    HW2 6237   3.880   6.507   4.984
 1780SOL     OW 6238   4.170   2.165   6.399
 1780SOL    HW1 6239   4.143   2.184   6.493
 1780SOL    HW2 6240   4.269   2.153   6.394
 1781SOL     OW 6241   1.808   6.138   3.212
 1781SOL    HW1 6242   1.850   6.055   3.176
 1781SOL    HW2 6243   1.871   6.183   3.275
 1782SOL     OW 6244   3.162   1.189   4.759
 1782SOL    HW1 6245   3.232   1.203   4.828
 1782SOL    HW2 6246   3.205   1.161   4.673
 1783SOL     OW 6247   2.184   6.053   0.142
 1783SOL    HW1 6248   2.209   6.131   0.199
 1783SOL    HW2 6249   2.138   6.085   0.059
 1784SOL     OW 6250   1.607   6.676   6.234
 1784SOL    HW1 6251   1.612   6.608   6.307
 1784SOL    HW2 6252   1.640   6.637   6.149
 1785SOL     OW 6253   6.865   5.161   2.998
 1785SOL    HW1 6254   6.948   5.131   2.951
 1785SOL    HW2 6255   6.811   5.219   2.937
 1786SOL     OW 6256   3.974   2.354   1.350
 1786SOL    HW1 6257   3.886   2.387   1.385
 1786SOL    HW2 6258   3.991   2.396   1.261
 1787SOL     OW 6259   3.476   0.297   5.371
 1787SOL    HW1 6260   3.458   0.208   5.329
 1787SOL    HW2 6261   3.561   0.335   5.332
 1788SOL     OW 6262   1.564   4.943   5.131
 1788SOL    HW1 6263   1.632   4.871   5.125
 1788SOL    HW2 6264   1.563   4.995   5.046
 1789SOL     OW 6265   5.844   6.495   0.515
 1789SOL    HW1 6266   5.876   6.532   0.603
 1789SOL    HW2 6267   5.751   6.526   0.498
 1790SOL     OW 6268   1.693   6.857   2.582
 1790SOL    HW1 6269   1.651   6.771   2.553
 1790SOL    HW2 6270   1.780   6.869   2.533
 1791SOL     OW 6271   0.881   6.834   3.408
 1791SOL    HW1 6272   0.836   6.911   3.453
 1791SOL    HW2 6273   0.951   6.796   3.469
 1792SOL     OW 6274   0.341   3.845   4.038
 1792SOL    HW1 6275   0.371   3.939   4.058
 1792SOL    HW2 6276   0.287   3.810   4.115
 1793SOL     OW 6277   0.107   0.361   4.366
 1793SOL    HW1 6278   0.159   0.277   4.379
 1793SOL    HW2 6279   0.130   0.427   4.438
 1794SOL     OW 6280   4.465   5.889   6.235
 1794SOL    HW1 6281   4.509   5.818   6.290
 1794SOL    HW2 6282   4.391   5.849   6.181
 1795SOL     OW 6283   0.961   3.709   0.167
 1795SOL    HW1 6284   0.973   3.635   0.101
 1795SOL    HW2 6285   1.037   3.773   0.159
 1796SOL     OW 6286   3.738   0.105   5.562
 1796SOL    HW1 6287   3.734   0.104   5.662
 1796SOL    HW2 6288   3.815   0.050   5.531
 1797SOL     OW 6289   0.216   1.125   2.123
 1797SOL    HW1 6290   0.251   1.129   2.216
 1797SOL    HW2 6291   0.147   1.053   2.116
 1798SOL     OW 6292   6.210   1.561   3.297
 1798SOL    HW1 6293   6.196   1.567   3.198
 1798SOL    HW2 6294   6.305   1.536   3.316
 1799SOL     OW 6295   2.892   0.142   0.695
 1799SOL    HW1 6296   2.885   0.210   0.622
 1799SOL    HW2 6297   2.853   0.055   0.665
 1800SOL     OW 6298   2.834   4.722   2.250
 1800SOL    HW1 6299   2.875   4.634   2.274
 1800SOL    HW2 6300   2.787   4.714   2.162
 1801SOL     OW 6301   5.416   6.286   0.777
 1801SOL    HW1 6302   5.397   6.192   0.748
 1801SOL    HW2 6303   5.431   6.288   0.876
 1802SOL     OW 6304   6.015   5.321   4.337
 1802SOL    HW1 6305   5.971   5.237   4.305
 1802SOL    HW2 6306   6.008   5.391   4.266
 1803SOL     OW 6307   6.519   4.743   0.319
 1803SOL    HW1 6308   6.542   4.675   0.389
 1803SOL    HW2 6309   6.425   4.726   0.287
 1804SOL     OW 6310   2.675   3.568   5.762
 1804SOL    HW1 6311   2.611   3.619   5.820
 1804SOL    HW2 6312   2.728   3.505   5.819
 1805SOL     OW 6313   6.905   2.730   6.870
 1805SOL    HW1 6314   6.910   2.698   6.776
 1805SOL    HW2 6315   6.840   2.805   6.877
 1806SOL     OW 6316   6.548   6.308   0.293
 1806SOL    HW1 6317   6.590   6.231   0.341
 1806SOL    HW2 6318   6.617   6.354   0.237
 1807SOL     OW 6319   6.953   1.991   5.710
 1807SOL    HW1 6320   0.026   2.005   5.749
 1807SOL    HW2 6321   6.931   2.067   5.649
 1808SOL     OW 6322   2.260   4.829   4.038
 1808SOL    HW1 6323   2.213   4.910   4.073
 1808SOL    HW2 6324   2.357   4.851   4.024
 1809SOL     OW 6325   3.716   0.681   6.313
 1809SOL    HW1 6326   3.772   0.618   6.366
 1809SOL    HW2 6327   3.629   0.697   6.359
 1810SOL     OW 6328   3.349   6.213   3.248
 1810SOL    HW1 6329   3.350   6.187   3.151
 1810SOL    HW2 6330   3.416   6.284   3.265
 1811SOL     OW 6331   5.528   5.534   3.020
 1811SOL    HW1 6332   5.453   5.498   3.075
 1811SOL    HW2 6333   5.505   5.526   2.923
 1812SOL     OW 6334   4.633   4.977   5.104
 1812SOL    HW1 6335   4.600   5.020   5.020
 1812SOL    HW2 6336   4.700   4.907   5.081
 1813SOL     OW 6337   0.155   6.676   5.230
 1813SOL    HW1 6338   0.126   6.588   5.192
 1813SOL    HW2 6339   0.184   6.736   5.155
 1814SOL     OW 6340   4.479   0.580   2.800
 1814SOL    HW1 6341   4.399   0.537   2.841
 1814SOL    HW2 6342   4.497   0.667   2.846
 1815SOL     OW 6343   0.342   1.461   3.153
 1815SOL    HW1 6344   0.420   1.446   3.093
 1815SOL    HW2 6345   0.272   1.391   3.137
 1816SOL     OW 6346   1.426   5.533   0.379
 1816SOL    HW1 6347   1.470   5.562   0.294
 1816SOL    HW2 6348   1.480   5.460   0.421
 1817SOL     OW 6349   1.335   4.208   1.803
 1817SOL    HW1 6350   1.289   4.291   1.832
 1817SOL    HW2 6351   1.433   4.225   1.792
 1818SOL     OW 6352   0.276   1.733   3.087
 1818SOL    HW1 6353   0.258   1.638   3.109
 1818SOL    HW2 6354   0.360   1.762   3.134
 1819SOL     OW 6355   1.385   3.815   2.178
 1819SOL    HW1 6356   1.454   3.878   2.143
 1819SOL    HW2 6357   1.294   3.851   2.158
 1820SOL     OW 6358   5.697   6.604   2.563
 1820SOL    HW1 6359   5.743   6.661   2.495
 1820SOL    HW2 6360   5.751   6.600   2.646
 1821SOL     OW 6361   1.474   1.892   2.972
 1821SOL    HW1 6362   1.478   1.973   3.030
 1821SOL    HW2 6363   1.485   1.919   2.876
 1822SOL     OW 6364   3.302   3.659   1.891
 1822SOL    HW1 6365   3.345   3.572   1.865
 1822SOL    HW2 6366   3.311   3.673   1.989
 1823SOL     OW 6367   4.291   6.910   2.393
 1823SOL    HW1 6368   4.291   7.006   2.365
 1823SOL    HW2 6369   4.283   6.904   2.492
 1824SOL     OW 6370   4.757   1.468   1.886
 1824SOL    HW1 6371   4.658   1.457   1.882
 1824SOL    HW2 6372   4.780   1.565   1.890
 1825SOL     OW 6373   0.309   0.342   1.402
 1825SOL    HW1 6374   0.303   0.367   1.499
 1825SOL    HW2 6375   0.339   0.422   1.349
 1826SOL     OW 6376   2.834   5.508   6.015
 1826SOL    HW1 6377   2.927   5.488   6.047
 1826SOL    HW2 6378   2.793   5.577   6.073
 1827SOL     OW 6379   5.761   0.394   1.066
 1827SOL    HW1 6380   5.799   0.353   0.984
 1827SOL    HW2 6381   5.707   0.475   1.041
 1828SOL     OW 6382   3.002   2.616   0.350
 1828SOL    HW1 6383   2.906   2.593   0.332
 1828SOL    HW2 6384   3.061   2.545   0.313
 1829SOL     OW 6385   5.521   5.127   2.519
 1829SOL    HW1 6386   5.441   5.181   2.493
 1829SOL    HW2 6387   5.493   5.032   2.536
 1830SOL     OW 6388   4.572   0.329   4.692
 1830SOL    HW1 6389   4.636   0.383   4.637
 1830SOL    HW2 6390   4.487   0.315   4.641
 1831SOL     OW 6391   5.277   1.341   3.163
 1831SOL    HW1 6392   5.199   1.369   3.107
 1831SOL    HW2 6393   5.361   1.376   3.122
 1832SOL     OW 6394   5.658   2.723   6.778
 1832SOL    HW1 6395   5.667   2.644   6.838
 1832SOL    HW2 6396   5.570   2.721   6.732
 1833SOL     OW 6397   5.706   1.969   6.116
 1833SOL    HW1 6398   5.769   1.903   6.076
 1833SOL    HW2 6399   5.754   2.023   6.186
 1834SOL     OW 6400   2.308   4.448   6.866
 1834SOL    HW1 6401   2.405   4.425   6.853
 1834SOL    HW2 6402   2.288   4.534   6.818
 1835SOL     OW 6403   1.628   5.225   6.949
 1835SOL    HW1 6404   1.697   5.298   6.940
 1835SOL    HW2 6405   1.649   5.169   0.011
 1836SOL     OW 6406   0.746   6.487   0.656
 1836SOL    HW1 6407   0.795   6.404   0.630
 1836SOL    HW2 6408   0.653   6.464   0.685
 1837SOL     OW 6409   6.885   2.674   4.363
 1837SOL    HW1 6410   6.916   2.763   4.394
 1837SOL    HW2 6411   6.935   2.602   4.410
 1838SOL     OW 6412   0.793   2.877   4.535
 1838SOL    HW1 6413   0.789   2.798   4.597
 1838SOL    HW2 6414   0.749   2.853   4.449
 1839SOL     OW 6415   1.379   1.317   0.109
 1839SOL    HW1 6416   1.307   1.266   0.062
 1839SOL    HW2 6417   1.467   1.271   0.095
 1840SOL     OW 6418   1.197   5.365   1.662
 1840SOL    HW1 6419   1.131   5.298   1.698
 1840SOL    HW2 6420   1.179   5.454   1.704
 1841SOL     OW 6421   1.688   2.996   4.296
 1841SOL    HW1 6422   1.738   3.052   4.361
 1841SOL    HW2 6423   1.608   2.956   4.342
 1842SOL     OW 6424   1.480   5.794   6.382
 1842SOL    HW1 6425   1.419   5.720   6.410
 1842SOL    HW2 6426   1.575   5.766   6.393
 1843SOL     OW 6427   4.424   2.100   5.662
 1843SOL    HW1 6428   4.465   2.182   5.622
 1843SOL    HW2 6429   4.425   2.027   5.594
 1844SOL     OW 6430   5.472   5.142   3.575
 1844SOL    HW1 6431   5.562   5.135   3.616
 1844SOL    HW2 6432   5.480   5.143   3.476
 1845SOL     OW 6433   5.152   6.224   0.922
 1845SOL    HW1 6434   5.235   6.259   0.965
 1845SOL    HW2 6435   5.092   6.301   0.899
 1846SOL     OW 6436   3.886   1.423   5.645
 1846SOL    HW1 6437   3.863   1.326   5.649
 1846SOL    HW2 6438   3.880   1.463   5.736
 1847SOL     OW 6439   1.389   5.893   6.159
 1847SOL    HW1 6440   1.430   5.872   6.248
 1847SOL    HW2 6441   1.295   5.859   6.156
 1848SOL     OW 6442   2.295   1.461   4.177
 1848SOL    HW1 6443   2.374   1.522   4.181
 1848SOL    HW2 6444   2.237   1.475   4.258
 1849SOL     OW 6445   2.565   0.940   5.766
 1849SOL    HW1 6446   2.518   1.021   5.801
 1849SOL    HW2 6447   2.663   0.949   5.780
 1850SOL     OW 6448   5.232   1.902   1.354
 1850SOL    HW1 6449   5.221   1.969   1.427
 1850SOL    HW2 6450   5.255   1.949   1.269
 1851SOL     OW 6451   6.471   4.251   2.834
 1851SOL    HW1 6452   6.406   4.175   2.837
 1851SOL    HW2 6453   6.503   4.270   2.927
 1852SOL     OW 6454   5.764   1.613   5.823
 1852SOL    HW1 6455   5.680   1.663   5.844
 1852SOL    HW2 6456   5.797   1.640   5.732
 1853SOL     OW 6457   1.312   4.952   0.355
 1853SOL    HW1 6458   1.290   5.014   0.431
 1853SOL    HW2 6459   1.273   4.862   0.373
 1854SOL     OW 6460   2.311   5.210   4.279
 1854SOL    HW1 6461   2.255   5.263   4.342
 1854SOL    HW2 6462   2.401   5.254   4.269
 1855SOL     OW 6463   6.668   4.849   1.466
 1855SOL    HW1 6464   6.755   4.887   1.499
 1855SOL    HW2 6465   6.607   4.833   1.543
 1856SOL     OW 6466   5.724   3.222   0.219
 1856SOL    HW1 6467   5.626   3.214   0.203
 1856SOL    HW2 6468   5.772   3.153   0.165
 1857SOL     OW 6469   5.655   1.016   3.609
 1857SOL    HW1 6470   5.718   0.951   3.652
 1857SOL    HW2 6471   5.656   1.102   3.661
 1858SOL     OW 6472   5.136   4.458   2.478
 1858SOL    HW1 6473   5.058   4.515   2.504
 1858SOL    HW2 6474   5.216   4.516   2.461
 1859SOL     OW 6475   5.832   2.357   3.764
 1859SOL    HW1 6476   5.767   2.431   3.748
 1859SOL    HW2 6477   5.892   2.381   3.841
 1860SOL     OW 6478   3.529   1.941   5.069
 1860SOL    HW1 6479   3.550   1.896   4.983
 1860SOL    HW2 6480   3.448   1.999   5.057
 1861SOL     OW 6481   5.041   6.596   2.593
 1861SOL    HW1 6482   4.965   6.657   2.575
 1861SOL    HW2 6483   5.075   6.558   2.507
 1862SOL     OW 6484   3.099   2.327   0.695
 1862SOL    HW1 6485   3.182   2.382   0.681
 1862SOL    HW2 6486   3.120   2.231   0.674
 1863SOL     OW 6487   2.242   1.662   1.465
 1863SOL    HW1 6488   2.174   1.591   1.449
 1863SOL    HW2 6489   2.200   1.740   1.511
 1864SOL     OW 6490   0.353   6.525   3.288
 1864SOL    HW1 6491   0.331   6.569   3.376
 1864SOL    HW2 6492   0.431   6.464   3.300
 1865SOL     OW 6493   5.562   3.209   6.716
 1865SOL    HW1 6494   5.645   3.153   6.723
 1865SOL    HW2 6495   5.565   3.281   6.785
 1866SOL     OW 6496   6.157   5.003   1.557
 1866SOL    HW1 6497   6.089   4.998   1.630
 1866SOL    HW2 6498   6.120   4.958   1.475
 1867SOL     OW 6499   1.292   4.342   6.533
 1867SOL    HW1 6500   1.332   4.289   6.458
 1867SOL    HW2 6501   1.314   4.298   6.621
 1868SOL     OW 6502   6.264   4.070   5.123
 1868SOL    HW1 6503   6.267   4.136   5.199
 1868SOL    HW2 6504   6.322   3.992   5.145
 1869SOL     OW 6505   5.739   1.004   4.899
 1869SOL    HW1 6506   5.700   0.938   4.963
 1869SOL    HW2 6507   5.704   0.987   4.807
 1870SOL     OW 6508   2.112   3.791   4.907
 1870SOL    HW1 6509   2.125   3.879   4.862
 1870SOL    HW2 6510   2.179   3.781   4.980
 1871SOL     OW 6511   1.876   1.178   0.937
 1871SOL    HW1 6512   1.838   1.263   0.900
 1871SOL    HW2 6513   1.835   1.159   1.027
 1872SOL     OW 6514   1.726   5.528   6.385
 1872SOL    HW1 6515   1.700   5.503   6.478
 1872SOL    HW2 6516   1.793   5.603   6.388
 1873SOL     OW 6517   5.735   6.546   0.039
 1873SOL    HW1 6518   5.755   6.641   0.015
 1873SOL    HW2 6519   5.637   6.536   0.058
 1874SOL     OW 6520   0.470   3.700   2.990
 1874SOL    HW1 6521   0.402   3.630   3.011
 1874SOL    HW2 6522   0.441   3.788   3.028
 1875SOL     OW 6523   0.157   7.000   2.117
 1875SOL    HW1 6524   0.129   6.911   2.153
 1875SOL    HW2 6525   0.139   0.053   2.186
 1876SOL     OW 6526   1.959   6.215   4.066
 1876SOL    HW1 6527   1.930   6.174   4.152
 1876SOL    HW2 6528   2.059   6.219   4.063
 1877SOL     OW 6529   0.238   0.133   4.366
 1877SOL    HW1 6530   0.259   0.095   4.456
 1877SOL    HW2 6531   0.185   0.067   4.313
 1878SOL     OW 6532   6.462   3.197   5.803
 1878SOL    HW1 6533   6.559   3.197   5.779
 1878SOL    HW2 6534   6.442   3.277   5.860
 1879SOL     OW 6535   1.828   5.839   5.736
 1879SOL    HW1 6536   1.905   5.815   5.676
 1879SOL    HW2 6537   1.743   5.802   5.697
 1880SOL     OW 6538   6.604   0.320   4.080
 1880SOL    HW1 6539   6.543   0.248   4.047
 1880SOL    HW2 6540   6.698   0.300   4.052
 1881SOL     OW 6541   0.809   2.070   7.007
 1881SOL    HW1 6542   0.814   2.168   0.008
 1881SOL    HW2 6543   0.902   2.032   7.002
 1882SOL     OW 6544   0.627   6.821   0.509
 1882SOL    HW1 6545   0.569   6.847   0.587
 1882SOL    HW2 6546   0.582   6.750   0.455
 1883SOL     OW 6547   6.900   2.004   4.168
 1883SOL    HW1 6548   6.919   2.001   4.070
 1883SOL    HW2 6549   6.865   2.094   4.193
 1884SOL     OW 6550   5.982   1.885   1.356
 1884SOL    HW1 6551   5.988   1.796   1.310
 1884SOL    HW2 6552   5.959   1.955   1.289
 1885SOL     OW 6553   3.529   1.067   4.453
 1885SOL    HW1 6554   3.585   0.984   4.453
 1885SOL    HW2 6555   3.433   1.043   4.468
 1886SOL     OW 6556   0.351   6.250   3.837
 1886SOL    HW1 6557   0.397   6.172   3.795
 1886SOL    HW2 6558   0.416   6.302   3.891
 1887SOL     OW 6559   2.486   5.606   6.044
 1887SOL    HW1 6560   2.532   5.552   5.974
 1887SOL    HW2 6561   2.498   5.704   6.024
 1888SOL     OW 6562   2.074   0.054   3.295
 1888SOL    HW1 6563   2.139   0.129   3.304
 1888SOL    HW2 6564   2.064   0.029   3.199
 1889SOL     OW 6565   0.262   3.483   2.358
 1889SOL    HW1 6566   0.349   3.532   2.350
 1889SOL    HW2 6567   0.245   3.459   2.453
 1890SOL     OW 6568   1.749   6.166   4.578
 1890SOL    HW1 6569   1.662   6.205   4.609
 1890SOL    HW2 6570   1.776   6.092   4.640
 1891SOL     OW 6571   3.961   3.917   3.575
 1891SOL    HW1 6572   3.870   3.877   3.566
 1891SOL    HW2 6573   3.992   3.951   3.486
 1892SOL     OW 6574   6.852   0.549   2.594
 1892SOL    HW1 6575   6.815   0.642   2.601
 1892SOL    HW2 6576   6.918   0.534   2.667
 1893SOL     OW 6577   3.663   2.990   4.076
 1893SOL    HW1 6578   3.568   2.976   4.105
 1893SOL    HW2 6579   3.724   2.933   4.131
 1894SOL     OW 6580   3.307   3.150   4.764
 1894SOL    HW1 6581   3.235   3.100   4.813
 1894SOL    HW2 6582   3.344   3.222   4.823
 1895SOL     OW 6583   0.704   6.290   1.211
 1895SOL    HW1 6584   0.643   6.307   1.134
 1895SOL    HW2 6585   0.784   6.350   1.203
 1896SOL     OW 6586   6.133   3.137   0.927
 1896SOL    HW1 6587   6.184   3.076   0.987
 1896SOL    HW2 6588   6.158   3.119   0.832
 1897SOL     OW 6589   2.072   4.747   3.148
 1897SOL    HW1 6590   2.072   4.846   3.155
 1897SOL    HW2 6591   2.008   4.718   3.077
 1898SOL     OW 6592   1.695   5.956   2.206
 1898SOL    HW1 6593   1.650   5.868   2.222
 1898SOL    HW2 6594   1.724   5.995   2.294
 1899SOL     OW 6595   6.990   0.912   2.284
 1899SOL    HW1 6596   7.011   1.009   2.296
 1899SOL    HW2 6597   6.984   0.891   2.186
 1900SOL     OW 6598   2.854   6.365   6.068
 1900SOL    HW1 6599   2.868   6.322   5.978
 1900SOL    HW2 6600   2.859   6.296   6.139
 1901SOL     OW 6601   3.984   3.198   3.083
 1901SOL    HW1 6602   3.970   3.100   3.073
 1901SOL    HW2 6603   4.022   3.235   2.999
 1902SOL     OW 6604   1.144   6.948   5.387
 1902SOL    HW1 6605   1.131   6.936   5.485
 1902SOL    HW2 6606   1.143   0.028   5.365
 1903SOL     OW 6607   1.107   2.179   4.330
 1903SOL    HW1 6608   1.084   2.188   4.427
 1903SOL    HW2 6609   1.195   2.134   4.321
 1904SOL     OW 6610   5.860   5.257   1.986
 1904SOL    HW1 6611   5.945   5.226   2.027
 1904SOL    HW2 6612   5.823   5.333   2.039
 1905SOL     OW 6613   0.417   3.172   3.903
 1905SOL    HW1 6614   0.354   3.249   3.913
 1905SOL    HW2 6615   0.394   3.100   3.969
 1906SOL     OW 6616   0.306   6.114   4.072
 1906SOL    HW1 6617   0.237   6.043   4.055
 1906SOL    HW2 6618   0.337   6.152   3.985
 1907SOL     OW 6619   6.860   2.924   0.611
 1907SOL    HW1 6620   6.766   2.955   0.628
 1907SOL    HW2 6621   6.924   2.997   0.634
 1908SOL     OW 6622   4.497   0.630   1.610
 1908SOL    HW1 6623   4.524   0.723   1.636
 1908SOL    HW2 6624   4.564   0.593   1.545
 1909SOL     OW 6625   6.753   4.963   5.167
 1909SOL    HW1 6626   6.694   4.988   5.244
 1909SOL    HW2 6627   6.841   5.009   5.177
 1910SOL     OW 6628   0.596   6.113   5.078
 1910SOL    HW1 6629   0.510   6.064   5.096
 1910SOL    HW2 6630   0.604   6.190   5.141
 1911SOL     OW 6631   5.671   6.596   4.242
 1911SOL    HW1 6632   5.742   6.549   4.294
 1911SOL    HW2 6633   5.690   6.587   4.144
 1912SOL     OW 6634   3.327   4.908   1.868
 1912SOL    HW1 6635   3.293   4.915   1.962
 1912SOL    HW2 6636   3.252   4.878   1.809
 1913SOL     OW 6637   2.857   3.960   6.033
 1913SOL    HW1 6638   2.757   3.957   6.031
 1913SOL    HW2 6639   2.891   3.873   6.069
 1914SOL     OW 6640   4.199   4.107   0.718
 1914SOL    HW1 6641   4.109   4.144   0.693
 1914SOL    HW2 6642   4.264   4.122   0.643
 1915SOL     OW 6643   4.365   2.271   0.178
 1915SOL    HW1 6644   4.286   2.233   0.130
 1915SOL    HW2 6645   4.335   2.318   0.261
 1916SOL     OW 6646   3.566   1.704   2.839
 1916SOL    HW1 6647   3.474   1.663   2.838
 1916SOL    HW2 6648   3.629   1.644   2.888
 1917SOL     OW 6649   2.759   3.846   1.373
 1917SOL    HW1 6650   2.843   3.804   1.338
 1917SOL    HW2 6651   2.762   3.851   1.472
 1918SOL     OW 6652   5.039   2.924   4.446
 1918SOL    HW1 6653   5.004   2.858   4.512
 1918SOL    HW2 6654   5.120   2.968   4.482
 1919SOL     OW 6655   6.684   1.051   6.285
 1919SOL    HW1 6656   6.627   1.039   6.204
 1919SOL    HW2 6657   6.700   1.148   6.301
 1920SOL     OW 6658   4.707   3.571   0.556
 1920SOL    HW1 6659   4.769   3.643   0.526
 1920SOL    HW2 6660   4.628   3.611   0.602
 1921SOL     OW 6661   3.390   2.295   6.823
 1921SOL    HW1 6662   3.306   2.243   6.804
 1921SOL    HW2 6663   3.366   2.385   6.860
 1922SOL     OW 6664   3.772   3.848   4.441
 1922SOL    HW1 6665   3.761   3.748   4.444
 1922SOL    HW2 6666   3.712   3.885   4.370
 1923SOL     OW 6667   2.773   0.385   4.164
 1923SOL    HW1 6668   2.787   0.334   4.079
 1923SOL    HW2 6669   2.675   0.401   4.178
 1924SOL     OW 6670   5.614   0.681   1.465
 1924SOL    HW1 6671   5.611   0.699   1.366
 1924SOL    HW2 6672   5.639   0.585   1.480
 1925SOL     OW 6673   1.462   4.666   1.103
 1925SOL    HW1 6674   1.506   4.725   1.035
 1925SOL    HW2 6675   1.434   4.581   1.059
 1926SOL     OW 6676   2.848   6.641   2.131
 1926SOL    HW1 6677   2.810   6.701   2.202
 1926SOL    HW2 6678   2.858   6.692   2.046
 1927SOL     OW 6679   1.953   5.471   0.853
 1927SOL    HW1 6680   1.988   5.473   0.947
 1927SOL    HW2 6681   1.999   5.398   0.802
 1928SOL     OW 6682   1.108   4.205   3.023
 1928SOL    HW1 6683   1.170   4.282   3.039
 1928SOL    HW2 6684   1.161   4.123   3.004
 1929SOL     OW 6685   3.376   0.663   3.362
 1929SOL    HW1 6686   3.351   0.757   3.336
 1929SOL    HW2 6687   3.312   0.629   3.431
 1930SOL     OW 6688   3.223   3.401   0.079
 1930SOL    HW1 6689   3.129   3.372   0.059
 1930SOL    HW2 6690   3.230   3.500   0.074
 1931SOL     OW 6691   5.471   3.631   3.896
 1931SOL    HW1 6692   5.444   3.723   3.922
 1931SOL    HW2 6693   5.499   3.630   3.800
 1932SOL     OW 6694   4.761   1.010   1.738
 1932SOL    HW1 6695   4.773   1.058   1.825
 1932SOL    HW2 6696   4.814   1.057   1.666
 1933SOL     OW 6697   1.415   1.249   0.923
 1933SOL    HW1 6698   1.496   1.305   0.908
 1933SOL    HW2 6699   1.430   1.189   1.002
 1934SOL     OW 6700   6.453   0.864   6.834
 1934SOL    HW1 6701   6.423   0.794   6.770
 1934SOL    HW2 6702   6.482   0.946   6.784
 1935SOL     OW 6703   5.942   5.321   3.759
 1935SOL    HW1 6704   5.984   5.366   3.837
 1935SOL    HW2 6705   5.893   5.389   3.704
 1936SOL     OW 6706   5.877   2.848   6.617
 1936SOL    HW1 6707   5.820   2.825   6.696
 1936SOL    HW2 6708   5.820   2.854   6.535
 1937SOL     OW 6709   0.921   5.041   6.774
 1937SOL    HW1 6710   0.897   5.063   6.679
 1937SOL    HW2 6711   0.839   5.044   6.830
 1938SOL     OW 6712   6.694   1.514   6.613
 1938SOL    HW1 6713   6.703   1.614   6.609
 1938SOL    HW2 6714   6.612   1.486   6.564
 1939SOL     OW 6715   0.476   0.747   4.024
 1939SOL    HW1 6716   0.403   0.745   4.093
 1939SOL    HW2 6717   0.445   0.700   3.941
 1940SOL     OW 6718   1.031   5.226   1.826
 1940SOL    HW1 6719   0.933   5.234   1.845
 1940SOL    HW2 6720   1.062   5.132   1.844
 1941SOL     OW 6721   6.128   0.314   4.245
 1941SOL    HW1 6722   6.079   0.281   4.326
 1941SOL    HW2 6723   6.206   0.369   4.273
 1942SOL     OW 6724   0.708   6.198   1.683
 1942SOL    HW1 6725   0.803   6.207   1.715
 1942SOL    HW2 6726   0.648   6.186   1.761
 1943SOL     OW 6727   0.754   4.102   4.072
 1943SOL    HW1 6728   0.728   4.197   4.059
 1943SOL    HW2 6729   0.745   4.053   3.985
 1944SOL     OW 6730   0.002   3.471   3.619
 1944SOL    HW1 6731   6.922   3.485   3.602
 1944SOL    HW2 6732   0.052   3.555   3.597
 1945SOL     OW 6733   4.486   1.794   2.160
 1945SOL    HW1 6734   4.503   1.789   2.061
 1945SOL    HW2 6735   4.496   1.889   2.191
 1946SOL     OW 6736   5.884   4.750   0.060
 1946SOL    HW1 6737   5.865   4.807   6.998
 1946SOL    HW2 6738   5.865   4.655   0.038
 1947SOL     OW 6739   5.590   6.269   2.862
 1947SOL    HW1 6740   5.592   6.169   2.860
 1947SOL    HW2 6741   5.552   6.303   2.776
 1948SOL     OW 6742   5.313   3.057   3.000
 1948SOL    HW1 6743   5.397   3.005   3.015
 1948SOL    HW2 6744   5.324   3.149   3.037
 1949SOL     OW 6745   3.156   3.927   6.533
 1949SOL    HW1 6746   3.147   3.919   6.632
 1949SOL    HW2 6747   3.253   3.939   6.509
 1950SOL     OW 6748   3.746   3.838   3.878
 1950SOL    HW1 6749   3.830   3.790   3.852
 1950SOL    HW2 6750   3.726   3.822   3.974
 1951SOL     OW 6751   0.752   5.101   6.163
 1951SOL    HW1 6752   0.751   5.065   6.256
 1951SOL    HW2 6753   0.661   5.093   6.123
 1952SOL     OW 6754   5.517   4.077   0.044
 1952SOL    HW1 6755   5.614   4.092   0.025
 1952SOL    HW2 6756   5.498   3.978   0.043
 1953SOL     OW 6757   0.420   1.139   6.422
 1953SOL    HW1 6758   0.376   1.061   6.464
 1953SOL    HW2 6759   0.424   1.215   6.487
 1954SOL     OW 6760   3.929   6.555   2.804
 1954SOL    HW1 6761   3.899   6.650   2.805
 1954SOL    HW2 6762   3.885   6.506   2.729
 1955SOL     OW 6763   6.719   3.409   4.195
 1955SOL    HW1 6764   6.788   3.343   4.223
 1955SOL    HW2 6765   6.695   3.467   4.273
 1956SOL     OW 6766   4.783   1.320   1.427
 1956SOL    HW1 6767   4.854   1.257   1.458
 1956SOL    HW2 6768   4.797   1.410   1.467
 1957SOL     OW 6769   0.017   3.072   5.111
 1957SOL    HW1 6770   0.059   3.108   5.027
 1957SOL    HW2 6771   6.999   3.148   5.165
 1958SOL     OW 6772   5.346   2.126   0.518
 1958SOL    HW1 6773   5.287   2.202   0.493
 1958SOL    HW2 6774   5.374   2.076   0.436
 1959SOL     OW 6775   1.967   1.586   6.099
 1959SOL    HW1 6776   1.880   1.613   6.138
 1959SOL    HW2 6777   1.964   1.490   6.074
 1960SOL     OW 6778   4.711   4.494   1.961
 1960SOL    HW1 6779   4.660   4.415   1.993
 1960SOL    HW2 6780   4.780   4.520   2.029
 1961SOL     OW 6781   6.388   3.626   4.418
 1961SOL    HW1 6782   6.429   3.534   4.421
 1961SOL    HW2 6783   6.453   3.689   4.376
 1962SOL     OW 6784   0.470   6.775   2.442
 1962SOL    HW1 6785   0.444   6.862   2.401
 1962SOL    HW2 6786   0.419   6.761   2.526
 1963SOL     OW 6787   0.630   1.154   6.882
 1963SOL    HW1 6788   0.551   1.097   6.863
 1963SOL    HW2 6789   0.600   1.239   6.927
 1964SOL     OW 6790   5.675   3.253   0.611
 1964SOL    HW1 6791   5.644   3.329   0.553
 1964SOL    HW2 6792   5.659   3.276   0.707
 1965SOL     OW 6793   5.047   4.869   4.660
 1965SOL    HW1 6794   5.091   4.915   4.737
 1965SOL    HW2 6795   5.111   4.802   4.621
 1966SOL     OW 6796   1.657   5.198   6.670
 1966SOL    HW1 6797   1.578   5.162   6.620
 1966SOL    HW2 6798   1.642   5.186   6.768
 1967SOL     OW 6799   6.485   2.643   4.135
 1967SOL    HW1 6800   6.471   2.694   4.220
 1967SOL    HW2 6801   6.532   2.701   4.069
 1968SOL     OW 6802   2.502   1.619   5.830
 1968SOL    HW1 6803   2.601   1.608   5.834
 1968SOL    HW2 6804   2.473   1.631   5.735
 1969SOL     OW 6805   0.342   6.651   1.948
 1969SOL    HW1 6806   0.338   6.604   1.860
 1969SOL    HW2 6807   0.355   6.583   2.021
 1970SOL     OW 6808   4.902   4.353   2.760
 1970SOL    HW1 6809   4.850   4.411   2.697
 1970SOL    HW2 6810   4.998   4.380   2.759
 1971SOL     OW 6811   1.622   5.750   4.166
 1971SOL    HW1 6812   1.631   5.817   4.092
 1971SOL    HW2 6813   1.527   5.746   4.196
 1972SOL     OW 6814   5.616   2.066   3.261
 1972SOL    HW1 6815   5.682   2.020   3.321
 1972SOL    HW2 6816   5.551   2.117   3.316
 1973SOL     OW 6817   4.269   2.525   6.908
 1973SOL    HW1 6818   4.286   2.572   6.821
 1973SOL    HW2 6819   4.328   2.563   6.979
 1974SOL     OW 6820   2.059   6.470   4.289
 1974SOL    HW1 6821   2.079   6.444   4.384
 1974SOL    HW2 6822   2.118   6.418   4.227
 1975SOL     OW 6823   2.114   2.291   3.007
 1975SOL    HW1 6824   2.148   2.287   3.101
 1975SOL    HW2 6825   2.181   2.251   2.946
 1976SOL     OW 6826   2.737   0.346   4.430
 1976SOL    HW1 6827   2.760   0.392   4.344
 1976SOL    HW2 6828   2.647   0.377   4.461
 1977SOL     OW 6829   1.054   4.493   0.173
 1977SOL    HW1 6830   1.116   4.541   0.111
 1977SOL    HW2 6831   0.981   4.555   0.203
 1978SOL     OW 6832   2.536   0.558   2.399
 1978SOL    HW1 6833   2.557   0.645   2.444
 1978SOL    HW2 6834   2.549   0.568   2.301
 1979SOL     OW 6835   5.560   3.333   6.949
 1979SOL    HW1 6836   5.506   3.268   7.002
 1979SOL    HW2 6837   5.516   3.423   6.954
 1980SOL     OW 6838   4.115   0.112   1.641
 1980SOL    HW1 6839   4.084   0.132   1.734
 1980SOL    HW2 6840   4.049   0.053   1.595
 1981SOL     OW 6841   4.271   2.648   1.712
 1981SOL    HW1 6842   4.174   2.659   1.734
 1981SOL    HW2 6843   4.316   2.737   1.713
 1982SOL     OW 6844   2.233   2.256   6.304
 1982SOL    HW1 6845   2.215   2.168   6.349
 1982SOL    HW2 6846   2.324   2.254   6.261
 1983SOL     OW 6847   6.833   2.481   1.037
 1983SOL    HW1 6848   6.905   2.485   0.968
 1983SOL    HW2 6849   6.860   2.534   1.117
 1984SOL     OW 6850   4.908   3.004   6.164
 1984SOL    HW1 6851   4.923   2.909   6.137
 1984SOL    HW2 6852   4.822   3.037   6.125
 1985SOL     OW 6853   5.248   5.578   5.044
 1985SOL    HW1 6854   5.181   5.640   5.003
 1985SOL    HW2 6855   5.337   5.624   5.049
 1986SOL     OW 6856   3.277   3.356   3.191
 1986SOL    HW1 6857   3.259   3.386   3.285
 1986SOL    HW2 6858   3.248   3.262   3.180
 1987SOL     OW 6859   2.023   2.009   1.919
 1987SOL    HW1 6860   2.040   1.917   1.885
 1987SOL    HW2 6861   2.081   2.074   1.871
 1988SOL     OW 6862   1.115   1.884   2.740
 1988SOL    HW1 6863   1.206   1.911   2.711
 1988SOL    HW2 6864   1.053   1.962   2.733
 1989SOL     OW 6865   3.395   5.315   3.461
 1989SOL    HW1 6866   3.425   5.334   3.555
 1989SOL    HW2 6867   3.295   5.321   3.457
 1990SOL     OW 6868   4.648   6.654   0.847
 1990SOL    HW1 6869   4.614   6.702   0.928
 1990SOL    HW2 6870   4.748   6.654   0.847
 1991SOL     OW 6871   3.158   5.109   2.631
 1991SOL    HW1 6872   3.158   5.020   2.587
 1991SOL    HW2 6873   3.182   5.180   2.564
 1992SOL     OW 6874   0.719   0.020   3.027
 1992SOL    HW1 6875   0.809   7.013   3.065
 1992SOL    HW2 6876   0.730   0.042   2.930
 1993SOL     OW 6877   1.207   1.166   1.658
 1993SOL    HW1 6878   1.144   1.192   1.585
 1993SOL    HW2 6879   1.298   1.201   1.638
 1994SOL     OW 6880   2.910   3.439   1.513
 1994SOL    HW1 6881   2.877   3.371   1.448
 1994SOL    HW2 6882   2.833   3.475   1.565
 1995SOL     OW 6883   6.164   0.852   4.128
 1995SOL    HW1 6884   6.081   0.799   4.109
 1995SOL    HW2 6885   6.221   0.856   4.047
 1996SOL     OW 6886   4.770   0.274   1.147
 1996SOL    HW1 6887   4.672   0.268   1.167
 1996SOL    HW2 6888   4.820   0.296   1.230
 1997SOL     OW 6889   2.451   2.104   3.054
 1997SOL    HW1 6890   2.401   2.167   3.112
 1997SOL    HW2 6891   2.468   2.146   2.965
 1998SOL     OW 6892   2.220   3.578   1.184
 1998SOL    HW1 6893   2.295   3.611   1.127
 1998SOL    HW2 6894   2.257   3.530   1.263
 1999SOL     OW 6895   0.576   0.446   5.794
 1999SOL    HW1 6896   0.541   0.367   5.743
 1999SOL    HW2 6897   0.622   0.508   5.731
 2000SOL     OW 6898   4.542   3.765   6.513
 2000SOL    HW1 6899   4.538   3.714   6.427
 2000SOL    HW2 6900   4.499   3.855   6.500
 2001SOL     OW 6901   1.515   1.751   0.083
 2001SOL    HW1 6902   1.609   1.759   0.051
 2001SOL    HW2 6903   1.464   1.834   0.059
 2002SOL     OW 6904   5.690   4.714   6.364
 2002SOL    HW1 6905   5.725   4.678   6.277
 2002SOL    HW2 6906   5.651   4.639   6.418
 2003SOL     OW 6907   6.854   5.429   1.223
 2003SOL    HW1 6908   6.894   5.366   1.156
 2003SOL    HW2 6909   6.903   5.516   1.220
 2004SOL     OW 6910   3.344   1.078   2.687
 2004SOL    HW1 6911   3.432   1.032   2.698
 2004SOL    HW2 6912   3.347   1.166   2.735
 2005SOL     OW 6913   1.653   6.496   0.201
 2005SOL    HW1 6914   1.586   6.448   0.259
 2005SOL    HW2 6915   1.745   6.462   0.221
 2006SOL     OW 6916   5.888   0.480   2.310
 2006SOL    HW1 6917   5.859   0.539   2.385
 2006SOL    HW2 6918   5.940   0.403   2.347
 2007SOL     OW 6919   5.559   4.889   5.703
 2007SOL    HW1 6920   5.527   4.948   5.778
 2007SOL    HW2 6921   5.488   4.823   5.680
 2008SOL     OW 6922   2.059   3.075   2.797
 2008SOL    HW1 6923   2.081   3.043   2.705
 2008SOL    HW2 6924   2.088   3.007   2.864
 2009SOL     OW 6925   6.018   0.224   3.969
 2009SOL    HW1 6926   6.065   0.270   4.045
 2009SOL    HW2 6927   6.086   0.179   3.911
 2010SOL     OW 6928   6.739   1.204   1.541
 2010SOL    HW1 6929   6.722   1.285   1.598
 2010SOL    HW2 6930   6.797   1.140   1.592
 2011SOL     OW 6931   0.736   0.518   5.557
 2011SOL    HW1 6932   0.673   0.580   5.509
 2011SOL    HW2 6933   0.756   0.440   5.498
 2012SOL     OW 6934   0.242   2.054   0.390
 2012SOL    HW1 6935   0.212   2.005   0.472
 2012SOL    HW2 6936   0.302   1.996   0.336
 2013SOL     OW 6937   0.347   2.352   2.224
 2013SOL    HW1 6938   0.263   2.328   2.274
 2013SOL    HW2 6939   0.362   2.286   2.151
 2014SOL     OW 6940   4.092   2.223   3.484
 2014SOL    HW1 6941   4.159   2.289   3.451
 2014SOL    HW2 6942   4.015   2.218   3.420
 2015SOL     OW 6943   3.388   6.486   1.365
 2015SOL    HW1 6944   3.364   6.397   1.402
 2015SOL    HW2 6945   3.477   6.480   1.319
 2016SOL     OW 6946   2.259   0.453   4.572
 2016SOL    HW1 6947   2.207   0.493   4.497
 2016SOL    HW2 6948   2.200   0.441   4.652
 2017SOL     OW 6949   1.342   6.882   4.371
 2017SOL    HW1 6950   1.436   6.891   4.401
 2017SOL    HW2 6951   1.330   6.929   4.283
 2018SOL     OW 6952   0.606   1.113   4.608
 2018SOL    HW1 6953   0.510   1.140   4.605
 2018SOL    HW2 6954   0.617   1.035   4.669
 2019SOL     OW 6955   0.656   5.046   6.876
 2019SOL    HW1 6956   0.576   5.104   6.858
 2019SOL    HW2 6957   0.631   4.950   6.864
 2020SOL     OW 6958   2.005   6.914   1.566
 2020SOL    HW1 6959   2.089   6.879   1.525
 2020SOL    HW2 6960   1.952   6.964   1.497
 2021SOL     OW 6961   0.333   5.348   3.666
 2021SOL    HW1 6962   0.365   5.405   3.591
 2021SOL    HW2 6963   0.395   5.270   3.677
 2022SOL     OW 6964   2.067   3.307   4.418
 2022SOL    HW1 6965   2.101   3.401   4.407
 2022SOL    HW2 6966   2.086   3.255   4.335
 2023SOL     OW 6967   0.646   5.882   6.546
 2023SOL    HW1 6968   0.601   5.796   6.522
 2023SOL    HW2 6969   0.656   5.939   6.464
 2024SOL     OW 6970   6.488   5.726   3.585
 2024SOL    HW1 6971   6.425   5.663   3.631
 2024SOL    HW2 6972   6.516   5.798   3.648
 2025SOL     OW 6973   1.833   0.499   4.445
 2025SOL    HW1 6974   1.914   0.532   4.396
 2025SOL    HW2 6975   1.825   0.548   4.532
 2026SOL     OW 6976   1.493   6.631   5.816
 2026SOL    HW1 6977   1.540   6.651   5.730
 2026SOL    HW2 6978   1.561   6.616   5.888
 2027SOL     OW 6979   6.543   6.607   3.125
 2027SOL    HW1 6980   6.591   6.553   3.194
 2027SOL    HW2 6981   6.444   6.597   3.138
 2028SOL     OW 6982   1.875   6.065   4.810
 2028SOL    HW1 6983   1.861   6.141   4.874
 2028SOL    HW2 6984   1.969   6.068   4.775
 2029SOL     OW 6985   0.156   2.322   0.100
 2029SOL    HW1 6986   0.088   2.384   0.061
 2029SOL    HW2 6987   0.181   2.254   0.031
 2030SOL     OW 6988   1.630   6.082   2.600
 2030SOL    HW1 6989   1.538   6.077   2.639
 2030SOL    HW2 6990   1.636   6.161   2.539
 2031SOL     OW 6991   6.772   0.392   4.471
 2031SOL    HW1 6992   6.707   0.459   4.508
 2031SOL    HW2 6993   6.798   0.418   4.378
 2032SOL     OW 6994   2.706   3.114   6.477
 2032SOL    HW1 6995   2.663   3.090   6.564
 2032SOL    HW2 6996   2.656   3.190   6.435
 2033SOL     OW 6997   2.890   6.864   1.546
 2033SOL    HW1 6998   2.922   6.946   1.591
 2033SOL    HW2 6999   2.920   6.783   1.597
 2034SOL     OW 7000   0.785   3.555   4.771
 2034SOL    HW1 7001   0.849   3.621   4.730
 2034SOL    HW2 7002   0.837   3.484   4.818
 2035SOL     OW 7003   4.806   6.227   3.523
 2035SOL    HW1 7004   4.738   6.193   3.459
 2035SOL    HW2 7005   4.896   6.190   3.498
 2036SOL     OW 7006   0.045   3.128   5.801
 2036SOL    HW1 7007   0.046   3.209   5.860
 2036SOL    HW2 7008   0.073   3.048   5.855
 2037SOL     OW 7009   0.961   2.503   6.307
 2037SOL    HW1 7010   0.964   2.553   6.220
 2037SOL    HW2 7011   1.017   2.551   6.375
 2038SOL     OW 7012   1.963   1.016   6.013
 2038SOL    HW1 7013   2.049   0.968   5.995
 2038SOL    HW2 7014   1.943   1.078   5.937
 2039SOL     OW 7015   5.387   5.794   4.432
 2039SOL    HW1 7016   5.326   5.874   4.431
 2039SOL    HW2 7017   5.434   5.786   4.345
 2040SOL     OW 7018   2.898   1.305   0.832
 2040SOL    HW1 7019   2.921   1.311   0.735
 2040SOL    HW2 7020   2.890   1.209   0.859
 2041SOL     OW 7021   2.931   0.233   6.778
 2041SOL    HW1 7022   3.030   0.239   6.793
 2041SOL    HW2 7023   2.887   0.197   6.860
 2042SOL     OW 7024   0.215   0.118   5.178
 2042SOL    HW1 7025   0.179   0.116   5.271
 2042SOL    HW2 7026   0.167   0.188   5.125
 2043SOL     OW 7027   1.571   3.603   0.251
 2043SOL    HW1 7028   1.481   3.609   0.295
 2043SOL    HW2 7029   1.627   3.535   0.299
 2044SOL     OW 7030   2.861   1.202   2.429
 2044SOL    HW1 7031   2.889   1.297   2.413
 2044SOL    HW2 7032   2.823   1.163   2.345
 2045SOL     OW 7033   2.007   5.835   3.260
 2045SOL    HW1 7034   2.056   5.819   3.346
 2045SOL    HW2 7035   2.070   5.874   3.193
 2046SOL     OW 7036   0.460   2.474   5.727
 2046SOL    HW1 7037   0.475   2.570   5.703
 2046SOL    HW2 7038   0.362   2.453   5.720
 2047SOL     OW 7039   7.010   0.512   2.008
 2047SOL    HW1 7040   6.954   0.483   2.087
 2047SOL    HW2 7041   7.007   0.441   1.938
 2048SOL     OW 7042   2.251   1.308   3.552
 2048SOL    HW1 7043   2.295   1.287   3.465
 2048SOL    HW2 7044   2.161   1.348   3.535
 2049SOL     OW 7045   4.411   2.014   5.116
 2049SOL    HW1 7046   4.363   2.017   5.029
 2049SOL    HW2 7047   4.407   2.104   5.159
 2050SOL     OW 7048   0.095   0.824   2.567
 2050SOL    HW1 7049   0.112   0.920   2.546
 2050SOL    HW2 7050   7.014   0.807   2.570
 2051SOL     OW 7051   3.279   6.531   6.305
 2051SOL    HW1 7052   3.197   6.509   6.359
 2051SOL    HW2 7053   3.314   6.621   6.332
 2052SOL     OW 7054   0.683   4.586   0.465
 2052SOL    HW1 7055   0.720   4.678   0.478
 2052SOL    HW2 7056   0.669   4.543   0.554
 2053SOL     OW 7057   4.544   5.393   1.572
 2053SOL    HW1 7058   4.613   5.449   1.618
 2053SOL    HW2 7059   4.558   5.399   1.473
 2054SOL     OW 7060   2.998   3.878   3.976
 2054SOL    HW1 7061   2.975   3.784   4.002
 2054SOL    HW2 7062   3.045   3.923   4.052
 2055SOL     OW 7063   2.917   2.917   5.607
 2055SOL    HW1 7064   2.964   3.000   5.637
 2055SOL    HW2 7065   2.922   2.848   5.680
 2056SOL     OW 7066   2.450   5.313   2.015
 2056SOL    HW1 7067   2.549   5.316   2.026
 2056SOL    HW2 7068   2.410   5.263   2.092
 2057SOL     OW 7069   6.058   2.922   4.415
 2057SOL    HW1 7070   5.960   2.912   4.402
 2057SOL    HW2 7071   6.088   3.010   4.379
 2058SOL     OW 7072   5.711   0.508   3.795
 2058SOL    HW1 7073   5.749   0.415   3.796
 2058SOL    HW2 7074   5.613   0.502   3.775
 2059SOL     OW 7075   2.855   1.208   5.956
 2059SOL    HW1 7076   2.919   1.208   6.033
 2059SOL    HW2 7077   2.783   1.276   5.972
 2060SOL     OW 7078   1.294   2.254   6.474
 2060SOL    HW1 7079   1.208   2.250   6.423
 2060SOL    HW2 7080   1.298   2.338   6.528
 2061SOL     OW 7081   2.343   2.769   4.112
 2061SOL    HW1 7082   2.309   2.851   4.158
 2061SOL    HW2 7083   2.431   2.742   4.151
 2062SOL     OW 7084   4.774   5.315   4.010
 2062SOL    HW1 7085   4.724   5.250   4.068
 2062SOL    HW2 7086   4.868   5.283   3.998
 2063SOL     OW 7087   1.497   1.396   4.178
 2063SOL    HW1 7088   1.572   1.462   4.170
 2063SOL    HW2 7089   1.410   1.445   4.177
 2064SOL     OW 7090   0.342   3.796   4.383
 2064SOL    HW1 7091   0.281   3.807   4.462
 2064SOL    HW2 7092   0.303   3.730   4.320
 2065SOL     OW 7093   3.484   3.795   5.822
 2065SOL    HW1 7094   3.422   3.762   5.751
 2065SOL    HW2 7095   3.464   3.891   5.842
 2066SOL     OW 7096   1.943   2.397   4.492
 2066SOL    HW1 7097   1.955   2.487   4.534
 2066SOL    HW2 7098   1.957   2.404   4.393
 2067SOL     OW 7099   6.135   4.290   2.836
 2067SOL    HW1 7100   6.059   4.289   2.770
 2067SOL    HW2 7101   6.120   4.218   2.904
 2068SOL     OW 7102   2.835   6.455   4.472
 2068SOL    HW1 7103   2.735   6.451   4.474
 2068SOL    HW2 7104   2.864   6.534   4.418
 2069SOL     OW 7105   5.556   1.529   2.779
 2069SOL    HW1 7106   5.459   1.507   2.791
 2069SOL    HW2 7107   5.565   1.609   2.719
 2070SOL     OW 7108   0.345   5.921   1.811
 2070SOL    HW1 7109   0.393   5.896   1.726
 2070SOL    HW2 7110   0.248   5.899   1.802
 2071SOL     OW 7111   6.913   2.527   4.150
 2071SOL    HW1 7112   6.867   2.554   4.066
 2071SOL    HW2 7113   6.901   2.598   4.219
 2072SOL     OW 7114   5.253   3.084   6.115
 2072SOL    HW1 7115   5.184   3.052   6.050
 2072SOL    HW2 7116   5.290   3.007   6.166
 2073SOL     OW 7117   3.271   5.843   6.935
 2073SOL    HW1 7118   3.245   5.869   6.842
 2073SOL    HW2 7119   3.270   5.743   6.943
 2074SOL     OW 7120   3.542   4.427   5.291
 2074SOL    HW1 7121   3.636   4.449   5.317
 2074SOL    HW2 7122   3.491   4.511   5.276
 2075SOL     OW 7123   5.160   0.935   1.080
 2075SOL    HW1 7124   5.146   0.849   1.130
 2075SOL    HW2 7125   5.137   0.922   0.984
 2076SOL     OW 7126   6.986   7.002   3.847
 2076SOL    HW1 7127   6.977   6.918   3.794
 2076SOL    HW2 7128   0.007   0.056   3.789
 2077SOL     OW 7129   0.859   4.322   0.927
 2077SOL    HW1 7130   0.887   4.403   0.977
 2077SOL    HW2 7131   0.924   4.304   0.853
 2078SOL     OW 7132   0.942   2.561   0.319
 2078SOL    HW1 7133   0.965   2.532   0.412
 2078SOL    HW2 7134   0.865   2.507   0.285
 2079SOL     OW 7135   5.460   2.025   3.742
 2079SOL    HW1 7136   5.480   1.928   3.725
 2079SOL    HW2 7137   5.390   2.056   3.678
 2080SOL     OW 7138   1.955   2.913   4.808
 2080SOL    HW1 7139   1.926   2.993   4.861
 2080SOL    HW2 7140   2.004   2.943   4.726
 2081SOL     OW 7141   0.400   5.771   2.821
 2081SOL    HW1 7142   0.424   5.867   2.807
 2081SOL    HW2 7143   0.353   5.761   2.908
 2082SOL     OW 7144   6.839   6.213   4.289
 2082SOL    HW1 7145   6.857   6.171   4.200
 2082SOL    HW2 7146   6.870   6.308   4.289
 2083SOL     OW 7147   1.079   5.840   3.184
 2083SOL    HW1 7148   1.164   5.824   3.134
 2083SOL    HW2 7149   1.089   5.921   3.242
 2084SOL     OW 7150   5.684   2.718   1.234
 2084SOL    HW1 7151   5.607   2.711   1.298
 2084SOL    HW2 7152   5.650   2.707   1.141
 2085SOL     OW 7153   6.059   5.000   6.356
 2085SOL    HW1 7154   6.144   4.963   6.395
 2085SOL    HW2 7155   6.039   4.954   6.270
 2086SOL     OW 7156   5.459   1.483   5.462
 2086SOL    HW1 7157   5.529   1.435   5.408
 2086SOL    HW2 7158   5.485   1.578   5.473
 2087SOL     OW 7159   4.747   1.078   6.209
 2087SOL    HW1 7160   4.773   0.994   6.161
 2087SOL    HW2 7161   4.733   1.059   6.306
 2088SOL     OW 7162   0.470   3.421   5.653
 2088SOL    HW1 7163   0.378   3.390   5.630
 2088SOL    HW2 7164   0.527   3.341   5.674
 2089SOL     OW 7165   3.174   4.880   4.613
 2089SOL    HW1 7166   3.192   4.882   4.515
 2089SOL    HW2 7167   3.097   4.819   4.632
 2090SOL     OW 7168   5.450   2.483   6.289
 2090SOL    HW1 7169   5.545   2.505   6.312
 2090SOL    HW2 7170   5.446   2.448   6.195
 2091SOL     OW 7171   5.350   0.202   1.153
 2091SOL    HW1 7172   5.449   0.204   1.163
 2091SOL    HW2 7173   5.324   0.254   1.071
 2092SOL     OW 7174   3.850   3.018   2.616
 2092SOL    HW1 7175   3.782   3.079   2.575
 2092SOL    HW2 7176   3.885   2.955   2.547
 2093SOL     OW 7177   4.727   0.070   6.946
 2093SOL    HW1 7178   4.752   0.125   6.867
 2093SOL    HW2 7179   4.662   0.122   7.003
 2094SOL     OW 7180   4.581   3.024   1.462
 2094SOL    HW1 7181   4.579   3.116   1.502
 2094SOL    HW2 7182   4.511   3.018   1.391
 2095SOL     OW 7183   4.363   5.621   3.965
 2095SOL    HW1 7184   4.451   5.659   3.935
 2095SOL    HW2 7185   4.308   5.694   4.006
 2096SOL     OW 7186   4.093   0.442   2.880
 2096SOL    HW1 7187   4.157   0.373   2.846
 2096SOL    HW2 7188   4.104   0.526   2.828
 2097SOL     OW 7189   2.766   5.553   5.051
 2097SOL    HW1 7190   2.817   5.509   5.125
 2097SOL    HW2 7191   2.698   5.616   5.089
 2098SOL     OW 7192   1.654   6.815   4.227
 2098SOL    HW1 7193   1.589   6.768   4.166
 2098SOL    HW2 7194   1.675   6.905   4.189
 2099SOL     OW 7195   4.577   1.856   6.946
 2099SOL    HW1 7196   4.520   1.860   6.863
 2099SOL    HW2 7197   4.530   1.902   0.004
 2100SOL     OW 7198   4.570   0.218   0.663
 2100SOL    HW1 7199   4.563   0.317   0.650
 2100SOL    HW2 7200   4.590   0.175   0.575
 2101SOL     OW 7201   1.011   0.169   2.824
 2101SOL    HW1 7202   1.073   0.217   2.885
 2101SOL    HW2 7203   1.055   0.086   2.790
 2102SOL     OW 7204   4.028   3.132   2.778
 2102SOL    HW1 7205   3.963   3.078   2.724
 2102SOL    HW2 7206   4.121   3.108   2.752
 2103SOL     OW 7207   1.667   0.179   1.630
 2103SOL    HW1 7208   1.704   0.088   1.649
 2103SOL    HW2 7209   1.672   0.197   1.532
 2104SOL     OW 7210   0.801   4.669   2.417
 2104SOL    HW1 7211   0.756   4.739   2.361
 2104SOL    HW2 7212   0.900   4.671   2.400
 2105SOL     OW 7213   5.067   6.204   5.314
 2105SOL    HW1 7214   5.166   6.194   5.322
 2105SOL    HW2 7215   5.022   6.136   5.372
 2106SOL     OW 7216   3.389   3.589   0.450
 2106SOL    HW1 7217   3.403   3.652   0.373
 2106SOL    HW2 7218   3.411   3.496   0.421
 2107SOL     OW 7219   6.002   4.873   4.586
 2107SOL    HW1 7220   5.966   4.781   4.571
 2107SOL    HW2 7221   6.003   4.893   4.684
 2108SOL     OW 7222   4.375   6.389   5.659
 2108SOL    HW1 7223   4.298   6.410   5.598
 2108SOL    HW2 7224   4.340   6.361   5.748
 2109SOL     OW 7225   2.673   6.027   2.257
 2109SOL    HW1 7226   2.769   6.024   2.230
 2109SOL    HW2 7227   2.666   6.032   2.356
 2110SOL     OW 7228   3.808   5.907   0.602
 2110SOL    HW1 7229   3.767   5.819   0.579
 2110SOL    HW2 7230   3.735   5.974   0.617
 2111SOL     OW 7231   0.452   2.855   0.395
 2111SOL    HW1 7232   0.478   2.778   0.454
 2111SOL    HW2 7233   0.402   2.820   0.316
 2112SOL     OW 7234   0.768   0.687   6.488
 2112SOL    HW1 7235   0.740   0.642   6.573
 2112SOL    HW2 7236   0.854   0.648   6.456
 2113SOL     OW 7237   6.667   1.643   4.508
 2113SOL    HW1 7238   6.717   1.727   4.491
 2113SOL    HW2 7239   6.644   1.600   4.421
 2114SOL     OW 7240   2.965   0.420   5.786
 2114SOL    HW1 7241   3.052   0.377   5.762
 2114SOL    HW2 7242   2.947   0.408   5.884
 2115SOL     OW 7243   0.379   6.891   4.199
 2115SOL    HW1 7244   0.283   6.884   4.172
 2115SOL    HW2 7245   0.392   6.844   4.286
 2116SOL     OW 7246   2.591   6.873   6.689
 2116SOL    HW1 7247   2.561   6.828   6.774
 2116SOL    HW2 7248   2.565   6.969   6.692
 2117SOL     OW 7249   5.928   2.768   0.961
 2117SOL    HW1 7250   5.920   2.670   0.978
 2117SOL    HW2 7251   5.908   2.819   1.045
 2118SOL     OW 7252   6.991   2.937   2.342
 2118SOL    HW1 7253   7.012   2.860   2.283
 2118SOL    HW2 7254   0.042   2.943   2.415
 2119SOL     OW 7255   1.886   2.786   6.905
 2119SOL    HW1 7256   1.912   2.767   6.999
 2119SOL    HW2 7257   1.934   2.725   6.843
 2120SOL     OW 7258   6.307   1.500   0.822
 2120SOL    HW1 7259   6.353   1.465   0.903
 2120SOL    HW2 7260   6.236   1.564   0.849
 2121SOL     OW 7261   2.958   5.703   1.980
 2121SOL    HW1 7262   2.870   5.702   2.029
 2121SOL    HW2 7263   3.020   5.768   2.024
 2122SOL     OW 7264   0.550   1.340   5.517
 2122SOL    HW1 7265   0.554   1.424   5.571
 2122SOL    HW2 7266   0.625   1.340   5.451
 2123SOL     OW 7267   0.414   4.465   3.153
 2123SOL    HW1 7268   0.345   4.512   3.208
 2123SOL    HW2 7269   0.372   4.388   3.105
 2124SOL     OW 7270   5.612   3.504   6.467
 2124SOL    HW1 7271   5.517   3.474   6.476
 2124SOL    HW2 7272   5.618   3.601   6.488
 2125SOL     OW 7273   2.185   5.390   5.891
 2125SOL    HW1 7274   2.237   5.460   5.842
 2125SOL    HW2 7275   2.246   5.314   5.916
 2126SOL     OW 7276   2.479   5.775   2.289
 2126SOL    HW1 7277   2.515   5.697   2.342
 2126SOL    HW2 7278   2.389   5.752   2.253
 2127SOL     OW 7279   1.667   3.962   4.068
 2127SOL    HW1 7280   1.725   3.896   4.018
 2127SOL    HW2 7281   1.717   3.997   4.147
 2128SOL     OW 7282   5.417   3.112   0.731
 2128SOL    HW1 7283   5.347   3.180   0.753
 2128SOL    HW2 7284   5.501   3.158   0.703
 2129SOL     OW 7285   5.196   4.515   3.993
 2129SOL    HW1 7286   5.261   4.591   3.981
 2129SOL    HW2 7287   5.236   4.446   4.054
 2130SOL     OW 7288   2.088   7.010   3.033
 2130SOL    HW1 7289   2.117   0.001   2.938
 2130SOL    HW2 7290   2.053   6.917   3.048
 2131SOL     OW 7291   5.646   0.202   6.544
 2131SOL    HW1 7292   5.622   0.271   6.476
 2131SOL    HW2 7293   5.614   0.112   6.514
 2132SOL     OW 7294   2.971   1.448   0.603
 2132SOL    HW1 7295   3.036   1.523   0.621
 2132SOL    HW2 7296   2.978   1.419   0.508
 2133SOL     OW 7297   3.655   3.344   2.060
 2133SOL    HW1 7298   3.687   3.250   2.048
 2133SOL    HW2 7299   3.707   3.387   2.134
 2134SOL     OW 7300   2.224   0.064   4.805
 2134SOL    HW1 7301   2.196   0.146   4.855
 2134SOL    HW2 7302   2.207   0.078   4.707
 2135SOL     OW 7303   0.235   5.702   4.167
 2135SOL    HW1 7304   0.183   5.783   4.193
 2135SOL    HW2 7305   0.323   5.730   4.129
 2136SOL     OW 7306   0.262   4.734   3.658
 2136SOL    HW1 7307   0.241   4.637   3.641
 2136SOL    HW2 7308   0.341   4.761   3.602
 2137SOL     OW 7309   0.344   0.271   4.652
 2137SOL    HW1 7310   0.318   0.174   4.659
 2137SOL    HW2 7311   0.288   0.326   4.713
 2138SOL     OW 7312   1.349   2.015   7.017
 2138SOL    HW1 7313   1.394   2.040   0.086
 2138SOL    HW2 7314   1.417   2.017   6.943
 2139SOL     OW 7315   3.734   6.412   4.235
 2139SOL    HW1 7316   3.693   6.396   4.145
 2139SOL    HW2 7317   3.666   6.396   4.306
 2140SOL     OW 7318   1.209   5.506   3.455
 2140SOL    HW1 7319   1.292   5.488   3.403
 2140SOL    HW2 7320   1.234   5.525   3.551
 2141SOL     OW 7321   6.717   0.618   6.903
 2141SOL    HW1 7322   6.679   0.710   6.910
 2141SOL    HW2 7323   6.816   0.624   6.892
 2142SOL     OW 7324   3.990   1.512   3.475
 2142SOL    HW1 7325   4.005   1.585   3.541
 2142SOL    HW2 7326   3.948   1.549   3.392
 2143SOL     OW 7327   3.202   5.551   0.306
 2143SOL    HW1 7328   3.246   5.499   0.232
 2143SOL    HW2 7329   3.160   5.488   0.371
 2144SOL     OW 7330   1.041   1.155   2.156
 2144SOL    HW1 7331   1.076   1.110   2.238
 2144SOL    HW2 7332   1.082   1.246   2.148
 2145SOL     OW 7333   2.599   5.960   3.305
 2145SOL    HW1 7334   2.537   6.030   3.268
 2145SOL    HW2 7335   2.600   5.881   3.244
 2146SOL     OW 7336   3.310   2.111   1.353
 2146SOL    HW1 7337   3.370   2.080   1.279
 2146SOL    HW2 7338   3.327   2.055   1.434
 2147SOL     OW 7339   6.921   0.450   4.204
 2147SOL    HW1 7340   6.995   0.430   4.267
 2147SOL    HW2 7341   6.916   0.378   4.134
 2148SOL     OW 7342   6.440   4.284   3.520
 2148SOL    HW1 7343   6.486   4.270   3.608
 2148SOL    HW2 7344   6.494   4.345   3.463
 2149SOL     OW 7345   2.187   1.207   2.230
 2149SOL    HW1 7346   2.175   1.304   2.253
 2149SOL    HW2 7347   2.097   1.165   2.216
 2150SOL     OW 7348   5.794   0.569   3.142
 2150SOL    HW1 7349   5.815   0.559   3.045
 2150SOL    HW2 7350   5.705   0.527   3.161
 2151SOL     OW 7351   4.864   4.570   5.420
 2151SOL    HW1 7352   4.861   4.564   5.520
 2151SOL    HW2 7353   4.924   4.646   5.394
 2152SOL     OW 7354   6.838   6.444   2.688
 2152SOL    HW1 7355   6.828   6.361   2.633
 2152SOL    HW2 7356   6.932   6.476   2.685
 2153SOL     OW 7357   4.390   2.057   3.739
 2153SOL    HW1 7358   4.438   2.142   3.715
 2153SOL    HW2 7359   4.456   1.982   3.743
 2154SOL     OW 7360   4.577   0.170   3.932
 2154SOL    HW1 7361   4.507   0.099   3.939
 2154SOL    HW2 7362   4.587   0.214   4.021
 2155SOL     OW 7363   5.705   3.862   0.810
 2155SOL    HW1 7364   5.732   3.798   0.738
 2155SOL    HW2 7365   5.621   3.909   0.784
 2156SOL     OW 7366   5.799   5.763   2.724
 2156SOL    HW1 7367   5.829   5.683   2.776
 2156SOL    HW2 7368   5.873   5.793   2.664
 2157SOL     OW 7369   5.116   1.780   4.307
 2157SOL    HW1 7370   5.055   1.727   4.248
 2157SOL    HW2 7371   5.146   1.862   4.259
 2158SOL     OW 7372   4.371   0.932   3.650
 2158SOL    HW1 7373   4.388   0.926   3.749
 2158SOL    HW2 7374   4.283   0.975   3.634
 2159SOL     OW 7375   2.335   1.705   4.697
 2159SOL    HW1 7376   2.303   1.674   4.787
 2159SOL    HW2 7377   2.333   1.628   4.633
 2160SOL     OW 7378   2.409   4.122   0.533
 2160SOL    HW1 7379   2.335   4.065   0.497
 2160SOL    HW2 7380   2.473   4.066   0.586
 2161SOL     OW 7381   4.454   2.495   2.376
 2161SOL    HW1 7382   4.416   2.469   2.287
 2161SOL    HW2 7383   4.415   2.437   2.448
 2162SOL     OW 7384   2.008   2.024   2.674
 2162SOL    HW1 7385   2.058   2.093   2.621
 2162SOL    HW2 7386   2.061   1.939   2.674
 2163SOL     OW 7387   4.314   1.669   0.897
 2163SOL    HW1 7388   4.343   1.589   0.951
 2163SOL    HW2 7389   4.302   1.747   0.958
 2164SOL     OW 7390   6.238   0.234   1.393
 2164SOL    HW1 7391   6.296   0.261   1.470
 2164SOL    HW2 7392   6.282   0.162   1.341
 2165SOL     OW 7393   2.023   6.856   1.818
 2165SOL    HW1 7394   1.927   6.866   1.841
 2165SOL    HW2 7395   2.035   6.858   1.719
 2166SOL     OW 7396   5.522   2.785   4.812
 2166SOL    HW1 7397   5.426   2.811   4.803
 2166SOL    HW2 7398   5.531   2.685   4.807
 2167SOL     OW 7399   3.535   1.573   1.327
 2167SOL    HW1 7400   3.440   1.578   1.297
 2167SOL    HW2 7401   3.585   1.652   1.293
 2168SOL     OW 7402   5.566   6.811   4.615
 2168SOL    HW1 7403   5.511   6.800   4.532
 2168SOL    HW2 7404   5.607   6.723   4.640
 2169SOL     OW 7405   4.894   2.050   5.547
 2169SOL    HW1 7406   4.861   2.111   5.475
 2169SOL    HW2 7407   4.818   1.995   5.580
 2170SOL     OW 7408   4.771   6.019   4.558
 2170SOL    HW1 7409   4.706   5.963   4.610
 2170SOL    HW2 7410   4.722   6.089   4.507
 2171SOL     OW 7411   0.104   3.007   0.374
 2171SOL    HW1 7412   0.008   3.034   0.379
 2171SOL    HW2 7413   0.114   2.927   0.315
 2172SOL     OW 7414   2.643   0.385   3.301
 2172SOL    HW1 7415   2.696   0.442   3.364
 2172SOL    HW2 7416   2.669   0.289   3.312
 2173SOL     OW 7417   4.549   1.866   4.357
 2173SOL    HW1 7418   4.478   1.934   4.374
 2173SOL    HW2 7419   4.637   1.901   4.388
 2174SOL     OW 7420   1.113   6.065   5.567
 2174SOL    HW1 7421   1.059   6.041   5.486
 2174SOL    HW2 7422   1.123   6.164   5.572
 2175SOL     OW 7423   1.073   0.245   6.894
 2175SOL    HW1 7424   1.092   0.275   6.987
 2175SOL    HW2 7425   1.097   0.317   6.829
 2176SOL     OW 7426   2.316   2.725   2.168
 2176SOL    HW1 7427   2.252   2.793   2.132
 2176SOL    HW2 7428   2.339   2.748   2.263
 2177SOL     OW 7429   0.895   1.675   2.369
 2177SOL    HW1 7430   0.799   1.693   2.392
 2177SOL    HW2 7431   0.920   1.727   2.287
 2178SOL     OW 7432   6.597   5.590   0.332
 2178SOL    HW1 7433   6.540   5.549   0.403
 2178SOL    HW2 7434   6.640   5.518   0.278
 2179SOL     OW 7435   1.976   3.915   4.127
 2179SOL    HW1 7436   1.957   3.978   4.052
 2179SOL    HW2 7437   2.048   3.851   4.100
 2180SOL     OW 7438   3.505   2.912   2.991
 2180SOL    HW1 7439   3.417   2.920   2.943
 2180SOL    HW2 7440   3.576   2.888   2.925
 2181SOL     OW 7441   3.657   7.014   1.092
 2181SOL    HW1 7442   3.599   0.077   1.106
 2181SOL    HW2 7443   3.749   0.015   1.128
 2182SOL     OW 7444   4.600   3.941   0.339
 2182SOL    HW1 7445   4.636   4.030   0.312
 2182SOL    HW2 7446   4.618   3.874   0.267
 2183SOL     OW 7447   4.706   2.729   1.901
 2183SOL    HW1 7448   4.694   2.735   2.000
 2183SOL    HW2 7449   4.702   2.821   1.861
 2184SOL     OW 7450   4.682   2.484   6.068
 2184SOL    HW1 7451   4.648   2.574   6.097
 2184SOL    HW2 7452   4.611   2.437   6.016
 2185SOL     OW 7453   6.897   6.593   2.102
 2185SOL    HW1 7454   6.884   6.594   2.003
 2185SOL    HW2 7455   6.991   6.618   2.124
 2186SOL     OW 7456   6.875   4.300   3.158
 2186SOL    HW1 7457   6.946   4.361   3.124
 2186SOL    HW2 7458   6.882   4.211   3.113
 2187SOL     OW 7459   6.492   0.233   6.728
 2187SOL    HW1 7460   6.398   0.200   6.738
 2187SOL    HW2 7461   6.523   0.219   6.634
 2188SOL     OW 7462   4.874   2.959   3.911
 2188SOL    HW1 7463   4.819   2.883   3.946
 2188SOL    HW2 7464   4.967   2.927   3.893
 2189SOL     OW 7465   3.435   6.841   6.421
 2189SOL    HW1 7466   3.388   6.883   6.343
 2189SOL    HW2 7467   3.429   6.903   6.500
 2190SOL     OW 7468   6.115   3.729   1.112
 2190SOL    HW1 7469   6.041   3.796   1.127
 2190SOL    HW2 7470   6.203   3.775   1.120
 2191SOL     OW 7471   3.675   0.197   0.517
 2191SOL    HW1 7472   3.654   0.228   0.424
 2191SOL    HW2 7473   3.773   0.206   0.534
 2192SOL     OW 7474   4.372   6.654   1.960
 2192SOL    HW1 7475   4.342   6.658   2.055
 2192SOL    HW2 7476   4.328   6.577   1.914
 2193SOL     OW 7477   0.379   6.281   4.768
 2193SOL    HW1 7478   0.364   6.314   4.675
 2193SOL    HW2 7479   0.470   6.242   4.775
 2194SOL     OW 7480   2.492   6.726   2.938
 2194SOL    HW1 7481   2.406   6.693   2.976
 2194SOL    HW2 7482   2.481   6.749   2.842
 2195SOL     OW 7483   0.048   4.734   2.559
 2195SOL    HW1 7484   6.983   4.680   2.549
 2195SOL    HW2 7485   0.103   4.727   2.475
 2196SOL     OW 7486   4.551   3.664   6.765
 2196SOL    HW1 7487   4.548   3.686   6.667
 2196SOL    HW2 7488   4.638   3.697   6.803
 2197SOL     OW 7489   4.541   3.737   0.119
 2197SOL    HW1 7490   4.452   3.700   0.147
 2197SOL    HW2 7491   4.604   3.661   0.102
 2198SOL     OW 7492   0.763   4.598   6.445
 2198SOL    HW1 7493   0.848   4.650   6.445
 2198SOL    HW2 7494   0.732   4.585   6.539
 2199SOL     OW 7495   3.675   1.857   3.700
 2199SOL    HW1 7496   3.646   1.776   3.650
 2199SOL    HW2 7497   3.601   1.925   3.699
 2200SOL     OW 7498   3.804   0.451   3.664
 2200SOL    HW1 7499   3.891   0.476   3.621
 2200SOL    HW2 7500   3.770   0.366   3.625
 2201SOL     OW 7501   5.176   4.452   4.293
 2201SOL    HW1 7502   5.274   4.461   4.313
 2201SOL    HW2 7503   5.133   4.542   4.298
 2202SOL     OW 7504   4.578   6.208   4.481
 2202SOL    HW1 7505   4.532   6.288   4.519
 2202SOL    HW2 7506   4.510   6.147   4.439
 2203SOL     OW 7507   1.974   1.571   2.860
 2203SOL    HW1 7508   2.010   1.497   2.916
 2203SOL    HW2 7509   2.050   1.631   2.832
 2204SOL     OW 7510   3.849   2.440   0.856
 2204SOL    HW1 7511   3.933   2.432   0.910
 2204SOL    HW2 7512   3.820   2.349   0.826
 2205SOL     OW 7513   3.160   0.567   2.314
 2205SOL    HW1 7514   3.215   0.644   2.282
 2205SOL    HW2 7515   3.104   0.532   2.238
 2206SOL     OW 7516   1.794   4.791   0.075
 2206SOL    HW1 7517   1.827   4.775   0.169
 2206SOL    HW2 7518   1.872   4.806   0.015
 2207SOL     OW 7519   6.535   4.437   5.197
 2207SOL    HW1 7520   6.449   4.407   5.154
 2207SOL    HW2 7521   6.517   4.466   5.291
 2208SOL     OW 7522   6.648   4.745   2.447
 2208SOL    HW1 7523   6.575   4.813   2.442
 2208SOL    HW2 7524   6.653   4.694   2.361
 2209SOL     OW 7525   6.469   6.903   2.272
 2209SOL    HW1 7526   6.556   6.939   2.236
 2209SOL    HW2 7527   6.444   6.820   2.222
 2210SOL     OW 7528   2.328   4.445   3.757
 2210SOL    HW1 7529   2.235   4.450   3.791
 2210SOL    HW2 7530   2.333   4.484   3.665
 2211SOL     OW 7531   5.245   0.822   5.583
 2211SOL    HW1 7532   5.160   0.774   5.605
 2211SOL    HW2 7533   5.289   0.852   5.667
 2212SOL     OW 7534   2.490   5.909   5.972
 2212SOL    HW1 7535   2.468   5.873   5.881
 2212SOL    HW2 7536   2.406   5.918   6.025
 2213SOL     OW 7537   4.636   1.092   3.553
 2213SOL    HW1 7538   4.700   1.023   3.586
 2213SOL    HW2 7539   4.592   1.137   3.630
 2214SOL     OW 7540   4.246   0.264   4.041
 2214SOL    HW1 7541   4.290   0.254   3.952
 2214SOL    HW2 7542   4.292   0.335   4.093
 2215SOL     OW 7543   5.942   2.067   6.586
 2215SOL    HW1 7544   5.981   1.976   6.602
 2215SOL    HW2 7545   5.843   2.063   6.598
 2216SOL     OW 7546   3.267   1.195   2.393
 2216SOL    HW1 7547   3.284   1.238   2.482
 2216SOL    HW2 7548   3.314   1.247   2.321
 2217SOL     OW 7549   3.041   6.795   0.698
 2217SOL    HW1 7550   3.063   6.715   0.642
 2217SOL    HW2 7551   2.953   6.833   0.670
 2218SOL     OW 7552   6.576   0.990   2.175
 2218SOL    HW1 7553   6.580   0.914   2.240
 2218SOL    HW2 7554   6.487   1.034   2.180
 2219SOL     OW 7555   2.198   2.336   3.274
 2219SOL    HW1 7556   2.274   2.385   3.230
 2219SOL    HW2 7557   2.234   2.274   3.344
 2220SOL     OW 7558   1.886   5.998   2.977
 2220SOL    HW1 7559   1.955   5.978   2.908
 2220SOL    HW2 7560   1.809   6.046   2.935
 2221SOL     OW 7561   0.076   6.905   5.108
 2221SOL    HW1 7562   0.045   6.906   5.203
 2221SOL    HW2 7563   0.172   6.934   5.104
 2222SOL     OW 7564   5.726   5.734   3.323
 2222SOL    HW1 7565   5.627   5.738   3.311
 2222SOL    HW2 7566   5.764   5.666   3.260
 2223SOL     OW 7567   6.310   6.623   2.290
 2223SOL    HW1 7568   6.357   6.605   2.376
 2223SOL    HW2 7569   6.243   6.696   2.304
 2224SOL     OW 7570   0.884   5.629   1.394
 2224SOL    HW1 7571   0.944   5.664   1.465
 2224SOL    HW2 7572   0.928   5.639   1.305
 2225SOL     OW 7573   0.322   4.707   0.685
 2225SOL    HW1 7574   0.276   4.692   0.597
 2225SOL    HW2 7575   0.330   4.805   0.702
 2226SOL     OW 7576   3.334   4.134   2.823
 2226SOL    HW1 7577   3.251   4.079   2.823
 2226SOL    HW2 7578   3.357   4.160   2.917
 2227SOL     OW 7579   1.926   2.172   5.041
 2227SOL    HW1 7580   1.947   2.130   5.129
 2227SOL    HW2 7581   1.984   2.253   5.029
 2228SOL     OW 7582   1.114   4.718   4.198
 2228SOL    HW1 7583   1.065   4.655   4.258
 2228SOL    HW2 7584   1.162   4.786   4.254
 2229SOL     OW 7585   5.536   5.296   2.780
 2229SOL    HW1 7586   5.510   5.352   2.702
 2229SOL    HW2 7587   5.459   5.290   2.843
 2230SOL     OW 7588   1.597   5.421   2.947
 2230SOL    HW1 7589   1.637   5.512   2.943
 2230SOL    HW2 7590   1.555   5.399   2.859
 2231SOL     OW 7591   1.988   5.694   0.399
 2231SOL    HW1 7592   2.050   5.771   0.383
 2231SOL    HW2 7593   1.895   5.729   0.415
 2232SOL     OW 7594   6.177   2.493   3.591
 2232SOL    HW1 7595   6.169   2.593   3.600
 2232SOL    HW2 7596   6.213   2.471   3.500
 2233SOL     OW 7597   3.522   1.534   0.743
 2233SOL    HW1 7598   3.571   1.546   0.657
 2233SOL    HW2 7599   3.571   1.582   0.816
 2234SOL     OW 7600   4.493   2.370   1.261
 2234SOL    HW1 7601   4.476   2.407   1.353
 2234SOL    HW2 7602   4.590   2.350   1.251
 2235SOL     OW 7603   2.005   2.818   1.862
 2235SOL    HW1 7604   2.040   2.795   1.772
 2235SOL    HW2 7605   1.920   2.768   1.878
 2236SOL     OW 7606   1.014   3.834   5.439
 2236SOL    HW1 7607   1.092   3.774   5.421
 2236SOL    HW2 7608   1.015   3.911   5.375
 2237SOL     OW 7609   5.838   2.534   3.068
 2237SOL    HW1 7610   5.847   2.474   2.989
 2237SOL    HW2 7611   5.884   2.621   3.049
 2238SOL     OW 7612   4.973   6.495   0.070
 2238SOL    HW1 7613   5.035   6.446   0.009
 2238SOL    HW2 7614   4.884   6.506   0.025
 2239SOL     OW 7615   6.658   5.890   1.660
 2239SOL    HW1 7616   6.660   5.871   1.758
 2239SOL    HW2 7617   6.752   5.903   1.627
 2240SOL     OW 7618   0.315   4.053   1.548
 2240SOL    HW1 7619   0.373   4.134   1.539
 2240SOL    HW2 7620   0.281   4.026   1.458
 2241SOL     OW 7621   0.797   0.166   3.822
 2241SOL    HW1 7622   0.822   0.091   3.883
 2241SOL    HW2 7623   0.762   0.242   3.877
 2242SOL     OW 7624   1.917   1.883   3.330
 2242SOL    HW1 7625   1.905   1.891   3.231
 2242SOL    HW2 7626   2.014   1.886   3.353
 2243SOL     OW 7627   1.024   0.657   4.682
 2243SOL    HW1 7628   0.986   0.726   4.621
 2243SOL    HW2 7629   1.109   0.620   4.642
 2244SOL     OW 7630   3.322   0.025   4.470
 2244SOL    HW1 7631   3.311   0.046   4.567
 2244SOL    HW2 7632   3.372   0.099   4.425
 2245SOL     OW 7633   0.721   2.498   1.508
 2245SOL    HW1 7634   0.698   2.417   1.454
 2245SOL    HW2 7635   0.647   2.515   1.574
 2246SOL     OW 7636   0.568   4.477   4.707
 2246SOL    HW1 7637   0.583   4.422   4.624
 2246SOL    HW2 7638   0.575   4.418   4.787
 2247SOL     OW 7639   2.250   2.390   3.909
 2247SOL    HW1 7640   2.245   2.411   3.811
 2247SOL    HW2 7641   2.166   2.422   3.954
 2248SOL     OW 7642   5.185   3.917   5.716
 2248SOL    HW1 7643   5.237   4.001   5.732
 2248SOL    HW2 7644   5.183   3.863   5.800
 2249SOL     OW 7645   5.537   5.879   4.638
 2249SOL    HW1 7646   5.463   5.848   4.578
 2249SOL    HW2 7647   5.598   5.939   4.587
 2250SOL     OW 7648   4.363   4.816   2.145
 2250SOL    HW1 7649   4.274   4.815   2.101
 2250SOL    HW2 7650   4.433   4.788   2.080
 2251SOL     OW 7651   0.568   1.525   5.693
 2251SOL    HW1 7652   0.589   1.618   5.725
 2251SOL    HW2 7653   0.558   1.464   5.771
 2252SOL     OW 7654   3.751   1.309   6.778
 2252SOL    HW1 7655   3.694   1.256   6.715
 2252SOL    HW2 7656   3.844   1.315   6.741
 2253SOL     OW 7657   0.721   3.915   1.036
 2253SOL    HW1 7658   0.667   3.959   1.108
 2253SOL    HW2 7659   0.817   3.942   1.046
 2254SOL     OW 7660   1.568   5.189   6.033
 2254SOL    HW1 7661   1.651   5.147   5.998
 2254SOL    HW2 7662   1.590   5.247   6.112
 2255SOL     OW 7663   0.014   3.799   6.512
 2255SOL    HW1 7664   0.047   3.731   6.578
 2255SOL    HW2 7665   0.092   3.839   6.465
 2256SOL     OW 7666   2.875   5.675   2.391
 2256SOL    HW1 7667   2.946   5.608   2.412
 2256SOL    HW2 7668   2.907   5.766   2.416
 2257SOL     OW 7669   1.051   4.545   6.199
 2257SOL    HW1 7670   0.987   4.468   6.198
 2257SOL    HW2 7671   1.088   4.556   6.291
 2258SOL     OW 7672   2.180   6.735   5.946
 2258SOL    HW1 7673   2.208   6.741   6.041
 2258SOL    HW2 7674   2.165   6.639   5.921
 2259SOL     OW 7675   5.879   1.586   6.401
 2259SOL    HW1 7676   5.844   1.680   6.393
 2259SOL    HW2 7677   5.918   1.557   6.314
 2260SOL     OW 7678   4.731   3.298   1.393
 2260SOL    HW1 7679   4.811   3.243   1.418
 2260SOL    HW2 7680   4.668   3.303   1.471
 2261SOL     OW 7681   2.191   6.910   5.396
 2261SOL    HW1 7682   2.180   6.811   5.398
 2261SOL    HW2 7683   2.106   6.952   5.362
 2262SOL     OW 7684   2.657   1.776   4.019
 2262SOL    HW1 7685   2.633   1.796   4.114
 2262SOL    HW2 7686   2.635   1.681   3.998
 2263SOL     OW 7687   0.156   4.560   5.656
 2263SOL    HW1 7688   0.192   4.630   5.594
 2263SOL    HW2 7689   0.058   4.549   5.640
 2264SOL     OW 7690   3.370   3.256   4.361
 2264SOL    HW1 7691   3.354   3.158   4.361
 2264SOL    HW2 7692   3.460   3.275   4.401
 2265SOL     OW 7693   0.417   6.088   4.322
 2265SOL    HW1 7694   0.371   6.028   4.387
 2265SOL    HW2 7695   0.369   6.085   4.235
 2266SOL     OW 7696   6.722   0.727   5.501
 2266SOL    HW1 7697   6.779   0.667   5.556
 2266SOL    HW2 7698   6.773   0.810   5.478
 2267SOL     OW 7699   6.199   1.631   4.757
 2267SOL    HW1 7700   6.288   1.671   4.731
 2267SOL    HW2 7701   6.170   1.567   4.686
 2268SOL     OW 7702   0.362   7.011   0.308
 2268SOL    HW1 7703   0.338   0.079   0.353
 2268SOL    HW2 7704   0.326   6.934   0.361
 2269SOL     OW 7705   6.702   6.063   2.709
 2269SOL    HW1 7706   6.745   6.106   2.629
 2269SOL    HW2 7707   6.724   6.117   2.791
 2270SOL     OW 7708   3.466   2.883   3.433
 2270SOL    HW1 7709   3.493   2.788   3.415
 2270SOL    HW2 7710   3.529   2.945   3.387
 2271SOL     OW 7711   1.527   3.855   2.642
 2271SOL    HW1 7712   1.566   3.779   2.590
 2271SOL    HW2 7713   1.580   3.938   2.626
 2272SOL     OW 7714   4.620   0.546   6.291
 2272SOL    HW1 7715   4.575   0.461   6.265
 2272SOL    HW2 7716   4.560   0.623   6.270
 2273SOL     OW 7717   0.145   0.888   1.814
 2273SOL    HW1 7718   0.090   0.856   1.736
 2273SOL    HW2 7719   0.103   0.858   1.899
 2274SOL     OW 7720   6.409   5.011   3.400
 2274SOL    HW1 7721   6.370   4.969   3.482
 2274SOL    HW2 7722   6.434   4.940   3.334
 2275SOL     OW 7723   4.601   6.031   4.037
 2275SOL    HW1 7724   4.657   5.993   3.964
 2275SOL    HW2 7725   4.507   6.042   4.005
 2276SOL     OW 7726   3.525   5.844   3.207
 2276SOL    HW1 7727   3.565   5.770   3.260
 2276SOL    HW2 7728   3.521   5.818   3.110
 2277SOL     OW 7729   3.685   2.889   2.781
 2277SOL    HW1 7730   3.743   2.940   2.717
 2277SOL    HW2 7731   3.590   2.891   2.749
 2278SOL     OW 7732   4.239   4.776   1.518
 2278SOL    HW1 7733   4.306   4.730   1.460
 2278SOL    HW2 7734   4.191   4.708   1.574
 2279SOL     OW 7735   5.738   4.225   5.456
 2279SOL    HW1 7736   5.733   4.126   5.440
 2279SOL    HW2 7737   5.771   4.270   5.374
 2280SOL     OW 7738   5.481   0.854   5.385
 2280SOL    HW1 7739   5.559   0.847   5.447
 2280SOL    HW2 7740   5.396   0.843   5.437
 2281SOL     OW 7741   2.586   0.423   0.582
 2281SOL    HW1 7742   2.607   0.502   0.525
 2281SOL    HW2 7743   2.499   0.438   0.628
 2282SOL     OW 7744   3.372   0.353   2.734
 2282SOL    HW1 7745   3.438   0.280   2.756
 2282SOL    HW2 7746   3.393   0.391   2.644
 2283SOL     OW 7747   0.862   3.055   1.044
 2283SOL    HW1 7748   0.809   3.137   1.026
 2283SOL    HW2 7749   0.912   3.065   1.130
 2284SOL     OW 7750   1.852   2.604   0.477
 2284SOL    HW1 7751   1.804   2.671   0.533
 2284SOL    HW2 7752   1.918   2.651   0.418
 2285SOL     OW 7753   2.664   2.838   0.412
 2285SOL    HW1 7754   2.719   2.878   0.340
 2285SOL    HW2 7755   2.593   2.902   0.440
 2286SOL     OW 7756   6.525   5.655   4.221
 2286SOL    HW1 7757   6.501   5.702   4.136
 2286SOL    HW2 7758   6.587   5.712   4.274
 2287SOL     OW 7759   2.409   1.550   1.019
 2287SOL    HW1 7760   2.383   1.493   1.097
 2287SOL    HW2 7761   2.411   1.646   1.048
 2288SOL     OW 7762   3.123   5.971   4.365
 2288SOL    HW1 7763   3.171   5.925   4.440
 2288SOL    HW2 7764   3.071   6.049   4.402
 2289SOL     OW 7765   3.819   0.157   5.882
 2289SOL    HW1 7766   3.899   0.130   5.829
 2289SOL    HW2 7767   3.825   0.118   5.974
 2290SOL     OW 7768   2.259   3.607   6.145
 2290SOL    HW1 7769   2.253   3.590   6.047
 2290SOL    HW2 7770   2.195   3.679   6.171
 2291SOL     OW 7771   3.492   2.500   0.381
 2291SOL    HW1 7772   3.400   2.469   0.356
 2291SOL    HW2 7773   3.484   2.578   0.443
 2292SOL     OW 7774   5.191   2.038   2.825
 2292SOL    HW1 7775   5.230   2.082   2.906
 2292SOL    HW2 7776   5.117   2.094   2.789
 2293SOL     OW 7777   0.487   0.799   0.064
 2293SOL    HW1 7778   0.459   0.742   0.141
 2293SOL    HW2 7779   0.452   0.760   6.997
 2294SOL     OW 7780   6.800   2.237   5.533
 2294SOL    HW1 7781   6.714   2.224   5.484
 2294SOL    HW2 7782   6.784   2.288   5.617
 2295SOL     OW 7783   5.784   5.538   7.003
 2295SOL    HW1 7784   5.746   5.560   6.913
 2295SOL    HW2 7785   5.711   5.505   0.045
 2296SOL     OW 7786   3.870   6.089   4.697
 2296SOL    HW1 7787   3.867   6.024   4.622
 2296SOL    HW2 7788   3.889   6.181   4.661
 2297SOL     OW 7789   6.554   2.818   0.097
 2297SOL    HW1 7790   6.472   2.872   0.076
 2297SOL    HW2 7791   6.570   2.752   0.024
 2298SOL     OW 7792   1.828   4.033   5.198
 2298SOL    HW1 7793   1.795   4.023   5.104
 2298SOL    HW2 7794   1.752   4.015   5.261
 2299SOL     OW 7795   5.799   3.169   4.425
 2299SOL    HW1 7796   5.844   3.220   4.352
 2299SOL    HW2 7797   5.849   3.183   4.511
 2300SOL     OW 7798   4.347   1.130   2.860
 2300SOL    HW1 7799   4.381   1.121   2.954
 2300SOL    HW2 7800   4.253   1.164   2.862
 2301SOL     OW 7801   4.426   3.223   5.979
 2301SOL    HW1 7802   4.345   3.169   6.002
 2301SOL    HW2 7803   4.496   3.209   6.048
 2302SOL     OW 7804   0.050   3.483   4.835
 2302SOL    HW1 7805   0.111   3.426   4.889
 2302SOL    HW2 7806   0.056   3.456   4.739
 2303SOL     OW 7807   2.401   2.268   6.781
 2303SOL    HW1 7808   2.474   2.284   6.715
 2303SOL    HW2 7809   2.313   2.291   6.740
 2304SOL     OW 7810   3.711   0.185   3.546
 2304SOL    HW1 7811   3.760   0.158   3.629
 2304SOL    HW2 7812   3.739   0.125   3.471
 2305SOL     OW 7813   2.323   6.221   4.773
 2305SOL    HW1 7814   2.386   6.145   4.788
 2305SOL    HW2 7815   2.300   6.263   4.861
 2306SOL     OW 7816   0.803   4.540   5.585
 2306SOL    HW1 7817   0.791   4.513   5.489
 2306SOL    HW2 7818   0.715   4.539   5.631
 2307SOL     OW 7819   6.214   4.302   5.301
 2307SOL    HW1 7820   6.241   4.367   5.230
 2307SOL    HW2 7821   6.122   4.269   5.283
 2308SOL     OW 7822   1.112   6.318   3.165
 2308SOL    HW1 7823   1.124   6.219   3.153
 2308SOL    HW2 7824   1.067   6.356   3.085
 2309SOL     OW 7825   1.767   1.142   4.664
 2309SOL    HW1 7826   1.715   1.141   4.578
 2309SOL    HW2 7827   1.764   1.234   4.703
 2310SOL     OW 7828   5.150   6.255   0.061
 2310SOL    HW1 7829   5.102   6.257   0.149
 2310SOL    HW2 7830   5.186   6.163   0.046
 2311SOL     OW 7831   2.535   5.590   0.439
 2311SOL    HW1 7832   2.457   5.550   0.391
 2311SOL    HW2 7833   2.604   5.620   0.373
 2312SOL     OW 7834   2.490   4.931   2.168
 2312SOL    HW1 7835   2.537   4.902   2.084
 2312SOL    HW2 7836   2.549   4.913   2.247
 2313SOL     OW 7837   5.339   5.116   1.306
 2313SOL    HW1 7838   5.260   5.059   1.326
 2313SOL    HW2 7839   5.324   5.165   1.220
 2314SOL     OW 7840   1.905   4.391   2.716
 2314SOL    HW1 7841   1.940   4.443   2.794
 2314SOL    HW2 7842   1.931   4.295   2.725
 2315SOL     OW 7843   3.567   2.021   6.361
 2315SOL    HW1 7844   3.562   2.037   6.460
 2315SOL    HW2 7845   3.636   2.081   6.321
 2316SOL     OW 7846   6.120   4.224   1.303
 2316SOL    HW1 7847   6.090   4.306   1.254
 2316SOL    HW2 7848   6.212   4.238   1.338
 2317SOL     OW 7849   0.185   6.295   3.642
 2317SOL    HW1 7850   0.221   6.233   3.572
 2317SOL    HW2 7851   0.234   6.280   3.728
 2318SOL     OW 7852   6.755   1.637   3.618
 2318SOL    HW1 7853   6.756   1.543   3.652
 2318SOL    HW2 7854   6.835   1.652   3.560
 2319SOL     OW 7855   0.857   5.899   3.004
 2319SOL    HW1 7856   0.937   5.882   3.063
 2319SOL    HW2 7857   0.830   5.815   2.959
 2320SOL     OW 7858   6.681   4.641   3.383
 2320SOL    HW1 7859   6.582   4.660   3.381
 2320SOL    HW2 7860   6.727   4.708   3.440
 2321SOL     OW 7861   3.022   4.794   3.711
 2321SOL    HW1 7862   2.959   4.764   3.639
 2321SOL    HW2 7863   3.116   4.779   3.682
 2322SOL     OW 7864   2.072   1.904   4.663
 2322SOL    HW1 7865   1.997   1.949   4.712
 2322SOL    HW2 7866   2.048   1.808   4.646
 2323SOL     OW 7867   5.429   3.865   1.411
 2323SOL    HW1 7868   5.439   3.949   1.358
 2323SOL    HW2 7869   5.384   3.886   1.498
 2324SOL     OW 7870   0.393   5.330   3.957
 2324SOL    HW1 7871   0.307   5.340   4.008
 2324SOL    HW2 7872   0.374   5.332   3.859
 2325SOL     OW 7873   6.333   1.888   0.828
 2325SOL    HW1 7874   6.260   1.819   0.827
 2325SOL    HW2 7875   6.407   1.857   0.889
 2326SOL     OW 7876   0.481   5.555   0.178
 2326SOL    HW1 7877   0.449   5.471   0.133
 2326SOL    HW2 7878   0.428   5.633   0.144
 2327SOL     OW 7879   4.770   1.534   3.102
 2327SOL    HW1 7880   4.736   1.619   3.060
 2327SOL    HW2 7881   4.712   1.458   3.075
 2328SOL     OW 7882   6.074   5.418   3.971
 2328SOL    HW1 7883   6.170   5.401   3.994
 2328SOL    HW2 7884   6.032   5.474   4.041
 2329SOL     OW 7885   1.337   6.487   3.264
 2329SOL    HW1 7886   1.415   6.495   3.203
 2329SOL    HW2 7887   1.277   6.413   3.232
 2330SOL     OW 7888   1.995   4.474   0.055
 2330SOL    HW1 7889   1.912   4.499   0.104
 2330SOL    HW2 7890   2.071   4.468   0.119
 2331SOL     OW 7891   1.343   4.844   5.347
 2331SOL    HW1 7892   1.408   4.857   5.273
 2331SOL    HW2 7893   1.249   4.846   5.311
 2332SOL     OW 7894   0.033   3.433   6.577
 2332SOL    HW1 7895   0.024   3.446   6.479
 2332SOL    HW2 7896   6.963   3.450   6.622
 2333SOL     OW 7897   2.074   4.404   3.809
 2333SOL    HW1 7898   2.058   4.497   3.842
 2333SOL    HW2 7899   2.061   4.339   3.885
 2334SOL     OW 7900   2.220   0.052   6.241
 2334SOL    HW1 7901   2.306   0.069   6.288
 2334SOL    HW2 7902   2.218   0.104   6.155
 2335SOL     OW 7903   4.646   4.306   4.430
 2335SOL    HW1 7904   4.690   4.217   4.436
 2335SOL    HW2 7905   4.701   4.374   4.479
 2336SOL     OW 7906   4.285   1.343   5.460
 2336SOL    HW1 7907   4.231   1.276   5.511
 2336SOL    HW2 7908   4.309   1.304   5.371
 2337SOL     OW 7909   6.107   0.569   5.158
 2337SOL    HW1 7910   6.070   0.585   5.067
 2337SOL    HW2 7911   6.036   0.533   5.218
 2338SOL     OW 7912   1.796   6.710   0.087
 2338SOL    HW1 7913   1.730   6.650   0.131
 2338SOL    HW2 7914   1.765   6.730   7.011
 2339SOL     OW 7915   3.293   4.224   5.993
 2339SOL    HW1 7916   3.321   4.307   5.945
 2339SOL    HW2 7917   3.242   4.249   6.075
 2340SOL     OW 7918   4.103   5.104   3.887
 2340SOL    HW1 7919   4.179   5.091   3.950
 2340SOL    HW2 7920   4.069   5.015   3.857
 2341SOL     OW 7921   0.726   3.882   6.040
 2341SOL    HW1 7922   0.784   3.924   6.110
 2341SOL    HW2 7923   0.650   3.835   6.084
 2342SOL     OW 7924   4.783   1.105   5.532
 2342SOL    HW1 7925   4.783   1.153   5.619
 2342SOL    HW2 7926   4.791   1.172   5.457
 2343SOL     OW 7927   1.042   5.819   1.917
 2343SOL    HW1 7928   0.950   5.852   1.898
 2343SOL    HW2 7929   1.060   5.826   2.015
 2344SOL     OW 7930   1.973   0.552   2.966
 2344SOL    HW1 7931   1.958   0.649   2.986
 2344SOL    HW2 7932   2.071   0.533   2.958
 2345SOL     OW 7933   1.417   2.746   1.871
 2345SOL    HW1 7934   1.432   2.818   1.803
 2345SOL    HW2 7935   1.498   2.687   1.875
 2346SOL     OW 7936   5.575   3.003   5.335
 2346SOL    HW1 7937   5.672   2.997   5.361
 2346SOL    HW2 7938   5.525   3.051   5.407
 2347SOL     OW 7939   1.908   4.230   1.151
 2347SOL    HW1 7940   1.831   4.192   1.101
 2347SOL    HW2 7941   1.906   4.198   1.246
 2348SOL     OW 7942   3.276   0.271   1.839
 2348SOL    HW1 7943   3.354   0.325   1.808
 2348SOL    HW2 7944   3.225   0.238   1.759
 2349SOL     OW 7945   5.713   2.477   6.929
 2349SOL    HW1 7946   5.793   2.417   6.918
 2349SOL    HW2 7947   5.684   2.475   0.008
 2350SOL     OW 7948   2.278   5.691   5.173
 2350SOL    HW1 7949   2.298   5.595   5.152
 2350SOL    HW2 7950   2.182   5.701   5.198
 2351SOL     OW 7951   1.849   5.284   3.478
 2351SOL    HW1 7952   1.877   5.303   3.571
 2351SOL    HW2 7953   1.868   5.189   3.455
 2352SOL     OW 7954   6.063   5.829   6.333
 2352SOL    HW1 7955   6.032   5.814   6.239
 2352SOL    HW2 7956   5.999   5.784   6.396
 2353SOL     OW 7957   3.174   2.888   6.450
 2353SOL    HW1 7958   3.165   2.789   6.466
 2353SOL    HW2 7959   3.091   2.934   6.481
 2354SOL     OW 7960   3.567   1.820   2.207
 2354SOL    HW1 7961   3.488   1.831   2.268
 2354SOL    HW2 7962   3.563   1.730   2.163
 2355SOL     OW 7963   0.044   1.475   2.288
 2355SOL    HW1 7964   6.981   1.509   2.240
 2355SOL    HW2 7965   0.127   1.517   2.250
 2356SOL     OW 7966   3.433   5.033   3.804
 2356SOL    HW1 7967   3.526   5.044   3.767
 2356SOL    HW2 7968   3.437   4.980   3.888
 2357SOL     OW 7969   0.938   5.604   1.120
 2357SOL    HW1 7970   0.975   5.684   1.072
 2357SOL    HW2 7971   0.850   5.578   1.079
 2358SOL     OW 7972   2.182   0.870   5.256
 2358SOL    HW1 7973   2.107   0.831   5.203
 2358SOL    HW2 7974   2.262   0.882   5.197
 2359SOL     OW 7975   3.662   2.566   5.617
 2359SOL    HW1 7976   3.740   2.505   5.632
 2359SOL    HW2 7977   3.614   2.537   5.534
 2360SOL     OW 7978   3.420   5.351   1.456
 2360SOL    HW1 7979   3.334   5.315   1.493
 2360SOL    HW2 7980   3.412   5.357   1.356
 2361SOL     OW 7981   3.613   5.096   1.104
 2361SOL    HW1 7982   3.665   5.038   1.167
 2361SOL    HW2 7983   3.677   5.147   1.046
 2362SOL     OW 7984   2.831   4.818   4.275
 2362SOL    HW1 7985   2.770   4.770   4.213
 2362SOL    HW2 7986   2.828   4.774   4.365
 2363SOL     OW 7987   2.474   3.843   1.711
 2363SOL    HW1 7988   2.567   3.876   1.725
 2363SOL    HW2 7989   2.410   3.920   1.716
 2364SOL     OW 7990   4.555   1.054   2.660
 2364SOL    HW1 7991   4.596   1.039   2.750
 2364SOL    HW2 7992   4.503   1.139   2.660
 2365SOL     OW 7993   5.978   3.622   2.446
 2365SOL    HW1 7994   5.900   3.569   2.412
 2365SOL    HW2 7995   5.955   3.661   2.535
 2366SOL     OW 7996   4.118   5.411   4.762
 2366SOL    HW1 7997   4.091   5.435   4.668
 2366SOL    HW2 7998   4.071   5.328   4.790
 2367SOL     OW 7999   5.767   4.544   5.632
 2367SOL    HW1 8000   5.681   4.553   5.683
 2367SOL    HW2 8001   5.815   4.462   5.662
 2368SOL     OW 8002   4.991   1.591   5.515
 2368SOL    HW1 8003   5.027   1.516   5.571
 2368SOL    HW2 8004   5.062   1.622   5.451
 2369SOL     OW 8005   3.895   2.147   3.974
 2369SOL    HW1 8006   3.971   2.199   4.013
 2369SOL    HW2 8007   3.880   2.176   3.879
 2370SOL     OW 8008   4.099   2.206   0.573
 2370SOL    HW1 8009   4.150   2.120   0.579
 2370SOL    HW2 8010   4.133   2.270   0.642
 2371SOL     OW 8011   2.507   6.256   2.984
 2371SOL    HW1 8012   2.511   6.318   3.062
 2371SOL    HW2 8013   2.588   6.197   2.985
 2372SOL     OW 8014   5.693   6.719   6.343
 2372SOL    HW1 8015   5.625   6.656   6.304
 2372SOL    HW2 8016   5.744   6.763   6.268
 2373SOL     OW 8017   6.394   4.049   5.633
 2373SOL    HW1 8018   6.324   4.095   5.578
 2373SOL    HW2 8019   6.473   4.109   5.643
 2374SOL     OW 8020   0.262   5.440   2.458
 2374SOL    HW1 8021   0.211   5.502   2.399
 2374SOL    HW2 8022   0.221   5.349   2.454
 2375SOL     OW 8023   2.051   0.508   4.751
 2375SOL    HW1 8024   2.073   0.606   4.754
 2375SOL    HW2 8025   1.954   0.495   4.771
 2376SOL     OW 8026   5.669   2.936   3.883
 2376SOL    HW1 8027   5.627   2.858   3.837
 2376SOL    HW2 8028   5.644   3.020   3.835
 2377SOL     OW 8029   3.800   4.715   5.998
 2377SOL    HW1 8030   3.787   4.629   6.048
 2377SOL    HW2 8031   3.730   4.723   5.928
 2378SOL     OW 8032   0.611   0.427   0.468
 2378SOL    HW1 8033   0.669   0.374   0.529
 2378SOL    HW2 8034   0.663   0.503   0.430
 2379SOL     OW 8035   0.382   4.510   2.703
 2379SOL    HW1 8036   0.419   4.538   2.614
 2379SOL    HW2 8037   0.451   4.459   2.754
 2380SOL     OW 8038   4.828   5.867   6.676
 2380SOL    HW1 8039   4.921   5.885   6.711
 2380SOL    HW2 8040   4.811   5.768   6.679
 2381SOL     OW 8041   2.314   4.181   3.868
 2381SOL    HW1 8042   2.315   4.273   3.829
 2381SOL    HW2 8043   2.292   4.115   3.797
 2382SOL     OW 8044   6.469   5.723   2.524
 2382SOL    HW1 8045   6.431   5.674   2.603
 2382SOL    HW2 8046   6.412   5.803   2.504
 2383SOL     OW 8047   4.683   3.881   6.019
 2383SOL    HW1 8048   4.728   3.971   6.021
 2383SOL    HW2 8049   4.743   3.816   5.972
 2384SOL     OW 8050   0.907   2.169   3.281
 2384SOL    HW1 8051   0.847   2.197   3.206
 2384SOL    HW2 8052   0.995   2.214   3.271
 2385SOL     OW 8053   0.772   0.998   1.113
 2385SOL    HW1 8054   0.865   1.023   1.086
 2385SOL    HW2 8055   0.762   0.899   1.111
 2386SOL     OW 8056   6.977   4.629   5.882
 2386SOL    HW1 8057   6.977   4.546   5.826
 2386SOL    HW2 8058   6.922   4.614   5.964
 2387SOL     OW 8059   6.831   0.036   3.142
 2387SOL    HW1 8060   6.763   6.991   3.104
 2387SOL    HW2 8061   6.785   0.118   3.177
 2388SOL     OW 8062   1.980   4.237   3.614
 2388SOL    HW1 8063   2.023   4.304   3.675
 2388SOL    HW2 8064   1.990   4.267   3.519
 2389SOL     OW 8065   3.372   0.197   3.053
 2389SOL    HW1 8066   3.353   0.291   3.082
 2389SOL    HW2 8067   3.292   0.160   3.006
 2390SOL     OW 8068   5.420   3.144   5.002
 2390SOL    HW1 8069   5.497   3.201   5.028
 2390SOL    HW2 8070   5.386   3.173   4.912
 2391SOL     OW 8071   2.393   4.184   6.611
 2391SOL    HW1 8072   2.312   4.244   6.608
 2391SOL    HW2 8073   2.367   4.095   6.649
 2392SOL     OW 8074   3.993   5.169   5.559
 2392SOL    HW1 8075   4.071   5.139   5.503
 2392SOL    HW2 8076   4.025   5.186   5.653
 2393SOL     OW 8077   4.715   5.019   0.147
 2393SOL    HW1 8078   4.660   5.018   0.231
 2393SOL    HW2 8079   4.800   4.968   0.162
 2394SOL     OW 8080   6.893   2.580   2.947
 2394SOL    HW1 8081   6.900   2.486   2.915
 2394SOL    HW2 8082   6.817   2.626   2.902
 2395SOL     OW 8083   0.700   2.694   3.593
 2395SOL    HW1 8084   0.725   2.641   3.512
 2395SOL    HW2 8085   0.781   2.740   3.629
 2396SOL     OW 8086   0.361   0.769   5.908
 2396SOL    HW1 8087   0.350   0.674   5.935
 2396SOL    HW2 8088   0.373   0.826   5.989
 2397SOL     OW 8089   2.534   4.778   5.745
 2397SOL    HW1 8090   2.535   4.686   5.785
 2397SOL    HW2 8091   2.593   4.838   5.800
 2398SOL     OW 8092   3.852   6.377   5.083
 2398SOL    HW1 8093   3.837   6.350   5.179
 2398SOL    HW2 8094   3.848   6.295   5.025
 2399SOL     OW 8095   3.277   1.846   2.267
 2399SOL    HW1 8096   3.255   1.944   2.266
 2399SOL    HW2 8097   3.193   1.793   2.277
 2400SOL     OW 8098   1.018   1.433   6.454
 2400SOL    HW1 8099   1.056   1.513   6.408
 2400SOL    HW2 8100   1.082   1.357   6.447
 2401SOL     OW 8101   1.263   6.942   0.772
 2401SOL    HW1 8102   1.347   6.952   0.825
 2401SOL    HW2 8103   1.283   6.953   0.675
 2402SOL     OW 8104   0.568   3.314   1.494
 2402SOL    HW1 8105   0.650   3.314   1.438
 2402SOL    HW2 8106   0.544   3.220   1.517
 2403SOL     OW 8107   3.158   4.225   5.212
 2403SOL    HW1 8108   3.133   4.163   5.285
 2403SOL    HW2 8109   3.126   4.317   5.234
 2404SOL     OW 8110   6.351   1.937   2.048
 2404SOL    HW1 8111   6.271   1.947   1.988
 2404SOL    HW2 8112   6.373   2.025   2.089
 2405SOL     OW 8113   2.565   3.432   0.209
 2405SOL    HW1 8114   2.493   3.500   0.221
 2405SOL    HW2 8115   2.559   3.393   0.117
 2406SOL     OW 8116   4.502   6.188   5.239
 2406SOL    HW1 8117   4.581   6.241   5.270
 2406SOL    HW2 8118   4.532   6.118   5.174
 2407SOL     OW 8119   2.091   1.914   3.702
 2407SOL    HW1 8120   2.102   1.907   3.602
 2407SOL    HW2 8121   2.146   1.844   3.747
 2408SOL     OW 8122   4.526   6.629   5.323
 2408SOL    HW1 8123   4.450   6.581   5.279
 2408SOL    HW2 8124   4.581   6.675   5.254
 2409SOL     OW 8125   1.428   3.105   6.876
 2409SOL    HW1 8126   1.472   3.141   6.957
 2409SOL    HW2 8127   1.454   3.160   6.796
 2410SOL     OW 8128   6.575   3.481   4.642
 2410SOL    HW1 8129   6.510   3.452   4.712
 2410SOL    HW2 8130   6.630   3.556   4.678
 2411SOL     OW 8131   3.138   0.836   1.039
 2411SOL    HW1 8132   3.142   0.840   1.138
 2411SOL    HW2 8133   3.213   0.889   1.000
 2412SOL     OW 8134   3.836   2.569   7.016
 2412SOL    HW1 8135   3.758   2.506   7.012
 2412SOL    HW2 8136   3.880   2.573   6.926
 2413SOL     OW 8137   6.936   3.801   6.019
 2413SOL    HW1 8138   6.912   3.779   6.113
 2413SOL    HW2 8139   6.946   3.716   5.967
 2414SOL     OW 8140   6.325   1.802   5.053
 2414SOL    HW1 8141   6.294   1.709   5.033
 2414SOL    HW2 8142   6.251   1.853   5.098
 2415SOL     OW 8143   3.233   3.863   5.262
 2415SOL    HW1 8144   3.299   3.922   5.215
 2415SOL    HW2 8145   3.272   3.833   5.349
 2416SOL     OW 8146   6.567   3.145   3.213
 2416SOL    HW1 8147   6.522   3.153   3.124
 2416SOL    HW2 8148   6.605   3.233   3.239
 2417SOL     OW 8149   3.500   2.601   1.604
 2417SOL    HW1 8150   3.465   2.695   1.608
 2417SOL    HW2 8151   3.425   2.538   1.585
 2418SOL     OW 8152   6.016   3.578   6.666
 2418SOL    HW1 8153   6.028   3.479   6.655
 2418SOL    HW2 8154   6.105   3.623   6.656
 2419SOL     OW 8155   3.183   1.374   2.826
 2419SOL    HW1 8156   3.163   1.463   2.785
 2419SOL    HW2 8157   3.098   1.334   2.860
 2420SOL     OW 8158   0.406   3.087   1.443
 2420SOL    HW1 8159   0.377   3.031   1.366
 2420SOL    HW2 8160   0.367   3.051   1.528
 2421SOL     OW 8161   2.814   0.338   3.730
 2421SOL    HW1 8162   2.820   0.240   3.713
 2421SOL    HW2 8163   2.881   0.364   3.799
 2422SOL     OW 8164   3.964   6.785   0.558
 2422SOL    HW1 8165   3.870   6.778   0.523
 2422SOL    HW2 8166   3.988   6.881   0.570
 2423SOL     OW 8167   3.957   4.972   4.833
 2423SOL    HW1 8168   3.889   4.971   4.906
 2423SOL    HW2 8169   4.046   4.946   4.871
 2424SOL     OW 8170   4.825   0.384   6.380
 2424SOL    HW1 8171   4.810   0.400   6.478
 2424SOL    HW2 8172   4.768   0.446   6.327
 2425SOL     OW 8173   4.675   5.250   4.427
 2425SOL    HW1 8174   4.761   5.256   4.477
 2425SOL    HW2 8175   4.603   5.217   4.488
 2426SOL     OW 8176   2.910   2.393   5.296
 2426SOL    HW1 8177   2.998   2.390   5.249
 2426SOL    HW2 8178   2.923   2.423   5.391
 2427SOL     OW 8179   4.852   2.220   6.952
 2427SOL    HW1 8180   4.758   2.253   6.962
 2427SOL    HW2 8181   4.915   2.297   6.951
 2428SOL     OW 8182   1.638   1.783   2.267
 2428SOL    HW1 8183   1.646   1.772   2.168
 2428SOL    HW2 8184   1.634   1.881   2.289
 2429SOL     OW 8185   5.178   5.116   1.688
 2429SOL    HW1 8186   5.202   5.117   1.785
 2429SOL    HW2 8187   5.114   5.041   1.670
 2430SOL     OW 8188   6.842   6.292   6.787
 2430SOL    HW1 8189   6.818   6.204   6.829
 2430SOL    HW2 8190   6.857   6.360   6.858
 2431SOL     OW 8191   2.104   2.554   1.163
 2431SOL    HW1 8192   2.166   2.481   1.134
 2431SOL    HW2 8193   2.101   2.626   1.094
 2432SOL     OW 8194   2.952   5.976   2.669
 2432SOL    HW1 8195   2.874   6.032   2.696
 2432SOL    HW2 8196   2.963   5.899   2.732
 2433SOL     OW 8197   0.394   4.117   4.106
 2433SOL    HW1 8198   0.326   4.188   4.089
 2433SOL    HW2 8199   0.477   4.136   4.054
 2434SOL     OW 8200   3.692   2.149   3.048
 2434SOL    HW1 8201   3.633   2.199   3.111
 2434SOL    HW2 8202   3.786   2.178   3.060
 2435SOL     OW 8203   5.678   6.596   5.887
 2435SOL    HW1 8204   5.647   6.679   5.840
 2435SOL    HW2 8205   5.737   6.543   5.825
 2436SOL     OW 8206   0.385   3.095   7.007
 2436SOL    HW1 8207   0.356   3.191   6.996
 2436SOL    HW2 8208   0.481   3.093   0.017
 2437SOL     OW 8209   0.908   5.021   1.248
 2437SOL    HW1 8210   0.809   5.012   1.264
 2437SOL    HW2 8211   0.934   5.117   1.255
 2438SOL     OW 8212   3.983   1.953   4.295
 2438SOL    HW1 8213   4.028   2.040   4.274
 2438SOL    HW2 8214   4.039   1.902   4.360
 2439SOL     OW 8215   0.468   6.085   6.678
 2439SOL    HW1 8216   0.528   6.021   6.630
 2439SOL    HW2 8217   0.521   6.137   6.745
 2440SOL     OW 8218   0.102   2.637   5.093
 2440SOL    HW1 8219   0.064   2.578   5.165
 2440SOL    HW2 8220   0.163   2.583   5.035
 2441SOL     OW 8221   6.523   0.148   6.993
 2441SOL    HW1 8222   6.493   0.225   0.032
 2441SOL    HW2 8223   6.516   0.172   6.896
 2442SOL     OW 8224   5.622   3.043   2.999
 2442SOL    HW1 8225   5.587   3.027   3.091
 2442SOL    HW2 8226   5.665   3.133   2.995
 2443SOL     OW 8227   0.614   2.964   1.193
 2443SOL    HW1 8228   0.572   2.908   1.122
 2443SOL    HW2 8229   0.675   3.031   1.151
 2444SOL     OW 8230   3.470   5.135   2.634
 2444SOL    HW1 8231   3.441   5.044   2.663
 2444SOL    HW2 8232   3.402   5.173   2.572
 2445SOL     OW 8233   0.782   1.998   1.188
 2445SOL    HW1 8234   0.687   2.028   1.196
 2445SOL    HW2 8235   0.786   1.898   1.191
 2446SOL     OW 8236   6.629   5.432   0.829
 2446SOL    HW1 8237   6.623   5.488   0.911
 2446SOL    HW2 8238   6.691   5.355   0.845
 2447SOL     OW 8239   1.983   0.178   6.791
 2447SOL    HW1 8240   2.057   0.127   6.835
 2447SOL    HW2 8241   2.017   0.268   6.762
 2448SOL     OW 8242   5.378   0.662   4.422
 2448SOL    HW1 8243   5.389   0.761   4.417
 2448SOL    HW2 8244   5.381   0.624   4.330
 2449SOL     OW 8245   2.014   3.754   1.342
 2449SOL    HW1 8246   2.054   3.808   1.416
 2449SOL    HW2 8247   2.087   3.720   1.282
 2450SOL     OW 8248   6.460   6.765   5.359
 2450SOL    HW1 8249   6.363   6.743   5.348
 2450SOL    HW2 8250   6.492   6.729   5.446
 2451SOL     OW 8251   1.685   6.983   0.107
 2451SOL    HW1 8252   1.692   6.885   0.090
 2451SOL    HW2 8253   1.674   6.999   0.205
 2452SOL     OW 8254   1.699   2.263   3.802
 2452SOL    HW1 8255   1.637   2.341   3.809
 2452SOL    HW2 8256   1.741   2.262   3.711
 2453SOL     OW 8257   0.970   1.768   6.503
 2453SOL    HW1 8258   1.010   1.858   6.491
 2453SOL    HW2 8259   0.965   1.746   6.600
 2454SOL     OW 8260   2.626   6.363   0.298
 2454SOL    HW1 8261   2.646   6.345   0.202
 2454SOL    HW2 8262   2.676   6.444   0.328
 2455SOL     OW 8263   5.164   1.759   6.857
 2455SOL    HW1 8264   5.101   1.729   6.929
 2455SOL    HW2 8265   5.221   1.682   6.828
 2456SOL     OW 8266   0.841   3.353   6.015
 2456SOL    HW1 8267   0.810   3.447   6.031
 2456SOL    HW2 8268   0.881   3.317   6.099
 2457SOL     OW 8269   5.544   1.737   5.877
 2457SOL    HW1 8270   5.488   1.692   5.947
 2457SOL    HW2 8271   5.527   1.836   5.879
 2458SOL     OW 8272   0.781   0.128   2.143
 2458SOL    HW1 8273   0.816   0.097   2.054
 2458SOL    HW2 8274   0.813   0.221   2.161
 2459SOL     OW 8275   1.707   6.448   1.316
 2459SOL    HW1 8276   1.647   6.420   1.241
 2459SOL    HW2 8277   1.673   6.410   1.402
 2460SOL     OW 8278   0.617   0.963   4.218
 2460SOL    HW1 8279   0.560   0.913   4.153
 2460SOL    HW2 8280   0.595   0.935   4.311
 2461SOL     OW 8281   2.458   1.830   3.054
 2461SOL    HW1 8282   2.554   1.826   3.026
 2461SOL    HW2 8283   2.424   1.923   3.043
 2462SOL     OW 8284   0.313   5.870   0.541
 2462SOL    HW1 8285   0.357   5.798   0.487
 2462SOL    HW2 8286   0.219   5.882   0.511
 2463SOL     OW 8287   6.932   6.377   0.530
 2463SOL    HW1 8288   6.840   6.351   0.561
 2463SOL    HW2 8289   6.997   6.305   0.556
 2464SOL     OW 8290   0.706   2.670   4.685
 2464SOL    HW1 8291   0.709   2.741   4.755
 2464SOL    HW2 8292   0.621   2.618   4.695
 2465SOL     OW 8293   6.895   1.637   0.141
 2465SOL    HW1 8294   6.915   1.558   0.199
 2465SOL    HW2 8295   6.802   1.628   0.104
 2466SOL     OW 8296   1.213   1.907   1.295
 2466SOL    HW1 8297   1.232   1.820   1.340
 2466SOL    HW2 8298   1.129   1.947   1.334
 2467SOL     OW 8299   5.112   2.573   4.930
 2467SOL    HW1 8300   5.018   2.591   4.959
 2467SOL    HW2 8301   5.160   2.525   5.004
 2468SOL     OW 8302   3.056   6.909   4.608
 2468SOL    HW1 8303   3.123   6.936   4.539
 2468SOL    HW2 8304   3.085   6.824   4.651
 2469SOL     OW 8305   2.774   1.868   6.149
 2469SOL    HW1 8306   2.796   1.964   6.133
 2469SOL    HW2 8307   2.821   1.837   6.231
 2470SOL     OW 8308   1.854   5.222   6.281
 2470SOL    HW1 8309   1.757   5.241   6.288
 2470SOL    HW2 8310   1.884   5.238   6.187
 2471SOL     OW 8311   2.741   5.595   2.693
 2471SOL    HW1 8312   2.731   5.647   2.608
 2471SOL    HW2 8313   2.824   5.625   2.741
 2472SOL     OW 8314   5.098   0.642   3.062
 2472SOL    HW1 8315   5.079   0.682   3.151
 2472SOL    HW2 8316   5.081   0.710   2.990
 2473SOL     OW 8317   0.779   4.251   4.542
 2473SOL    HW1 8318   0.827   4.279   4.458
 2473SOL    HW2 8319   0.808   4.159   4.568
 2474SOL     OW 8320   1.859   0.481   1.272
 2474SOL    HW1 8321   1.928   0.553   1.274
 2474SOL    HW2 8322   1.797   0.496   1.196
 2475SOL     OW 8323   5.715   1.992   0.610
 2475SOL    HW1 8324   5.796   1.980   0.667
 2475SOL    HW2 8325   5.640   1.936   0.647
 2476SOL     OW 8326   4.715   6.706   6.769
 2476SOL    HW1 8327   4.667   6.794   6.778
 2476SOL    HW2 8328   4.707   6.656   6.855
 2477SOL     OW 8329   3.511   1.403   3.829
 2477SOL    HW1 8330   3.516   1.474   3.899
 2477SOL    HW2 8331   3.499   1.445   3.739
 2478SOL     OW 8332   3.279   0.321   4.253
 2478SOL    HW1 8333   3.364   0.270   4.259
 2478SOL    HW2 8334   3.236   0.326   4.344
 2479SOL     OW 8335   6.536   4.204   1.814
 2479SOL    HW1 8336   6.481   4.121   1.804
 2479SOL    HW2 8337   6.566   4.236   1.724
 2480SOL     OW 8338   3.054   1.986   1.594
 2480SOL    HW1 8339   3.153   1.991   1.611
 2480SOL    HW2 8340   3.008   2.062   1.639
 2481SOL     OW 8341   3.028   6.995   2.664
 2481SOL    HW1 8342   2.957   6.933   2.697
 2481SOL    HW2 8343   3.076   6.955   2.586
 2482SOL     OW 8344   0.445   3.423   6.984
 2482SOL    HW1 8345   0.369   3.485   7.008
 2482SOL    HW2 8346   0.452   3.416   6.884
 2483SOL     OW 8347   2.415   2.110   1.374
 2483SOL    HW1 8348   2.429   2.018   1.410
 2483SOL    HW2 8349   2.392   2.105   1.277
 2484SOL     OW 8350   4.691   0.837   6.612
 2484SOL    HW1 8351   4.764   0.772   6.589
 2484SOL    HW2 8352   4.607   0.811   6.566
 2485SOL     OW 8353   0.552   1.370   6.982
 2485SOL    HW1 8354   0.598   1.406   0.046
 2485SOL    HW2 8355   0.455   1.390   6.987
 2486SOL     OW 8356   6.330   5.881   3.158
 2486SOL    HW1 8357   6.402   5.946   3.181
 2486SOL    HW2 8358   6.349   5.793   3.202
 2487SOL     OW 8359   4.299   6.209   6.925
 2487SOL    HW1 8360   4.295   6.309   6.934
 2487SOL    HW2 8361   4.295   6.185   6.828
 2488SOL     OW 8362   0.402   3.877   0.417
 2488SOL    HW1 8363   0.486   3.889   0.470
 2488SOL    HW2 8364   0.343   3.956   0.429
 2489SOL     OW 8365   6.356   5.784   4.746
 2489SOL    HW1 8366   6.324   5.690   4.736
 2489SOL    HW2 8367   6.388   5.798   4.840
 2490SOL     OW 8368   2.943   6.121   2.200
 2490SOL    HW1 8369   2.949   6.221   2.200
 2490SOL    HW2 8370   2.949   6.087   2.106
 2491SOL     OW 8371   4.136   4.786   1.971
 2491SOL    HW1 8372   4.192   4.706   1.949
 2491SOL    HW2 8373   4.157   4.860   1.907
 2492SOL     OW 8374   6.768   5.282   2.049
 2492SOL    HW1 8375   6.810   5.277   2.140
 2492SOL    HW2 8376   6.832   5.323   1.984
 2493SOL     OW 8377   6.215   5.971   0.678
 2493SOL    HW1 8378   6.173   6.035   0.614
 2493SOL    HW2 8379   6.215   5.879   0.638
 2494SOL     OW 8380   6.589   3.913   1.075
 2494SOL    HW1 8381   6.493   3.939   1.067
 2494SOL    HW2 8382   6.646   3.995   1.067
 2495SOL     OW 8383   6.816   3.047   2.182
 2495SOL    HW1 8384   6.883   3.018   2.250
 2495SOL    HW2 8385   6.724   3.034   2.218
 2496SOL     OW 8386   5.294   3.807   5.495
 2496SOL    HW1 8387   5.323   3.719   5.533
 2496SOL    HW2 8388   5.234   3.853   5.561
 2497SOL     OW 8389   0.632   6.896   4.099
 2497SOL    HW1 8390   0.701   6.906   4.171
 2497SOL    HW2 8391   0.541   6.908   4.139
 2498SOL     OW 8392   2.106   3.569   4.685
 2498SOL    HW1 8393   2.117   3.629   4.765
 2498SOL    HW2 8394   2.156   3.484   4.702
 2499SOL     OW 8395   5.594   3.433   1.478
 2499SOL    HW1 8396   5.678   3.466   1.520
 2499SOL    HW2 8397   5.592   3.333   1.482
 2500SOL     OW 8398   3.301   3.695   2.166
 2500SOL    HW1 8399   3.303   3.595   2.176
 2500SOL    HW2 8400   3.349   3.737   2.244
 2501SOL     OW 8401   6.460   5.362   4.781
 2501SOL    HW1 8402   6.406   5.283   4.753
 2501SOL    HW2 8403   6.553   5.354   4.745
 2502SOL     OW 8404   2.796   5.941   3.653
 2502SOL    HW1 8405   2.826   5.929   3.747
 2502SOL    HW2 8406   2.734   6.018   3.647
 2503SOL     OW 8407   2.185   0.391   5.180
 2503SOL    HW1 8408   2.246   0.314   5.202
 2503SOL    HW2 8409   2.232   0.477   5.197
 2504SOL     OW 8410   4.125   0.964   3.314
 2504SOL    HW1 8411   4.224   0.963   3.327
 2504SOL    HW2 8412   4.086   1.042   3.363
 2505SOL     OW 8413   5.356   4.671   4.268
 2505SOL    HW1 8414   5.409   4.714   4.195
 2505SOL    HW2 8415   5.407   4.593   4.305
 2506SOL     OW 8416   6.274   4.688   6.024
 2506SOL    HW1 8417   6.276   4.591   6.002
 2506SOL    HW2 8418   6.347   4.710   6.089
 2507SOL     OW 8419   5.842   3.563   3.965
 2507SOL    HW1 8420   5.916   3.497   3.948
 2507SOL    HW2 8421   5.777   3.524   4.029
 2508SOL     OW 8422   5.605   1.038   4.019
 2508SOL    HW1 8423   5.603   1.100   3.941
 2508SOL    HW2 8424   5.697   1.000   4.029
 2509SOL     OW 8425   0.388   2.871   6.140
 2509SOL    HW1 8426   0.432   2.932   6.074
 2509SOL    HW2 8427   0.433   2.782   6.137
 2510SOL     OW 8428   3.057   3.683   2.423
 2510SOL    HW1 8429   3.137   3.657   2.477
 2510SOL    HW2 8430   2.997   3.604   2.412
 2511SOL     OW 8431   2.436   0.880   4.452
 2511SOL    HW1 8432   2.484   0.950   4.399
 2511SOL    HW2 8433   2.503   0.813   4.486
 2512SOL     OW 8434   3.289   4.881   3.588
 2512SOL    HW1 8435   3.274   4.962   3.645
 2512SOL    HW2 8436   3.376   4.890   3.539
 2513SOL     OW 8437   1.854   5.851   6.426
 2513SOL    HW1 8438   1.815   5.816   6.511
 2513SOL    HW2 8439   1.855   5.951   6.429
 2514SOL     OW 8440   0.771   2.327   2.705
 2514SOL    HW1 8441   0.823   2.397   2.656
 2514SOL    HW2 8442   0.737   2.365   2.791
 2515SOL     OW 8443   6.946   1.865   1.340
 2515SOL    HW1 8444   6.869   1.801   1.343
 2515SOL    HW2 8445   0.014   1.813   1.334
 2516SOL     OW 8446   6.812   2.573   4.877
 2516SOL    HW1 8447   6.823   2.653   4.936
 2516SOL    HW2 8448   6.801   2.491   4.934
 2517SOL     OW 8449   0.141   1.428   4.759
 2517SOL    HW1 8450   0.183   1.516   4.738
 2517SOL    HW2 8451   0.060   1.443   4.816
 2518SOL     OW 8452   3.371   3.700   1.516
 2518SOL    HW1 8453   3.345   3.684   1.421
 2518SOL    HW2 8454   3.328   3.784   1.549
 2519SOL     OW 8455   1.447   1.332   0.555
 2519SOL    HW1 8456   1.379   1.364   0.488
 2519SOL    HW2 8457   1.414   1.248   0.597
 2520SOL     OW 8458   2.856   2.790   1.389
 2520SOL    HW1 8459   2.773   2.839   1.414
 2520SOL    HW2 8460   2.927   2.856   1.363
 2521SOL     OW 8461   5.236   1.132   5.034
 2521SOL    HW1 8462   5.282   1.157   5.119
 2521SOL    HW2 8463   5.263   1.196   4.962
 2522SOL     OW 8464   1.771   1.725   6.996
 2522SOL    HW1 8465   1.816   1.652   0.030
 2522SOL    HW2 8466   1.837   1.768   6.933
 2523SOL     OW 8467   1.077   5.842   5.723
 2523SOL    HW1 8468   1.048   5.776   5.654
 2523SOL    HW2 8469   1.077   5.934   5.684
 2524SOL     OW 8470   0.531   2.294   4.792
 2524SOL    HW1 8471   0.517   2.237   4.873
 2524SOL    HW2 8472   0.474   2.261   4.717
 2525SOL     OW 8473   6.575   2.762   6.356
 2525SOL    HW1 8474   6.551   2.733   6.264
 2525SOL    HW2 8475   6.518   2.713   6.422
 2526SOL     OW 8476   2.110   1.181   0.786
 2526SOL    HW1 8477   2.157   1.268   0.772
 2526SOL    HW2 8478   2.029   1.195   0.843
 2527SOL     OW 8479   3.964   5.178   0.223
 2527SOL    HW1 8480   4.054   5.141   0.201
 2527SOL    HW2 8481   3.974   5.254   0.288
 2528SOL     OW 8482   4.352   5.699   6.023
 2528SOL    HW1 8483   4.330   5.689   5.926
 2528SOL    HW2 8484   4.269   5.726   6.073
 2529SOL     OW 8485   0.238   5.970   5.327
 2529SOL    HW1 8486   0.262   6.063   5.298
 2529SOL    HW2 8487   0.269   5.905   5.258
 2530SOL     OW 8488   2.006   5.955   6.802
 2530SOL    HW1 8489   1.999   6.003   6.890
 2530SOL    HW2 8490   2.075   5.884   6.808
 2531SOL     OW 8491   0.439   4.018   6.225
 2531SOL    HW1 8492   0.344   4.026   6.195
 2531SOL    HW2 8493   0.484   4.107   6.218
 2532SOL     OW 8494   5.566   6.000   2.869
 2532SOL    HW1 8495   5.570   5.930   2.940
 2532SOL    HW2 8496   5.496   5.977   2.803
 2533SOL     OW 8497   4.511   0.572   3.844
 2533SOL    HW1 8498   4.471   0.630   3.915
 2533SOL    HW2 8499   4.447   0.498   3.822
 2534SOL     OW 8500   4.783   1.562   2.532
 2534SOL    HW1 8501   4.779   1.463   2.546
 2534SOL    HW2 8502   4.723   1.588   2.457
 2535SOL     OW 8503   3.308   2.971   6.185
 2535SOL    HW1 8504   3.220   2.931   6.160
 2535SOL    HW2 8505   3.312   2.983   6.284
 2536SOL     OW 8506   1.063   0.329   0.802
 2536SOL    HW1 8507   0.983   0.387   0.789
 2536SOL    HW2 8508   1.051   0.274   0.885
 2537SOL     OW 8509   4.090   6.710   4.726
 2537SOL    HW1 8510   4.112   6.737   4.632
 2537SOL    HW2 8511   4.004   6.659   4.727
 2538SOL     OW 8512   5.539   4.001   3.444
 2538SOL    HW1 8513   5.466   4.058   3.481
 2538SOL    HW2 8514   5.584   3.953   3.519
 2539SOL     OW 8515   5.002   2.085   4.955
 2539SOL    HW1 8516   4.948   2.001   4.963
 2539SOL    HW2 8517   4.968   2.153   5.021
 2540SOL     OW 8518   2.606   2.225   1.679
 2540SOL    HW1 8519   2.529   2.165   1.654
 2540SOL    HW2 8520   2.629   2.283   1.601
 2541SOL     OW 8521   2.842   0.201   3.979
 2541SOL    HW1 8522   2.768   0.158   3.927
 2541SOL    HW2 8523   2.920   0.139   3.984
 2542SOL     OW 8524   1.982   5.646   5.935
 2542SOL    HW1 8525   1.932   5.583   5.875
 2542SOL    HW2 8526   1.996   5.603   6.024
 2543SOL     OW 8527   1.005   0.684   3.987
 2543SOL    HW1 8528   0.918   0.732   3.982
 2543SOL    HW2 8529   1.057   0.716   4.066
 2544SOL     OW 8530   0.778   5.895   5.894
 2544SOL    HW1 8531   0.868   5.852   5.902
 2544SOL    HW2 8532   0.773   5.975   5.954
 2545SOL     OW 8533   2.679   5.815   2.964
 2545SOL    HW1 8534   2.653   5.778   3.053
 2545SOL    HW2 8535   2.597   5.842   2.914
 2546SOL     OW 8536   6.469   0.988   1.913
 2546SOL    HW1 8537   6.475   0.923   1.837
 2546SOL    HW2 8538   6.559   1.000   1.954
 2547SOL     OW 8539   0.368   3.643   5.098
 2547SOL    HW1 8540   0.350   3.544   5.096
 2547SOL    HW2 8541   0.410   3.671   5.012
 2548SOL     OW 8542   0.377   0.872   6.183
 2548SOL    HW1 8543   0.329   0.784   6.185
 2548SOL    HW2 8544   0.447   0.873   6.254
 2549SOL     OW 8545   5.673   2.110   2.974
 2549SOL    HW1 8546   5.646   2.142   3.064
 2549SOL    HW2 8547   5.651   2.013   2.965
 2550SOL     OW 8548   5.468   5.143   6.844
 2550SOL    HW1 8549   5.556   5.131   6.798
 2550SOL    HW2 8550   5.482   5.144   6.943
 2551SOL     OW 8551   1.221   4.599   6.425
 2551SOL    HW1 8552   1.292   4.666   6.447
 2551SOL    HW2 8553   1.245   4.510   6.464
 2552SOL     OW 8554   1.623   5.915   3.559
 2552SOL    HW1 8555   1.716   5.912   3.523
 2552SOL    HW2 8556   1.613   5.847   3.632
 2553SOL     OW 8557   4.817   3.219   0.599
 2553SOL    HW1 8558   4.785   3.285   0.667
 2553SOL    HW2 8559   4.904   3.250   0.561
 2554SOL     OW 8560   1.182   1.888   0.784
 2554SOL    HW1 8561   1.186   1.937   0.871
 2554SOL    HW2 8562   1.114   1.931   0.724
 2555SOL     OW 8563   0.011   0.237   6.216
 2555SOL    HW1 8564   0.066   0.155   6.203
 2555SOL    HW2 8565   0.069   0.310   6.252
 2556SOL     OW 8566   4.140   4.858   0.407
 2556SOL    HW1 8567   4.143   4.840   0.506
 2556SOL    HW2 8568   4.228   4.892   0.376
 2557SOL     OW 8569   2.133   5.092   6.817
 2557SOL    HW1 8570   2.108   5.167   6.756
 2557SOL    HW2 8571   2.229   5.068   6.804
 2558SOL     OW 8572   4.099   0.648   5.499
 2558SOL    HW1 8573   4.180   0.618   5.448
 2558SOL    HW2 8574   4.063   0.571   5.551
 2559SOL     OW 8575   0.575   5.064   4.875
 2559SOL    HW1 8576   0.514   5.062   4.796
 2559SOL    HW2 8577   0.613   5.156   4.886
 2560SOL     OW 8578   6.372   0.408   0.662
 2560SOL    HW1 8579   6.367   0.384   0.759
 2560SOL    HW2 8580   6.460   0.377   0.625
 2561SOL     OW 8581   3.235   6.011   4.124
 2561SOL    HW1 8582   3.317   5.956   4.106
 2561SOL    HW2 8583   3.178   5.964   4.192
 2562SOL     OW 8584   2.154   4.000   0.473
 2562SOL    HW1 8585   2.091   4.024   0.399
 2562SOL    HW2 8586   2.112   3.930   0.531
 2563SOL     OW 8587   1.740   0.600   1.934
 2563SOL    HW1 8588   1.695   0.540   1.867
 2563SOL    HW2 8589   1.729   0.695   1.906
 2564SOL     OW 8590   1.592   6.284   2.419
 2564SOL    HW1 8591   1.691   6.298   2.421
 2564SOL    HW2 8592   1.548   6.364   2.377
 2565SOL     OW 8593   0.886   0.455   1.256
 2565SOL    HW1 8594   0.946   0.481   1.331
 2565SOL    HW2 8595   0.796   0.432   1.293
 2566SOL     OW 8596   2.282   6.602   5.090
 2566SOL    HW1 8597   2.271   6.654   5.006
 2566SOL    HW2 8598   2.298   6.664   5.167
 2567SOL     OW 8599   1.167   0.620   0.519
 2567SOL    HW1 8600   1.147   0.523   0.536
 2567SOL    HW2 8601   1.084   0.674   0.535
 2568SOL     OW 8602   5.786   3.674   0.605
 2568SOL    HW1 8603   5.802   3.587   0.651
 2568SOL    HW2 8604   5.734   3.659   0.521
 2569SOL     OW 8605   2.262   1.022   2.464
 2569SOL    HW1 8606   2.308   0.984   2.383
 2569SOL    HW2 8607   2.236   1.116   2.446
 2570SOL     OW 8608   5.913   2.146   6.262
 2570SOL    HW1 8609   5.906   2.231   6.211
 2570SOL    HW2 8610   5.887   2.161   6.357
 2571SOL     OW 8611   1.160   4.414   3.987
 2571SOL    HW1 8612   1.231   4.363   3.939
 2571SOL    HW2 8613   1.177   4.411   4.085
 2572SOL     OW 8614   1.590   4.991   3.434
 2572SOL    HW1 8615   1.536   4.999   3.518
 2572SOL    HW2 8616   1.532   5.013   3.355
 2573SOL     OW 8617   1.356   0.131   0.137
 2573SOL    HW1 8618   1.406   0.177   0.064
 2573SOL    HW2 8619   1.286   0.193   0.174
 2574SOL     OW 8620   6.643   3.731   0.783
 2574SOL    HW1 8621   6.731   3.684   0.781
 2574SOL    HW2 8622   6.616   3.747   0.878
 2575SOL     OW 8623   0.798   6.718   5.597
 2575SOL    HW1 8624   0.835   6.726   5.504
 2575SOL    HW2 8625   0.857   6.767   5.661
 2576SOL     OW 8626   4.513   6.570   5.870
 2576SOL    HW1 8627   4.479   6.643   5.811
 2576SOL    HW2 8628   4.452   6.560   5.949
 2577SOL     OW 8629   1.667   3.534   2.543
 2577SOL    HW1 8630   1.583   3.490   2.576
 2577SOL    HW2 8631   1.649   3.576   2.454
 2578SOL     OW 8632   3.992   1.904   1.866
 2578SOL    HW1 8633   3.950   1.818   1.837
 2578SOL    HW2 8634   4.030   1.894   1.958
 2579SOL     OW 8635   0.565   6.211   2.987
 2579SOL    HW1 8636   0.485   6.271   2.988
 2579SOL    HW2 8637   0.630   6.241   3.057
 2580SOL     OW 8638   3.015   2.257   5.643
 2580SOL    HW1 8639   3.104   2.221   5.670
 2580SOL    HW2 8640   3.025   2.352   5.611
 2581SOL     OW 8641   3.086   0.108   5.910
 2581SOL    HW1 8642   3.084   0.076   6.004
 2581SOL    HW2 8643   3.008   0.070   5.860
 2582SOL     OW 8644   0.194   3.836   0.704
 2582SOL    HW1 8645   0.154   3.813   0.615
 2582SOL    HW2 8646   0.286   3.798   0.710
 2583SOL     OW 8647   5.514   0.859   0.830
 2583SOL    HW1 8648   5.445   0.786   0.836
 2583SOL    HW2 8649   5.528   0.884   0.735
 2584SOL     OW 8650   3.447   4.429   6.646
 2584SOL    HW1 8651   3.544   4.427   6.623
 2584SOL    HW2 8652   3.430   4.499   6.716
 2585SOL     OW 8653   2.149   5.474   6.902
 2585SOL    HW1 8654   2.229   5.502   6.955
 2585SOL    HW2 8655   2.138   5.535   6.823
 2586SOL     OW 8656   1.976   1.334   2.994
 2586SOL    HW1 8657   1.962   1.245   3.038
 2586SOL    HW2 8658   1.888   1.380   2.983
 2587SOL     OW 8659   5.966   1.106   4.054
 2587SOL    HW1 8660   5.955   1.165   4.134
 2587SOL    HW2 8661   5.994   1.015   4.084
 2588SOL     OW 8662   4.718   1.393   6.539
 2588SOL    HW1 8663   4.799   1.408   6.595
 2588SOL    HW2 8664   4.655   1.332   6.588
 2589SOL     OW 8665   1.672   6.177   0.478
 2589SOL    HW1 8666   1.733   6.126   0.416
 2589SOL    HW2 8667   1.727   6.219   0.551
 2590SOL     OW 8668   2.441   5.303   0.611
 2590SOL    HW1 8669   2.397   5.242   0.545
 2590SOL    HW2 8670   2.372   5.358   0.658
 2591SOL     OW 8671   5.266   6.479   3.428
 2591SOL    HW1 8672   5.196   6.434   3.483
 2591SOL    HW2 8673   5.341   6.416   3.410
 2592SOL     OW 8674   3.309   3.453   0.751
 2592SOL    HW1 8675   3.407   3.472   0.749
 2592SOL    HW2 8676   3.277   3.449   0.845
 2593SOL     OW 8677   2.673   4.721   6.637
 2593SOL    HW1 8678   2.624   4.804   6.611
 2593SOL    HW2 8679   2.684   4.662   6.557
 2594SOL     OW 8680   2.226   3.101   3.378
 2594SOL    HW1 8681   2.213   3.078   3.282
 2594SOL    HW2 8682   2.275   3.027   3.424
 2595SOL     OW 8683   1.589   0.990   2.718
 2595SOL    HW1 8684   1.578   1.043   2.634
 2595SOL    HW2 8685   1.588   1.052   2.796
 2596SOL     OW 8686   0.224   1.158   1.021
 2596SOL    HW1 8687   0.182   1.115   1.100
 2596SOL    HW2 8688   0.312   1.198   1.047
 2597SOL     OW 8689   6.483   6.088   0.639
 2597SOL    HW1 8690   6.393   6.093   0.683
 2597SOL    HW2 8691   6.551   6.061   0.707
 2598SOL     OW 8692   4.841   2.836   2.209
 2598SOL    HW1 8693   4.822   2.874   2.299
 2598SOL    HW2 8694   4.798   2.893   2.139
 2599SOL     OW 8695   2.271   5.539   2.002
 2599SOL    HW1 8696   2.349   5.479   2.014
 2599SOL    HW2 8697   2.272   5.611   2.071
 2600SOL     OW 8698   5.426   5.340   4.341
 2600SOL    HW1 8699   5.409   5.322   4.438
 2600SOL    HW2 8700   5.514   5.385   4.330
 2601SOL     OW 8701   0.018   0.644   3.945
 2601SOL    HW1 8702   0.034   0.743   3.940
 2601SOL    HW2 8703   0.094   0.601   3.994
 2602SOL     OW 8704   1.346   4.527   2.919
 2602SOL    HW1 8705   1.330   4.446   2.976
 2602SOL    HW2 8706   1.329   4.503   2.823
 2603SOL     OW 8707   1.298   5.832   1.629
 2603SOL    HW1 8708   1.356   5.849   1.550
 2603SOL    HW2 8709   1.353   5.794   1.703
 2604SOL     OW 8710   4.843   3.169   2.783
 2604SOL    HW1 8711   4.940   3.157   2.804
 2604SOL    HW2 8712   4.827   3.152   2.686
 2605SOL     OW 8713   1.780   2.499   0.975
 2605SOL    HW1 8714   1.832   2.484   0.891
 2605SOL    HW2 8715   1.813   2.582   1.020
 2606SOL     OW 8716   5.258   4.132   0.696
 2606SOL    HW1 8717   5.238   4.137   0.598
 2606SOL    HW2 8718   5.173   4.129   0.748
 2607SOL     OW 8719   2.619   2.767   1.720
 2607SOL    HW1 8720   2.531   2.750   1.764
 2607SOL    HW2 8721   2.667   2.680   1.706
 2608SOL     OW 8722   3.682   4.923   4.589
 2608SOL    HW1 8723   3.591   4.965   4.597
 2608SOL    HW2 8724   3.701   4.871   4.672
 2609SOL     OW 8725   0.408   1.794   1.392
 2609SOL    HW1 8726   0.350   1.728   1.439
 2609SOL    HW2 8727   0.370   1.886   1.403
 2610SOL     OW 8728   1.594   4.617   4.924
 2610SOL    HW1 8729   1.517   4.680   4.912
 2610SOL    HW2 8730   1.636   4.633   5.014
 2611SOL     OW 8731   5.531   1.790   5.491
 2611SOL    HW1 8732   5.625   1.805   5.459
 2611SOL    HW2 8733   5.478   1.874   5.479
 2612SOL     OW 8734   6.919   6.481   6.999
 2612SOL    HW1 8735   6.938   6.579   6.998
 2612SOL    HW2 8736   6.995   6.432   0.023
 2613SOL     OW 8737   2.011   6.993   0.865
 2613SOL    HW1 8738   2.048   0.068   0.873
 2613SOL    HW2 8739   1.944   6.990   0.791
 2614SOL     OW 8740   6.161   2.072   0.921
 2614SOL    HW1 8741   6.224   2.000   0.889
 2614SOL    HW2 8742   6.205   2.124   0.994
 2615SOL     OW 8743   0.956   3.477   0.004
 2615SOL    HW1 8744   1.023   3.403   7.016
 2615SOL    HW2 8745   0.877   3.455   6.965
 2616SOL     OW 8746   1.157   1.384   5.124
 2616SOL    HW1 8747   1.097   1.453   5.084
 2616SOL    HW2 8748   1.206   1.337   5.050
 2617SOL     OW 8749   5.742   0.205   6.907
 2617SOL    HW1 8750   5.732   0.209   7.006
 2617SOL    HW2 8751   5.665   0.156   6.868
 2618SOL     OW 8752   1.570   0.778   6.962
 2618SOL    HW1 8753   1.614   0.714   0.007
 2618SOL    HW2 8754   1.598   0.872   6.985
 2619SOL     OW 8755   4.710   1.047   2.889
 2619SOL    HW1 8756   4.805   1.050   2.920
 2619SOL    HW2 8757   4.658   1.118   2.935
 2620SOL     OW 8758   5.554   2.403   1.933
 2620SOL    HW1 8759   5.632   2.409   1.996
 2620SOL    HW2 8760   5.565   2.470   1.860
 2621SOL     OW 8761   2.612   6.239   1.089
 2621SOL    HW1 8762   2.535   6.183   1.120
 2621SOL    HW2 8763   2.580   6.303   1.019
 2622SOL     OW 8764   2.461   3.744   6.841
 2622SOL    HW1 8765   2.413   3.809   6.782
 2622SOL    HW2 8766   2.396   3.678   6.877
 2623SOL     OW 8767   0.587   1.605   3.994
 2623SOL    HW1 8768   0.564   1.695   4.033
 2623SOL    HW2 8769   0.655   1.616   3.922
 2624SOL     OW 8770   1.741   1.724   5.346
 2624SOL    HW1 8771   1.726   1.786   5.424
 2624SOL    HW2 8772   1.695   1.637   5.364
 2625SOL     OW 8773   2.974   5.193   6.005
 2625SOL    HW1 8774   2.936   5.267   5.949
 2625SOL    HW2 8775   3.065   5.219   6.036
 2626SOL     OW 8776   6.850   6.568   0.371
 2626SOL    HW1 8777   6.931   6.616   0.339
 2626SOL    HW2 8778   6.876   6.502   0.442
 2627SOL     OW 8779   2.401   0.229   6.048
 2627SOL    HW1 8780   2.412   0.147   5.992
 2627SOL    HW2 8781   2.448   0.216   6.135
 2628SOL     OW 8782   6.728   5.425   1.485
 2628SOL    HW1 8783   6.775   5.432   1.397
 2628SOL    HW2 8784   6.670   5.506   1.497
 2629SOL     OW 8785   3.285   3.521   2.960
 2629SOL    HW1 8786   3.212   3.467   2.917
 2629SOL    HW2 8787   3.319   3.473   3.041
 2630SOL     OW 8788   2.962   1.025   4.851
 2630SOL    HW1 8789   3.016   0.948   4.884
 2630SOL    HW2 8790   3.023   1.099   4.822
 2631SOL     OW 8791   5.149   6.190   0.581
 2631SOL    HW1 8792   5.089   6.250   0.634
 2631SOL    HW2 8793   5.201   6.131   0.642
 2632SOL     OW 8794   4.663   5.170   1.746
 2632SOL    HW1 8795   4.614   5.233   1.686
 2632SOL    HW2 8796   4.612   5.159   1.831
 2633SOL     OW 8797   6.739   2.931   5.821
 2633SOL    HW1 8798   6.695   2.887   5.742
 2633SOL    HW2 8799   6.762   2.861   5.889
 2634SOL     OW 8800   1.678   2.250   6.103
 2634SOL    HW1 8801   1.627   2.165   6.087
 2634SOL    HW2 8802   1.713   2.252   6.196
 2635SOL     OW 8803   4.100   5.537   2.710
 2635SOL    HW1 8804   4.025   5.542   2.645
 2635SOL    HW2 8805   4.186   5.559   2.664
 2636SOL     OW 8806   3.083   6.732   5.981
 2636SOL    HW1 8807   3.123   6.642   5.960
 2636SOL    HW2 8808   3.154   6.802   5.979
 2637SOL     OW 8809   0.029   1.033   2.861
 2637SOL    HW1 8810   6.967   1.074   2.815
 2637SOL    HW2 8811   0.002   0.945   2.901
 2638SOL     OW 8812   0.994   6.297   4.969
 2638SOL    HW1 8813   1.028   6.350   5.047
 2638SOL    HW2 8814   1.070   6.277   4.907
 2639SOL     OW 8815   4.855   5.406   4.797
 2639SOL    HW1 8816   4.837   5.504   4.791
 2639SOL    HW2 8817   4.857   5.367   4.705
 2640SOL     OW 8818   2.066   0.794   3.217
 2640SOL    HW1 8819   2.053   0.872   3.156
 2640SOL    HW2 8820   2.008   0.804   3.297
 2641SOL     OW 8821   5.641   2.595   0.632
 2641SOL    HW1 8822   5.615   2.681   0.676
 2641SOL    HW2 8823   5.667   2.529   0.702
 2642SOL     OW 8824   0.249   0.466   2.917
 2642SOL    HW1 8825   0.311   0.537   2.883
 2642SOL    HW2 8826   0.261   0.456   3.015
 2643SOL     OW 8827   1.969   4.451   4.163
 2643SOL    HW1 8828   1.998   4.429   4.257
 2643SOL    HW2 8829   1.879   4.495   4.166
 2644SOL     OW 8830   5.746   5.393   3.498
 2644SOL    HW1 8831   5.799   5.318   3.458
 2644SOL    HW2 8832   5.654   5.361   3.519
 2645SOL     OW 8833   4.729   5.151   2.499
 2645SOL    HW1 8834   4.635   5.169   2.467
 2645SOL    HW2 8835   4.757   5.224   2.562
 2646SOL     OW 8836   0.784   1.557   6.800
 2646SOL    HW1 8837   0.782   1.543   6.701
 2646SOL    HW2 8838   0.830   1.479   6.844
 2647SOL     OW 8839   4.349   0.319   3.334
 2647SOL    HW1 8840   4.401   0.402   3.318
 2647SOL    HW2 8841   4.411   0.247   3.366
 2648SOL     OW 8842   2.096   0.567   5.843
 2648SOL    HW1 8843   2.029   0.640   5.832
 2648SOL    HW2 8844   2.048   0.480   5.857
 2649SOL     OW 8845   5.972   1.910   3.811
 2649SOL    HW1 8846   5.900   1.979   3.822
 2649SOL    HW2 8847   6.045   1.947   3.754
 2650SOL     OW 8848   1.833   6.859   4.418
 2650SOL    HW1 8849   1.912   6.878   4.361
 2650SOL    HW2 8850   1.757   6.830   4.361
 2651SOL     OW 8851   3.275   1.977   2.858
 2651SOL    HW1 8852   3.339   2.008   2.788
 2651SOL    HW2 8853   3.296   1.882   2.882
 2652SOL     OW 8854   4.625   3.257   6.193
 2652SOL    HW1 8855   4.703   3.319   6.207
 2652SOL    HW2 8856   4.541   3.302   6.223
 2653SOL     OW 8857   2.346   6.737   0.105
 2653SOL    HW1 8858   2.264   6.710   0.155
 2653SOL    HW2 8859   2.414   6.773   0.168
 2654SOL     OW 8860   6.715   0.186   1.126
 2654SOL    HW1 8861   6.744   0.264   1.182
 2654SOL    HW2 8862   6.790   0.120   1.119
 2655SOL     OW 8863   5.084   6.749   3.769
 2655SOL    HW1 8864   5.136   6.833   3.787
 2655SOL    HW2 8865   5.059   6.745   3.673
 2656SOL     OW 8866   4.579   6.948   5.046
 2656SOL    HW1 8867   4.661   6.937   5.101
 2656SOL    HW2 8868   4.580   0.020   5.001
 2657SOL     OW 8869   1.854   3.269   5.661
 2657SOL    HW1 8870   1.936   3.320   5.637
 2657SOL    HW2 8871   1.802   3.247   5.578
 2658SOL     OW 8872   3.771   4.445   0.959
 2658SOL    HW1 8873   3.678   4.443   0.921
 2658SOL    HW2 8874   3.803   4.352   0.976
 2659SOL     OW 8875   0.490   2.106   5.607
 2659SOL    HW1 8876   0.397   2.111   5.570
 2659SOL    HW2 8877   0.550   2.059   5.543
 2660SOL     OW 8878   1.359   1.726   0.653
 2660SOL    HW1 8879   1.299   1.792   0.697
 2660SOL    HW2 8880   1.381   1.757   0.560
 2661SOL     OW 8881   2.181   1.076   1.356
 2661SOL    HW1 8882   2.108   1.044   1.416
 2661SOL    HW2 8883   2.141   1.121   1.276
 2662SOL     OW 8884   2.669   1.587   1.621
 2662SOL    HW1 8885   2.745   1.546   1.672
 2662SOL    HW2 8886   2.622   1.517   1.568
 2663SOL     OW 8887   3.816   0.249   0.883
 2663SOL    HW1 8888   3.866   0.164   0.897
 2663SOL    HW2 8889   3.723   0.228   0.852
 2664SOL     OW 8890   4.991   3.319   5.656
 2664SOL    HW1 8891   4.905   3.364   5.679
 2664SOL    HW2 8892   4.977   3.261   5.576
 2665SOL     OW 8893   0.870   3.650   4.209
 2665SOL    HW1 8894   0.859   3.554   4.184
 2665SOL    HW2 8895   0.903   3.656   4.303
 2666SOL     OW 8896   1.945   3.718   1.707
 2666SOL    HW1 8897   1.927   3.627   1.668
 2666SOL    HW2 8898   1.964   3.783   1.634
 2667SOL     OW 8899   6.125   2.374   4.654
 2667SOL    HW1 8900   6.196   2.431   4.612
 2667SOL    HW2 8901   6.088   2.421   4.735
 2668SOL     OW 8902   5.830   0.828   4.115
 2668SOL    HW1 8903   5.785   0.798   4.199
 2668SOL    HW2 8904   5.877   0.750   4.073
 2669SOL     OW 8905   2.630   1.570   2.106
 2669SOL    HW1 8906   2.531   1.560   2.099
 2669SOL    HW2 8907   2.655   1.664   2.086
 2670SOL     OW 8908   0.326   0.036   1.260
 2670SOL    HW1 8909   0.262   0.094   1.310
 2670SOL    HW2 8910   0.420   0.060   1.287
 2671SOL     OW 8911   5.234   4.288   6.210
 2671SOL    HW1 8912   5.281   4.217   6.157
 2671SOL    HW2 8913   5.302   4.339   6.264
 2672SOL     OW 8914   1.830   1.447   2.299
 2672SOL    HW1 8915   1.887   1.473   2.377
 2672SOL    HW2 8916   1.734   1.441   2.328
 2673SOL     OW 8917   3.266   0.888   3.248
 2673SOL    HW1 8918   3.356   0.916   3.214
 2673SOL    HW2 8919   3.198   0.956   3.224
 2674SOL     OW 8920   5.868   5.942   3.235
 2674SOL    HW1 8921   5.825   5.867   3.285
 2674SOL    HW2 8922   5.956   5.964   3.277
 2675SOL     OW 8923   4.639   1.077   4.297
 2675SOL    HW1 8924   4.660   1.168   4.334
 2675SOL    HW2 8925   4.563   1.084   4.233
 2676SOL     OW 8926   4.078   3.611   5.374
 2676SOL    HW1 8927   3.990   3.627   5.330
 2676SOL    HW2 8928   4.152   3.617   5.307
 2677SOL     OW 8929   1.514   6.031   1.213
 2677SOL    HW1 8930   1.460   6.030   1.129
 2677SOL    HW2 8931   1.603   5.989   1.197
 2678SOL     OW 8932   3.597   1.961   1.980
 2678SOL    HW1 8933   3.629   2.054   1.999
 2678SOL    HW2 8934   3.573   1.916   2.066
 2679SOL     OW 8935   2.199   4.095   2.594
 2679SOL    HW1 8936   2.160   4.043   2.518
 2679SOL    HW2 8937   2.208   4.191   2.566
 2680SOL     OW 8938   6.103   1.758   6.498
 2680SOL    HW1 8939   6.089   1.811   6.415
 2680SOL    HW2 8940   6.031   1.690   6.507
 2681SOL     OW 8941   2.343   2.685   3.265
 2681SOL    HW1 8942   2.420   2.622   3.262
 2681SOL    HW2 8943   2.320   2.715   3.173
 2682SOL     OW 8944   3.193   4.092   2.548
 2682SOL    HW1 8945   3.242   4.082   2.634
 2682SOL    HW2 8946   3.099   4.058   2.559
 2683SOL     OW 8947   1.637   2.927   0.850
 2683SOL    HW1 8948   1.541   2.903   0.865
 2683SOL    HW2 8949   1.654   3.019   0.886
 2684SOL     OW 8950   5.755   0.226   4.085
 2684SOL    HW1 8951   5.842   0.237   4.038
 2684SOL    HW2 8952   5.718   0.315   4.109
 2685SOL     OW 8953   1.734   6.585   5.967
 2685SOL    HW1 8954   1.811   6.647   5.952
 2685SOL    HW2 8955   1.766   6.503   6.014
 2686SOL     OW 8956   2.433   2.495   5.998
 2686SOL    HW1 8957   2.517   2.443   5.983
 2686SOL    HW2 8958   2.446   2.560   6.074
 2687SOL     OW 8959   3.735   2.533   1.709
 2687SOL    HW1 8960   3.656   2.538   1.648
 2687SOL    HW2 8961   3.729   2.450   1.764
 2688SOL     OW 8962   4.749   2.197   0.441
 2688SOL    HW1 8963   4.830   2.255   0.442
 2688SOL    HW2 8964   4.667   2.254   0.434
 2689SOL     OW 8965   6.959   4.178   2.366
 2689SOL    HW1 8966   6.899   4.116   2.316
 2689SOL    HW2 8967   6.998   4.130   2.445
 2690SOL     OW 8968   5.421   1.334   4.483
 2690SOL    HW1 8969   5.325   1.308   4.480
 2690SOL    HW2 8970   5.469   1.295   4.404
 2691SOL     OW 8971   5.213   3.510   3.896
 2691SOL    HW1 8972   5.300   3.559   3.888
 2691SOL    HW2 8973   5.153   3.559   3.959
 2692SOL     OW 8974   1.494   5.575   1.100
 2692SOL    HW1 8975   1.536   5.500   1.049
 2692SOL    HW2 8976   1.394   5.571   1.090
 2693SOL     OW 8977   0.885   6.192   2.517
 2693SOL    HW1 8978   0.815   6.124   2.496
 2693SOL    HW2 8979   0.885   6.262   2.446
 2694SOL     OW 8980   2.235   0.558   3.001
 2694SOL    HW1 8981   2.299   0.494   3.042
 2694SOL    HW2 8982   2.278   0.603   2.922
 2695SOL     OW 8983   6.704   6.147   3.303
 2695SOL    HW1 8984   6.624   6.130   3.360
 2695SOL    HW2 8985   6.787   6.115   3.351
 2696SOL     OW 8986   3.289   4.620   6.240
 2696SOL    HW1 8987   3.342   4.704   6.231
 2696SOL    HW2 8988   3.234   4.606   6.157
 2697SOL     OW 8989   4.778   2.737   0.638
 2697SOL    HW1 8990   4.844   2.806   0.605
 2697SOL    HW2 8991   4.695   2.742   0.582
 2698SOL     OW 8992   2.018   5.461   0.290
 2698SOL    HW1 8993   1.998   5.556   0.317
 2698SOL    HW2 8994   2.109   5.456   0.250
 2699SOL     OW 8995   2.903   6.778   2.842
 2699SOL    HW1 8996   2.981   6.754   2.900
 2699SOL    HW2 8997   2.852   6.695   2.819
 2700SOL     OW 8998   4.806   2.039   1.271
 2700SOL    HW1 8999   4.765   2.108   1.211
 2700SOL    HW2 9000   4.864   1.978   1.216
 2701SOL     OW 9001   5.212   3.935   5.220
 2701SOL    HW1 9002   5.250   3.938   5.313
 2701SOL    HW2 9003   5.139   4.003   5.212
 2702SOL     OW 9004   1.518   1.822   5.034
 2702SOL    HW1 9005   1.470   1.907   5.013
 2702SOL    HW2 9006   1.452   1.747   5.038
 2703SOL     OW 9007   2.259   6.152   1.742
 2703SOL    HW1 9008   2.348   6.107   1.733
 2703SOL    HW2 9009   2.251   6.192   1.834
 2704SOL     OW 9010   4.562   0.722   3.637
 2704SOL    HW1 9011   4.517   0.811   3.634
 2704SOL    HW2 9012   4.525   0.669   3.713
 2705SOL     OW 9013   1.284   0.228   5.611
 2705SOL    HW1 9014   1.310   0.325   5.617
 2705SOL    HW2 9015   1.220   0.207   5.684
 2706SOL     OW 9016   0.406   4.632   4.488
 2706SOL    HW1 9017   0.485   4.575   4.466
 2706SOL    HW2 9018   0.387   4.626   4.586
 2707SOL     OW 9019   4.442   1.166   3.135
 2707SOL    HW1 9020   4.401   1.233   3.196
 2707SOL    HW2 9021   4.467   1.084   3.187
 2708SOL     OW 9022   5.394   3.176   5.455
 2708SOL    HW1 9023   5.364   3.221   5.371
 2708SOL    HW2 9024   5.332   3.199   5.529
 2709SOL     OW 9025   4.709   1.253   5.756
 2709SOL    HW1 9026   4.655   1.236   5.838
 2709SOL    HW2 9027   4.655   1.304   5.690
 2710SOL     OW 9028   1.084   3.074   4.089
 2710SOL    HW1 9029   1.080   3.039   4.183
 2710SOL    HW2 9030   1.152   3.023   4.037
 2711SOL     OW 9031   4.891   0.906   1.275
 2711SOL    HW1 9032   4.918   0.830   1.216
 2711SOL    HW2 9033   4.804   0.885   1.319
 2712SOL     OW 9034   5.236   6.324   2.122
 2712SOL    HW1 9035   5.319   6.324   2.178
 2712SOL    HW2 9036   5.199   6.417   2.119
 2713SOL     OW 9037   3.918   4.769   5.340
 2713SOL    HW1 9038   4.007   4.788   5.298
 2713SOL    HW2 9039   3.923   4.787   5.438
 2714SOL     OW 9040   2.975   4.244   5.965
 2714SOL    HW1 9041   2.892   4.189   5.977
 2714SOL    HW2 9042   3.037   4.228   6.041
 2715SOL     OW 9043   4.529   6.610   0.304
 2715SOL    HW1 9044   4.608   6.644   0.354
 2715SOL    HW2 9045   4.491   6.684   0.248
 2716SOL     OW 9046   4.710   1.176   2.210
 2716SOL    HW1 9047   4.789   1.188   2.271
 2716SOL    HW2 9048   4.643   1.117   2.254
 2717SOL     OW 9049   0.299   1.613   2.274
 2717SOL    HW1 9050   0.324   1.541   2.209
 2717SOL    HW2 9051   0.364   1.613   2.350
 2718SOL     OW 9052   6.410   1.126   5.935
 2718SOL    HW1 9053   6.508   1.112   5.946
 2718SOL    HW2 9054   6.367   1.043   5.899
 2719SOL     OW 9055   0.943   4.558   3.976
 2719SOL    HW1 9056   0.968   4.646   4.017
 2719SOL    HW2 9057   1.020   4.495   3.983
 2720SOL     OW 9058   2.160   5.366   6.190
 2720SOL    HW1 9059   2.170   5.375   6.090
 2720SOL    HW2 9060   2.188   5.275   6.218
 2721SOL     OW 9061   2.399   5.964   3.495
 2721SOL    HW1 9062   2.480   5.986   3.440
 2721SOL    HW2 9063   2.323   6.023   3.468
 2722SOL     OW 9064   3.539   4.346   6.980
 2722SOL    HW1 9065   3.489   4.281   0.020
 2722SOL    HW2 9066   3.476   4.415   6.945
 2723SOL     OW 9067   4.542   5.151   0.405
 2723SOL    HW1 9068   4.619   5.200   0.446
 2723SOL    HW2 9069   4.486   5.214   0.352
 2724SOL     OW 9070   0.013   6.114   0.997
 2724SOL    HW1 9071   6.972   6.193   0.980
 2724SOL    HW2 9072   0.014   6.055   0.917
 2725SOL     OW 9073   5.787   3.912   2.841
 2725SOL    HW1 9074   5.832   3.956   2.763
 2725SOL    HW2 9075   5.785   3.975   2.918
 2726SOL     OW 9076   6.318   2.534   2.251
 2726SOL    HW1 9077   6.302   2.607   2.318
 2726SOL    HW2 9078   6.315   2.445   2.297
 2727SOL     OW 9079   1.512   4.672   3.718
 2727SOL    HW1 9080   1.593   4.714   3.678
 2727SOL    HW2 9081   1.450   4.744   3.750
 2728SOL     OW 9082   4.579   5.027   6.457
 2728SOL    HW1 9083   4.552   5.111   6.504
 2728SOL    HW2 9084   4.497   4.980   6.424
 2729SOL     OW 9085   0.437   0.126   0.832
 2729SOL    HW1 9086   0.427   0.177   0.746
 2729SOL    HW2 9087   0.353   0.135   0.885
 2730SOL     OW 9088   1.346   5.103   2.865
 2730SOL    HW1 9089   1.365   5.175   2.798
 2730SOL    HW2 9090   1.257   5.119   2.907
 2731SOL     OW 9091   3.935   3.368   5.465
 2731SOL    HW1 9092   4.001   3.442   5.459
 2731SOL    HW2 9093   3.881   3.363   5.381
 2732SOL     OW 9094   4.366   0.944   2.240
 2732SOL    HW1 9095   4.286   0.967   2.294
 2732SOL    HW2 9096   4.445   0.933   2.301
 2733SOL     OW 9097   0.825   0.268   0.550
 2733SOL    HW1 9098   0.835   0.245   0.647
 2733SOL    HW2 9099   0.758   0.207   0.508
 2734SOL     OW 9100   3.484   0.462   1.805
 2734SOL    HW1 9101   3.481   0.443   1.903
 2734SOL    HW2 9102   3.505   0.559   1.791
 2735SOL     OW 9103   0.742   2.731   2.605
 2735SOL    HW1 9104   0.746   2.665   2.530
 2735SOL    HW2 9105   0.648   2.738   2.638
 2736SOL     OW 9106   5.381   4.523   2.677
 2736SOL    HW1 9107   5.339   4.441   2.717
 2736SOL    HW2 9108   5.444   4.564   2.744
 2737SOL     OW 9109   2.719   0.235   6.518
 2737SOL    HW1 9110   2.770   0.312   6.555
 2737SOL    HW2 9111   2.667   0.192   6.592
 2738SOL     OW 9112   5.351   6.082   1.402
 2738SOL    HW1 9113   5.421   6.089   1.473
 2738SOL    HW2 9114   5.304   6.170   1.392
 2739SOL     OW 9115   0.640   5.301   1.621
 2739SOL    HW1 9116   0.561   5.361   1.635
 2739SOL    HW2 9117   0.688   5.288   1.708
 2740SOL     OW 9118   6.556   5.819   5.354
 2740SOL    HW1 9119   6.567   5.916   5.336
 2740SOL    HW2 9120   6.614   5.766   5.293
 2741SOL     OW 9121   0.042   6.955   6.770
 2741SOL    HW1 9122   7.015   6.866   6.779
 2741SOL    HW2 9123   0.122   6.946   6.710
 2742SOL     OW 9124   2.874   5.050   1.983
 2742SOL    HW1 9125   2.777   5.024   1.985
 2742SOL    HW2 9126   2.930   4.967   1.979
 2743SOL     OW 9127   5.799   1.758   2.810
 2743SOL    HW1 9128   5.783   1.856   2.799
 2743SOL    HW2 9129   5.805   1.715   2.719
 2744SOL     OW 9130   2.994   3.578   2.879
 2744SOL    HW1 9131   2.952   3.653   2.929
 2744SOL    HW2 9132   2.984   3.493   2.931
 2745SOL     OW 9133   0.670   6.178   6.855
 2745SOL    HW1 9134   0.726   6.250   6.812
 2745SOL    HW2 9135   0.729   6.100   6.878
 2746SOL     OW 9136   1.756   0.911   4.281
 2746SOL    HW1 9137   1.848   0.889   4.248
 2746SOL    HW2 9138   1.748   1.010   4.295
 2747SOL     OW 9139   5.190   5.149   0.219
 2747SOL    HW1 9140   5.216   5.054   0.205
 2747SOL    HW2 9141   5.134   5.157   0.302
 2748SOL     OW 9142   4.258   0.043   0.247
 2748SOL    HW1 9143   4.252   0.115   0.178
 2748SOL    HW2 9144   4.262   0.085   0.338
 2749SOL     OW 9145   4.102   0.496   0.396
 2749SOL    HW1 9146   4.134   0.540   0.480
 2749SOL    HW2 9147   4.176   0.442   0.356
 2750SOL     OW 9148   1.793   6.071   1.766
 2750SOL    HW1 9149   1.800   6.082   1.865
 2750SOL    HW2 9150   1.879   6.035   1.730
 2751SOL     OW 9151   6.228   5.363   1.902
 2751SOL    HW1 9152   6.318   5.338   1.940
 2751SOL    HW2 9153   6.210   5.308   1.820
 2752SOL     OW 9154   4.211   5.247   6.445
 2752SOL    HW1 9155   4.291   5.305   6.431
 2752SOL    HW2 9156   4.226   5.159   6.399
 2753SOL     OW 9157   4.262   5.022   5.762
 2753SOL    HW1 9158   4.293   4.997   5.670
 2753SOL    HW2 9159   4.276   4.944   5.823
 2754SOL     OW 9160   0.920   0.876   4.545
 2754SOL    HW1 9161   0.984   0.910   4.476
 2754SOL    HW2 9162   0.900   0.948   4.611
 2755SOL     OW 9163   3.877   0.171   2.477
 2755SOL    HW1 9164   3.882   0.264   2.514
 2755SOL    HW2 9165   3.790   0.130   2.503
 2756SOL     OW 9166   4.434   5.459   6.117
 2756SOL    HW1 9167   4.533   5.453   6.125
 2756SOL    HW2 9168   4.408   5.551   6.089
 2757SOL     OW 9169   1.182   4.706   0.407
 2757SOL    HW1 9170   1.115   4.652   0.356
 2757SOL    HW2 9171   1.135   4.761   0.476
 2758SOL     OW 9172   4.684   0.163   5.922
 2758SOL    HW1 9173   4.639   0.102   5.987
 2758SOL    HW2 9174   4.778   0.134   5.908
 2759SOL     OW 9175   4.665   4.981   3.186
 2759SOL    HW1 9176   4.565   4.986   3.199
 2759SOL    HW2 9177   4.689   5.020   3.098
 2760SOL     OW 9178   0.585   6.272   3.574
 2760SOL    HW1 9179   0.545   6.195   3.623
 2760SOL    HW2 9180   0.633   6.332   3.639
 2761SOL     OW 9181   2.550   4.801   5.107
 2761SOL    HW1 9182   2.634   4.759   5.075
 2761SOL    HW2 9183   2.568   4.895   5.136
 2762SOL     OW 9184   1.774   2.267   5.686
 2762SOL    HW1 9185   1.765   2.342   5.620
 2762SOL    HW2 9186   1.871   2.243   5.695
 2763SOL     OW 9187   5.369   0.103   2.421
 2763SOL    HW1 9188   5.312   0.098   2.503
 2763SOL    HW2 9189   5.462   0.130   2.447
 2764SOL     OW 9190   6.419   0.422   1.752
 2764SOL    HW1 9191   6.348   0.467   1.697
 2764SOL    HW2 9192   6.393   0.424   1.848
 2765SOL     OW 9193   5.305   1.631   3.849
 2765SOL    HW1 9194   5.250   1.693   3.793
 2765SOL    HW2 9195   5.288   1.537   3.821
 2766SOL     OW 9196   5.388   6.469   2.363
 2766SOL    HW1 9197   5.427   6.404   2.428
 2766SOL    HW2 9198   5.399   6.562   2.398
 2767SOL     OW 9199   6.465   3.811   5.448
 2767SOL    HW1 9200   6.506   3.892   5.489
 2767SOL    HW2 9201   6.388   3.781   5.504
 2768SOL     OW 9202   5.346   0.466   6.198
 2768SOL    HW1 9203   5.385   0.478   6.107
 2768SOL    HW2 9204   5.304   0.551   6.228
 2769SOL     OW 9205   1.290   3.852   1.058
 2769SOL    HW1 9206   1.250   3.881   0.971
 2769SOL    HW2 9207   1.332   3.762   1.047
 2770SOL     OW 9208   4.863   5.967   2.277
 2770SOL    HW1 9209   4.905   6.057   2.262
 2770SOL    HW2 9210   4.809   5.970   2.361
 2771SOL     OW 9211   4.647   0.796   1.349
 2771SOL    HW1 9212   4.630   0.700   1.326
 2771SOL    HW2 9213   4.603   0.855   1.281
 2772SOL     OW 9214   3.260   1.108   0.123
 2772SOL    HW1 9215   3.178   1.156   0.093
 2772SOL    HW2 9216   3.292   1.148   0.209
 2773SOL     OW 9217   3.061   4.989   1.422
 2773SOL    HW1 9218   2.987   4.923   1.436
 2773SOL    HW2 9219   3.070   5.009   1.324
 2774SOL     OW 9220   5.020   2.874   1.951
 2774SOL    HW1 9221   4.940   2.934   1.959
 2774SOL    HW2 9222   4.997   2.783   1.983
 2775SOL     OW 9223   0.588   0.063   2.486
 2775SOL    HW1 9224   0.614   6.987   2.509
 2775SOL    HW2 9225   0.553   0.065   2.392
 2776SOL     OW 9226   2.906   6.037   6.979
 2776SOL    HW1 9227   2.943   6.107   6.917
 2776SOL    HW2 9228   2.976   5.967   6.994
 2777SOL     OW 9229   1.149   2.601   4.047
 2777SOL    HW1 9230   1.148   2.518   3.993
 2777SOL    HW2 9231   1.178   2.678   3.990
 2778SOL     OW 9232   3.212   2.185   5.385
 2778SOL    HW1 9233   3.177   2.211   5.294
 2778SOL    HW2 9234   3.190   2.257   5.451
 2779SOL     OW 9235   6.388   0.450   0.339
 2779SOL    HW1 9236   6.373   0.499   0.424
 2779SOL    HW2 9237   6.449   0.503   0.280
 2780SOL     OW 9238   3.464   5.992   6.321
 2780SOL    HW1 9239   3.525   6.053   6.372
 2780SOL    HW2 9240   3.502   5.900   6.320
 2781SOL     OW 9241   5.299   4.126   6.693
 2781SOL    HW1 9242   5.399   4.138   6.692
 2781SOL    HW2 9243   5.270   4.082   6.608
 2782SOL     OW 9244   3.247   0.732   5.726
 2782SOL    HW1 9245   3.297   0.755   5.809
 2782SOL    HW2 9246   3.311   0.704   5.654
 2783SOL     OW 9247   0.325   3.897   5.158
 2783SOL    HW1 9248   0.328   3.799   5.140
 2783SOL    HW2 9249   0.405   3.941   5.119
 2784SOL     OW 9250   2.817   1.918   1.466
 2784SOL    HW1 9251   2.755   1.917   1.545
 2784SOL    HW2 9252   2.906   1.954   1.494
 2785SOL     OW 9253   5.750   2.426   2.121
 2785SOL    HW1 9254   5.697   2.483   2.184
 2785SOL    HW2 9255   5.845   2.420   2.153
 2786SOL     OW 9256   3.435   0.598   1.382
 2786SOL    HW1 9257   3.476   0.531   1.444
 2786SOL    HW2 9258   3.477   0.591   1.292
 2787SOL     OW 9259   1.728   4.242   5.924
 2787SOL    HW1 9260   1.696   4.337   5.917
 2787SOL    HW2 9261   1.823   4.237   5.893
 2788SOL     OW 9262   1.464   2.776   0.501
 2788SOL    HW1 9263   1.443   2.723   0.583
 2788SOL    HW2 9264   1.563   2.779   0.488
 2789SOL     OW 9265   6.830   3.107   3.567
 2789SOL    HW1 9266   6.908   3.081   3.509
 2789SOL    HW2 9267   6.745   3.083   3.521
 2790SOL     OW 9268   3.243   6.194   4.662
 2790SOL    HW1 9269   3.223   6.104   4.700
 2790SOL    HW2 9270   3.309   6.185   4.588
 2791SOL     OW 9271   2.132   3.350   2.543
 2791SOL    HW1 9272   2.131   3.408   2.461
 2791SOL    HW2 9273   2.158   3.406   2.622
 2792SOL     OW 9274   0.204   1.620   6.091
 2792SOL    HW1 9275   0.281   1.659   6.040
 2792SOL    HW2 9276   0.217   1.636   6.189
 2793SOL     OW 9277   5.013   0.610   4.667
 2793SOL    HW1 9278   4.916   0.616   4.692
 2793SOL    HW2 9279   5.025   0.537   4.600
 2794SOL     OW 9280   1.083   1.424   2.213
 2794SOL    HW1 9281   1.024   1.437   2.293
 2794SOL    HW2 9282   1.167   1.476   2.224
 2795SOL     OW 9283   0.784   3.555   0.599
 2795SOL    HW1 9284   0.757   3.460   0.614
 2795SOL    HW2 9285   0.702   3.611   0.585
 2796SOL     OW 9286   4.035   5.106   2.040
 2796SOL    HW1 9287   3.988   5.023   2.068
 2796SOL    HW2 9288   3.981   5.186   2.066
 2797SOL     OW 9289   5.071   4.392   5.149
 2797SOL    HW1 9290   5.060   4.369   5.245
 2797SOL    HW2 9291   5.126   4.322   5.104
 2798SOL     OW 9292   2.082   3.737   3.219
 2798SOL    HW1 9293   2.047   3.767   3.130
 2798SOL    HW2 9294   2.091   3.637   3.219
 2799SOL     OW 9295   6.860   5.230   6.146
 2799SOL    HW1 9296   6.886   5.234   6.242
 2799SOL    HW2 9297   6.776   5.282   6.132
 2800SOL     OW 9298   2.619   0.555   6.657
 2800SOL    HW1 9299   2.593   0.597   6.744
 2800SOL    HW2 9300   2.592   0.614   6.581
 2801SOL     OW 9301   3.792   5.346   1.841
 2801SOL    HW1 9302   3.711   5.396   1.809
 2801SOL    HW2 9303   3.868   5.364   1.779
 2802SOL     OW 9304   6.345   0.326   6.432
 2802SOL    HW1 9305   6.440   0.296   6.432
 2802SOL    HW2 9306   6.284   0.248   6.416
 2803SOL     OW 9307   2.408   5.948   4.794
 2803SOL    HW1 9308   2.311   5.932   4.813
 2803SOL    HW2 9309   2.440   5.883   4.725
 2804SOL     OW 9310   0.359   4.803   2.715
 2804SOL    HW1 9311   0.418   4.883   2.712
 2804SOL    HW2 9312   0.397   4.731   2.657
 2805SOL     OW 9313   6.761   3.930   6.516
 2805SOL    HW1 9314   6.753   4.021   6.556
 2805SOL    HW2 9315   6.850   3.890   6.539
 2806SOL     OW 9316   6.010   4.604   2.725
 2806SOL    HW1 9317   6.091   4.567   2.680
 2806SOL    HW2 9318   5.937   4.617   2.658
 2807SOL     OW 9319   3.804   4.858   3.435
 2807SOL    HW1 9320   3.777   4.825   3.345
 2807SOL    HW2 9321   3.898   4.831   3.454
 2808SOL     OW 9322   4.528   6.995   4.399
 2808SOL    HW1 9323   4.515   6.936   4.479
 2808SOL    HW2 9324   4.616   0.024   4.407
 2809SOL     OW 9325   5.316   1.953   0.321
 2809SOL    HW1 9326   5.233   1.944   0.266
 2809SOL    HW2 9327   5.319   1.881   0.390
 2810SOL     OW 9328   2.384   1.062   6.108
 2810SOL    HW1 9329   2.484   1.062   6.109
 2810SOL    HW2 9330   2.350   1.033   6.198
 2811SOL     OW 9331   0.426   0.272   4.182
 2811SOL    HW1 9332   0.382   0.356   4.152
 2811SOL    HW2 9333   0.362   0.218   4.236
 2812SOL     OW 9334   4.629   4.504   3.049
 2812SOL    HW1 9335   4.601   4.412   3.075
 2812SOL    HW2 9336   4.721   4.522   3.083
 2813SOL     OW 9337   6.191   1.776   5.661
 2813SOL    HW1 9338   6.257   1.769   5.736
 2813SOL    HW2 9339   6.163   1.871   5.651
 2814SOL     OW 9340   5.343   4.741   5.690
 2814SOL    HW1 9341   5.264   4.745   5.629
 2814SOL    HW2 9342   5.316   4.699   5.777
 2815SOL     OW 9343   1.595   0.863   3.819
 2815SOL    HW1 9344   1.669   0.797   3.835
 2815SOL    HW2 9345   1.529   0.824   3.755
 2816SOL     OW 9346   4.373   6.257   3.423
 2816SOL    HW1 9347   4.295   6.274   3.363
 2816SOL    HW2 9348   4.377   6.160   3.446
 2817SOL     OW 9349   1.160   1.215   1.203
 2817SOL    HW1 9350   1.205   1.304   1.189
 2817SOL    HW2 9351   1.228   1.142   1.193
 2818SOL     OW 9352   1.548   2.139   6.384
 2818SOL    HW1 9353   1.607   2.191   6.445
 2818SOL    HW2 9354   1.454   2.173   6.391
 2819SOL     OW 9355   6.463   3.570   2.049
 2819SOL    HW1 9356   6.468   3.475   2.019
 2819SOL    HW2 9357   6.443   3.573   2.147
 2820SOL     OW 9358   5.195   3.264   3.968
 2820SOL    HW1 9359   5.264   3.247   4.037
 2820SOL    HW2 9360   5.203   3.358   3.934
 2821SOL     OW 9361   1.452   3.397   2.632
 2821SOL    HW1 9362   1.463   3.365   2.726
 2821SOL    HW2 9363   1.356   3.392   2.606
 2822SOL     OW 9364   3.465   2.699   0.571
 2822SOL    HW1 9365   3.565   2.706   0.572
 2822SOL    HW2 9366   3.426   2.771   0.629
 2823SOL     OW 9367   1.225   0.480   4.573
 2823SOL    HW1 9368   1.246   0.382   4.568
 2823SOL    HW2 9369   1.166   0.505   4.496
 2824SOL     OW 9370   3.647   2.416   6.127
 2824SOL    HW1 9371   3.623   2.343   6.191
 2824SOL    HW2 9372   3.564   2.465   6.101
 2825SOL     OW 9373   5.753   5.983   1.331
 2825SOL    HW1 9374   5.812   6.047   1.380
 2825SOL    HW2 9375   5.684   5.947   1.394
 2826SOL     OW 9376   5.164   3.926   4.610
 2826SOL    HW1 9377   5.072   3.916   4.573
 2826SOL    HW2 9378   5.166   4.000   4.677
 2827SOL     OW 9379   0.120   6.978   6.110
 2827SOL    HW1 9380   0.067   6.910   6.162
 2827SOL    HW2 9381   0.196   7.011   6.166
 2828SOL     OW 9382   3.559   2.422   6.465
 2828SOL    HW1 9383   3.567   2.521   6.475
 2828SOL    HW2 9384   3.641   2.378   6.503
 2829SOL     OW 9385   2.921   1.431   6.878
 2829SOL    HW1 9386   2.944   1.409   6.783
 2829SOL    HW2 9387   2.862   1.360   6.915
 2830SOL     OW 9388   3.213   3.905   6.794
 2830SOL    HW1 9389   3.308   3.926   6.772
 2830SOL    HW2 9390   3.175   3.979   6.850
 2831SOL     OW 9391   6.619   6.513   4.239
 2831SOL    HW1 9392   6.552   6.476   4.304
 2831SOL    HW2 9393   6.571   6.562   4.166
 2832SOL     OW 9394   0.371   0.781   2.496
 2832SOL    HW1 9395   0.284   0.805   2.539
 2832SOL    HW2 9396   0.386   0.683   2.506
 2833SOL     OW 9397   5.743   3.413   2.643
 2833SOL    HW1 9398   5.810   3.385   2.574
 2833SOL    HW2 9399   5.677   3.476   2.602
 2834SOL     OW 9400   4.329   0.893   5.300
 2834SOL    HW1 9401   4.422   0.881   5.266
 2834SOL    HW2 9402   4.314   0.830   5.377
 2835SOL     OW 9403   6.090   6.429   3.231
 2835SOL    HW1 9404   6.099   6.427   3.331
 2835SOL    HW2 9405   6.176   6.459   3.191
 2836SOL     OW 9406   6.374   6.681   1.422
 2836SOL    HW1 9407   6.369   6.670   1.521
 2836SOL    HW2 9408   6.470   6.680   1.393
 2837SOL     OW 9409   6.213   2.372   3.859
 2837SOL    HW1 9410   6.214   2.418   3.770
 2837SOL    HW2 9411   6.254   2.281   3.851
 2838SOL     OW 9412   1.899   4.795   4.311
 2838SOL    HW1 9413   1.850   4.711   4.287
 2838SOL    HW2 9414   1.987   4.772   4.353
 2839SOL     OW 9415   5.297   2.921   0.940
 2839SOL    HW1 9416   5.217   2.862   0.941
 2839SOL    HW2 9417   5.293   2.981   0.860
 2840SOL     OW 9418   0.266   2.853   4.843
 2840SOL    HW1 9419   0.182   2.824   4.889
 2840SOL    HW2 9420   0.345   2.816   4.892
 2841SOL     OW 9421   0.046   6.048   0.082
 2841SOL    HW1 9422   0.076   6.065   7.005
 2841SOL    HW2 9423   6.967   6.071   0.090
 2842SOL     OW 9424   5.672   3.296   2.886
 2842SOL    HW1 9425   5.721   3.340   2.811
 2842SOL    HW2 9426   5.578   3.330   2.889
 2843SOL     OW 9427   3.844   0.630   3.397
 2843SOL    HW1 9428   3.795   0.568   3.336
 2843SOL    HW2 9429   3.927   0.663   3.352
 2844SOL     OW 9430   1.326   4.171   5.038
 2844SOL    HW1 9431   1.337   4.088   4.984
 2844SOL    HW2 9432   1.415   4.203   5.069
 2845SOL     OW 9433   0.626   3.942   6.422
 2845SOL    HW1 9434   0.594   3.914   6.512
 2845SOL    HW2 9435   0.550   3.982   6.370
 2846SOL     OW 9436   5.445   1.287   6.046
 2846SOL    HW1 9437   5.470   1.226   5.970
 2846SOL    HW2 9438   5.395   1.235   6.115
 2847SOL     OW 9439   4.381   4.854   4.184
 2847SOL    HW1 9440   4.423   4.944   4.188
 2847SOL    HW2 9441   4.382   4.812   4.275
 2848SOL     OW 9442   2.139   0.027   5.936
 2848SOL    HW1 9443   2.118   0.004   5.841
 2848SOL    HW2 9444   2.057   0.013   5.992
 2849SOL     OW 9445   2.354   2.828   1.370
 2849SOL    HW1 9446   2.306   2.857   1.287
 2849SOL    HW2 9447   2.320   2.738   1.399
 2850SOL     OW 9448   4.374   1.722   0.645
 2850SOL    HW1 9449   4.465   1.763   0.637
 2850SOL    HW2 9450   4.350   1.712   0.742
 2851SOL     OW 9451   3.134   5.812   4.975
 2851SOL    HW1 9452   3.156   5.718   5.002
 2851SOL    HW2 9453   3.207   5.848   4.917
 2852SOL     OW 9454   0.172   2.102   6.557
 2852SOL    HW1 9455   0.190   2.036   6.630
 2852SOL    HW2 9456   0.095   2.071   6.502
 2853SOL     OW 9457   3.995   2.714   1.254
 2853SOL    HW1 9458   4.070   2.671   1.304
 2853SOL    HW2 9459   3.914   2.655   1.257
 2854SOL     OW 9460   0.559   0.840   3.668
 2854SOL    HW1 9461   0.516   0.754   3.696
 2854SOL    HW2 9462   0.513   0.874   3.586
 2855SOL     OW 9463   3.164   1.632   4.042
 2855SOL    HW1 9464   3.234   1.669   4.103
 2855SOL    HW2 9465   3.073   1.651   4.080
 2856SOL     OW 9466   3.197   1.362   5.543
 2856SOL    HW1 9467   3.186   1.414   5.459
 2856SOL    HW2 9468   3.126   1.388   5.609
 2857SOL     OW 9469   3.271   2.991   4.322
 2857SOL    HW1 9470   3.192   2.985   4.383
 2857SOL    HW2 9471   3.321   2.904   4.324
 2858SOL     OW 9472   5.382   2.586   2.812
 2858SOL    HW1 9473   5.369   2.685   2.822
 2858SOL    HW2 9474   5.377   2.542   2.901
 2859SOL     OW 9475   5.851   5.400   6.718
 2859SOL    HW1 9476   5.938   5.449   6.726
 2859SOL    HW2 9477   5.829   5.389   6.621
 2860SOL     OW 9478   4.454   2.849   1.025
 2860SOL    HW1 9479   4.442   2.755   0.994
 2860SOL    HW2 9480   4.536   2.888   0.984
 2861SOL     OW 9481   4.588   4.546   5.841
 2861SOL    HW1 9482   4.637   4.488   5.906
 2861SOL    HW2 9483   4.520   4.491   5.792
 2862SOL     OW 9484   6.859   6.408   3.785
 2862SOL    HW1 9485   6.832   6.335   3.721
 2862SOL    HW2 9486   6.877   6.492   3.733
 2863SOL     OW 9487   6.090   6.941   7.006
 2863SOL    HW1 9488   6.100   6.901   0.080
 2863SOL    HW2 9489   6.074   0.022   7.014
 2864SOL     OW 9490   4.566   2.393   0.448
 2864SOL    HW1 9491   4.474   2.380   0.485
 2864SOL    HW2 9492   4.579   2.489   0.421
 2865SOL     OW 9493   4.843   4.793   5.093
 2865SOL    HW1 9494   4.919   4.808   5.157
 2865SOL    HW2 9495   4.856   4.706   5.046
 2866SOL     OW 9496   0.293   0.049   6.336
 2866SOL    HW1 9497   0.258   0.105   6.411
 2866SOL    HW2 9498   0.352   6.994   6.373
 2867SOL     OW 9499   5.996   4.407   4.677
 2867SOL    HW1 9500   6.005   4.472   4.752
 2867SOL    HW2 9501   6.076   4.347   4.676
 2868SOL     OW 9502   1.986   5.069   4.867
 2868SOL    HW1 9503   1.929   5.019   4.932
 2868SOL    HW2 9504   2.010   5.009   4.790
 2869SOL     OW 9505   6.157   1.305   2.215
 2869SOL    HW1 9506   6.152   1.396   2.256
 2869SOL    HW2 9507   6.068   1.282   2.175
 2870SOL     OW 9508   4.462   2.095   1.653
 2870SOL    HW1 9509   4.375   2.144   1.647
 2870SOL    HW2 9510   4.456   2.010   1.600
 2871SOL     OW 9511   1.179   1.362   5.782
 2871SOL    HW1 9512   1.082   1.382   5.799
 2871SOL    HW2 9513   1.235   1.437   5.816
 2872SOL     OW 9514   1.391   0.276   3.986
 2872SOL    HW1 9515   1.408   0.315   4.077
 2872SOL    HW2 9516   1.436   0.332   3.917
 2873SOL     OW 9517   6.333   5.079   2.633
 2873SOL    HW1 9518   6.255   5.112   2.581
 2873SOL    HW2 9519   6.304   5.007   2.696
 2874SOL     OW 9520   5.190   2.047   1.823
 2874SOL    HW1 9521   5.141   2.126   1.861
 2874SOL    HW2 9522   5.142   2.014   1.741
 2875SOL     OW 9523   3.115   4.932   0.392
 2875SOL    HW1 9524   3.124   4.918   0.491
 2875SOL    HW2 9525   3.028   4.896   0.361
 2876SOL     OW 9526   5.947   2.138   1.779
 2876SOL    HW1 9527   5.875   2.077   1.747
 2876SOL    HW2 9528   5.906   2.226   1.805
 2877SOL     OW 9529   1.168   3.695   5.731
 2877SOL    HW1 9530   1.093   3.760   5.746
 2877SOL    HW2 9531   1.255   3.743   5.732
 2878SOL     OW 9532   5.016   5.071   0.433
 2878SOL    HW1 9533   4.974   4.997   0.380
 2878SOL    HW2 9534   4.946   5.141   0.452
 2879SOL     OW 9535   4.861   4.449   6.952
 2879SOL    HW1 9536   4.933   4.410   7.009
 2879SOL    HW2 9537   4.841   4.388   6.876
 2880SOL     OW 9538   1.670   6.544   3.198
 2880SOL    HW1 9539   1.641   6.472   3.260
 2880SOL    HW2 9540   1.599   6.561   3.130
 2881SOL     OW 9541   6.738   7.015   0.059
 2881SOL    HW1 9542   6.661   0.056   0.035
 2881SOL    HW2 9543   6.708   6.920   0.061
 2882SOL     OW 9544   6.610   3.974   3.415
 2882SOL    HW1 9545   6.645   4.065   3.390
 2882SOL    HW2 9546   6.646   3.948   3.504
 2883SOL     OW 9547   3.510   6.620   2.611
 2883SOL    HW1 9548   3.425   6.580   2.579
 2883SOL    HW2 9549   3.491   6.695   2.675
 2884SOL     OW 9550   2.102   5.164   3.040
 2884SOL    HW1 9551   2.063   5.135   3.127
 2884SOL    HW2 9552   2.036   5.222   2.992
 2885SOL     OW 9553   1.030   2.247   4.600
 2885SOL    HW1 9554   1.076   2.214   4.683
 2885SOL    HW2 9555   0.999   2.341   4.613
 2886SOL     OW 9556   2.402   2.678   6.208
 2886SOL    HW1 9557   2.381   2.772   6.182
 2886SOL    HW2 9558   2.368   2.660   6.300
 2887SOL     OW 9559   2.671   0.736   5.175
 2887SOL    HW1 9560   2.755   0.690   5.205
 2887SOL    HW2 9561   2.689   0.834   5.164
 2888SOL     OW 9562   0.019   5.873   6.776
 2888SOL    HW1 9563   0.046   5.880   6.680
 2888SOL    HW2 9564   6.956   5.930   6.792
 2889SOL     OW 9565   1.389   1.118   0.693
 2889SOL    HW1 9566   1.432   1.035   0.730
 2889SOL    HW2 9567   1.375   1.184   0.767
 2890SOL     OW 9568   2.573   0.520   0.908
 2890SOL    HW1 9569   2.612   0.579   0.838
 2890SOL    HW2 9570   2.594   0.557   0.998
 2891SOL     OW 9571   2.970   4.817   5.149
 2891SOL    HW1 9572   2.925   4.728   5.148
 2891SOL    HW2 9573   3.018   4.829   5.236
 2892SOL     OW 9574   4.377   3.838   5.366
 2892SOL    HW1 9575   4.349   3.932   5.348
 2892SOL    HW2 9576   4.351   3.780   5.289
 2893SOL     OW 9577   3.008   0.546   4.984
 2893SOL    HW1 9578   3.036   0.533   5.079
 2893SOL    HW2 9579   2.909   0.563   4.980
 2894SOL     OW 9580   4.110   3.529   2.168
 2894SOL    HW1 9581   4.092   3.604   2.231
 2894SOL    HW2 9582   4.133   3.566   2.078
 2895SOL     OW 9583   3.950   2.937   0.289
 2895SOL    HW1 9584   3.897   2.886   0.222
 2895SOL    HW2 9585   3.945   3.035   0.268
 2896SOL     OW 9586   1.190   4.647   0.005
 2896SOL    HW1 9587   1.277   4.674   0.046
 2896SOL    HW2 9588   1.121   4.717   0.026
 2897SOL     OW 9589   0.446   6.907   3.285
 2897SOL    HW1 9590   0.519   6.974   3.298
 2897SOL    HW2 9591   0.484   6.815   3.289
 2898SOL     OW 9592   1.806   5.473   2.746
 2898SOL    HW1 9593   1.718   5.441   2.710
 2898SOL    HW2 9594   1.836   5.411   2.818
 2899SOL     OW 9595   5.793   0.948   0.946
 2899SOL    HW1 9596   5.695   0.933   0.931
 2899SOL    HW2 9597   5.807   0.987   1.038
 2900SOL     OW 9598   2.344   5.698   6.519
 2900SOL    HW1 9599   2.323   5.681   6.423
 2900SOL    HW2 9600   2.442   5.715   6.530
 2901SOL     OW 9601   2.778   6.591   1.791
 2901SOL    HW1 9602   2.852   6.585   1.724
 2901SOL    HW2 9603   2.771   6.685   1.825
 2902SOL     OW 9604   4.445   5.394   1.299
 2902SOL    HW1 9605   4.488   5.311   1.262
 2902SOL    HW2 9606   4.372   5.423   1.237
 2903SOL     OW 9607   3.073   2.497   1.692
 2903SOL    HW1 9608   3.022   2.492   1.778
 2903SOL    HW2 9609   3.153   2.437   1.698
 2904SOL     OW 9610   2.832   2.048   4.584
 2904SOL    HW1 9611   2.879   2.128   4.621
 2904SOL    HW2 9612   2.845   2.045   4.485
 2905SOL     OW 9613   1.158   2.428   2.047
 2905SOL    HW1 9614   1.223   2.372   2.098
 2905SOL    HW2 9615   1.187   2.524   2.052
 2906SOL     OW 9616   5.165   5.187   2.628
 2906SOL    HW1 9617   5.237   5.147   2.684
 2906SOL    HW2 9618   5.078   5.182   2.677
 2907SOL     OW 9619   5.713   0.384   4.873
 2907SOL    HW1 9620   5.643   0.320   4.841
 2907SOL    HW2 9621   5.742   0.442   4.797
 2908SOL     OW 9622   4.240   6.345   4.728
 2908SOL    HW1 9623   4.173   6.373   4.660
 2908SOL    HW2 9624   4.299   6.274   4.688
 2909SOL     OW 9625   2.215   6.317   5.820
 2909SOL    HW1 9626   2.203   6.340   5.917
 2909SOL    HW2 9627   2.221   6.218   5.810
 2910SOL     OW 9628   3.955   5.292   4.987
 2910SOL    HW1 9629   3.944   5.237   5.069
 2910SOL    HW2 9630   4.009   5.374   5.009
 2911SOL     OW 9631   2.359   4.583   3.006
 2911SOL    HW1 9632   2.328   4.662   3.060
 2911SOL    HW2 9633   2.458   4.577   3.008
 2912SOL     OW 9634   2.791   5.125   1.189
 2912SOL    HW1 9635   2.703   5.138   1.235
 2912SOL    HW2 9636   2.782   5.151   1.093
 2913SOL     OW 9637   0.338   2.845   1.301
 2913SOL    HW1 9638   0.247   2.886   1.289
 2913SOL    HW2 9639   0.328   2.756   1.344
 2914SOL     OW 9640   4.935   4.603   6.414
 2914SOL    HW1 9641   4.847   4.647   6.433
 2914SOL    HW2 9642   4.924   4.504   6.413
 2915SOL     OW 9643   4.984   1.120   3.265
 2915SOL    HW1 9644   4.918   1.045   3.270
 2915SOL    HW2 9645   5.058   1.103   3.330
 2916SOL     OW 9646   5.038   0.353   4.248
 2916SOL    HW1 9647   5.138   0.356   4.238
 2916SOL    HW2 9648   5.009   0.431   4.305
 2917SOL     OW 9649   3.890   0.502   2.378
 2917SOL    HW1 9650   3.962   0.435   2.360
 2917SOL    HW2 9651   3.867   0.500   2.475
 2918SOL     OW 9652   1.108   3.310   4.754
 2918SOL    HW1 9653   1.181   3.377   4.767
 2918SOL    HW2 9654   1.140   3.239   4.691
 2919SOL     OW 9655   5.592   5.415   0.124
 2919SOL    HW1 9656   5.641   5.331   0.147
 2919SOL    HW2 9657   5.494   5.396   0.123
 2920SOL     OW 9658   4.456   1.487   2.819
 2920SOL    HW1 9659   4.383   1.522   2.879
 2920SOL    HW2 9660   4.421   1.409   2.767
 2921SOL     OW 9661   6.857   1.201   0.509
 2921SOL    HW1 9662   6.777   1.215   0.451
 2921SOL    HW2 9663   6.905   1.287   0.521
 2922SOL     OW 9664   4.914   0.403   4.861
 2922SOL    HW1 9665   5.004   0.399   4.819
 2922SOL    HW2 9666   4.871   0.312   4.856
 2923SOL     OW 9667   0.207   4.604   6.863
 2923SOL    HW1 9668   0.162   4.610   6.774
 2923SOL    HW2 9669   0.137   4.594   6.934
 2924SOL     OW 9670   6.107   6.822   6.362
 2924SOL    HW1 9671   6.126   6.749   6.429
 2924SOL    HW2 9672   6.046   6.889   6.403
 2925SOL     OW 9673   6.542   4.525   0.490
 2925SOL    HW1 9674   6.571   4.446   0.438
 2925SOL    HW2 9675   6.521   4.498   0.584
 2926SOL     OW 9676   0.236   1.234   2.890
 2926SOL    HW1 9677   0.165   1.299   2.865
 2926SOL    HW2 9678   0.208   1.142   2.867
 2927SOL     OW 9679   6.447   2.992   2.758
 2927SOL    HW1 9680   6.356   3.002   2.717
 2927SOL    HW2 9681   6.451   3.043   2.844
 2928SOL     OW 9682   5.356   6.021   0.981
 2928SOL    HW1 9683   5.445   5.975   0.977
 2928SOL    HW2 9684   5.309   6.010   0.894
 2929SOL     OW 9685   0.285   0.682   5.621
 2929SOL    HW1 9686   0.190   0.683   5.652
 2929SOL    HW2 9687   0.345   0.715   5.695
 2930SOL     OW 9688   2.506   0.099   4.217
 2930SOL    HW1 9689   2.430   0.156   4.184
 2930SOL    HW2 9690   2.487   0.070   4.311
 2931SOL     OW 9691   4.504   4.610   6.212
 2931SOL    HW1 9692   4.487   4.660   6.127
 2931SOL    HW2 9693   4.598   4.627   6.242
 2932SOL     OW 9694   0.838   4.686   1.460
 2932SOL    HW1 9695   0.915   4.625   1.442
 2932SOL    HW2 9696   0.755   4.649   1.417
 2933SOL     OW 9697   4.700   2.326   3.041
 2933SOL    HW1 9698   4.694   2.405   2.979
 2933SOL    HW2 9699   4.793   2.319   3.076
 2934SOL     OW 9700   1.850   1.158   1.236
 2934SOL    HW1 9701   1.752   1.155   1.257
 2934SOL    HW2 9702   1.899   1.093   1.295
 2935SOL     OW 9703   0.029   1.156   1.235
 2935SOL    HW1 9704   6.952   1.160   1.267
 2935SOL    HW2 9705   0.091   1.168   1.313
 2936SOL     OW 9706   4.050   4.882   1.343
 2936SOL    HW1 9707   4.084   4.894   1.250
 2936SOL    HW2 9708   4.124   4.849   1.401
 2937SOL     OW 9709   2.523   4.724   0.276
 2937SOL    HW1 9710   2.423   4.728   0.277
 2937SOL    HW2 9711   2.552   4.628   0.272
 2938SOL     OW 9712   4.150   5.555   7.015
 2938SOL    HW1 9713   4.199   5.642   0.002
 2938SOL    HW2 9714   4.095   5.552   6.932
 2939SOL     OW 9715   6.928   6.501   6.017
 2939SOL    HW1 9716   6.837   6.541   6.017
 2939SOL    HW2 9717   6.939   6.441   5.937
 2940SOL     OW 9718   3.547   7.009   6.013
 2940SOL    HW1 9719   3.515   0.046   5.936
 2940SOL    HW2 9720   3.640   6.977   5.995
 2941SOL     OW 9721   4.040   1.527   5.383
 2941SOL    HW1 9722   4.122   1.490   5.426
 2941SOL    HW2 9723   3.962   1.516   5.445
 2942SOL     OW 9724   3.275   6.570   4.013
 2942SOL    HW1 9725   3.363   6.526   4.033
 2942SOL    HW2 9726   3.206   6.501   3.993
 2943SOL     OW 9727   5.548   4.664   2.829
 2943SOL    HW1 9728   5.599   4.624   2.905
 2943SOL    HW2 9729   5.482   4.730   2.865
 2944SOL     OW 9730   5.156   5.961   0.377
 2944SOL    HW1 9731   5.059   5.958   0.402
 2944SOL    HW2 9732   5.189   6.055   0.382
 2945SOL     OW 9733   3.141   3.622   4.595
 2945SOL    HW1 9734   3.125   3.524   4.605
 2945SOL    HW2 9735   3.216   3.650   4.656
 2946SOL     OW 9736   1.255   6.521   5.388
 2946SOL    HW1 9737   1.267   6.620   5.396
 2946SOL    HW2 9738   1.201   6.500   5.307
 2947SOL     OW 9739   6.886   5.413   6.632
 2947SOL    HW1 9740   6.961   5.471   6.664
 2947SOL    HW2 9741   6.875   5.335   6.693
 2948SOL     OW 9742   6.374   3.221   5.540
 2948SOL    HW1 9743   6.406   3.199   5.632
 2948SOL    HW2 9744   6.448   3.207   5.474
 2949SOL     OW 9745   0.664   6.781   0.901
 2949SOL    HW1 9746   0.634   6.842   0.827
 2949SOL    HW2 9747   0.744   6.820   0.946
 2950SOL     OW 9748   5.250   3.429   4.971
 2950SOL    HW1 9749   5.305   3.512   4.961
 2950SOL    HW2 9750   5.278   3.362   4.903
 2951SOL     OW 9751   6.079   0.473   6.919
 2951SOL    HW1 9752   6.019   0.533   6.972
 2951SOL    HW2 9753   6.173   0.483   6.951
 2952SOL     OW 9754   0.694   3.576   1.850
 2952SOL    HW1 9755   0.656   3.609   1.937
 2952SOL    HW2 9756   0.619   3.543   1.792
 2953SOL     OW 9757   5.699   1.565   1.787
 2953SOL    HW1 9758   5.697   1.641   1.723
 2953SOL    HW2 9759   5.791   1.526   1.791
 2954SOL     OW 9760   4.944   5.877   1.856
 2954SOL    HW1 9761   5.028   5.844   1.899
 2954SOL    HW2 9762   4.960   5.969   1.819
 2955SOL     OW 9763   5.934   1.601   1.266
 2955SOL    HW1 9764   5.906   1.530   1.330
 2955SOL    HW2 9765   6.000   1.564   1.201
 2956SOL     OW 9766   5.748   6.339   3.799
 2956SOL    HW1 9767   5.754   6.395   3.716
 2956SOL    HW2 9768   5.716   6.248   3.775
 2957SOL     OW 9769   1.464   4.519   1.845
 2957SOL    HW1 9770   1.393   4.552   1.784
 2957SOL    HW2 9771   1.452   4.559   1.935
 2958SOL     OW 9772   2.654   4.800   6.238
 2958SOL    HW1 9773   2.678   4.730   6.305
 2958SOL    HW2 9774   2.600   4.872   6.282
 2959SOL     OW 9775   3.722   5.347   6.867
 2959SOL    HW1 9776   3.711   5.433   6.918
 2959SOL    HW2 9777   3.777   5.364   6.785
 2960SOL     OW 9778   3.104   1.888   0.418
 2960SOL    HW1 9779   3.145   1.847   0.500
 2960SOL    HW2 9780   3.005   1.869   0.418
 2961SOL     OW 9781   5.301   1.305   4.007
 2961SOL    HW1 9782   5.385   1.351   4.037
 2961SOL    HW2 9783   5.228   1.324   4.071
 2962SOL     OW 9784   4.587   0.181   2.584
 2962SOL    HW1 9785   4.585   0.247   2.659
 2962SOL    HW2 9786   4.553   0.093   2.616
 2963SOL     OW 9787   2.164   3.199   5.024
 2963SOL    HW1 9788   2.179   3.214   5.121
 2963SOL    HW2 9789   2.216   3.119   4.994
 2964SOL     OW 9790   2.556   5.905   0.285
 2964SOL    HW1 9791   2.640   5.855   0.306
 2964SOL    HW2 9792   2.540   5.975   0.355
 2965SOL     OW 9793   0.736   2.770   6.246
 2965SOL    HW1 9794   0.762   2.754   6.341
 2965SOL    HW2 9795   0.816   2.799   6.194
 2966SOL     OW 9796   4.595   5.282   3.284
 2966SOL    HW1 9797   4.540   5.250   3.207
 2966SOL    HW2 9798   4.601   5.210   3.353
 2967SOL     OW 9799   5.643   2.615   4.258
 2967SOL    HW1 9800   5.731   2.593   4.301
 2967SOL    HW2 9801   5.579   2.540   4.273
 2968SOL     OW 9802   6.439   4.634   3.981
 2968SOL    HW1 9803   6.380   4.566   4.025
 2968SOL    HW2 9804   6.390   4.675   3.904
 2969SOL     OW 9805   3.373   1.230   4.929
 2969SOL    HW1 9806   3.402   1.305   4.870
 2969SOL    HW2 9807   3.383   1.258   5.025
 2970SOL     OW 9808   1.459   4.386   6.065
 2970SOL    HW1 9809   1.426   4.301   6.104
 2970SOL    HW2 9810   1.465   4.377   5.966
 2971SOL     OW 9811   5.645   2.833   1.951
 2971SOL    HW1 9812   5.610   2.830   2.045
 2971SOL    HW2 9813   5.735   2.878   1.950
 2972SOL     OW 9814   0.493   4.048   4.402
 2972SOL    HW1 9815   0.579   3.998   4.393
 2972SOL    HW2 9816   0.418   3.990   4.370
 2973SOL     OW 9817   6.194   0.058   4.118
 2973SOL    HW1 9818   6.119   0.006   4.077
 2973SOL    HW2 9819   6.162   0.107   4.199
 2974SOL     OW 9820   6.597   4.218   0.865
 2974SOL    HW1 9821   6.532   4.229   0.790
 2974SOL    HW2 9822   6.659   4.142   0.844
 2975SOL     OW 9823   6.157   1.573   4.064
 2975SOL    HW1 9824   6.073   1.619   4.094
 2975SOL    HW2 9825   6.185   1.611   3.975
 2976SOL     OW 9826   2.598   5.778   0.994
 2976SOL    HW1 9827   2.661   5.774   1.072
 2976SOL    HW2 9828   2.649   5.765   0.910
 2977SOL     OW 9829   2.743   6.942   3.462
 2977SOL    HW1 9830   2.774   6.854   3.427
 2977SOL    HW2 9831   2.744   7.009   3.388
 2978SOL     OW 9832   2.394   0.413   6.676
 2978SOL    HW1 9833   2.370   0.389   6.770
 2978SOL    HW2 9834   2.484   0.456   6.674
 2979SOL     OW 9835   2.378   1.239   3.310
 2979SOL    HW1 9836   2.428   1.168   3.261
 2979SOL    HW2 9837   2.289   1.254   3.267
 2980SOL     OW 9838   6.119   0.093   3.326
 2980SOL    HW1 9839   6.140   0.035   3.247
 2980SOL    HW2 9840   6.198   0.094   3.387
 2981SOL     OW 9841   1.514   1.309   5.717
 2981SOL    HW1 9842   1.539   1.338   5.809
 2981SOL    HW2 9843   1.494   1.389   5.661
 2982SOL     OW 9844   5.190   5.724   2.374
 2982SOL    HW1 9845   5.169   5.820   2.358
 2982SOL    HW2 9846   5.286   5.714   2.403
 2983SOL     OW 9847   0.810   0.988   2.608
 2983SOL    HW1 9848   0.829   1.086   2.620
 2983SOL    HW2 9849   0.865   0.953   2.532
 2984SOL     OW 9850   6.427   4.260   1.384
 2984SOL    HW1 9851   6.459   4.277   1.291
 2984SOL    HW2 9852   6.506   4.255   1.446
 2985SOL     OW 9853   6.278   2.297   2.875
 2985SOL    HW1 9854   6.255   2.372   2.938
 2985SOL    HW2 9855   6.236   2.212   2.908
 2986SOL     OW 9856   1.444   3.397   4.610
 2986SOL    HW1 9857   1.398   3.377   4.524
 2986SOL    HW2 9858   1.385   3.453   4.668
 2987SOL     OW 9859   4.996   1.983   4.629
 2987SOL    HW1 9860   5.094   1.985   4.645
 2987SOL    HW2 9861   4.954   1.912   4.686
 2988SOL     OW 9862   0.752   0.895   2.845
 2988SOL    HW1 9863   0.758   0.935   2.754
 2988SOL    HW2 9864   0.765   0.796   2.840
 2989SOL     OW 9865   0.140   5.264   0.471
 2989SOL    HW1 9866   0.054   5.213   0.482
 2989SOL    HW2 9867   0.168   5.262   0.375
 2990SOL     OW 9868   2.861   1.491   1.402
 2990SOL    HW1 9869   2.870   1.391   1.404
 2990SOL    HW2 9870   2.818   1.522   1.487
 2991SOL     OW 9871   6.205   4.792   6.828
 2991SOL    HW1 9872   6.261   4.784   6.910
 2991SOL    HW2 9873   6.232   4.723   6.761
 2992SOL     OW 9874   4.195   4.634   6.723
 2992SOL    HW1 9875   4.164   4.599   6.812
 2992SOL    HW2 9876   4.261   4.707   6.737
 2993SOL     OW 9877   1.347   4.268   0.014
 2993SOL    HW1 9878   1.394   4.180   0.009
 2993SOL    HW2 9879   1.252   4.253   0.044
 2994SOL     OW 9880   4.160   6.606   6.646
 2994SOL    HW1 9881   4.241   6.644   6.689
 2994SOL    HW2 9882   4.112   6.678   6.596
 2995SOL     OW 9883   2.550   0.616   5.536
 2995SOL    HW1 9884   2.466   0.654   5.497
 2995SOL    HW2 9885   2.526   0.547   5.605
 2996SOL     OW 9886   4.479   6.865   6.122
 2996SOL    HW1 9887   4.429   6.783   6.093
 2996SOL    HW2 9888   4.465   6.938   6.055
 2997SOL     OW 9889   3.736   5.678   0.414
 2997SOL    HW1 9890   3.807   5.657   0.347
 2997SOL    HW2 9891   3.650   5.698   0.367
 2998SOL     OW 9892   6.323   3.995   6.180
 2998SOL    HW1 9893   6.338   3.972   6.084
 2998SOL    HW2 9894   6.384   4.069   6.207
 2999SOL     OW 9895   2.351   1.533   2.085
 2999SOL    HW1 9896   2.311   1.566   2.000
 2999SOL    HW2 9897   2.282   1.536   2.158
 3000SOL     OW 9898   1.384   2.038   4.951
 3000SOL    HW1 9899   1.322   2.051   4.873
 3000SOL    HW2 9900   1.379   2.119   5.010
 3001SOL     OW 9901   4.864   5.935   5.820
 3001SOL    HW1 9902   4.926   5.982   5.757
 3001SOL    HW2 9903   4.792   5.889   5.767
 3002SOL     OW 9904   3.332   0.032   5.422
 3002SOL    HW1 9905   3.316   0.129   5.437
 3002SOL    HW2 9906   3.250   6.997   5.445
 3003SOL     OW 9907   1.638   0.157   5.958
 3003SOL    HW1 9908   1.580   0.204   6.024
 3003SOL    HW2 9909   1.598   0.069   5.935
 3004SOL     OW 9910   0.084   2.813   5.788
 3004SOL    HW1 9911   0.100   2.760   5.871
 3004SOL    HW2 9912   7.013   2.789   5.749
 3005SOL     OW 9913   4.900   1.978   0.630
 3005SOL    HW1 9914   4.802   1.966   0.614
 3005SOL    HW2 9915   4.951   1.937   0.555
 3006SOL     OW 9916   4.731   6.412   2.033
 3006SOL    HW1 9917   4.715   6.365   2.119
 3006SOL    HW2 9918   4.656   6.394   1.970
 3007SOL     OW 9919   5.911   5.110   1.765
 3007SOL    HW1 9920   5.882   5.146   1.676
 3007SOL    HW2 9921   5.883   5.174   1.837
 3008SOL     OW 9922   4.567   4.911   5.704
 3008SOL    HW1 9923   4.599   4.917   5.799
 3008SOL    HW2 9924   4.611   4.982   5.649
 3009SOL     OW 9925   1.654   0.430   2.378
 3009SOL    HW1 9926   1.573   0.376   2.400
 3009SOL    HW2 9927   1.731   0.368   2.361
 3010SOL     OW 9928   3.252   0.441   3.498
 3010SOL    HW1 9929   3.158   0.410   3.481
 3010SOL    HW2 9930   3.315   0.367   3.475
 3011SOL     OW 9931   4.930   0.291   0.484
 3011SOL    HW1 9932   5.003   0.355   0.461
 3011SOL    HW2 9933   4.962   0.229   0.556
 3012SOL     OW 9934   0.014   5.218   1.135
 3012SOL    HW1 9935   6.959   5.154   1.159
 3012SOL    HW2 9936   0.066   5.240   1.217
 3013SOL     OW 9937   5.970   4.705   1.769
 3013SOL    HW1 9938   5.901   4.764   1.812
 3013SOL    HW2 9939   6.051   4.760   1.747
 3014SOL     OW 9940   5.695   6.021   5.208
 3014SOL    HW1 9941   5.626   6.072   5.156
 3014SOL    HW2 9942   5.780   6.073   5.211
 3015SOL     OW 9943   3.029   1.299   0.303
 3015SOL    HW1 9944   3.055   1.312   0.208
 3015SOL    HW2 9945   3.090   1.232   0.346
 3016SOL     OW 9946   4.056   6.078   4.358
 3016SOL    HW1 9947   3.971   6.033   4.383
 3016SOL    HW2 9948   4.038   6.173   4.335
 3017SOL     OW 9949   0.768   6.615   1.672
 3017SOL    HW1 9950   0.699   6.672   1.628
 3017SOL    HW2 9951   0.856   6.661   1.671
 3018SOL     OW 9952   4.514   6.979   5.663
 3018SOL    HW1 9953   4.589   6.921   5.695
 3018SOL    HW2 9954   4.451   6.923   5.608
 3019SOL     OW 9955   4.748   0.779   1.608
 3019SOL    HW1 9956   4.728   0.865   1.654
 3019SOL    HW2 9957   4.718   0.784   1.513
 3020SOL     OW 9958   1.628   0.415   1.751
 3020SOL    HW1 9959   1.627   0.475   1.671
 3020SOL    HW2 9960   1.649   0.322   1.723
 3021SOL     OW 9961   4.256   0.958   6.424
 3021SOL    HW1 9962   4.267   0.990   6.330
 3021SOL    HW2 9963   4.162   0.929   6.439
 3022SOL     OW 9964   0.127   0.668   3.143
 3022SOL    HW1 9965   0.225   0.653   3.140
 3022SOL    HW2 9966   0.086   0.606   3.210
 3023SOL     OW 9967   5.674   0.196   1.823
 3023SOL    HW1 9968   5.659   0.114   1.769
 3023SOL    HW2 9969   5.625   0.188   1.910
 3024SOL     OW 9970   1.794   0.201   0.003
 3024SOL    HW1 9971   1.817   0.175   6.927
 3024SOL    HW2 9972   1.797   0.120   0.062
 3025SOL     OW 9973   1.926   2.532   1.705
 3025SOL    HW1 9974   1.865   2.587   1.649
 3025SOL    HW2 9975   2.021   2.559   1.687
 3026SOL     OW 9976   2.998   5.998   0.651
 3026SOL    HW1 9977   2.907   5.965   0.677
 3026SOL    HW2 9978   3.006   5.997   0.551
 3027SOL     OW 9979   1.246   1.954   3.839
 3027SOL    HW1 9980   1.211   2.034   3.791
 3027SOL    HW2 9981   1.201   1.945   3.928
 3028SOL     OW 9982   1.399   0.689   4.652
 3028SOL    HW1 9983   1.334   0.734   4.712
 3028SOL    HW2 9984   1.357   0.609   4.611
 3029SOL     OW 9985   6.158   4.850   5.701
 3029SOL    HW1 9986   6.068   4.814   5.675
 3029SOL    HW2 9987   6.185   4.813   5.789
 3030SOL     OW 9988   1.024   0.958   5.578
 3030SOL    HW1 9989   1.078   1.042   5.574
 3030SOL    HW2 9990   1.035   0.907   5.493
 3031SOL     OW 9991   0.146   5.749   6.078
 3031SOL    HW1 9992   0.122   5.653   6.097
 3031SOL    HW2 9993   0.142   5.766   5.980
 3032SOL     OW 9994   3.733   6.609   5.929
 3032SOL    HW1 9995   3.694   6.674   5.994
 3032SOL    HW2 9996   3.667   6.592   5.855
 3033SOL     OW 9997   4.886   4.437   6.091
 3033SOL    HW1 9998   4.918   4.362   6.149
 3033SOL    HW2 9999   4.795   4.413   6.055
 3034SOL     OW10000   2.507   6.833   5.038
 3034SOL    HW110001   2.553   6.749   5.009
 3034SOL    HW210002   2.463   6.818   5.126
 3035SOL     OW10003   6.123   6.833   0.228
 3035SOL    HW110004   6.067   6.814   0.309
 3035SOL    HW210005   6.174   6.751   0.203
 3036SOL     OW10006   0.505   5.092   5.618
 3036SOL    HW110007   0.503   5.073   5.520
 3036SOL    HW210008   0.477   5.010   5.668
 3037SOL     OW10009   5.425   6.307   6.117
 3037SOL    HW110010   5.359   6.232   6.116
 3037SOL    HW210011   5.507   6.279   6.166
 3038SOL     OW10012   5.886   6.145   5.601
 3038SOL    HW110013   5.952   6.070   5.589
 3038SOL    HW210014   5.921   6.207   5.671
 3039SOL     OW10015   0.597   4.913   0.288
 3039SOL    HW110016   0.645   4.933   0.203
 3039SOL    HW210017   0.508   4.871   0.267
 3040SOL     OW10018   2.562   1.174   0.323
 3040SOL    HW110019   2.606   1.262   0.307
 3040SOL    HW210020   2.468   1.188   0.352
 3041SOL     OW10021   1.690   1.862   5.865
 3041SOL    HW110022   1.789   1.878   5.869
 3041SOL    HW210023   1.649   1.887   5.953
 3042SOL     OW10024   5.730   0.170   1.491
 3042SOL    HW110025   5.739   0.078   1.528
 3042SOL    HW210026   5.821   0.208   1.474
 3043SOL     OW10027   0.500   5.341   6.306
 3043SOL    HW110028   0.519   5.421   6.363
 3043SOL    HW210029   0.401   5.328   6.299
 3044SOL     OW10030   2.424   3.309   6.565
 3044SOL    HW110031   2.469   3.293   6.478
 3044SOL    HW210032   2.453   3.398   6.602
 3045SOL     OW10033   4.765   2.625   4.613
 3045SOL    HW110034   4.735   2.677   4.533
 3045SOL    HW210035   4.686   2.596   4.666
 3046SOL     OW10036   2.700   2.417   5.903
 3046SOL    HW110037   2.742   2.376   5.984
 3046SOL    HW210038   2.771   2.457   5.845
 3047SOL     OW10039   6.944   5.444   1.898
 3047SOL    HW110040   0.017   5.473   1.929
 3047SOL    HW210041   6.897   5.520   1.855
 3048SOL     OW10042   3.654   2.923   2.195
 3048SOL    HW110043   3.646   2.953   2.100
 3048SOL    HW210044   3.747   2.943   2.228
 3049SOL     OW10045   1.081   0.342   0.503
 3049SOL    HW110046   1.110   0.341   0.599
 3049SOL    HW210047   0.982   0.328   0.498
 3050SOL     OW10048   1.381   0.332   4.258
 3050SOL    HW110049   1.425   0.417   4.287
 3050SOL    HW210050   1.399   0.261   4.326
 3051SOL     OW10051   3.007   4.895   5.778
 3051SOL    HW110052   2.960   4.870   5.693
 3051SOL    HW210053   2.940   4.935   5.842
 3052SOL     OW10054   4.963   6.118   2.632
 3052SOL    HW110055   5.006   6.184   2.570
 3052SOL    HW210056   4.953   6.160   2.722
 3053SOL     OW10057   3.759   6.423   2.031
 3053SOL    HW110058   3.759   6.521   2.012
 3053SOL    HW210059   3.853   6.390   2.036
 3054SOL     OW10060   1.574   4.205   5.198
 3054SOL    HW110061   1.659   4.239   5.157
 3054SOL    HW210062   1.590   4.115   5.238
 3055SOL     OW10063   6.326   6.597   2.858
 3055SOL    HW110064   6.300   6.652   2.938
 3055SOL    HW210065   6.384   6.521   2.887
 3056SOL     OW10066   5.022   0.882   2.516
 3056SOL    HW110067   5.062   0.810   2.573
 3056SOL    HW210068   4.925   0.892   2.538
 3057SOL     OW10069   6.720   4.901   2.720
 3057SOL    HW110070   6.652   4.974   2.727
 3057SOL    HW210071   6.764   4.905   2.630
 3058SOL     OW10072   5.733   6.337   1.517
 3058SOL    HW110073   5.709   6.372   1.426
 3058SOL    HW210074   5.719   6.409   1.585
 3059SOL     OW10075   2.580   2.673   6.512
 3059SOL    HW110076   2.531   2.760   6.510
 3059SOL    HW210077   2.516   2.600   6.539
 3060SOL     OW10078   0.448   6.135   6.061
 3060SOL    HW110079   0.430   6.056   6.120
 3060SOL    HW210080   0.398   6.124   5.975
 3061SOL     OW10081   0.058   0.939   5.914
 3061SOL    HW110082   0.040   0.899   6.004
 3061SOL    HW210083   0.116   0.877   5.861
 3062SOL     OW10084   3.113   5.039   6.265
 3062SOL    HW110085   3.014   5.047   6.258
 3062SOL    HW210086   3.141   5.051   6.360
 3063SOL     OW10087   2.719   5.899   0.608
 3063SOL    HW110088   2.627   5.863   0.590
 3063SOL    HW210089   2.713   5.995   0.634
 3064SOL     OW10090   0.100   4.457   3.104
 3064SOL    HW110091   0.141   4.486   3.191
 3064SOL    HW210092   0.154   4.493   3.028
 3065SOL     OW10093   3.633   1.820   1.237
 3065SOL    HW110094   3.723   1.846   1.273
 3065SOL    HW210095   3.582   1.902   1.213
 3066SOL     OW10096   5.586   5.140   0.913
 3066SOL    HW110097   5.637   5.196   0.978
 3066SOL    HW210098   5.619   5.046   0.917
 3067SOL     OW10099   4.162   6.876   3.129
 3067SOL    HW110100   4.100   6.819   3.183
 3067SOL    HW210101   4.172   6.965   3.174
 3068SOL     OW10102   6.421   4.301   6.840
 3068SOL    HW110103   6.454   4.211   6.868
 3068SOL    HW210104   6.381   4.348   6.918
 3069SOL     OW10105   1.099   4.866   3.211
 3069SOL    HW110106   1.113   4.788   3.149
 3069SOL    HW210107   1.160   4.941   3.185
 3070SOL     OW10108   4.711   1.651   3.595
 3070SOL    HW110109   4.763   1.643   3.680
 3070SOL    HW210110   4.759   1.601   3.522
 3071SOL     OW10111   5.780   0.260   3.698
 3071SOL    HW110112   5.682   0.251   3.680
 3071SOL    HW210113   5.817   0.171   3.724
 3072SOL     OW10114   6.729   0.749   1.695
 3072SOL    HW110115   6.648   0.788   1.739
 3072SOL    HW210116   6.701   0.675   1.634
 3073SOL     OW10117   1.778   1.757   5.057
 3073SOL    HW110118   1.793   1.745   5.155
 3073SOL    HW210119   1.684   1.786   5.041
 3074SOL     OW10120   4.836   3.643   5.897
 3074SOL    HW110121   4.743   3.605   5.897
 3074SOL    HW210122   4.895   3.588   5.956
 3075SOL     OW10123   0.158   5.427   1.015
 3075SOL    HW110124   0.114   5.404   0.929
 3075SOL    HW210125   0.137   5.357   1.083
 3076SOL     OW10126   0.586   0.637   5.368
 3076SOL    HW110127   0.606   0.601   5.276
 3076SOL    HW210128   0.628   0.727   5.378
 3077SOL     OW10129   4.255   4.681   3.350
 3077SOL    HW110130   4.281   4.592   3.314
 3077SOL    HW210131   4.243   4.745   3.275
 3078SOL     OW10132   1.969   2.981   0.517
 3078SOL    HW110133   1.976   3.068   0.469
 3078SOL    HW210134   2.058   2.935   0.516
 3079SOL     OW10135   5.228   3.324   5.962
 3079SOL    HW110136   5.256   3.251   6.024
 3079SOL    HW210137   5.216   3.286   5.870
 3080SOL     OW10138   6.087   6.831   2.316
 3080SOL    HW110139   6.090   6.931   2.328
 3080SOL    HW210140   6.061   6.810   2.222
 3081SOL     OW10141   0.908   4.536   5.835
 3081SOL    HW110142   0.958   4.622   5.846
 3081SOL    HW210143   0.877   4.526   5.741
 3082SOL     OW10144   3.804   6.794   2.754
 3082SOL    HW110145   3.853   6.832   2.675
 3082SOL    HW210146   3.706   6.811   2.744
 3083SOL     OW10147   3.751   6.472   2.576
 3083SOL    HW110148   3.668   6.520   2.606
 3083SOL    HW210149   3.747   6.456   2.478
 3084SOL     OW10150   4.599   6.750   3.928
 3084SOL    HW110151   4.679   6.703   3.892
 3084SOL    HW210152   4.608   6.761   4.027
 3085SOL     OW10153   0.933   5.190   2.518
 3085SOL    HW110154   0.954   5.134   2.438
 3085SOL    HW210155   0.862   5.257   2.494
 3086SOL     OW10156   6.297   1.447   4.549
 3086SOL    HW110157   6.199   1.466   4.561
 3086SOL    HW210158   6.324   1.471   4.456
 3087SOL     OW10159   5.737   3.721   1.554
 3087SOL    HW110160   5.789   3.683   1.631
 3087SOL    HW210161   5.683   3.798   1.586
 3088SOL     OW10162   2.980   3.734   6.408
 3088SOL    HW110163   3.045   3.810   6.415
 3088SOL    HW210164   2.999   3.667   6.480
 3089SOL     OW10165   3.326   1.967   1.597
 3089SOL    HW110166   3.325   1.957   1.697
 3089SOL    HW210167   3.377   1.891   1.557
 3090SOL     OW10168   6.160   1.722   0.953
 3090SOL    HW110169   6.210   1.704   1.037
 3090SOL    HW210170   6.064   1.740   0.974
 3091SOL     OW10171   2.088   6.125   6.606
 3091SOL    HW110172   2.175   6.094   6.566
 3091SOL    HW210173   2.065   6.068   6.685
 3092SOL     OW10174   4.401   5.197   0.675
 3092SOL    HW110175   4.411   5.290   0.710
 3092SOL    HW210176   4.408   5.197   0.575
 3093SOL     OW10177   4.744   6.748   3.121
 3093SOL    HW110178   4.675   6.690   3.166
 3093SOL    HW210179   4.785   6.808   3.189
 3094SOL     OW10180   3.646   5.535   4.345
 3094SOL    HW110181   3.594   5.477   4.281
 3094SOL    HW210182   3.704   5.477   4.402
 3095SOL     OW10183   1.886   5.309   4.803
 3095SOL    HW110184   1.913   5.215   4.826
 3095SOL    HW210185   1.804   5.307   4.747
 3096SOL     OW10186   0.640   1.764   5.813
 3096SOL    HW110187   0.708   1.739   5.882
 3096SOL    HW210188   0.641   1.863   5.800
 3097SOL     OW10189   1.614   0.778   6.679
 3097SOL    HW110190   1.604   0.747   6.773
 3097SOL    HW210191   1.644   0.874   6.678
 3098SOL     OW10192   3.758   2.739   0.502
 3098SOL    HW110193   3.748   2.809   0.431
 3098SOL    HW210194   3.793   2.655   0.462
 3099SOL     OW10195   1.374   5.793   5.613
 3099SOL    HW110196   1.340   5.861   5.547
 3099SOL    HW210197   1.474   5.794   5.612
 3100SOL     OW10198   6.328   0.285   6.145
 3100SOL    HW110199   6.305   0.330   6.231
 3100SOL    HW210200   6.252   0.227   6.116
 3101SOL     OW10201   3.243   0.297   1.191
 3101SOL    HW110202   3.191   0.237   1.252
 3101SOL    HW210203   3.218   0.392   1.209
 3102SOL     OW10204   1.230   6.173   0.524
 3102SOL    HW110205   1.198   6.267   0.520
 3102SOL    HW210206   1.160   6.113   0.484
 3103SOL     OW10207   4.299   4.562   1.913
 3103SOL    HW110208   4.326   4.468   1.932
 3103SOL    HW210209   4.379   4.622   1.917
 3104SOL     OW10210   5.685   5.896   3.860
 3104SOL    HW110211   5.623   5.974   3.860
 3104SOL    HW210212   5.669   5.841   3.778
 3105SOL     OW10213   5.875   6.070   3.906
 3105SOL    HW110214   5.816   5.990   3.897
 3105SOL    HW210215   5.956   6.046   3.961
 3106SOL     OW10216   6.725   3.579   4.410
 3106SOL    HW110217   6.667   3.547   4.485
 3106SOL    HW210218   6.797   3.638   4.446
 3107SOL     OW10219   2.487   6.960   3.994
 3107SOL    HW110220   2.501   0.002   4.074
 3107SOL    HW210221   2.534   6.999   3.915
 3108SOL     OW10222   1.845   6.931   2.820
 3108SOL    HW110223   1.927   6.901   2.868
 3108SOL    HW210224   1.854   6.909   2.722
 3109SOL     OW10225   4.572   5.771   3.500
 3109SOL    HW110226   4.544   5.741   3.592
 3109SOL    HW210227   4.671   5.777   3.496
 3110SOL     OW10228   0.409   2.735   1.669
 3110SOL    HW110229   0.486   2.672   1.669
 3110SOL    HW210230   0.344   2.708   1.598
 3111SOL     OW10231   0.531   4.935   2.178
 3111SOL    HW110232   0.535   5.029   2.143
 3111SOL    HW210233   0.455   4.886   2.136
 3112SOL     OW10234   3.219   3.347   5.845
 3112SOL    HW110235   3.274   3.381   5.922
 3112SOL    HW210236   3.176   3.260   5.870
 3113SOL     OW10237   4.038   6.836   4.132
 3113SOL    HW110238   3.999   6.757   4.180
 3113SOL    HW210239   4.137   6.829   4.131
 3114SOL     OW10240   5.113   5.803   0.777
 3114SOL    HW110241   5.021   5.812   0.815
 3114SOL    HW210242   5.111   5.742   0.699
 3115SOL     OW10243   3.433   2.873   2.645
 3115SOL    HW110244   3.449   2.836   2.554
 3115SOL    HW210245   3.336   2.892   2.657
 3116SOL     OW10246   0.114   1.402   6.746
 3116SOL    HW110247   0.185   1.370   6.683
 3116SOL    HW210248   0.035   1.434   6.694
 3117SOL     OW10249   3.182   4.250   6.229
 3117SOL    HW110250   3.233   4.305   6.296
 3117SOL    HW210251   3.124   4.184   6.278
 3118SOL     OW10252   6.092   5.122   7.001
 3118SOL    HW110253   6.183   5.110   6.963
 3118SOL    HW210254   6.076   5.219   0.004
 3119SOL     OW10255   2.238   4.394   6.597
 3119SOL    HW110256   2.145   4.424   6.573
 3119SOL    HW210257   2.249   4.394   6.696
 3120SOL     OW10258   2.524   5.450   6.616
 3120SOL    HW110259   2.488   5.544   6.618
 3120SOL    HW210260   2.605   5.444   6.675
 3121SOL     OW10261   6.961   5.735   3.982
 3121SOL    HW110262   6.945   5.680   4.063
 3121SOL    HW210263   6.889   5.718   3.915
 3122SOL     OW10264   3.230   6.108   1.194
 3122SOL    HW110265   3.160   6.091   1.124
 3122SOL    HW210266   3.301   6.038   1.187
 3123SOL     OW10267   3.211   0.199   4.011
 3123SOL    HW110268   3.234   0.231   4.103
 3123SOL    HW210269   3.268   0.248   3.944
 3124SOL     OW10270   3.897   6.798   5.807
 3124SOL    HW110271   3.980   6.806   5.862
 3124SOL    HW210272   3.840   6.725   5.844
 3125SOL     OW10273   6.997   1.778   5.952
 3125SOL    HW110274   0.027   1.864   5.967
 3125SOL    HW210275   0.046   1.704   5.944
 3126SOL     OW10276   3.566   6.202   6.498
 3126SOL    HW110277   3.612   6.143   6.564
 3126SOL    HW210278   3.573   6.297   6.528
 3127SOL     OW10279   1.089   1.101   4.346
 3127SOL    HW110280   1.165   1.066   4.292
 3127SOL    HW210281   1.010   1.117   4.286
 3128SOL     OW10282   1.581   0.907   1.065
 3128SOL    HW110283   1.505   0.877   1.008
 3128SOL    HW210284   1.665   0.863   1.033
 3129SOL     OW10285   1.257   3.254   2.790
 3129SOL    HW110286   1.231   3.181   2.728
 3129SOL    HW210287   1.318   3.218   2.860
 3130SOL     OW10288   2.276   5.434   2.837
 3130SOL    HW110289   2.374   5.445   2.826
 3130SOL    HW210290   2.257   5.365   2.907
 3131SOL     OW10291   0.909   3.027   3.887
 3131SOL    HW110292   0.974   3.044   3.960
 3131SOL    HW210293   0.838   3.097   3.888
 3132SOL     OW10294   4.926   3.396   6.045
 3132SOL    HW110295   4.873   3.331   5.991
 3132SOL    HW210296   5.023   3.383   6.027
 3133SOL     OW10297   2.275   1.748   3.812
 3133SOL    HW110298   2.331   1.824   3.779
 3133SOL    HW210299   2.314   1.662   3.780
 3134SOL     OW10300   5.929   2.398   1.880
 3134SOL    HW110301   6.013   2.449   1.898
 3134SOL    HW210302   5.875   2.392   1.963
 3135SOL     OW10303   0.990   2.456   2.997
 3135SOL    HW110304   0.950   2.537   2.954
 3135SOL    HW210305   1.068   2.426   2.943
 3136SOL     OW10306   6.410   0.939   4.657
 3136SOL    HW110307   6.419   0.967   4.753
 3136SOL    HW210308   6.361   1.009   4.606
 3137SOL     OW10309   0.581   1.788   4.378
 3137SOL    HW110310   0.513   1.824   4.442
 3137SOL    HW210311   0.572   1.689   4.371
 3138SOL     OW10312   6.348   2.235   4.426
 3138SOL    HW110313   6.303   2.324   4.416
 3138SOL    HW210314   6.376   2.202   4.336
 3139SOL     OW10315   4.944   5.503   5.128
 3139SOL    HW110316   4.866   5.553   5.090
 3139SOL    HW210317   5.029   5.538   5.088
 3140SOL     OW10318   6.036   5.920   5.526
 3140SOL    HW110319   6.127   5.878   5.532
 3140SOL    HW210320   5.967   5.854   5.555
 3141SOL     OW10321   0.810   0.496   1.904
 3141SOL    HW110322   0.729   0.441   1.919
 3141SOL    HW210323   0.783   0.589   1.879
 3142SOL     OW10324   3.383   6.974   0.740
 3142SOL    HW110325   3.428   6.917   0.808
 3142SOL    HW210326   3.290   6.996   0.771
 3143SOL     OW10327   0.195   1.704   0.362
 3143SOL    HW110328   0.290   1.684   0.338
 3143SOL    HW210329   0.189   1.732   0.458
 3144SOL     OW10330   3.033   2.785   0.112
 3144SOL    HW110331   3.044   2.713   0.181
 3144SOL    HW210332   3.118   2.838   0.105
 3145SOL     OW10333   2.131   5.177   2.515
 3145SOL    HW110334   2.104   5.229   2.596
 3145SOL    HW210335   2.228   5.194   2.495
 3146SOL     OW10336   2.090   0.013   4.030
 3146SOL    HW110337   2.078   6.999   4.124
 3146SOL    HW210338   2.070   6.955   3.967
 3147SOL     OW10339   3.943   4.230   1.018
 3147SOL    HW110340   3.940   4.157   0.949
 3147SOL    HW210341   4.021   4.290   0.999
 3148SOL     OW10342   2.537   5.819   4.597
 3148SOL    HW110343   2.561   5.724   4.575
 3148SOL    HW210344   2.615   5.864   4.640
 3149SOL     OW10345   2.172   6.453   5.584
 3149SOL    HW110346   2.111   6.392   5.533
 3149SOL    HW210347   2.183   6.418   5.677
 3150SOL     OW10348   6.536   0.514   4.612
 3150SOL    HW110349   6.494   0.486   4.526
 3150SOL    HW210350   6.466   0.519   4.683
 3151SOL     OW10351   3.739   6.826   1.683
 3151SOL    HW110352   3.743   6.726   1.691
 3151SOL    HW210353   3.696   6.851   1.596
 3152SOL     OW10354   1.497   5.017   6.559
 3152SOL    HW110355   1.557   4.985   6.486
 3152SOL    HW210356   1.491   4.948   6.631
 3153SOL     OW10357   6.946   3.751   3.404
 3153SOL    HW110358   6.984   3.833   3.360
 3153SOL    HW210359   7.008   3.718   3.475
 3154SOL     OW10360   5.928   2.651   6.314
 3154SOL    HW110361   5.869   2.731   6.308
 3154SOL    HW210362   6.015   2.676   6.355
 3155SOL     OW10363   4.369   5.854   0.235
 3155SOL    HW110364   4.453   5.879   0.187
 3155SOL    HW210365   4.391   5.789   0.308
 3156SOL     OW10366   3.446   3.886   3.684
 3156SOL    HW110367   3.472   3.816   3.618
 3156SOL    HW210368   3.350   3.874   3.709
 3157SOL     OW10369   2.195   2.445   4.748
 3157SOL    HW110370   2.135   2.370   4.721
 3157SOL    HW210371   2.239   2.484   4.668
 3158SOL     OW10372   4.553   6.844   1.995
 3158SOL    HW110373   4.643   6.802   1.981
 3158SOL    HW210374   4.482   6.775   1.983
 3159SOL     OW10375   5.732   4.458   0.853
 3159SOL    HW110376   5.799   4.448   0.926
 3159SOL    HW210377   5.779   4.470   0.765
 3160SOL     OW10378   6.072   4.662   0.448
 3160SOL    HW110379   6.034   4.751   0.424
 3160SOL    HW210380   6.108   4.665   0.541
 3161SOL     OW10381   0.903   1.590   4.195
 3161SOL    HW110382   0.915   1.690   4.191
 3161SOL    HW210383   0.986   1.548   4.232
 3162SOL     OW10384   0.179   0.409   6.341
 3162SOL    HW110385   0.276   0.395   6.360
 3162SOL    HW210386   0.135   0.452   6.419
 3163SOL     OW10387   1.583   4.660   5.391
 3163SOL    HW110388   1.534   4.582   5.431
 3163SOL    HW210389   1.526   4.742   5.399
 3164SOL     OW10390   6.493   5.254   5.535
 3164SOL    HW110391   6.495   5.344   5.490
 3164SOL    HW210392   6.398   5.228   5.552
 3165SOL     OW10393   6.956   2.798   1.428
 3165SOL    HW110394   6.898   2.878   1.446
 3165SOL    HW210395   0.003   2.787   1.503
 3166SOL     OW10396   3.570   3.134   6.446
 3166SOL    HW110397   3.573   3.220   6.394
 3166SOL    HW210398   3.477   3.120   6.481
 3167SOL     OW10399   0.297   4.772   2.078
 3167SOL    HW110400   0.257   4.753   2.168
 3167SOL    HW210401   0.230   4.823   2.023
 3168SOL     OW10402   6.651   3.103   0.726
 3168SOL    HW110403   6.573   3.058   0.769
 3168SOL    HW210404   6.622   3.144   0.639
 3169SOL     OW10405   3.249   2.477   5.831
 3169SOL    HW110406   3.282   2.422   5.908
 3169SOL    HW210407   3.183   2.544   5.864
 3170SOL     OW10408   3.174   0.329   4.934
 3170SOL    HW110409   3.131   0.260   4.992
 3170SOL    HW210410   3.117   0.411   4.931
 3171SOL     OW10411   6.444   5.550   2.991
 3171SOL    HW110412   6.389   5.469   2.970
 3171SOL    HW210413   6.421   5.623   2.927
 3172SOL     OW10414   5.428   6.648   5.186
 3172SOL    HW110415   5.430   6.654   5.086
 3172SOL    HW210416   5.514   6.607   5.218
 3173SOL     OW10417   1.559   1.027   1.711
 3173SOL    HW110418   1.555   1.123   1.738
 3173SOL    HW210419   1.612   1.018   1.627
 3174SOL     OW10420   2.429   3.070   0.010
 3174SOL    HW110421   2.418   3.098   6.932
 3174SOL    HW210422   2.463   2.976   0.013
 3175SOL     OW10423   6.839   6.218   0.264
 3175SOL    HW110424   6.875   6.310   0.283
 3175SOL    HW210425   6.805   6.177   0.349
 3176SOL     OW10426   0.572   5.608   6.895
 3176SOL    HW110427   0.572   5.639   6.989
 3176SOL    HW210428   0.651   5.549   6.879
 3177SOL     OW10429   0.889   0.280   3.599
 3177SOL    HW110430   0.899   0.378   3.618
 3177SOL    HW210431   0.854   0.234   3.680
 3178SOL     OW10432   3.802   3.331   0.181
 3178SOL    HW110433   3.719   3.344   0.128
 3178SOL    HW210434   3.778   3.309   0.276
 3179SOL     OW10435   1.346   2.702   4.544
 3179SOL    HW110436   1.308   2.632   4.605
 3179SOL    HW210437   1.297   2.701   4.457
 3180SOL     OW10438   6.659   1.274   0.038
 3180SOL    HW110439   6.576   1.279   7.000
 3180SOL    HW210440   6.723   1.211   7.014
 3181SOL     OW10441   0.358   1.367   2.128
 3181SOL    HW110442   0.301   1.288   2.148
 3181SOL    HW210443   0.453   1.338   2.113
 3182SOL     OW10444   1.834   5.975   5.984
 3182SOL    HW110445   1.836   5.913   5.905
 3182SOL    HW210446   1.784   5.931   6.059
 3183SOL     OW10447   4.992   3.775   1.220
 3183SOL    HW110448   4.896   3.769   1.191
 3183SOL    HW210449   5.052   3.767   1.140
 3184SOL     OW10450   0.088   1.966   2.678
 3184SOL    HW110451   0.099   1.921   2.767
 3184SOL    HW210452   0.176   2.000   2.646
 3185SOL     OW10453   0.577   6.385   0.024
 3185SOL    HW110454   0.598   6.327   6.963
 3185SOL    HW210455   0.623   6.474   0.013
 3186SOL     OW10456   3.563   0.422   1.549
 3186SOL    HW110457   3.530   0.434   1.643
 3186SOL    HW210458   3.662   0.440   1.546
 3187SOL     OW10459   3.725   4.318   0.546
 3187SOL    HW110460   3.754   4.411   0.570
 3187SOL    HW210461   3.721   4.310   0.446
 3188SOL     OW10462   3.816   0.071   3.789
 3188SOL    HW110463   3.900   0.039   3.832
 3188SOL    HW210464   3.753   0.105   3.859
 3189SOL     OW10465   6.235   6.086   2.261
 3189SOL    HW110466   6.217   6.183   2.247
 3189SOL    HW210467   6.153   6.033   2.240
 3190SOL     OW10468   1.153   0.503   2.209
 3190SOL    HW110469   1.171   0.422   2.153
 3190SOL    HW210470   1.117   0.576   2.151
 3191SOL     OW10471   3.333   1.042   0.970
 3191SOL    HW110472   3.398   1.034   0.894
 3191SOL    HW210473   3.317   1.139   0.989
 3192SOL     OW10474   5.518   3.215   4.432
 3192SOL    HW110475   5.514   3.289   4.499
 3192SOL    HW210476   5.613   3.192   4.413
 3193SOL     OW10477   5.387   4.334   1.942
 3193SOL    HW110478   5.450   4.278   1.889
 3193SOL    HW210479   5.378   4.296   2.034
 3194SOL     OW10480   3.068   5.767   4.653
 3194SOL    HW110481   3.133   5.692   4.654
 3194SOL    HW210482   3.040   5.789   4.747
 3195SOL     OW10483   6.145   4.500   4.092
 3195SOL    HW110484   6.207   4.429   4.059
 3195SOL    HW210485   6.125   4.484   4.189
 3196SOL     OW10486   6.869   6.014   6.166
 3196SOL    HW110487   6.959   6.006   6.209
 3196SOL    HW210488   6.808   6.066   6.226
 3197SOL     OW10489   0.372   4.412   5.617
 3197SOL    HW110490   0.281   4.448   5.638
 3197SOL    HW210491   0.441   4.470   5.659
 3198SOL     OW10492   6.005   7.006   1.281
 3198SOL    HW110493   6.018   6.949   1.362
 3198SOL    HW210494   5.910   7.000   1.251
 3199SOL     OW10495   2.964   1.630   3.172
 3199SOL    HW110496   3.024   1.556   3.143
 3199SOL    HW210497   3.002   1.718   3.142
 3200SOL     OW10498   6.489   1.746   0.281
 3200SOL    HW110499   6.541   1.780   0.203
 3200SOL    HW210500   6.513   1.651   0.299
 3201SOL     OW10501   3.938   4.908   2.811
 3201SOL    HW110502   3.995   4.902   2.728
 3201SOL    HW210503   3.842   4.899   2.786
 3202SOL     OW10504   1.186   5.020   1.927
 3202SOL    HW110505   1.273   5.022   1.977
 3202SOL    HW210506   1.205   5.004   1.830
 3203SOL     OW10507   4.609   0.067   0.914
 3203SOL    HW110508   4.585   0.122   0.834
 3203SOL    HW210509   4.565   0.104   0.995
 3204SOL     OW10510   6.593   6.271   2.261
 3204SOL    HW110511   6.498   6.242   2.272
 3204SOL    HW210512   6.615   6.276   2.164
 3205SOL     OW10513   1.423   4.202   4.117
 3205SOL    HW110514   1.382   4.276   4.170
 3205SOL    HW210515   1.408   4.220   4.019
 3206SOL     OW10516   2.174   6.252   0.332
 3206SOL    HW110517   2.255   6.306   0.307
 3206SOL    HW210518   2.186   6.217   0.425
 3207SOL     OW10519   1.675   0.896   3.129
 3207SOL    HW110520   1.678   0.841   3.045
 3207SOL    HW210521   1.645   0.989   3.106
 3208SOL     OW10522   5.859   6.415   5.786
 3208SOL    HW110523   5.882   6.432   5.690
 3208SOL    HW210524   5.918   6.470   5.845
 3209SOL     OW10525   1.193   6.680   3.591
 3209SOL    HW110526   1.104   6.646   3.620
 3209SOL    HW210527   1.195   6.690   3.491
 3210SOL     OW10528   0.557   6.109   1.904
 3210SOL    HW110529   0.465   6.068   1.901
 3210SOL    HW210530   0.622   6.041   1.939
 3211SOL     OW10531   0.244   4.429   3.874
 3211SOL    HW110532   0.240   4.521   3.911
 3211SOL    HW210533   0.199   4.365   3.937
 3212SOL     OW10534   4.413   2.420   4.953
 3212SOL    HW110535   4.323   2.405   4.995
 3212SOL    HW210536   4.484   2.377   5.008
 3213SOL     OW10537   5.030   0.207   2.112
 3213SOL    HW110538   4.995   0.298   2.135
 3213SOL    HW210539   4.980   0.138   2.164
 3214SOL     OW10540   4.908   3.703   0.390
 3214SOL    HW110541   4.942   3.767   0.322
 3214SOL    HW210542   4.890   3.614   0.347
 3215SOL     OW10543   6.673   1.295   0.315
 3215SOL    HW110544   6.614   1.368   0.350
 3215SOL    HW210545   6.661   1.287   0.216
 3216SOL     OW10546   4.993   6.568   5.840
 3216SOL    HW110547   5.036   6.643   5.789
 3216SOL    HW210548   5.063   6.504   5.871
 3217SOL     OW10549   0.378   4.371   6.433
 3217SOL    HW110550   0.457   4.352   6.374
 3217SOL    HW210551   0.349   4.466   6.418
 3218SOL     OW10552   4.004   2.618   1.714
 3218SOL    HW110553   3.910   2.644   1.689
 3218SOL    HW210554   4.011   2.519   1.720
 3219SOL     OW10555   0.788   1.882   3.309
 3219SOL    HW110556   0.723   1.895   3.384
 3219SOL    HW210557   0.845   1.964   3.301
 3220SOL     OW10558   6.666   2.743   6.669
 3220SOL    HW110559   6.582   2.795   6.657
 3220SOL    HW210560   6.744   2.806   6.671
 3221SOL     OW10561   4.080   0.380   1.552
 3221SOL    HW110562   4.143   0.424   1.616
 3221SOL    HW210563   4.094   0.281   1.556
 3222SOL     OW10564   6.094   3.548   1.923
 3222SOL    HW110565   6.148   3.587   1.848
 3222SOL    HW210566   6.130   3.458   1.947
 3223SOL     OW10567   1.061   4.262   5.277
 3223SOL    HW110568   1.105   4.173   5.285
 3223SOL    HW210569   0.985   4.268   5.341
 3224SOL     OW10570   2.699   5.975   1.229
 3224SOL    HW110571   2.743   5.977   1.139
 3224SOL    HW210572   2.616   6.032   1.227
 3225SOL     OW10573   1.417   1.571   0.852
 3225SOL    HW110574   1.375   1.616   0.773
 3225SOL    HW210575   1.453   1.482   0.824
 3226SOL     OW10576   6.806   1.362   3.910
 3226SOL    HW110577   6.864   1.443   3.901
 3226SOL    HW210578   6.723   1.385   3.961
 3227SOL     OW10579   2.594   1.589   4.759
 3227SOL    HW110580   2.533   1.592   4.679
 3227SOL    HW210581   2.546   1.548   4.836
 3228SOL     OW10582   4.990   3.243   4.913
 3228SOL    HW110583   4.903   3.213   4.952
 3228SOL    HW210584   5.047   3.163   4.893
 3229SOL     OW10585   4.795   1.696   4.478
 3229SOL    HW110586   4.712   1.641   4.465
 3229SOL    HW210587   4.868   1.660   4.420
 3230SOL     OW10588   1.402   0.004   4.134
 3230SOL    HW110589   1.386   0.086   4.078
 3230SOL    HW210590   1.498   6.993   4.124
 3231SOL     OW10591   4.263   4.364   0.387
 3231SOL    HW110592   4.179   4.367   0.441
 3231SOL    HW210593   4.330   4.307   0.433
 3232SOL     OW10594   1.230   4.070   3.664
 3232SOL    HW110595   1.140   4.061   3.622
 3232SOL    HW210596   1.282   3.986   3.649
 3233SOL     OW10597   2.345   4.318   0.354
 3233SOL    HW110598   2.358   4.254   0.430
 3233SOL    HW210599   2.251   4.350   0.352
 3234SOL     OW10600   7.017   1.610   4.102
 3234SOL    HW110601   6.930   1.636   4.060
 3234SOL    HW210602   0.056   1.691   4.114
 3235SOL     OW10603   6.335   1.107   2.178
 3235SOL    HW110604   6.282   1.186   2.208
 3235SOL    HW210605   6.286   1.060   2.104
 3236SOL     OW10606   6.747   1.684   1.329
 3236SOL    HW110607   6.712   1.767   1.373
 3236SOL    HW210608   6.690   1.606   1.354
 3237SOL     OW10609   2.706   5.917   4.768
 3237SOL    HW110610   2.792   5.898   4.816
 3237SOL    HW210611   2.635   5.940   4.834
 3238SOL     OW10612   0.105   6.150   6.241
 3238SOL    HW110613   0.091   6.249   6.233
 3238SOL    HW210614   0.098   6.123   6.337
 3239SOL     OW10615   2.412   6.453   6.410
 3239SOL    HW110616   2.418   6.532   6.349
 3239SOL    HW210617   2.390   6.484   6.503
 3240SOL     OW10618   1.224   2.540   4.732
 3240SOL    HW110619   1.141   2.533   4.788
 3240SOL    HW210620   1.295   2.481   4.770
 3241SOL     OW10621   3.953   6.300   5.342
 3241SOL    HW110622   3.880   6.234   5.327
 3241SOL    HW210623   4.005   6.313   5.257
 3242SOL     OW10624   2.655   0.984   1.042
 3242SOL    HW110625   2.704   0.980   0.955
 3242SOL    HW210626   2.578   0.920   1.040
 3243SOL     OW10627   3.616   5.874   2.184
 3243SOL    HW110628   3.685   5.923   2.131
 3243SOL    HW210629   3.660   5.808   2.244
 3244SOL     OW10630   1.390   0.182   5.187
 3244SOL    HW110631   1.330   0.257   5.216
 3244SOL    HW210632   1.481   0.195   5.227
 3245SOL     OW10633   3.261   2.147   5.788
 3245SOL    HW110634   3.301   2.226   5.835
 3245SOL    HW210635   3.333   2.080   5.770
 3246SOL     OW10636   5.992   6.625   2.452
 3246SOL    HW110637   6.047   6.649   2.532
 3246SOL    HW210638   6.008   6.691   2.379
 3247SOL     OW10639   5.899   2.928   4.855
 3247SOL    HW110640   5.904   2.849   4.795
 3247SOL    HW210641   5.812   2.927   4.904
 3248SOL     OW10642   5.449   4.300   3.099
 3248SOL    HW110643   5.374   4.366   3.096
 3248SOL    HW210644   5.413   4.208   3.115
 3249SOL     OW10645   3.526   4.918   5.968
 3249SOL    HW110646   3.569   4.863   5.897
 3249SOL    HW210647   3.504   5.008   5.932
 3250SOL     OW10648   4.918   4.770   0.530
 3250SOL    HW110649   4.856   4.843   0.559
 3250SOL    HW210650   4.918   4.696   0.598
 3251SOL     OW10651   2.463   1.676   3.433
 3251SOL    HW110652   2.390   1.675   3.364
 3251SOL    HW210653   2.427   1.645   3.521
 3252SOL     OW10654   3.145   2.155   3.032
 3252SOL    HW110655   3.211   2.103   2.978
 3252SOL    HW210656   3.094   2.217   2.972
 3253SOL     OW10657   4.992   4.325   2.150
 3253SOL    HW110658   4.945   4.387   2.213
 3253SOL    HW210659   5.088   4.318   2.175
 3254SOL     OW10660   5.920   3.882   3.149
 3254SOL    HW110661   5.891   3.901   3.243
 3254SOL    HW210662   5.871   3.802   3.115
 3255SOL     OW10663   3.167   4.658   0.516
 3255SOL    HW110664   3.071   4.683   0.504
 3255SOL    HW210665   3.225   4.724   0.468
 3256SOL     OW10666   6.643   0.353   5.389
 3256SOL    HW110667   6.674   0.260   5.406
 3256SOL    HW210668   6.579   0.354   5.312
 3257SOL     OW10669   2.681   0.983   1.825
 3257SOL    HW110670   2.754   0.944   1.882
 3257SOL    HW210671   2.621   0.909   1.793
 3258SOL     OW10672   4.506   6.968   2.690
 3258SOL    HW110673   4.414   6.927   2.692
 3258SOL    HW210674   4.566   6.918   2.753
 3259SOL     OW10675   5.927   5.673   3.049
 3259SOL    HW110676   5.873   5.611   2.993
 3259SOL    HW210677   5.891   5.766   3.042
 3260SOL     OW10678   2.082   1.466   1.398
 3260SOL    HW110679   2.077   1.439   1.301
 3260SOL    HW210680   2.140   1.401   1.447
 3261SOL     OW10681   4.630   6.790   4.200
 3261SOL    HW110682   4.587   6.857   4.259
 3261SOL    HW210683   4.729   6.805   4.198
 3262SOL     OW10684   4.973   2.114   3.171
 3262SOL    HW110685   4.880   2.120   3.207
 3262SOL    HW210686   5.003   2.204   3.140
 3263SOL     OW10687   2.969   4.764   3.131
 3263SOL    HW110688   3.007   4.820   3.204
 3263SOL    HW210689   3.009   4.792   3.044
 3264SOL     OW10690   5.253   3.993   6.429
 3264SOL    HW110691   5.167   3.949   6.403
 3264SOL    HW210692   5.296   4.032   6.347
 3265SOL     OW10693   5.129   6.777   5.721
 3265SOL    HW110694   5.089   6.821   5.640
 3265SOL    HW210695   5.184   6.844   5.771
 3266SOL     OW10696   1.151   2.330   6.155
 3266SOL    HW110697   1.083   2.401   6.140
 3266SOL    HW210698   1.228   2.344   6.092
 3267SOL     OW10699   5.749   3.993   1.040
 3267SOL    HW110700   5.751   3.940   0.955
 3267SOL    HW210701   5.837   3.985   1.086
 3268SOL     OW10702   2.229   5.548   0.521
 3268SOL    HW110703   2.267   5.485   0.453
 3268SOL    HW210704   2.130   5.550   0.512
 3269SOL     OW10705   4.378   2.991   1.250
 3269SOL    HW110706   4.398   2.940   1.166
 3269SOL    HW210707   4.295   3.046   1.237
 3270SOL     OW10708   6.694   5.498   3.050
 3270SOL    HW110709   6.693   5.424   3.116
 3270SOL    HW210710   6.600   5.524   3.027
 3271SOL     OW10711   4.829   6.975   0.745
 3271SOL    HW110712   4.762   6.982   0.819
 3271SOL    HW210713   4.792   0.001   0.663
 3272SOL     OW10714   4.420   5.954   5.758
 3272SOL    HW110715   4.447   5.859   5.748
 3272SOL    HW210716   4.387   5.989   5.670
 3273SOL     OW10717   0.046   6.948   3.258
 3273SOL    HW110718   6.995   6.978   3.192
 3273SOL    HW210719   0.133   6.991   3.237
 3274SOL     OW10720   3.109   0.602   1.718
 3274SOL    HW110721   3.140   0.586   1.812
 3274SOL    HW210722   3.046   0.529   1.690
 3275SOL     OW10723   4.458   0.735   6.183
 3275SOL    HW110724   4.390   0.683   6.131
 3275SOL    HW210725   4.427   0.830   6.193
 3276SOL     OW10726   1.945   5.291   1.502
 3276SOL    HW110727   1.848   5.313   1.504
 3276SOL    HW210728   1.958   5.195   1.478
 3277SOL     OW10729   0.203   6.111   6.614
 3277SOL    HW110730   0.299   6.122   6.639
 3277SOL    HW210731   0.152   6.191   6.645
 3278SOL     OW10732   1.057   6.811   0.284
 3278SOL    HW110733   1.152   6.780   0.276
 3278SOL    HW210734   1.027   6.848   0.196
 3279SOL     OW10735   2.255   6.514   1.589
 3279SOL    HW110736   2.273   6.427   1.544
 3279SOL    HW210737   2.297   6.516   1.679
 3280SOL     OW10738   2.851   5.687   3.311
 3280SOL    HW110739   2.908   5.635   3.247
 3280SOL    HW210740   2.904   5.764   3.348
 3281SOL     OW10741   1.564   6.937   1.116
 3281SOL    HW110742   1.599   6.880   1.042
 3281SOL    HW210743   1.532   6.879   1.191
 3282SOL     OW10744   1.703   4.620   1.972
 3282SOL    HW110745   1.627   4.575   1.926
 3282SOL    HW210746   1.694   4.608   2.071
 3283SOL     OW10747   1.379   0.640   2.979
 3283SOL    HW110748   1.320   0.620   2.901
 3283SOL    HW210749   1.457   0.695   2.949
 3284SOL     OW10750   2.167   5.957   5.530
 3284SOL    HW110751   2.207   5.960   5.438
 3284SOL    HW210752   2.095   5.888   5.533
 3285SOL     OW10753   0.502   3.481   4.108
 3285SOL    HW110754   0.513   3.568   4.157
 3285SOL    HW210755   0.484   3.500   4.011
 3286SOL     OW10756   4.910   4.679   6.816
 3286SOL    HW110757   4.883   4.594   6.863
 3286SOL    HW210758   4.832   4.741   6.812
 3287SOL     OW10759   0.568   2.359   1.126
 3287SOL    HW110760   0.560   2.274   1.177
 3287SOL    HW210761   0.540   2.345   1.031
 3288SOL     OW10762   0.648   0.100   0.434
 3288SOL    HW110763   0.614   0.122   0.343
 3288SOL    HW210764   0.627   0.005   0.456
 3289SOL     OW10765   1.508   0.433   3.785
 3289SOL    HW110766   1.469   0.437   3.693
 3289SOL    HW210767   1.603   0.403   3.779
 3290SOL     OW10768   6.603   4.877   4.426
 3290SOL    HW110769   6.648   4.806   4.481
 3290SOL    HW210770   6.575   4.952   4.486
 3291SOL     OW10771   1.200   1.745   1.817
 3291SOL    HW110772   1.202   1.647   1.841
 3291SOL    HW210773   1.270   1.794   1.869
 3292SOL     OW10774   1.102   6.934   4.222
 3292SOL    HW110775   1.116   0.015   4.212
 3292SOL    HW210776   1.105   6.911   4.320
 3293SOL     OW10777   5.767   0.632   2.856
 3293SOL    HW110778   5.834   0.706   2.855
 3293SOL    HW210779   5.676   0.669   2.839
 3294SOL     OW10780   6.912   6.578   1.507
 3294SOL    HW110781   6.892   6.556   1.412
 3294SOL    HW210782   6.840   6.638   1.543
 3295SOL     OW10783   2.742   3.153   6.122
 3295SOL    HW110784   2.706   3.061   6.136
 3295SOL    HW210785   2.704   3.215   6.191
 3296SOL     OW10786   0.841   7.007   1.584
 3296SOL    HW110787   0.757   6.976   1.539
 3296SOL    HW210788   0.899   6.929   1.605
 3297SOL     OW10789   3.476   0.374   5.665
 3297SOL    HW110790   3.479   0.350   5.568
 3297SOL    HW210791   3.458   0.472   5.675
 3298SOL     OW10792   0.216   5.451   3.314
 3298SOL    HW110793   0.246   5.502   3.234
 3298SOL    HW210794   0.130   5.405   3.294
 3299SOL     OW10795   2.029   1.323   4.438
 3299SOL    HW110796   1.930   1.333   4.438
 3299SOL    HW210797   2.072   1.409   4.411
 3300SOL     OW10798   0.743   0.132   5.001
 3300SOL    HW110799   0.769   0.102   4.909
 3300SOL    HW210800   0.764   0.229   5.011
 3301SOL     OW10801   6.267   4.004   2.210
 3301SOL    HW110802   6.348   4.053   2.241
 3301SOL    HW210803   6.262   3.915   2.256
 3302SOL     OW10804   1.547   5.404   5.861
 3302SOL    HW110805   1.565   5.483   5.921
 3302SOL    HW210806   1.564   5.320   5.912
 3303SOL     OW10807   3.279   3.492   5.288
 3303SOL    HW110808   3.365   3.446   5.310
 3303SOL    HW210809   3.237   3.527   5.371
 3304SOL     OW10810   1.644   0.686   4.068
 3304SOL    HW110811   1.699   0.769   4.063
 3304SOL    HW210812   1.700   0.607   4.043
 3305SOL     OW10813   1.111   2.301   0.376
 3305SOL    HW110814   1.037   2.331   0.437
 3305SOL    HW210815   1.199   2.327   0.416
 3306SOL     OW10816   1.172   1.347   0.832
 3306SOL    HW110817   1.261   1.333   0.875
 3306SOL    HW210818   1.119   1.262   0.838
 3307SOL     OW10819   0.332   6.577   6.992
 3307SOL    HW110820   0.375   6.667   6.992
 3307SOL    HW210821   0.366   6.523   0.051
 3308SOL     OW10822   5.821   5.865   0.283
 3308SOL    HW110823   5.869   5.952   0.273
 3308SOL    HW210824   5.880   5.791   0.253
 3309SOL     OW10825   0.323   4.659   1.840
 3309SOL    HW110826   0.412   4.618   1.823
 3309SOL    HW210827   0.327   4.715   1.923
 3310SOL     OW10828   2.224   6.458   2.282
 3310SOL    HW110829   2.180   6.517   2.349
 3310SOL    HW210830   2.170   6.458   2.197
 3311SOL     OW10831   4.445   5.462   0.765
 3311SOL    HW110832   4.369   5.522   0.788
 3311SOL    HW210833   4.501   5.446   0.847
 3312SOL     OW10834   1.860   2.733   5.821
 3312SOL    HW110835   1.826   2.814   5.868
 3312SOL    HW210836   1.959   2.739   5.810
 3313SOL     OW10837   5.498   6.511   4.935
 3313SOL    HW110838   5.551   6.582   4.891
 3313SOL    HW210839   5.558   6.453   4.991
 3314SOL     OW10840   1.085   3.686   6.494
 3314SOL    HW110841   1.051   3.711   6.404
 3314SOL    HW210842   1.025   3.724   6.564
 3315SOL     OW10843   6.418   3.335   3.532
 3315SOL    HW110844   6.501   3.330   3.589
 3315SOL    HW210845   6.412   3.425   3.490
 3316SOL     OW10846   3.451   0.540   6.404
 3316SOL    HW110847   3.476   0.600   6.481
 3316SOL    HW210848   3.381   0.584   6.349
 3317SOL     OW10849   6.191   2.964   1.188
 3317SOL    HW110850   6.190   2.883   1.129
 3317SOL    HW210851   6.097   2.987   1.214
 3318SOL     OW10852   2.495   4.925   6.579
 3318SOL    HW110853   2.411   4.875   6.602
 3318SOL    HW210854   2.483   5.022   6.599
 3319SOL     OW10855   0.968   6.029   6.300
 3319SOL    HW110856   0.992   6.033   6.397
 3319SOL    HW210857   1.025   5.961   6.254
 3320SOL     OW10858   1.035   0.564   1.045
 3320SOL    HW110859   0.993   0.552   1.135
 3320SOL    HW210860   1.118   0.508   1.039
 3321SOL     OW10861   3.638   3.990   4.246
 3321SOL    HW110862   3.695   4.022   4.171
 3321SOL    HW210863   3.605   3.898   4.225
 3322SOL     OW10864   5.068   3.891   2.796
 3322SOL    HW110865   4.976   3.852   2.792
 3322SOL    HW210866   5.100   3.912   2.704
 3323SOL     OW10867   1.576   4.182   0.592
 3323SOL    HW110868   1.593   4.250   0.663
 3323SOL    HW210869   1.661   4.164   0.542
 3324SOL     OW10870   6.294   3.292   1.794
 3324SOL    HW110871   6.320   3.202   1.758
 3324SOL    HW210872   6.206   3.286   1.840
 3325SOL     OW10873   1.247   4.778   5.833
 3325SOL    HW110874   1.170   4.836   5.860
 3325SOL    HW210875   1.279   4.725   5.911
 3326SOL     OW10876   4.532   6.871   2.284
 3326SOL    HW110877   4.449   6.907   2.327
 3326SOL    HW210878   4.529   6.890   2.186
 3327SOL     OW10879   5.252   5.963   1.768
 3327SOL    HW110880   5.179   6.026   1.743
 3327SOL    HW210881   5.255   5.952   1.867
 3328SOL     OW10882   6.483   6.005   3.389
 3328SOL    HW110883   6.556   5.954   3.437
 3328SOL    HW210884   6.396   5.959   3.403
 3329SOL     OW10885   5.526   0.185   6.057
 3329SOL    HW110886   5.442   0.234   6.031
 3329SOL    HW210887   5.603   0.220   6.004
 3330SOL     OW10888   5.974   0.415   3.572
 3330SOL    HW110889   5.916   0.364   3.637
 3330SOL    HW210890   5.957   0.381   3.479
 3331SOL     OW10891   0.053   3.189   2.222
 3331SOL    HW110892   0.062   3.131   2.141
 3331SOL    HW210893   0.120   3.161   2.291
 3332SOL     OW10894   4.562   5.108   1.318
 3332SOL    HW110895   4.642   5.131   1.375
 3332SOL    HW210896   4.591   5.048   1.243
 3333SOL     OW10897   2.267   3.899   0.896
 3333SOL    HW110898   2.320   3.850   0.966
 3333SOL    HW210899   2.317   3.979   0.865
 3334SOL     OW10900   2.082   2.920   2.138
 3334SOL    HW110901   2.040   2.938   2.049
 3334SOL    HW210902   2.111   3.006   2.179
 3335SOL     OW10903   4.558   4.133   6.861
 3335SOL    HW110904   4.640   4.117   6.806
 3335SOL    HW210905   4.477   4.111   6.806
 3336SOL     OW10906   3.500   5.647   5.974
 3336SOL    HW110907   3.442   5.711   5.926
 3336SOL    HW210908   3.510   5.676   6.069
 3337SOL     OW10909   3.150   4.007   4.233
 3337SOL    HW110910   3.092   4.031   4.311
 3337SOL    HW210911   3.216   4.079   4.217
 3338SOL     OW10912   3.380   2.844   1.654
 3338SOL    HW110913   3.280   2.841   1.658
 3338SOL    HW210914   3.410   2.939   1.644
 3339SOL     OW10915   0.716   0.175   5.948
 3339SOL    HW110916   0.690   0.243   5.880
 3339SOL    HW210917   0.635   0.124   5.977
 3340SOL     OW10918   4.954   1.763   6.649
 3340SOL    HW110919   5.008   1.805   6.723
 3340SOL    HW210920   4.991   1.791   6.561
 3341SOL     OW10921   1.195   3.565   1.518
 3341SOL    HW110922   1.146   3.651   1.536
 3341SOL    HW210923   1.245   3.573   1.431
 3342SOL     OW10924   5.916   0.277   3.341
 3342SOL    HW110925   5.992   0.213   3.353
 3342SOL    HW210926   5.890   0.280   3.244
 3343SOL     OW10927   3.514   5.040   0.454
 3343SOL    HW110928   3.590   5.089   0.412
 3343SOL    HW210929   3.517   4.944   0.427
 3344SOL     OW10930   1.861   3.600   0.884
 3344SOL    HW110931   1.888   3.548   0.803
 3344SOL    HW210932   1.938   3.655   0.916
 3345SOL     OW10933   4.603   4.821   0.955
 3345SOL    HW110934   4.620   4.864   0.867
 3345SOL    HW210935   4.514   4.776   0.954
 3346SOL     OW10936   0.772   0.612   0.373
 3346SOL    HW110937   0.842   0.615   0.301
 3346SOL    HW210938   0.726   0.701   0.379
 3347SOL     OW10939   0.759   3.123   5.887
 3347SOL    HW110940   0.778   3.201   5.947
 3347SOL    HW210941   0.843   3.072   5.873
 3348SOL     OW10942   3.144   4.214   5.741
 3348SOL    HW110943   3.062   4.237   5.793
 3348SOL    HW210944   3.218   4.191   5.804
 3349SOL     OW10945   2.424   5.275   1.558
 3349SOL    HW110946   2.500   5.340   1.552
 3349SOL    HW210947   2.378   5.287   1.646
 3350SOL     OW10948   3.143   5.359   4.076
 3350SOL    HW110949   3.205   5.282   4.092
 3350SOL    HW210950   3.197   5.439   4.050
 3351SOL     OW10951   4.516   0.102   2.073
 3351SOL    HW110952   4.527   0.006   2.046
 3351SOL    HW210953   4.470   0.152   2.000
 3352SOL     OW10954   6.100   0.970   0.691
 3352SOL    HW110955   6.002   0.967   0.672
 3352SOL    HW210956   6.137   0.877   0.687
 3353SOL     OW10957   4.529   0.645   5.725
 3353SOL    HW110958   4.581   0.568   5.762
 3353SOL    HW210959   4.592   0.721   5.705
 3354SOL     OW10960   3.631   1.628   0.514
 3354SOL    HW110961   3.648   1.720   0.547
 3354SOL    HW210962   3.533   1.616   0.495
 3355SOL     OW10963   0.915   2.142   5.917
 3355SOL    HW110964   0.973   2.215   5.882
 3355SOL    HW210965   0.939   2.125   6.013
 3356SOL     OW10966   2.665   0.149   5.316
 3356SOL    HW110967   2.689   0.235   5.360
 3356SOL    HW210968   2.679   0.156   5.217
 3357SOL     OW10969   3.008   3.445   4.395
 3357SOL    HW110970   2.964   3.397   4.471
 3357SOL    HW210971   3.036   3.536   4.426
 3358SOL     OW10972   6.764   2.156   1.593
 3358SOL    HW110973   6.723   2.247   1.585
 3358SOL    HW210974   6.856   2.158   1.555
 3359SOL     OW10975   0.637   6.710   3.375
 3359SOL    HW110976   0.694   6.792   3.381
 3359SOL    HW210977   0.683   6.642   3.318
 3360SOL     OW10978   1.540   5.525   5.004
 3360SOL    HW110979   1.518   5.497   4.910
 3360SOL    HW210980   1.579   5.447   5.053
 3361SOL     OW10981   0.724   0.003   4.725
 3361SOL    HW110982   0.771   0.087   4.697
 3361SOL    HW210983   0.685   6.975   4.645
 3362SOL     OW10984   3.117   0.442   5.507
 3362SOL    HW110985   3.102   0.347   5.533
 3362SOL    HW210986   3.037   0.497   5.533
 3363SOL     OW10987   5.198   3.304   0.733
 3363SOL    HW110988   5.115   3.336   0.687
 3363SOL    HW210989   5.196   3.333   0.829
 3364SOL     OW10990   2.159   2.869   1.177
 3364SOL    HW110991   2.139   2.920   1.093
 3364SOL    HW210992   2.102   2.904   1.252
 3365SOL     OW10993   0.516   2.997   2.572
 3365SOL    HW110994   0.420   2.985   2.599
 3365SOL    HW210995   0.573   3.004   2.654
 3366SOL     OW10996   5.847   3.251   3.289
 3366SOL    HW110997   5.832   3.305   3.372
 3366SOL    HW210998   5.911   3.299   3.229
 3367SOL     OW10999   3.174   3.340   3.439
 3367SOL    HW111000   3.234   3.408   3.480
 3367SOL    HW211001   3.106   3.310   3.506
 3368SOL     OW11002   1.587   1.096   3.493
 3368SOL    HW111003   1.591   1.185   3.538
 3368SOL    HW211004   1.650   1.033   3.539
 3369SOL     OW11005   6.226   2.763   0.602
 3369SOL    HW111006   6.202   2.700   0.528
 3369SOL    HW211007   6.307   2.816   0.574
 3370SOL     OW11008   0.093   5.959   3.940
 3370SOL    HW111009   0.168   5.945   3.875
 3370SOL    HW211010   0.040   5.875   3.948
 3371SOL     OW11011   3.111   2.764   1.614
 3371SOL    HW111012   3.052   2.824   1.668
 3371SOL    HW211013   3.096   2.669   1.641
 3372SOL     OW11014   5.382   2.993   3.557
 3372SOL    HW111015   5.350   2.904   3.588
 3372SOL    HW211016   5.462   2.981   3.498
 3373SOL     OW11017   1.046   4.823   0.840
 3373SOL    HW111018   1.105   4.848   0.763
 3373SOL    HW211019   1.045   4.724   0.850
 3374SOL     OW11020   1.054   5.487   3.905
 3374SOL    HW111021   0.986   5.558   3.925
 3374SOL    HW211022   1.031   5.442   3.819
 3375SOL     OW11023   6.605   0.121   5.783
 3375SOL    HW111024   6.630   0.215   5.757
 3375SOL    HW211025   6.657   0.095   5.864
 3376SOL     OW11026   3.437   3.977   5.122
 3376SOL    HW111027   3.501   3.936   5.057
 3376SOL    HW211028   3.472   4.066   5.151
 3377SOL     OW11029   6.258   5.536   4.744
 3377SOL    HW111030   6.330   5.472   4.774
 3377SOL    HW211031   6.226   5.509   4.654
 3378SOL     OW11032   1.110   6.113   0.070
 3378SOL    HW111033   1.189   6.153   0.024
 3378SOL    HW211034   1.106   6.147   0.164
 3379SOL     OW11035   5.525   4.923   3.996
 3379SOL    HW111036   5.431   4.952   3.978
 3379SOL    HW211037   5.558   4.967   4.080
 3380SOL     OW11038   1.373   4.633   2.087
 3380SOL    HW111039   1.376   4.593   2.178
 3380SOL    HW211040   1.292   4.692   2.080
 3381SOL     OW11041   3.409   4.583   6.892
 3381SOL    HW111042   3.504   4.605   6.914
 3381SOL    HW211043   3.355   4.667   6.889
 3382SOL     OW11044   0.553   3.774   6.649
 3382SOL    HW111045   0.569   3.689   6.597
 3382SOL    HW211046   0.546   3.752   6.746
 3383SOL     OW11047   3.821   5.976   0.226
 3383SOL    HW111048   3.835   6.070   0.256
 3383SOL    HW211049   3.874   5.914   0.284
 3384SOL     OW11050   3.140   2.626   6.520
 3384SOL    HW111051   3.151   2.554   6.589
 3384SOL    HW211052   3.127   2.584   6.430
 3385SOL     OW11053   5.896   1.952   4.635
 3385SOL    HW111054   5.935   2.022   4.574
 3385SOL    HW211055   5.858   1.878   4.580
 3386SOL     OW11056   6.801   4.709   5.076
 3386SOL    HW111057   6.807   4.800   5.035
 3386SOL    HW211058   6.746   4.713   5.159
 3387SOL     OW11059   6.362   0.679   3.090
 3387SOL    HW111060   6.311   0.738   3.028
 3387SOL    HW211061   6.354   0.713   3.183
 3388SOL     OW11062   1.178   3.968   0.819
 3388SOL    HW111063   1.127   4.029   0.758
 3388SOL    HW211064   1.276   3.976   0.800
 3389SOL     OW11065   6.480   5.209   5.816
 3389SOL    HW111066   6.493   5.111   5.832
 3389SOL    HW211067   6.533   5.237   5.736
 3390SOL     OW11068   2.980   4.394   0.918
 3390SOL    HW111069   3.029   4.402   0.831
 3390SOL    HW211070   2.887   4.430   0.908
 3391SOL     OW11071   5.429   4.226   5.328
 3391SOL    HW111072   5.481   4.282   5.392
 3391SOL    HW211073   5.349   4.188   5.374
 3392SOL     OW11074   4.815   5.366   5.633
 3392SOL    HW111075   4.863   5.303   5.694
 3392SOL    HW211076   4.874   5.444   5.612
 3393SOL     OW11077   3.186   0.902   0.532
 3393SOL    HW111078   3.168   0.863   0.442
 3393SOL    HW211079   3.211   0.829   0.596
 3394SOL     OW11080   3.069   5.806   1.719
 3394SOL    HW111081   3.041   5.780   1.811
 3394SOL    HW211082   2.987   5.825   1.664
 3395SOL     OW11083   1.557   5.927   2.931
 3395SOL    HW111084   1.608   5.849   2.895
 3395SOL    HW211085   1.557   5.923   3.031
 3396SOL     OW11086   3.669   6.972   4.368
 3396SOL    HW111087   3.679   6.894   4.306
 3396SOL    HW211088   3.746   6.976   4.431
 3397SOL     OW11089   3.367   6.022   2.191
 3397SOL    HW111090   3.371   6.073   2.277
 3397SOL    HW211091   3.444   5.959   2.186
 3398SOL     OW11092   6.431   0.155   1.130
 3398SOL    HW111093   6.377   0.072   1.142
 3398SOL    HW211094   6.527   0.136   1.154
 3399SOL     OW11095   6.307   6.336   2.506
 3399SOL    HW111096   6.354   6.423   2.519
 3399SOL    HW211097   6.354   6.265   2.558
 3400SOL     OW11098   3.552   3.010   5.658
 3400SOL    HW111099   3.501   2.998   5.743
 3400SOL    HW211100   3.497   3.064   5.594
 3401SOL     OW11101   6.288   3.756   3.855
 3401SOL    HW111102   6.253   3.810   3.931
 3401SOL    HW211103   6.288   3.659   3.880
 3402SOL     OW11104   6.669   4.200   0.066
 3402SOL    HW111105   6.658   4.153   6.996
 3402SOL    HW211106   6.755   4.170   0.109
 3403SOL     OW11107   5.406   6.919   3.711
 3403SOL    HW111108   5.503   6.904   3.730
 3403SOL    HW211109   5.355   6.916   3.797
 3404SOL     OW11110   5.185   4.704   2.752
 3404SOL    HW111111   5.259   4.650   2.711
 3404SOL    HW211112   5.124   4.737   2.680
 3405SOL     OW11113   4.793   0.007   0.462
 3405SOL    HW111114   4.788   6.974   0.376
 3405SOL    HW211115   4.849   0.088   0.450
 3406SOL     OW11116   4.765   4.719   1.400
 3406SOL    HW111117   4.765   4.659   1.481
 3406SOL    HW211118   4.805   4.807   1.424
 3407SOL     OW11119   2.451   1.664   0.692
 3407SOL    HW111120   2.549   1.664   0.673
 3407SOL    HW211121   2.436   1.638   0.788
 3408SOL     OW11122   2.610   6.689   4.649
 3408SOL    HW111123   2.617   6.756   4.575
 3408SOL    HW211124   2.684   6.705   4.714
 3409SOL     OW11125   4.813   1.979   0.027
 3409SOL    HW111126   4.757   1.930   6.978
 3409SOL    HW211127   4.839   2.068   7.007
 3410SOL     OW11128   6.178   1.802   2.257
 3410SOL    HW111129   6.266   1.840   2.228
 3410SOL    HW211130   6.107   1.872   2.250
 3411SOL     OW11131   5.530   3.800   6.528
 3411SOL    HW111132   5.446   3.851   6.543
 3411SOL    HW211133   5.556   3.753   6.612
 3412SOL     OW11134   4.816   3.836   2.782
 3412SOL    HW111135   4.779   3.929   2.776
 3412SOL    HW211136   4.833   3.812   2.877
 3413SOL     OW11137   1.435   2.621   0.706
 3413SOL    HW111138   1.374   2.650   0.780
 3413SOL    HW211139   1.505   2.559   0.742
 3414SOL     OW11140   3.486   3.333   1.861
 3414SOL    HW111141   3.508   3.395   1.785
 3414SOL    HW211142   3.554   3.343   1.933
 3415SOL     OW11143   2.698   0.921   6.957
 3415SOL    HW111144   2.694   0.887   0.033
 3415SOL    HW211145   2.792   0.922   6.925
 3416SOL     OW11146   5.280   6.277   6.476
 3416SOL    HW111147   5.189   6.242   6.456
 3416SOL    HW211148   5.347   6.233   6.416
 3417SOL     OW11149   6.089   0.362   2.925
 3417SOL    HW111150   6.146   0.419   2.866
 3417SOL    HW211151   6.091   0.398   3.019
 3418SOL     OW11152   4.578   5.780   1.013
 3418SOL    HW111153   4.667   5.738   1.034
 3418SOL    HW211154   4.592   5.865   0.963
 3419SOL     OW11155   2.741   4.742   5.356
 3419SOL    HW111156   2.774   4.699   5.272
 3419SOL    HW211157   2.684   4.677   5.406
 3420SOL     OW11158   5.197   0.396   2.609
 3420SOL    HW111159   5.247   0.460   2.550
 3420SOL    HW211160   5.099   0.411   2.597
 3421SOL     OW11161   0.535   1.505   4.349
 3421SOL    HW111162   0.605   1.447   4.391
 3421SOL    HW211163   0.521   1.477   4.255
 3422SOL     OW11164   3.167   5.202   1.529
 3422SOL    HW111165   3.152   5.106   1.506
 3422SOL    HW211166   3.111   5.261   1.470
 3423SOL     OW11167   1.649   5.674   5.556
 3423SOL    HW111168   1.686   5.707   5.469
 3423SOL    HW211169   1.622   5.578   5.547
 3424SOL     OW11170   6.019   5.479   2.689
 3424SOL    HW111171   6.054   5.443   2.775
 3424SOL    HW211172   6.049   5.574   2.678
 3425SOL     OW11173   5.653   3.135   6.370
 3425SOL    HW111174   5.709   3.213   6.394
 3425SOL    HW211175   5.615   3.147   6.278
 3426SOL     OW11176   6.559   5.508   5.830
 3426SOL    HW111177   6.625   5.468   5.768
 3426SOL    HW211178   6.541   5.445   5.906
 3427SOL     OW11179   1.442   1.088   6.699
 3427SOL    HW111180   1.490   1.059   6.616
 3427SOL    HW211181   1.352   1.044   6.703
 3428SOL     OW11182   4.074   1.106   3.916
 3428SOL    HW111183   3.980   1.077   3.932
 3428SOL    HW211184   4.088   1.120   3.818
 3429SOL     OW11185   5.319   5.395   0.129
 3429SOL    HW111186   5.271   5.317   0.169
 3429SOL    HW211187   5.259   5.475   0.130
 3430SOL     OW11188   2.883   4.380   6.775
 3430SOL    HW111189   2.914   4.375   6.870
 3430SOL    HW211190   2.958   4.415   6.718
 3431SOL     OW11191   1.424   3.824   1.697
 3431SOL    HW111192   1.438   3.885   1.619
 3431SOL    HW211193   1.350   3.860   1.754
 3432SOL     OW11194   6.655   5.515   6.340
 3432SOL    HW111195   6.750   5.484   6.348
 3432SOL    HW211196   6.621   5.544   6.430
 3433SOL     OW11197   0.535   1.056   0.189
 3433SOL    HW111198   0.530   0.981   0.124
 3433SOL    HW211199   0.444   1.096   0.201
 3434SOL     OW11200   4.112   2.868   1.574
 3434SOL    HW111201   4.040   2.910   1.519
 3434SOL    HW211202   4.076   2.787   1.620
 3435SOL     OW11203   3.030   2.607   1.223
 3435SOL    HW111204   2.998   2.530   1.278
 3435SOL    HW211205   2.961   2.679   1.224
 3436SOL     OW11206   4.527   5.367   5.196
 3436SOL    HW111207   4.457   5.354   5.126
 3436SOL    HW211208   4.486   5.416   5.274
 3437SOL     OW11209   2.815   5.562   0.619
 3437SOL    HW111210   2.762   5.483   0.649
 3437SOL    HW211211   2.768   5.606   0.543
 3438SOL     OW11212   2.722   4.257   0.554
 3438SOL    HW111213   2.758   4.186   0.615
 3438SOL    HW211214   2.624   4.268   0.570
 3439SOL     OW11215   2.850   5.705   0.855
 3439SOL    HW111216   2.825   5.636   0.923
 3439SOL    HW211217   2.846   5.664   0.764
 3440SOL     OW11218   4.172   5.030   5.407
 3440SOL    HW111219   4.212   4.974   5.480
 3440SOL    HW211220   4.193   4.989   5.318
 3441SOL     OW11221   0.213   5.675   5.667
 3441SOL    HW111222   0.257   5.688   5.578
 3441SOL    HW211223   0.280   5.689   5.739
 3442SOL     OW11224   2.050   1.771   0.548
 3442SOL    HW111225   1.977   1.803   0.608
 3442SOL    HW211226   2.126   1.837   0.551
 3443SOL     OW11227   6.640   5.538   2.055
 3443SOL    HW111228   6.622   5.560   2.151
 3443SOL    HW211229   6.729   5.493   2.048
 3444SOL     OW11230   1.415   3.818   5.670
 3444SOL    HW111231   1.479   3.894   5.666
 3444SOL    HW211232   1.456   3.738   5.625
 3445SOL     OW11233   5.858   4.818   4.128
 3445SOL    HW111234   5.843   4.849   4.034
 3445SOL    HW211235   5.952   4.784   4.138
 3446SOL     OW11236   5.549   1.540   6.884
 3446SOL    HW111237   5.596   1.451   6.876
 3446SOL    HW211238   5.467   1.539   6.828
 3447SOL     OW11239   5.574   1.743   6.239
 3447SOL    HW111240   5.560   1.684   6.159
 3447SOL    HW211241   5.621   1.827   6.210
 3448SOL     OW11242   1.231   5.616   4.822
 3448SOL    HW111243   1.135   5.595   4.809
 3448SOL    HW211244   1.268   5.658   4.739
 3449SOL     OW11245   1.284   4.485   4.495
 3449SOL    HW111246   1.376   4.516   4.517
 3449SOL    HW211247   1.219   4.560   4.509
 3450SOL     OW11248   1.828   6.387   3.012
 3450SOL    HW111249   1.763   6.423   3.079
 3450SOL    HW211250   1.778   6.333   2.944
 3451SOL     OW11251   2.455   1.842   1.457
 3451SOL    HW111252   2.537   1.794   1.427
 3451SOL    HW211253   2.374   1.788   1.433
 3452SOL     OW11254   4.413   1.182   5.252
 3452SOL    HW111255   4.387   1.086   5.264
 3452SOL    HW211256   4.513   1.189   5.253
 3453SOL     OW11257   4.421   6.684   5.606
 3453SOL    HW111258   4.398   6.591   5.635
 3453SOL    HW211259   4.474   6.681   5.521
 3454SOL     OW11260   1.240   3.536   3.903
 3454SOL    HW111261   1.261   3.438   3.902
 3454SOL    HW211262   1.325   3.588   3.905
 3455SOL     OW11263   1.603   3.614   5.899
 3455SOL    HW111264   1.670   3.592   5.970
 3455SOL    HW211265   1.603   3.542   5.830
 3456SOL     OW11266   4.752   5.026   2.928
 3456SOL    HW111267   4.774   4.981   2.842
 3456SOL    HW211268   4.831   5.079   2.959
 3457SOL     OW11269   3.973   3.984   0.368
 3457SOL    HW111270   3.932   4.040   0.439
 3457SOL    HW211271   3.915   3.905   0.350
 3458SOL     OW11272   3.963   1.835   1.099
 3458SOL    HW111273   3.938   1.780   1.019
 3458SOL    HW211274   3.891   1.901   1.118
 3459SOL     OW11275   6.584   0.969   2.933
 3459SOL    HW111276   6.498   1.006   2.969
 3459SOL    HW211277   6.661   1.017   2.975
 3460SOL     OW11278   4.933   1.867   5.150
 3460SOL    HW111279   4.997   1.917   5.209
 3460SOL    HW211280   4.976   1.782   5.120
 3461SOL     OW11281   4.856   4.323   4.741
 3461SOL    HW111282   4.860   4.323   4.641
 3461SOL    HW211283   4.860   4.229   4.775
 3462SOL     OW11284   1.481   4.043   0.011
 3462SOL    HW111285   1.484   4.017   0.108
 3462SOL    HW211286   1.446   3.966   6.975
 3463SOL     OW11287   6.579   3.296   6.626
 3463SOL    HW111288   6.522   3.252   6.556
 3463SOL    HW211289   6.524   3.320   6.705
 3464SOL     OW11290   0.392   5.102   4.645
 3464SOL    HW111291   0.296   5.130   4.639
 3464SOL    HW211292   0.405   5.016   4.595
 3465SOL     OW11293   0.979   2.750   1.230
 3465SOL    HW111294   1.010   2.834   1.185
 3465SOL    HW211295   0.879   2.749   1.230
 3466SOL     OW11296   4.948   4.193   3.236
 3466SOL    HW111297   4.895   4.124   3.187
 3466SOL    HW211298   5.009   4.149   3.302
 3467SOL     OW11299   1.931   1.323   6.072
 3467SOL    HW111300   1.865   1.277   6.132
 3467SOL    HW211301   1.897   1.321   5.978
 3468SOL     OW11302   5.689   4.948   1.775
 3468SOL    HW111303   5.689   4.891   1.856
 3468SOL    HW211304   5.775   4.999   1.770
 3469SOL     OW11305   5.919   3.404   0.655
 3469SOL    HW111306   5.845   3.355   0.701
 3469SOL    HW211307   5.999   3.344   0.648
 3470SOL     OW11308   6.241   5.838   6.532
 3470SOL    HW111309   6.174   5.863   6.462
 3470SOL    HW211310   6.200   5.849   6.622
 3471SOL     OW11311   3.612   6.693   4.256
 3471SOL    HW111312   3.608   6.597   4.284
 3471SOL    HW211313   3.535   6.743   4.295
 3472SOL     OW11314   3.423   0.753   3.988
 3472SOL    HW111315   3.419   0.822   3.915
 3472SOL    HW211316   3.514   0.711   3.988
 3473SOL     OW11317   5.061   6.765   3.501
 3473SOL    HW111318   5.138   6.746   3.439
 3473SOL    HW211319   5.002   6.835   3.461
 3474SOL     OW11320   5.859   5.191   0.574
 3474SOL    HW111321   5.884   5.224   0.483
 3474SOL    HW211322   5.818   5.265   0.626
 3475SOL     OW11323   1.865   5.800   4.987
 3475SOL    HW111324   1.911   5.877   4.942
 3475SOL    HW211325   1.848   5.727   4.921
 3476SOL     OW11326   2.715   2.056   3.121
 3476SOL    HW111327   2.752   2.092   3.207
 3476SOL    HW211328   2.615   2.060   3.123
 3477SOL     OW11329   4.853   5.449   2.183
 3477SOL    HW111330   4.914   5.445   2.104
 3477SOL    HW211331   4.907   5.462   2.267
 3478SOL     OW11332   3.666   5.177   0.275
 3478SOL    HW111333   3.701   5.177   0.181
 3478SOL    HW211334   3.728   5.231   0.333
 3479SOL     OW11335   2.071   0.723   0.579
 3479SOL    HW111336   1.997   0.756   0.520
 3479SOL    HW211337   2.125   0.801   0.611
 3480SOL     OW11338   1.801   6.609   4.510
 3480SOL    HW111339   1.838   6.698   4.487
 3480SOL    HW211340   1.824   6.543   4.438
 3481SOL     OW11341   1.783   4.454   0.560
 3481SOL    HW111342   1.774   4.355   0.554
 3481SOL    HW211343   1.813   4.479   0.652
 3482SOL     OW11344   7.000   2.135   1.443
 3482SOL    HW111345   6.967   2.066   1.379
 3482SOL    HW211346   6.994   2.226   1.401
 3483SOL     OW11347   4.228   1.819   1.172
 3483SOL    HW111348   4.130   1.820   1.155
 3483SOL    HW211349   4.248   1.872   1.254
 3484SOL     OW11350   3.353   4.153   3.636
 3484SOL    HW111351   3.405   4.069   3.642
 3484SOL    HW211352   3.297   4.164   3.719
 3485SOL     OW11353   6.215   2.735   3.805
 3485SOL    HW111354   6.245   2.826   3.834
 3485SOL    HW211355   6.164   2.691   3.879
 3486SOL     OW11356   6.187   1.703   2.677
 3486SOL    HW111357   6.148   1.763   2.608
 3486SOL    HW211358   6.282   1.681   2.653
 3487SOL     OW11359   1.335   6.510   1.361
 3487SOL    HW111360   1.300   6.488   1.270
 3487SOL    HW211361   1.378   6.429   1.401
 3488SOL     OW11362   6.520   3.045   5.270
 3488SOL    HW111363   6.591   3.069   5.336
 3488SOL    HW211364   6.518   3.114   5.197
 3489SOL     OW11365   2.274   5.872   6.848
 3489SOL    HW111366   2.273   5.972   6.847
 3489SOL    HW211367   2.317   5.839   6.932
 3490SOL     OW11368   5.670   3.630   0.347
 3490SOL    HW111369   5.612   3.700   0.306
 3490SOL    HW211370   5.763   3.638   0.312
 3491SOL     OW11371   6.038   2.662   5.098
 3491SOL    HW111372   5.947   2.695   5.123
 3491SOL    HW211373   6.106   2.733   5.118
 3492SOL     OW11374   0.818   4.127   6.398
 3492SOL    HW111375   0.836   4.147   6.494
 3492SOL    HW211376   0.743   4.061   6.392
 3493SOL     OW11377   0.343   4.994   0.810
 3493SOL    HW111378   0.243   4.987   0.808
 3493SOL    HW211379   0.371   5.086   0.785
 3494SOL     OW11380   3.095   6.901   1.350
 3494SOL    HW111381   3.018   6.874   1.408
 3494SOL    HW211382   3.180   6.871   1.391
 3495SOL     OW11383   5.489   4.151   5.996
 3495SOL    HW111384   5.419   4.208   5.953
 3495SOL    HW211385   5.553   4.209   6.046
 3496SOL     OW11386   0.525   6.485   1.342
 3496SOL    HW111387   0.579   6.413   1.299
 3496SOL    HW211388   0.525   6.472   1.441
 3497SOL     OW11389   3.017   0.161   5.089
 3497SOL    HW111390   2.960   0.126   5.015
 3497SOL    HW211391   3.048   0.084   5.146
 3498SOL     OW11392   1.782   1.881   0.477
 3498SOL    HW111393   1.848   1.846   0.410
 3498SOL    HW211394   1.725   1.805   0.509
 3499SOL     OW11395   6.901   3.639   3.141
 3499SOL    HW111396   6.952   3.615   3.224
 3499SOL    HW211397   6.962   3.686   3.077
 3500SOL     OW11398   6.996   2.166   0.631
 3500SOL    HW111399   7.017   2.213   0.545
 3500SOL    HW211400   6.962   2.074   0.610
 3501SOL     OW11401   0.022   5.333   3.135
 3501SOL    HW111402   6.970   5.275   3.093
 3501SOL    HW211403   0.011   5.427   3.102
 3502SOL     OW11404   1.012   6.556   1.395
 3502SOL    HW111405   0.964   6.519   1.315
 3502SOL    HW211406   1.098   6.506   1.408
 3503SOL     OW11407   2.715   1.132   3.448
 3503SOL    HW111408   2.800   1.131   3.501
 3503SOL    HW211409   2.687   1.227   3.433
 3504SOL     OW11410   2.116   2.549   2.577
 3504SOL    HW111411   2.051   2.486   2.620
 3504SOL    HW211412   2.075   2.587   2.494
 3505SOL     OW11413   4.252   6.957   4.745
 3505SOL    HW111414   4.290   7.004   4.665
 3505SOL    HW211415   4.178   6.896   4.715
 3506SOL     OW11416   6.739   3.140   2.799
 3506SOL    HW111417   6.649   3.106   2.827
 3506SOL    HW211418   6.749   3.129   2.700
 3507SOL     OW11419   0.070   0.069   5.421
 3507SOL    HW111420   0.130   0.009   5.475
 3507SOL    HW211421   6.992   0.047   5.440
 3508SOL     OW11422   0.425   4.662   0.033
 3508SOL    HW111423   0.348   4.621   7.002
 3508SOL    HW211424   0.442   4.611   0.118
 3509SOL     OW11425   3.754   6.735   6.647
 3509SOL    HW111426   3.666   6.761   6.687
 3509SOL    HW211427   3.812   6.695   6.717
 3510SOL     OW11428   2.257   1.645   2.957
 3510SOL    HW111429   2.250   1.569   3.022
 3510SOL    HW211430   2.339   1.698   2.978
 3511SOL     OW11431   1.171   1.067   3.935
 3511SOL    HW111432   1.238   0.994   3.951
 3511SOL    HW211433   1.081   1.038   3.967
 3512SOL     OW11434   3.253   2.837   2.063
 3512SOL    HW111435   3.238   2.770   2.135
 3512SOL    HW211436   3.339   2.818   2.017
 3513SOL     OW11437   6.619   5.034   0.232
 3513SOL    HW111438   6.587   4.949   0.273
 3513SOL    HW211439   6.546   5.075   0.178
 3514SOL     OW11440   3.476   5.456   3.237
 3514SOL    HW111441   3.506   5.522   3.306
 3514SOL    HW211442   3.418   5.387   3.279
 3515SOL     OW11443   3.786   5.760   4.217
 3515SOL    HW111444   3.740   5.677   4.246
 3515SOL    HW211445   3.719   5.831   4.196
 3516SOL     OW11446   1.634   1.387   0.907
 3516SOL    HW111447   1.662   1.412   1.000
 3516SOL    HW211448   1.712   1.400   0.845
 3517SOL     OW11449   0.262   0.982   6.559
 3517SOL    HW111450   0.188   0.932   6.515
 3517SOL    HW211451   0.229   1.020   6.646
 3518SOL     OW11452   4.211   3.924   6.249
 3518SOL    HW111453   4.284   3.906   6.184
 3518SOL    HW211454   4.167   3.838   6.275
 3519SOL     OW11455   4.219   0.278   6.402
 3519SOL    HW111456   4.263   0.189   6.415
 3519SOL    HW211457   4.126   0.275   6.438
 3520SOL     OW11458   4.266   5.432   1.049
 3520SOL    HW111459   4.293   5.338   1.031
 3520SOL    HW211460   4.185   5.433   1.108
 3521SOL     OW11461   0.196   1.940   5.765
 3521SOL    HW111462   0.169   1.861   5.709
 3521SOL    HW211463   0.250   2.003   5.708
 3522SOL     OW11464   2.355   0.361   0.868
 3522SOL    HW111465   2.434   0.422   0.873
 3522SOL    HW211466   2.291   0.382   0.941
 3523SOL     OW11467   2.388   4.325   4.298
 3523SOL    HW111468   2.451   4.402   4.302
 3523SOL    HW211469   2.394   4.273   4.383
 3524SOL     OW11470   2.887   1.563   3.437
 3524SOL    HW111471   2.918   1.615   3.357
 3524SOL    HW211472   2.809   1.505   3.412
 3525SOL     OW11473   2.065   3.359   4.096
 3525SOL    HW111474   2.146   3.418   4.103
 3525SOL    HW211475   2.092   3.263   4.105
 3526SOL     OW11476   3.648   5.525   3.706
 3526SOL    HW111477   3.660   5.441   3.654
 3526SOL    HW211478   3.627   5.504   3.801
 3527SOL     OW11479   6.893   3.628   6.252
 3527SOL    HW111480   6.932   3.536   6.253
 3527SOL    HW211481   6.909   3.673   6.340
 3528SOL     OW11482   1.176   6.341   3.761
 3528SOL    HW111483   1.181   6.245   3.789
 3528SOL    HW211484   1.256   6.364   3.706
 3529SOL     OW11485   3.704   6.793   0.422
 3529SOL    HW111486   3.632   6.851   0.461
 3529SOL    HW211487   3.711   6.812   0.324
 3530SOL     OW11488   1.631   5.353   2.344
 3530SOL    HW111489   1.658   5.333   2.250
 3530SOL    HW211490   1.659   5.446   2.368
 3531SOL     OW11491   5.250   4.069   7.014
 3531SOL    HW111492   5.219   4.040   6.924
 3531SOL    HW211493   5.350   4.066   7.017
 3532SOL     OW11494   2.507   0.147   6.336
 3532SOL    HW111495   2.434   0.196   6.383
 3532SOL    HW211496   2.593   0.158   6.387
 3533SOL     OW11497   1.352   1.290   2.797
 3533SOL    HW111498   1.295   1.345   2.859
 3533SOL    HW211499   1.332   1.316   2.703
 3534SOL     OW11500   4.576   6.804   4.591
 3534SOL    HW111501   4.674   6.801   4.610
 3534SOL    HW211502   4.526   6.763   4.667
 3535SOL     OW11503   3.937   4.469   0.137
 3535SOL    HW111504   3.894   4.398   0.081
 3535SOL    HW211505   3.873   4.500   0.207
 3536SOL     OW11506   2.118   3.128   2.347
 3536SOL    HW111507   2.163   3.195   2.406
 3536SOL    HW211508   2.019   3.146   2.346
 3537SOL     OW11509   2.858   5.185   1.444
 3537SOL    HW111510   2.848   5.151   1.350
 3537SOL    HW211511   2.827   5.114   1.507
 3538SOL     OW11512   2.507   0.270   3.848
 3538SOL    HW111513   2.571   0.247   3.921
 3538SOL    HW211514   2.557   0.297   3.766
 3539SOL     OW11515   5.296   5.458   5.964
 3539SOL    HW111516   5.232   5.482   5.891
 3539SOL    HW211517   5.368   5.527   5.969
 3540SOL     OW11518   5.218   4.123   0.374
 3540SOL    HW111519   5.316   4.143   0.376
 3540SOL    HW211520   5.202   4.044   0.315
 3541SOL     OW11521   0.054   2.740   2.139
 3541SOL    HW111522   0.132   2.801   2.127
 3541SOL    HW211523   0.085   2.655   2.183
 3542SOL     OW11524   6.175   0.888   6.868
 3542SOL    HW111525   6.136   0.921   6.782
 3542SOL    HW211526   6.263   0.845   6.851
 3543SOL     OW11527   0.149   3.126   4.866
 3543SOL    HW111528   0.229   3.176   4.900
 3543SOL    HW211529   0.180   3.052   4.806
 3544SOL     OW11530   3.920   4.827   5.636
 3544SOL    HW111531   3.846   4.893   5.648
 3544SOL    HW211532   3.945   4.787   5.724
 3545SOL     OW11533   2.735   6.313   1.693
 3545SOL    HW111534   2.754   6.244   1.764
 3545SOL    HW211535   2.739   6.404   1.734
 3546SOL     OW11536   0.192   4.557   0.882
 3546SOL    HW111537   0.095   4.582   0.883
 3546SOL    HW211538   0.241   4.617   0.819
 3547SOL     OW11539   1.829   4.070   4.301
 3547SOL    HW111540   1.917   4.047   4.261
 3547SOL    HW211541   1.839   4.081   4.400
 3548SOL     OW11542   6.187   6.639   5.318
 3548SOL    HW111543   6.116   6.582   5.277
 3548SOL    HW211544   6.145   6.706   5.380
 3549SOL     OW11545   1.556   0.239   6.548
 3549SOL    HW111546   1.474   0.184   6.532
 3549SOL    HW211547   1.559   0.268   6.644
 3550SOL     OW11548   6.563   2.652   4.741
 3550SOL    HW111549   6.552   2.631   4.643
 3550SOL    HW211550   6.654   2.626   4.771
 3551SOL     OW11551   6.777   1.521   5.292
 3551SOL    HW111552   6.699   1.474   5.250
 3551SOL    HW211553   6.803   1.472   5.375
 3552SOL     OW11554   6.488   0.837   3.740
 3552SOL    HW111555   6.410   0.795   3.693
 3552SOL    HW211556   6.542   0.766   3.785
 3553SOL     OW11557   5.926   6.166   6.415
 3553SOL    HW111558   6.000   6.180   6.481
 3553SOL    HW211559   5.945   6.220   6.333
 3554SOL     OW11560   6.045   3.471   6.991
 3554SOL    HW111561   5.948   3.481   7.015
 3554SOL    HW211562   6.055   3.398   6.924
 3555SOL     OW11563   3.004   1.123   5.232
 3555SOL    HW111564   3.027   1.029   5.209
 3555SOL    HW211565   2.963   1.126   5.324
 3556SOL     OW11566   5.429   1.331   0.428
 3556SOL    HW111567   5.418   1.280   0.513
 3556SOL    HW211568   5.497   1.403   0.441
 3557SOL     OW11569   4.945   0.431   0.981
 3557SOL    HW111570   4.959   0.476   1.070
 3557SOL    HW211571   4.881   0.356   0.992
 3558SOL     OW11572   4.414   5.877   3.302
 3558SOL    HW111573   4.467   5.818   3.363
 3558SOL    HW211574   4.318   5.847   3.304
 3559SOL     OW11575   4.769   6.199   6.553
 3559SOL    HW111576   4.722   6.245   6.628
 3559SOL    HW211577   4.708   6.131   6.512
 3560SOL     OW11578   1.919   5.810   4.605
 3560SOL    HW111579   1.996   5.870   4.628
 3560SOL    HW211580   1.933   5.770   4.515
 3561SOL     OW11581   4.330   3.071   6.190
 3561SOL    HW111582   4.270   2.993   6.172
 3561SOL    HW211583   4.418   3.039   6.225
 3562SOL     OW11584   2.720   1.003   0.644
 3562SOL    HW111585   2.665   0.920   0.641
 3562SOL    HW211586   2.740   1.033   0.550
 3563SOL     OW11587   6.045   1.994   5.753
 3563SOL    HW111588   6.002   2.072   5.708
 3563SOL    HW211589   5.988   1.963   5.828
 3564SOL     OW11590   5.708   2.775   2.878
 3564SOL    HW111591   5.804   2.771   2.904
 3564SOL    HW211592   5.670   2.864   2.903
 3565SOL     OW11593   4.757   6.282   5.282
 3565SOL    HW111594   4.814   6.312   5.359
 3565SOL    HW211595   4.784   6.191   5.252
 3566SOL     OW11596   0.616   0.896   4.777
 3566SOL    HW111597   0.648   0.946   4.858
 3566SOL    HW211598   0.674   0.816   4.763
 3567SOL     OW11599   1.314   4.486   6.832
 3567SOL    HW111600   1.319   4.403   6.887
 3567SOL    HW211601   1.295   4.564   6.891
 3568SOL     OW11602   1.637   3.982   5.369
 3568SOL    HW111603   1.545   4.002   5.403
 3568SOL    HW211604   1.669   3.896   5.408
 3569SOL     OW11605   0.533   0.125   3.673
 3569SOL    HW111606   0.489   0.097   3.758
 3569SOL    HW211607   0.628   0.148   3.690
 3570SOL     OW11608   0.488   1.605   4.890
 3570SOL    HW111609   0.538   1.691   4.884
 3570SOL    HW211610   0.412   1.605   4.825
 3571SOL     OW11611   0.011   5.674   5.138
 3571SOL    HW111612   6.981   5.647   5.054
 3571SOL    HW211613   0.108   5.686   5.120
 3572SOL     OW11614   5.338   6.965   5.320
 3572SOL    HW111615   5.268   6.895   5.336
 3572SOL    HW211616   5.294   0.034   5.299
 3573SOL     OW11617   6.939   2.994   1.821
 3573SOL    HW111618   6.944   3.091   1.846
 3573SOL    HW211619   6.874   2.948   1.882
 3574SOL     OW11620   0.570   3.658   0.450
 3574SOL    HW111621   0.488   3.711   0.429
 3574SOL    HW211622   0.648   3.697   0.401
 3575SOL     OW11623   6.698   0.316   2.626
 3575SOL    HW111624   6.739   0.397   2.585
 3575SOL    HW211625   6.711   0.319   2.725
 3576SOL     OW11626   0.522   1.116   1.001
 3576SOL    HW111627   0.509   1.193   0.938
 3576SOL    HW211628   0.614   1.120   1.039
 3577SOL     OW11629   2.070   4.423   0.340
 3577SOL    HW111630   1.987   4.370   0.356
 3577SOL    HW211631   2.061   4.513   0.384
 3578SOL     OW11632   3.589   4.825   1.621
 3578SOL    HW111633   3.581   4.743   1.678
 3578SOL    HW211634   3.611   4.798   1.527
 3579SOL     OW11635   2.445   2.920   6.565
 3579SOL    HW111636   2.377   2.934   6.492
 3579SOL    HW211637   2.432   2.988   6.636
 3580SOL     OW11638   5.503   1.122   2.192
 3580SOL    HW111639   5.404   1.121   2.205
 3580SOL    HW211640   5.546   1.175   2.264
 3581SOL     OW11641   0.162   1.634   2.615
 3581SOL    HW111642   0.193   1.690   2.692
 3581SOL    HW211643   0.232   1.636   2.543
 3582SOL     OW11644   0.987   0.687   5.943
 3582SOL    HW111645   0.945   0.709   5.854
 3582SOL    HW211646   0.919   0.643   6.002
 3583SOL     OW11647   1.131   6.781   2.442
 3583SOL    HW111648   1.226   6.789   2.474
 3583SOL    HW211649   1.107   6.863   2.389
 3584SOL     OW11650   5.041   0.624   5.035
 3584SOL    HW111651   5.114   0.691   5.049
 3584SOL    HW211652   5.039   0.596   4.939
 3585SOL     OW11653   2.264   4.947   2.895
 3585SOL    HW111654   2.205   4.908   2.825
 3585SOL    HW211655   2.209   5.005   2.956
 3586SOL     OW11656   1.204   1.111   0.031
 3586SOL    HW111657   1.212   1.148   6.956
 3586SOL    HW211658   1.108   1.101   0.054
 3587SOL     OW11659   3.824   6.128   5.950
 3587SOL    HW111660   3.846   6.224   5.967
 3587SOL    HW211661   3.907   6.073   5.956
 3588SOL     OW11662   2.746   2.644   5.507
 3588SOL    HW111663   2.719   2.548   5.503
 3588SOL    HW211664   2.676   2.700   5.463
 3589SOL     OW11665   2.569   6.180   4.556
 3589SOL    HW111666   2.524   6.098   4.590
 3589SOL    HW211667   2.506   6.232   4.498
 3590SOL     OW11668   1.169   5.698   6.937
 3590SOL    HW111669   1.177   5.757   7.017
 3590SOL    HW211670   1.256   5.651   6.921
 3591SOL     OW11671   4.746   2.233   4.430
 3591SOL    HW111672   4.748   2.134   4.420
 3591SOL    HW211673   4.808   2.260   4.504
 3592SOL     OW11674   5.486   1.087   2.500
 3592SOL    HW111675   5.476   1.136   2.587
 3592SOL    HW211676   5.398   1.082   2.454
 3593SOL     OW11677   0.638   4.756   4.707
 3593SOL    HW111678   0.613   4.660   4.697
 3593SOL    HW211679   0.673   4.773   4.799
 3594SOL     OW11680   4.537   1.584   4.429
 3594SOL    HW111681   4.483   1.567   4.511
 3594SOL    HW211682   4.542   1.683   4.412
 3595SOL     OW11683   2.198   6.741   6.846
 3595SOL    HW111684   2.158   6.716   6.934
 3595SOL    HW211685   2.266   6.672   6.820
 3596SOL     OW11686   6.347   3.424   2.896
 3596SOL    HW111687   6.284   3.502   2.906
 3596SOL    HW211688   6.405   3.438   2.816
 3597SOL     OW11689   4.278   0.436   3.726
 3597SOL    HW111690   4.355   0.383   3.691
 3597SOL    HW211691   4.195   0.379   3.725
 3598SOL     OW11692   2.141   6.978   0.095
 3598SOL    HW111693   2.151   0.045   0.148
 3598SOL    HW211694   2.211   6.975   0.023
 3599SOL     OW11695   0.378   2.189   4.164
 3599SOL    HW111696   0.300   2.176   4.102
 3599SOL    HW211697   0.345   2.226   4.251
 3600SOL     OW11698   6.477   6.380   1.263
 3600SOL    HW111699   6.399   6.408   1.208
 3600SOL    HW211700   6.446   6.352   1.354
 3601SOL     OW11701   6.686   3.786   5.885
 3601SOL    HW111702   6.641   3.704   5.921
 3601SOL    HW211703   6.775   3.797   5.929
 3602SOL     OW11704   3.516   2.406   0.853
 3602SOL    HW111705   3.473   2.426   0.942
 3602SOL    HW211706   3.605   2.364   0.868
 3603SOL     OW11707   3.673   5.380   5.051
 3603SOL    HW111708   3.727   5.440   5.109
 3603SOL    HW211709   3.734   5.325   4.994
 3604SOL     OW11710   5.723   4.210   3.405
 3604SOL    HW111711   5.820   4.190   3.420
 3604SOL    HW211712   5.670   4.127   3.420
 3605SOL     OW11713   6.030   1.402   6.535
 3605SOL    HW111714   5.995   1.371   6.623
 3605SOL    HW211715   5.960   1.456   6.489
 3606SOL     OW11716   1.811   3.756   2.611
 3606SOL    HW111717   1.776   3.663   2.601
 3606SOL    HW211718   1.911   3.753   2.620
 3607SOL     OW11719   4.408   6.586   5.027
 3607SOL    HW111720   4.499   6.618   5.056
 3607SOL    HW211721   4.391   6.495   5.065
 3608SOL     OW11722   6.455   3.447   2.552
 3608SOL    HW111723   6.499   3.381   2.492
 3608SOL    HW211724   6.442   3.533   2.503
 3609SOL     OW11725   0.897   1.004   4.002
 3609SOL    HW111726   0.863   1.030   4.093
 3609SOL    HW211727   0.825   0.958   3.951
 3610SOL     OW11728   1.337   4.686   5.569
 3610SOL    HW111729   1.318   4.745   5.490
 3610SOL    HW211730   1.299   4.727   5.651
 3611SOL     OW11731   4.365   4.873   6.703
 3611SOL    HW111732   4.347   4.858   6.606
 3611SOL    HW211733   4.412   4.961   6.715
 3612SOL     OW11734   2.544   5.648   1.551
 3612SOL    HW111735   2.516   5.727   1.498
 3612SOL    HW211736   2.545   5.567   1.493
 3613SOL     OW11737   5.465   4.446   6.392
 3613SOL    HW111738   5.385   4.505   6.404
 3613SOL    HW211739   5.506   4.426   6.481
 3614SOL     OW11740   3.898   3.161   4.957
 3614SOL    HW111741   3.970   3.185   4.893
 3614SOL    HW211742   3.816   3.132   4.907
 3615SOL     OW11743   5.926   7.008   6.410
 3615SOL    HW111744   5.894   0.009   6.503
 3615SOL    HW211745   5.878   0.051   6.346
 3616SOL     OW11746   0.160   1.359   4.111
 3616SOL    HW111747   0.090   1.425   4.083
 3616SOL    HW211748   0.250   1.399   4.096
 3617SOL     OW11749   0.076   0.425   1.286
 3617SOL    HW111750   0.153   0.376   1.326
 3617SOL    HW211751   0.095   0.524   1.286
 3618SOL     OW11752   3.735   5.520   6.216
 3618SOL    HW111753   3.716   5.472   6.130
 3618SOL    HW211754   3.820   5.484   6.255
 3619SOL     OW11755   4.890   3.351   3.863
 3619SOL    HW111756   4.935   3.325   3.779
 3619SOL    HW211757   4.854   3.270   3.909
 3620SOL     OW11758   5.712   2.027   5.204
 3620SOL    HW111759   5.737   2.047   5.110
 3620SOL    HW211760   5.619   1.991   5.207
 3621SOL     OW11761   2.267   2.654   6.460
 3621SOL    HW111762   2.247   2.711   6.540
 3621SOL    HW211763   2.186   2.648   6.402
 3622SOL     OW11764   1.445   3.968   0.773
 3622SOL    HW111765   1.494   4.041   0.725
 3622SOL    HW211766   1.507   3.921   0.836
 3623SOL     OW11767   6.582   5.420   4.438
 3623SOL    HW111768   6.533   5.388   4.357
 3623SOL    HW211769   6.529   5.491   4.483
 3624SOL     OW11770   1.767   0.202   1.954
 3624SOL    HW111771   1.751   0.143   1.875
 3624SOL    HW211772   1.689   0.196   2.016
 3625SOL     OW11773   1.629   2.079   5.164
 3625SOL    HW111774   1.607   1.987   5.130
 3625SOL    HW211775   1.563   2.105   5.234
 3626SOL     OW11776   1.478   3.339   5.277
 3626SOL    HW111777   1.520   3.420   5.235
 3626SOL    HW211778   1.386   3.362   5.309
 3627SOL     OW11779   4.030   3.568   4.432
 3627SOL    HW111780   3.930   3.570   4.419
 3627SOL    HW211781   4.066   3.661   4.421
 3628SOL     OW11782   2.956   5.253   3.873
 3628SOL    HW111783   2.999   5.309   3.945
 3628SOL    HW211784   2.887   5.308   3.826
 3629SOL     OW11785   6.158   3.875   4.946
 3629SOL    HW111786   6.210   3.939   5.001
 3629SOL    HW211787   6.219   3.828   4.882
 3630SOL     OW11788   6.386   1.952   4.504
 3630SOL    HW111789   6.485   1.959   4.512
 3630SOL    HW211790   6.347   2.044   4.499
 3631SOL     OW11791   2.235   0.757   4.306
 3631SOL    HW111792   2.304   0.800   4.365
 3631SOL    HW211793   2.272   0.748   4.214
 3632SOL     OW11794   4.933   6.673   6.396
 3632SOL    HW111795   5.022   6.666   6.441
 3632SOL    HW211796   4.922   6.764   6.356
 3633SOL     OW11797   0.928   2.700   5.797
 3633SOL    HW111798   0.911   2.668   5.704
 3633SOL    HW211799   0.840   2.721   5.841
 3634SOL     OW11800   2.238   4.639   6.324
 3634SOL    HW111801   2.294   4.557   6.314
 3634SOL    HW211802   2.204   4.667   6.234
 3635SOL     OW11803   1.542   1.875   4.426
 3635SOL    HW111804   1.638   1.860   4.402
 3635SOL    HW211805   1.532   1.877   4.525
 3636SOL     OW11806   0.615   6.746   1.255
 3636SOL    HW111807   0.573   6.657   1.274
 3636SOL    HW211808   0.584   6.779   1.165
 3637SOL     OW11809   5.140   1.360   2.530
 3637SOL    HW111810   5.194   1.444   2.522
 3637SOL    HW211811   5.092   1.359   2.617
 3638SOL     OW11812   6.701   5.152   3.452
 3638SOL    HW111813   6.630   5.085   3.476
 3638SOL    HW211814   6.768   5.109   3.392
 3639SOL     OW11815   2.614   5.736   6.588
 3639SOL    HW111816   2.602   5.829   6.552
 3639SOL    HW211817   2.695   5.695   6.545
 3640SOL     OW11818   2.281   6.869   3.296
 3640SOL    HW111819   2.282   6.801   3.223
 3640SOL    HW211820   2.246   6.828   3.380
 3641SOL     OW11821   2.237   0.619   4.992
 3641SOL    HW111822   2.285   0.656   5.071
 3641SOL    HW211823   2.196   0.694   4.939
 3642SOL     OW11824   6.384   0.181   3.194
 3642SOL    HW111825   6.362   0.274   3.223
 3642SOL    HW211826   6.483   0.172   3.184
 3643SOL     OW11827   4.088   0.010   3.902
 3643SOL    HW111828   4.186   0.024   3.891
 3643SOL    HW211829   4.072   6.965   3.979
 3644SOL     OW11830   6.205   0.617   1.712
 3644SOL    HW111831   6.140   0.562   1.765
 3644SOL    HW211832   6.182   0.610   1.615
 3645SOL     OW11833   4.795   5.538   4.159
 3645SOL    HW111834   4.706   5.538   4.205
 3645SOL    HW211835   4.796   5.467   4.089
 3646SOL     OW11836   0.543   5.488   4.998
 3646SOL    HW111837   0.584   5.488   5.089
 3646SOL    HW211838   0.454   5.443   5.002
 3647SOL     OW11839   4.111   3.065   0.840
 3647SOL    HW111840   4.069   2.985   0.882
 3647SOL    HW211841   4.191   3.036   0.786
 3648SOL     OW11842   2.377   6.381   3.714
 3648SOL    HW111843   2.299   6.377   3.652
 3648SOL    HW211844   2.374   6.467   3.766
 3649SOL     OW11845   4.043   3.190   3.452
 3649SOL    HW111846   4.092   3.124   3.396
 3649SOL    HW211847   3.946   3.190   3.427
 3650SOL     OW11848   5.812   6.078   1.958
 3650SOL    HW111849   5.733   6.042   1.908
 3650SOL    HW211850   5.788   6.167   1.997
 3651SOL     OW11851   1.990   5.330   1.760
 3651SOL    HW111852   2.030   5.249   1.802
 3651SOL    HW211853   1.973   5.312   1.663
 3652SOL     OW11854   4.319   6.385   4.197
 3652SOL    HW111855   4.335   6.474   4.239
 3652SOL    HW211856   4.381   6.373   4.120
 3653SOL     OW11857   0.240   3.379   3.318
 3653SOL    HW111858   0.145   3.348   3.321
 3653SOL    HW211859   0.249   3.465   3.368
 3654SOL     OW11860   2.289   6.852   1.851
 3654SOL    HW111861   2.335   6.766   1.829
 3654SOL    HW211862   2.191   6.842   1.833
 3655SOL     OW11863   6.315   0.976   3.886
 3655SOL    HW111864   6.393   0.936   3.838
 3655SOL    HW211865   6.259   1.029   3.822
 3656SOL     OW11866   1.669   1.660   2.778
 3656SOL    HW111867   1.729   1.685   2.702
 3656SOL    HW211868   1.723   1.612   2.848
 3657SOL     OW11869   6.139   5.006   1.132
 3657SOL    HW111870   6.159   5.104   1.144
 3657SOL    HW211871   6.087   4.992   1.048
 3658SOL     OW11872   2.565   4.551   5.470
 3658SOL    HW111873   2.592   4.494   5.392
 3658SOL    HW211874   2.578   4.500   5.555
 3659SOL     OW11875   1.742   3.497   6.702
 3659SOL    HW111876   1.688   3.571   6.743
 3659SOL    HW211877   1.781   3.440   6.775
 3660SOL     OW11878   5.020   4.164   0.817
 3660SOL    HW111879   4.968   4.083   0.845
 3660SOL    HW211880   5.024   4.229   0.893
 3661SOL     OW11881   5.251   0.991   2.117
 3661SOL    HW111882   5.191   0.944   2.053
 3661SOL    HW211883   5.340   0.945   2.120
 3662SOL     OW11884   1.707   6.445   4.286
 3662SOL    HW111885   1.765   6.366   4.267
 3662SOL    HW211886   1.612   6.422   4.265
 3663SOL     OW11887   2.389   2.824   5.753
 3663SOL    HW111888   2.374   2.884   5.675
 3663SOL    HW211889   2.395   2.729   5.722
 3664SOL     OW11890   4.042   0.120   1.899
 3664SOL    HW111891   3.981   0.044   1.921
 3664SOL    HW211892   4.059   0.174   1.982
 3665SOL     OW11893   2.607   1.719   5.128
 3665SOL    HW111894   2.666   1.756   5.057
 3665SOL    HW211895   2.616   1.619   5.130
 3666SOL     OW11896   0.810   4.691   3.031
 3666SOL    HW111897   0.777   4.598   3.045
 3666SOL    HW211898   0.908   4.690   3.012
 3667SOL     OW11899   0.089   0.610   0.193
 3667SOL    HW111900   0.149   0.591   0.271
 3667SOL    HW211901   0.069   0.708   0.189
 3668SOL     OW11902   2.066   0.116   1.176
 3668SOL    HW111903   2.012   0.155   1.101
 3668SOL    HW211904   2.008   0.060   1.234
 3669SOL     OW11905   5.146   1.648   4.546
 3669SOL    HW111906   5.135   1.737   4.590
 3669SOL    HW211907   5.157   1.661   4.448
 3670SOL     OW11908   3.270   4.944   5.791
 3670SOL    HW111909   3.172   4.925   5.798
 3670SOL    HW211910   3.320   4.881   5.851
 3671SOL     OW11911   1.817   1.485   3.342
 3671SOL    HW111912   1.891   1.430   3.304
 3671SOL    HW211913   1.855   1.568   3.382
 3672SOL     OW11914   6.206   6.012   6.933
 3672SOL    HW111915   6.145   6.053   7.001
 3672SOL    HW211916   6.301   6.030   6.958
 3673SOL     OW11917   3.708   6.774   6.184
 3673SOL    HW111918   3.708   6.832   6.265
 3673SOL    HW211919   3.648   6.695   6.198
 3674SOL     OW11920   1.339   6.533   0.959
 3674SOL    HW111921   1.286   6.618   0.956
 3674SOL    HW211922   1.382   6.518   0.870
 3675SOL     OW11923   2.151   2.023   4.018
 3675SOL    HW111924   2.101   2.108   4.004
 3675SOL    HW211925   2.099   1.946   3.980
 3676SOL     OW11926   0.576   4.855   2.956
 3676SOL    HW111927   0.610   4.914   2.883
 3676SOL    HW211928   0.653   4.822   3.012
 3677SOL     OW11929   6.477   1.029   3.378
 3677SOL    HW111930   6.460   0.933   3.403
 3677SOL    HW211931   6.534   1.072   3.448
 3678SOL     OW11932   0.672   2.811   4.298
 3678SOL    HW111933   0.600   2.745   4.320
 3678SOL    HW211934   0.741   2.768   4.241
 3679SOL     OW11935   6.139   1.245   1.810
 3679SOL    HW111936   6.159   1.197   1.895
 3679SOL    HW211937   6.180   1.195   1.733
 3680SOL     OW11938   6.311   4.390   5.042
 3680SOL    HW111939   6.326   4.465   4.978
 3680SOL    HW211940   6.248   4.323   5.001
 3681SOL     OW11941   5.260   0.473   4.858
 3681SOL    HW111942   5.312   0.390   4.878
 3681SOL    HW211943   5.306   0.551   4.900
 3682SOL     OW11944   0.568   1.956   0.019
 3682SOL    HW111945   0.532   1.935   6.946
 3682SOL    HW211946   0.653   2.006   0.011
 3683SOL     OW11947   4.531   6.412   3.965
 3683SOL    HW111948   4.516   6.458   3.878
 3683SOL    HW211949   4.580   6.326   3.949
 3684SOL     OW11950   2.242   3.985   1.802
 3684SOL    HW111951   2.255   4.037   1.886
 3684SOL    HW211952   2.217   3.891   1.825
 3685SOL     OW11953   5.704   5.534   5.813
 3685SOL    HW111954   5.663   5.580   5.892
 3685SOL    HW211955   5.635   5.477   5.768
 3686SOL     OW11956   0.662   4.175   0.377
 3686SOL    HW111957   0.614   4.138   0.457
 3686SOL    HW211958   0.607   4.246   0.334
 3687SOL     OW11959   3.924   1.027   0.829
 3687SOL    HW111960   4.021   1.028   0.854
 3687SOL    HW211961   3.868   1.024   0.912
 3688SOL     OW11962   6.934   2.586   6.627
 3688SOL    HW111963   6.958   2.493   6.655
 3688SOL    HW211964   6.838   2.588   6.599
 3689SOL     OW11965   1.224   6.062   3.802
 3689SOL    HW111966   1.315   6.075   3.765
 3689SOL    HW211967   1.179   5.986   3.755
 3690SOL     OW11968   4.846   4.479   5.685
 3690SOL    HW111969   4.839   4.552   5.753
 3690SOL    HW211970   4.763   4.423   5.688
 3691SOL     OW11971   3.141   3.287   6.389
 3691SOL    HW111972   3.154   3.371   6.336
 3691SOL    HW211973   3.048   3.252   6.376
 3692SOL     OW11974   6.579   0.441   5.127
 3692SOL    HW111975   6.572   0.524   5.073
 3692SOL    HW211976   6.675   0.415   5.137
 3693SOL     OW11977   1.662   1.374   3.589
 3693SOL    HW111978   1.599   1.440   3.629
 3693SOL    HW211979   1.720   1.420   3.521
 3694SOL     OW11980   1.765   4.749   3.626
 3694SOL    HW111981   1.830   4.756   3.550
 3694SOL    HW211982   1.728   4.840   3.646
 3695SOL     OW11983   2.422   2.692   0.666
 3695SOL    HW111984   2.376   2.658   0.748
 3695SOL    HW211985   2.482   2.621   0.630
 3696SOL     OW11986   2.802   5.688   5.635
 3696SOL    HW111987   2.766   5.765   5.688
 3696SOL    HW211988   2.856   5.722   5.558
 3697SOL     OW11989   5.482   0.915   3.397
 3697SOL    HW111990   5.582   0.911   3.398
 3697SOL    HW211991   5.450   0.968   3.476
 3698SOL     OW11992   3.339   6.813   5.988
 3698SOL    HW111993   3.340   6.764   5.901
 3698SOL    HW211994   3.421   6.870   5.995
 3699SOL     OW11995   0.865   5.465   1.957
 3699SOL    HW111996   0.942   5.450   2.019
 3699SOL    HW211997   0.803   5.386   1.961
 3700SOL     OW11998   6.277   0.582   3.933
 3700SOL    HW111999   6.341   0.644   3.978
 3700SOL    HW212000   6.327   0.507   3.889
 3701SOL     OW12001   4.241   1.351   3.523
 3701SOL    HW112002   4.167   1.418   3.535
 3701SOL    HW212003   4.329   1.399   3.524
 3702SOL     OW12004   4.417   1.443   6.512
 3702SOL    HW112005   4.453   1.498   6.587
 3702SOL    HW212006   4.355   1.374   6.548
 3703SOL     OW12007   3.572   4.882   0.899
 3703SOL    HW112008   3.521   4.913   0.979
 3703SOL    HW212009   3.649   4.944   0.884
 3704SOL     OW12010   3.435   6.565   0.839
 3704SOL    HW112011   3.430   6.582   0.937
 3704SOL    HW212012   3.519   6.516   0.818
 3705SOL     OW12013   0.384   1.066   3.880
 3705SOL    HW112014   0.392   1.017   3.794
 3705SOL    HW212015   0.461   1.129   3.890
 3706SOL     OW12016   2.421   2.400   3.108
 3706SOL    HW112017   2.453   2.406   3.014
 3706SOL    HW212018   2.498   2.409   3.171
 3707SOL     OW12019   4.318   2.204   5.324
 3707SOL    HW112020   4.381   2.249   5.387
 3707SOL    HW212021   4.300   2.111   5.355
 3708SOL     OW12022   6.355   6.763   0.914
 3708SOL    HW112023   6.321   6.857   0.911
 3708SOL    HW212024   6.428   6.752   0.846
 3709SOL     OW12025   0.447   6.366   6.216
 3709SOL    HW112026   0.444   6.281   6.163
 3709SOL    HW212027   0.529   6.364   6.275
 3710SOL     OW12028   0.809   5.039   6.478
 3710SOL    HW112029   0.826   5.138   6.484
 3710SOL    HW212030   0.710   5.022   6.481
 3711SOL     OW12031   6.475   4.957   2.419
 3711SOL    HW112032   6.425   4.927   2.338
 3711SOL    HW212033   6.413   5.006   2.480
 3712SOL     OW12034   1.499   6.960   5.888
 3712SOL    HW112035   1.503   6.953   5.789
 3712SOL    HW212036   1.504   6.868   5.928
 3713SOL     OW12037   3.381   4.871   6.193
 3713SOL    HW112038   3.290   4.912   6.182
 3713SOL    HW212039   3.434   4.885   6.109
 3714SOL     OW12040   4.772   2.118   4.764
 3714SOL    HW112041   4.744   2.057   4.838
 3714SOL    HW212042   4.864   2.094   4.734
 3715SOL     OW12043   4.745   4.329   3.658
 3715SOL    HW112044   4.828   4.377   3.689
 3715SOL    HW212045   4.676   4.333   3.730
 3716SOL     OW12046   1.466   1.069   4.605
 3716SOL    HW112047   1.442   1.151   4.554
 3716SOL    HW212048   1.475   0.992   4.541
 3717SOL     OW12049   5.968   0.444   6.665
 3717SOL    HW112050   5.998   0.446   6.760
 3717SOL    HW212051   5.937   0.351   6.642
 3718SOL     OW12052   0.975   6.395   6.382
 3718SOL    HW112053   0.958   6.493   6.395
 3718SOL    HW212054   1.068   6.382   6.347
 3719SOL     OW12055   3.737   4.045   0.580
 3719SOL    HW112056   3.652   3.997   0.557
 3719SOL    HW212057   3.719   4.143   0.588
 3720SOL     OW12058   0.014   1.186   6.345
 3720SOL    HW112059   0.084   1.244   6.302
 3720SOL    HW212060   6.942   1.229   6.333
 3721SOL     OW12061   5.616   2.958   0.331
 3721SOL    HW112062   5.605   2.875   0.276
 3721SOL    HW212063   5.694   2.947   0.393
 3722SOL     OW12064   4.258   5.988   0.630
 3722SOL    HW112065   4.316   5.921   0.676
 3722SOL    HW212066   4.309   6.074   0.620
 3723SOL     OW12067   4.377   1.499   0.333
 3723SOL    HW112068   4.429   1.553   0.267
 3723SOL    HW212069   4.433   1.484   0.415
 3724SOL     OW12070   1.209   4.020   6.357
 3724SOL    HW112071   1.195   3.924   6.333
 3724SOL    HW212072   1.182   4.035   6.452
 3725SOL     OW12073   5.031   6.105   1.708
 3725SOL    HW112074   5.003   6.093   1.613
 3725SOL    HW212075   5.011   6.199   1.738
 3726SOL     OW12076   6.065   3.238   1.924
 3726SOL    HW112077   6.020   3.197   1.845
 3726SOL    HW212078   6.009   3.223   2.006
 3727SOL     OW12079   2.804   2.652   5.762
 3727SOL    HW112080   2.726   2.689   5.813
 3727SOL    HW212081   2.792   2.671   5.664
 3728SOL     OW12082   0.859   3.775   6.666
 3728SOL    HW112083   0.784   3.831   6.630
 3728SOL    HW212084   0.907   3.825   6.738
 3729SOL     OW12085   1.178   3.655   3.551
 3729SOL    HW112086   1.255   3.663   3.614
 3729SOL    HW212087   1.107   3.719   3.577
 3730SOL     OW12088   1.858   7.003   1.370
 3730SOL    HW112089   1.795   0.063   1.367
 3730SOL    HW212090   1.857   6.955   1.283
 3731SOL     OW12091   2.750   6.253   0.051
 3731SOL    HW112092   2.727   6.207   6.983
 3731SOL    HW212093   2.828   6.207   0.094
 3732SOL     OW12094   1.909   3.757   4.336
 3732SOL    HW112095   1.851   3.690   4.288
 3732SOL    HW212096   1.914   3.841   4.282
 3733SOL     OW12097   3.547   3.031   1.919
 3733SOL    HW112098   3.494   2.959   1.874
 3733SOL    HW212099   3.484   3.099   1.958
 3734SOL     OW12100   4.419   1.570   3.231
 3734SOL    HW112101   4.434   1.483   3.277
 3734SOL    HW212102   4.369   1.632   3.291
 3735SOL     OW12103   3.965   2.175   1.897
 3735SOL    HW112104   3.965   2.084   1.855
 3735SOL    HW212105   3.871   2.204   1.914
 3736SOL     OW12106   5.079   0.839   6.154
 3736SOL    HW112107   4.987   0.814   6.123
 3736SOL    HW212108   5.096   0.935   6.132
 3737SOL     OW12109   2.673   0.002   3.808
 3737SOL    HW112110   2.722   6.963   3.874
 3737SOL    HW212111   2.739   0.048   3.748
 3738SOL     OW12112   0.644   0.603   4.349
 3738SOL    HW112113   0.553   0.573   4.378
 3738SOL    HW212114   0.666   0.689   4.395
 3739SOL     OW12115   0.008   3.423   0.647
 3739SOL    HW112116   6.932   3.440   0.616
 3739SOL    HW212117   0.019   3.326   0.668
 3740SOL     OW12118   5.745   6.895   0.351
 3740SOL    HW112119   5.706   6.868   0.263
 3740SOL    HW212120   5.833   6.849   0.364
 3741SOL     OW12121   3.750   0.831   0.208
 3741SOL    HW112122   3.802   0.747   0.221
 3741SOL    HW212123   3.778   0.899   0.276
 3742SOL     OW12124   3.494   3.369   6.306
 3742SOL    HW112125   3.424   3.434   6.275
 3742SOL    HW212126   3.584   3.401   6.278
 3743SOL     OW12127   1.208   6.272   5.937
 3743SOL    HW112128   1.117   6.260   5.976
 3743SOL    HW212129   1.259   6.186   5.943
 3744SOL     OW12130   6.163   4.682   3.488
 3744SOL    HW112131   6.102   4.760   3.502
 3744SOL    HW212132   6.131   4.627   3.411
 3745SOL     OW12133   5.300   4.630   1.343
 3745SOL    HW112134   5.215   4.578   1.356
 3745SOL    HW212135   5.350   4.634   1.429
 3746SOL     OW12136   3.937   1.396   1.026
 3746SOL    HW112137   4.025   1.393   1.072
 3746SOL    HW212138   3.885   1.475   1.058
 3747SOL     OW12139   2.964   6.585   1.608
 3747SOL    HW112140   2.950   6.541   1.519
 3747SOL    HW212141   3.053   6.560   1.645
 3748SOL     OW12142   5.280   0.692   1.933
 3748SOL    HW112143   5.198   0.640   1.958
 3748SOL    HW212144   5.319   0.655   1.850
 3749SOL     OW12145   1.202   0.689   4.207
 3749SOL    HW112146   1.278   0.640   4.166
 3749SOL    HW212147   1.231   0.783   4.226
 3750SOL     OW12148   0.676   3.885   6.968
 3750SOL    HW112149   0.605   3.908   0.017
 3750SOL    HW212150   0.716   3.796   6.991
 3751SOL     OW12151   1.989   4.937   1.805
 3751SOL    HW112152   2.018   4.994   1.881
 3751SOL    HW212153   1.890   4.921   1.811
 3752SOL     OW12154   5.563   5.177   6.497
 3752SOL    HW112155   5.543   5.092   6.545
 3752SOL    HW212156   5.572   5.160   6.399
 3753SOL     OW12157   0.416   1.527   3.641
 3753SOL    HW112158   0.477   1.481   3.704
 3753SOL    HW212159   0.328   1.545   3.686
 3754SOL     OW12160   3.923   1.545   1.615
 3754SOL    HW112161   3.966   1.633   1.591
 3754SOL    HW212162   3.824   1.554   1.609
 3755SOL     OW12163   2.693   6.197   3.995
 3755SOL    HW112164   2.742   6.167   4.077
 3755SOL    HW212165   2.745   6.268   3.949
 3756SOL     OW12166   1.405   6.468   0.705
 3756SOL    HW112167   1.445   6.376   0.710
 3756SOL    HW212168   1.331   6.468   0.638
 3757SOL     OW12169   0.783   5.458   6.930
 3757SOL    HW112170   0.809   5.361   6.937
 3757SOL    HW212171   0.858   5.509   6.889
 3758SOL     OW12172   0.699   6.126   4.112
 3758SOL    HW112173   0.764   6.116   4.187
 3758SOL    HW212174   0.613   6.080   4.137
 3759SOL     OW12175   4.797   0.600   3.635
 3759SOL    HW112176   4.806   0.528   3.566
 3759SOL    HW212177   4.708   0.644   3.626
 3760SOL     OW12178   0.500   1.246   3.310
 3760SOL    HW112179   0.487   1.170   3.247
 3760SOL    HW212180   0.450   1.326   3.277
 3761SOL     OW12181   4.158   1.328   4.649
 3761SOL    HW112182   4.133   1.233   4.666
 3761SOL    HW212183   4.099   1.389   4.703
 3762SOL     OW12184   6.927   2.197   3.141
 3762SOL    HW112185   6.952   2.220   3.047
 3762SOL    HW212186   6.830   2.176   3.146
 3763SOL     OW12187   0.876   6.646   6.413
 3763SOL    HW112188   0.783   6.612   6.416
 3763SOL    HW212189   0.900   6.686   6.501
 3764SOL     OW12190   4.417   1.947   2.498
 3764SOL    HW112191   4.469   1.985   2.421
 3764SOL    HW212192   4.366   1.867   2.468
 3765SOL     OW12193   5.661   3.844   2.374
 3765SOL    HW112194   5.620   3.887   2.454
 3765SOL    HW212195   5.680   3.913   2.304
 3766SOL     OW12196   2.197   2.860   2.418
 3766SOL    HW112197   2.178   2.953   2.389
 3766SOL    HW212198   2.177   2.851   2.516
 3767SOL     OW12199   1.366   6.406   5.722
 3767SOL    HW112200   1.409   6.482   5.769
 3767SOL    HW212201   1.316   6.349   5.787
 3768SOL     OW12202   1.445   6.703   4.068
 3768SOL    HW112203   1.488   6.727   3.981
 3768SOL    HW212204   1.347   6.716   4.061
 3769SOL     OW12205   4.940   5.037   6.010
 3769SOL    HW112206   5.017   4.974   6.004
 3769SOL    HW212207   4.922   5.060   6.106
 3770SOL     OW12208   2.603   0.041   0.783
 3770SOL    HW112209   2.515   0.078   0.755
 3770SOL    HW212210   2.668   0.115   0.799
 3771SOL     OW12211   6.637   6.151   5.750
 3771SOL    HW112212   6.695   6.069   5.750
 3771SOL    HW212213   6.555   6.134   5.804
 3772SOL     OW12214   3.359   5.702   1.470
 3772SOL    HW112215   3.308   5.623   1.507
 3772SOL    HW212216   3.330   5.785   1.518
 3773SOL     OW12217   4.977   4.020   6.880
 3773SOL    HW112218   4.995   3.927   6.913
 3773SOL    HW212219   4.939   4.075   6.954
 3774SOL     OW12220   0.217   4.269   0.512
 3774SOL    HW112221   0.295   4.267   0.574
 3774SOL    HW212222   0.216   4.355   0.461
 3775SOL     OW12223   5.523   6.808   4.918
 3775SOL    HW112224   5.498   6.865   4.996
 3775SOL    HW212225   5.514   6.860   4.833
 3776SOL     OW12226   4.175   2.712   6.389
 3776SOL    HW112227   4.159   2.797   6.338
 3776SOL    HW212228   4.176   2.635   6.326
 3777SOL     OW12229   3.001   5.116   3.303
 3777SOL    HW112230   3.050   5.028   3.305
 3777SOL    HW212231   3.007   5.159   3.393
 3778SOL     OW12232   2.832   5.658   6.423
 3778SOL    HW112233   2.787   5.686   6.338
 3778SOL    HW212234   2.870   5.566   6.412
 3779SOL     OW12235   6.636   4.663   6.150
 3779SOL    HW112236   6.555   4.717   6.171
 3779SOL    HW212237   6.718   4.710   6.185
 3780SOL     OW12238   6.137   2.193   1.563
 3780SOL    HW112239   6.069   2.164   1.630
 3780SOL    HW212240   6.183   2.113   1.525
 3781SOL     OW12241   1.349   0.120   6.728
 3781SOL    HW112242   1.285   0.185   6.769
 3781SOL    HW212243   1.410   0.085   6.799
 3782SOL     OW12244   3.392   5.420   6.897
 3782SOL    HW112245   3.407   5.394   6.802
 3782SOL    HW212246   3.468   5.476   6.929
 3783SOL     OW12247   4.673   5.139   5.560
 3783SOL    HW112248   4.670   5.109   5.464
 3783SOL    HW212249   4.730   5.221   5.567
 3784SOL     OW12250   5.415   3.765   5.144
 3784SOL    HW112251   5.406   3.756   5.045
 3784SOL    HW212252   5.338   3.819   5.179
 3785SOL     OW12253   0.776   3.434   2.352
 3785SOL    HW112254   0.873   3.439   2.374
 3785SOL    HW212255   0.749   3.337   2.344
 3786SOL     OW12256   2.954   3.075   5.919
 3786SOL    HW112257   2.913   3.121   5.841
 3786SOL    HW212258   2.903   3.098   6.002
 3787SOL     OW12259   5.340   6.183   5.420
 3787SOL    HW112260   5.406   6.186   5.495
 3787SOL    HW212261   5.370   6.116   5.352
 3788SOL     OW12262   5.540   3.164   6.117
 3788SOL    HW112263   5.448   3.143   6.085
 3788SOL    HW212264   5.604   3.097   6.080
 3789SOL     OW12265   1.971   4.742   1.461
 3789SOL    HW112266   2.022   4.683   1.523
 3789SOL    HW212267   1.900   4.791   1.512
 3790SOL     OW12268   2.708   0.081   1.656
 3790SOL    HW112269   2.618   0.042   1.637
 3790SOL    HW212270   2.734   0.142   1.582
 3791SOL     OW12271   4.950   0.955   4.042
 3791SOL    HW112272   5.032   0.908   4.008
 3791SOL    HW212273   4.874   0.889   4.046
 3792SOL     OW12274   6.252   0.513   3.534
 3792SOL    HW112275   6.155   0.495   3.546
 3792SOL    HW212276   6.301   0.488   3.618
 3793SOL     OW12277   5.030   3.163   6.938
 3793SOL    HW112278   5.116   3.124   6.906
 3793SOL    HW212279   4.960   3.092   6.942
 3794SOL     OW12280   1.521   5.428   5.463
 3794SOL    HW112281   1.553   5.333   5.468
 3794SOL    HW212282   1.421   5.429   5.455
 3795SOL     OW12283   3.485   6.137   0.587
 3795SOL    HW112284   3.558   6.199   0.616
 3795SOL    HW212285   3.398   6.185   0.591
 3796SOL     OW12286   5.404   1.033   0.279
 3796SOL    HW112287   5.334   0.999   0.342
 3796SOL    HW212288   5.385   1.000   0.187
 3797SOL     OW12289   6.870   1.997   1.101
 3797SOL    HW112290   6.915   1.964   1.184
 3797SOL    HW212291   6.875   1.927   1.030
 3798SOL     OW12292   6.588   3.845   4.268
 3798SOL    HW112293   6.649   3.891   4.203
 3798SOL    HW212294   6.628   3.758   4.295
 3799SOL     OW12295   6.474   1.890   2.327
 3799SOL    HW112296   6.506   1.798   2.305
 3799SOL    HW212297   6.550   1.955   2.319
 3800SOL     OW12298   5.539   3.742   1.825
 3800SOL    HW112299   5.539   3.643   1.811
 3800SOL    HW212300   5.487   3.764   1.907
 3801SOL     OW12301   5.551   1.609   0.511
 3801SOL    HW112302   5.619   1.553   0.558
 3801SOL    HW212303   5.595   1.688   0.470
 3802SOL     OW12304   6.026   3.341   3.795
 3802SOL    HW112305   6.062   3.368   3.706
 3802SOL    HW212306   5.940   3.293   3.784
 3803SOL     OW12307   4.007   4.226   6.325
 3803SOL    HW112308   3.998   4.135   6.284
 3803SOL    HW212309   4.075   4.279   6.274
 3804SOL     OW12310   3.380   6.193   2.955
 3804SOL    HW112311   3.333   6.231   2.876
 3804SOL    HW212312   3.400   6.096   2.939
 3805SOL     OW12313   2.716   1.878   6.978
 3805SOL    HW112314   2.628   1.894   6.933
 3805SOL    HW212315   2.758   1.965   7.003
 3806SOL     OW12316   1.744   3.754   1.964
 3806SOL    HW112317   1.781   3.708   2.045
 3806SOL    HW212318   1.675   3.695   1.922
 3807SOL     OW12319   0.002   3.988   4.004
 3807SOL    HW112320   0.010   3.897   3.964
 3807SOL    HW212321   6.961   4.046   3.947
 3808SOL     OW12322   2.556   6.604   5.655
 3808SOL    HW112323   2.570   6.632   5.560
 3808SOL    HW212324   2.468   6.639   5.688
 3809SOL     OW12325   5.894   2.204   1.146
 3809SOL    HW112326   5.853   2.179   1.233
 3809SOL    HW212327   5.849   2.153   1.072
 3810SOL     OW12328   4.817   1.965   3.759
 3810SOL    HW112329   4.846   1.943   3.666
 3810SOL    HW212330   4.729   1.922   3.778
 3811SOL     OW12331   0.179   6.073   5.581
 3811SOL    HW112332   0.258   6.032   5.626
 3811SOL    HW212333   0.180   6.049   5.484
 3812SOL     OW12334   4.271   5.800   7.015
 3812SOL    HW112335   4.296   5.808   0.094
 3812SOL    HW212336   4.202   5.868   6.992
 3813SOL     OW12337   0.219   3.123   6.516
 3813SOL    HW112338   0.176   3.068   6.446
 3813SOL    HW212339   0.152   3.147   6.586
 3814SOL     OW12340   0.203   0.699   5.004
 3814SOL    HW112341   0.300   0.697   5.028
 3814SOL    HW212342   0.150   0.653   5.075
 3815SOL     OW12343   4.728   2.190   5.338
 3815SOL    HW112344   4.735   2.093   5.316
 3815SOL    HW212345   4.640   2.209   5.382
 3816SOL     OW12346   6.353   6.645   1.692
 3816SOL    HW112347   6.309   6.594   1.766
 3816SOL    HW212348   6.348   6.743   1.711
 3817SOL     OW12349   3.538   3.945   2.875
 3817SOL    HW112350   3.512   3.889   2.954
 3817SOL    HW212351   3.467   4.014   2.858
 3818SOL     OW12352   4.726   5.659   1.947
 3818SOL    HW112353   4.681   5.654   2.036
 3818SOL    HW212354   4.810   5.711   1.955
 3819SOL     OW12355   6.036   2.855   2.750
 3819SOL    HW112356   5.979   2.894   2.678
 3819SOL    HW212357   6.129   2.894   2.743
 3820SOL     OW12358   2.805   6.498   5.634
 3820SOL    HW112359   2.868   6.548   5.693
 3820SOL    HW212360   2.714   6.539   5.640
 3821SOL     OW12361   1.534   6.675   1.314
 3821SOL    HW112362   1.611   6.661   1.377
 3821SOL    HW212363   1.465   6.605   1.330
 3822SOL     OW12364   5.719   6.543   1.690
 3822SOL    HW112365   5.688   6.564   1.783
 3822SOL    HW212366   5.816   6.566   1.682
 3823SOL     OW12367   5.697   6.005   4.285
 3823SOL    HW112368   5.719   6.065   4.208
 3823SOL    HW212369   5.642   6.055   4.352
 3824SOL     OW12370   2.006   2.558   0.681
 3824SOL    HW112371   2.083   2.517   0.633
 3824SOL    HW212372   1.936   2.586   0.616
 3825SOL     OW12373   0.197   4.429   5.343
 3825SOL    HW112374   0.186   4.380   5.257
 3825SOL    HW212375   0.246   4.372   5.408
 3826SOL     OW12376   4.867   4.080   3.728
 3826SOL    HW112377   4.939   4.130   3.776
 3826SOL    HW212378   4.787   4.139   3.716
 3827SOL     OW12379   0.303   1.184   0.247
 3827SOL    HW112380   0.266   1.109   0.302
 3827SOL    HW212381   0.250   1.193   0.163
 3828SOL     OW12382   3.395   3.174   5.487
 3828SOL    HW112383   3.302   3.200   5.513
 3828SOL    HW212384   3.394   3.128   5.399
 3829SOL     OW12385   6.584   2.761   1.637
 3829SOL    HW112386   6.620   2.831   1.698
 3829SOL    HW212387   6.623   2.774   1.546
 3830SOL     OW12388   5.367   6.227   3.656
 3830SOL    HW112389   5.406   6.277   3.578
 3830SOL    HW212390   5.442   6.193   3.713
 3831SOL     OW12391   5.505   2.413   4.047
 3831SOL    HW112392   5.474   2.348   3.978
 3831SOL    HW212393   5.426   2.465   4.081
 3832SOL     OW12394   6.542   1.400   3.977
 3832SOL    HW112395   6.531   1.492   4.015
 3832SOL    HW212396   6.517   1.400   3.880
 3833SOL     OW12397   2.307   3.038   5.949
 3833SOL    HW112398   2.359   3.008   5.869
 3833SOL    HW212399   2.209   3.031   5.930
 3834SOL     OW12400   4.962   4.621   1.127
 3834SOL    HW112401   5.013   4.688   1.073
 3834SOL    HW212402   4.867   4.619   1.095
 3835SOL     OW12403   4.536   5.404   4.244
 3835SOL    HW112404   4.476   5.344   4.190
 3835SOL    HW212405   4.606   5.348   4.289
 3836SOL     OW12406   0.463   0.072   5.016
 3836SOL    HW112407   0.396   0.104   5.083
 3836SOL    HW212408   0.555   0.100   5.046
 3837SOL     OW12409   5.182   4.163   5.436
 3837SOL    HW112410   5.096   4.210   5.417
 3837SOL    HW212411   5.187   4.141   5.533
 3838SOL     OW12412   0.770   1.595   3.784
 3838SOL    HW112413   0.700   1.535   3.744
 3838SOL    HW212414   0.851   1.541   3.806
 3839SOL     OW12415   4.562   1.839   3.761
 3839SOL    HW112416   4.575   1.804   3.669
 3839SOL    HW212417   4.502   1.777   3.812
 3840SOL     OW12418   3.775   1.391   6.082
 3840SOL    HW112419   3.855   1.344   6.045
 3840SOL    HW212420   3.747   1.464   6.020
 3841SOL     OW12421   5.275   4.091   2.867
 3841SOL    HW112422   5.300   4.048   2.954
 3841SOL    HW212423   5.188   4.053   2.835
 3842SOL     OW12424   1.756   4.130   4.881
 3842SOL    HW112425   1.837   4.189   4.886
 3842SOL    HW212426   1.675   4.185   4.865
 3843SOL     OW12427   5.969   1.938   6.882
 3843SOL    HW112428   5.936   2.031   6.865
 3843SOL    HW212429   5.944   1.911   6.975
 3844SOL     OW12430   6.007   6.527   0.726
 3844SOL    HW112431   5.999   6.475   0.811
 3844SOL    HW212432   6.020   6.624   0.747
 3845SOL     OW12433   2.335   5.429   0.290
 3845SOL    HW112434   2.351   5.489   0.212
 3845SOL    HW212435   2.389   5.345   0.279
 3846SOL     OW12436   6.838   3.177   2.536
 3846SOL    HW112437   6.772   3.237   2.491
 3846SOL    HW212438   6.909   3.150   2.471
 3847SOL     OW12439   0.764   0.849   0.031
 3847SOL    HW112440   0.669   0.820   0.025
 3847SOL    HW212441   0.802   0.861   6.957
 3848SOL     OW12442   5.738   4.631   2.630
 3848SOL    HW112443   5.746   4.532   2.620
 3848SOL    HW212444   5.666   4.653   2.695
 3849SOL     OW12445   0.272   2.829   5.575
 3849SOL    HW112446   0.256   2.790   5.484
 3849SOL    HW212447   0.190   2.820   5.631
 3850SOL     OW12448   3.532   3.026   1.341
 3850SOL    HW112449   3.440   3.006   1.308
 3850SOL    HW212450   3.537   3.006   1.439
 3851SOL     OW12451   0.165   5.631   2.291
 3851SOL    HW112452   0.146   5.656   2.196
 3851SOL    HW212453   0.139   5.707   2.351
 3852SOL     OW12454   2.866   0.554   5.372
 3852SOL    HW112455   2.809   0.473   5.357
 3852SOL    HW212456   2.846   0.592   5.462
 3853SOL     OW12457   2.069   1.049   3.082
 3853SOL    HW112458   2.164   1.079   3.069
 3853SOL    HW212459   2.027   1.034   2.992
 3854SOL     OW12460   0.271   1.482   1.840
 3854SOL    HW112461   0.321   1.475   1.926
 3854SOL    HW212462   0.320   1.431   1.769
 3855SOL     OW12463   3.209   5.952   6.677
 3855SOL    HW112464   3.235   6.040   6.715
 3855SOL    HW212465   3.109   5.945   6.675
 3856SOL     OW12466   0.133   2.723   6.406
 3856SOL    HW112467   0.084   2.712   6.493
 3856SOL    HW212468   0.133   2.819   6.380
 3857SOL     OW12469   1.181   0.450   5.986
 3857SOL    HW112470   1.214   0.478   6.076
 3857SOL    HW212471   1.121   0.521   5.950
 3858SOL     OW12472   3.348   0.768   5.022
 3858SOL    HW112473   3.447   0.781   5.014
 3858SOL    HW212474   3.328   0.695   5.087
 3859SOL     OW12475   5.438   0.391   2.783
 3859SOL    HW112476   5.349   0.368   2.743
 3859SOL    HW212477   5.427   0.466   2.847
 3860SOL     OW12478   1.528   6.275   4.650
 3860SOL    HW112479   1.513   6.258   4.747
 3860SOL    HW212480   1.445   6.313   4.609
 3861SOL     OW12481   3.023   5.949   2.408
 3861SOL    HW112482   3.018   6.018   2.335
 3861SOL    HW212483   3.003   5.992   2.496
 3862SOL     OW12484   1.730   0.413   4.050
 3862SOL    HW112485   1.785   0.348   3.998
 3862SOL    HW212486   1.724   0.385   4.145
 3863SOL     OW12487   4.235   0.368   1.168
 3863SOL    HW112488   4.213   0.341   1.074
 3863SOL    HW212489   4.163   0.428   1.203
 3864SOL     OW12490   0.966   0.663   5.144
 3864SOL    HW112491   0.974   0.723   5.065
 3864SOL    HW212492   0.994   0.712   5.226
 3865SOL     OW12493   5.357   1.083   0.895
 3865SOL    HW112494   5.405   0.998   0.873
 3865SOL    HW212495   5.283   1.064   0.960
 3866SOL     OW12496   3.241   1.249   6.817
 3866SOL    HW112497   3.320   1.228   6.875
 3866SOL    HW212498   3.157   1.228   6.867
 3867SOL     OW12499   6.426   3.303   2.045
 3867SOL    HW112500   6.413   3.211   2.083
 3867SOL    HW212501   6.390   3.307   1.952
 3868SOL     OW12502   4.265   0.897   0.308
 3868SOL    HW112503   4.209   0.866   0.231
 3868SOL    HW212504   4.218   0.971   0.355
 3869SOL     OW12505   3.711   0.920   3.775
 3869SOL    HW112506   3.766   0.920   3.692
 3869SOL    HW212507   3.623   0.876   3.757
 3870SOL     OW12508   6.905   1.734   5.602
 3870SOL    HW112509   6.950   1.672   5.666
 3870SOL    HW212510   6.923   1.829   5.629
 3871SOL     OW12511   2.574   4.961   3.982
 3871SOL    HW112512   2.583   5.003   4.072
 3871SOL    HW212513   2.654   4.904   3.964
 3872SOL     OW12514   3.009   4.046   5.386
 3872SOL    HW112515   2.942   4.023   5.316
 3872SOL    HW212516   2.963   4.091   5.463
 3873SOL     OW12517   5.250   2.385   6.452
 3873SOL    HW112518   5.329   2.405   6.394
 3873SOL    HW212519   5.199   2.308   6.413
 3874SOL     OW12520   1.945   1.099   1.703
 3874SOL    HW112521   1.914   1.193   1.711
 3874SOL    HW212522   2.030   1.088   1.756
 3875SOL     OW12523   0.798   0.992   6.746
 3875SOL    HW112524   0.748   1.055   6.806
 3875SOL    HW212525   0.765   1.001   6.652
 3876SOL     OW12526   3.060   5.445   2.092
 3876SOL    HW112527   2.993   5.380   2.128
 3876SOL    HW212528   3.012   5.518   2.043
 3877SOL     OW12529   0.920   1.443   5.867
 3877SOL    HW112530   0.857   1.390   5.810
 3877SOL    HW212531   0.906   1.417   5.963
 3878SOL     OW12532   4.374   1.705   4.879
 3878SOL    HW112533   4.381   1.728   4.782
 3878SOL    HW212534   4.290   1.744   4.916
 3879SOL     OW12535   5.423   5.714   6.660
 3879SOL    HW112536   5.462   5.776   6.727
 3879SOL    HW212537   5.482   5.634   6.650
 3880SOL     OW12538   5.010   4.843   3.896
 3880SOL    HW112539   5.005   4.826   3.797
 3880SOL    HW212540   5.106   4.850   3.923
 3881SOL     OW12541   1.645   2.607   0.096
 3881SOL    HW112542   1.585   2.562   0.162
 3881SOL    HW212543   1.740   2.587   0.119
 3882SOL     OW12544   0.712   2.029   6.152
 3882SOL    HW112545   0.780   2.101   6.138
 3882SOL    HW212546   0.647   2.029   6.076
 3883SOL     OW12547   4.135   6.068   4.052
 3883SOL    HW112548   4.156   5.970   4.046
 3883SOL    HW212549   4.137   6.096   4.148
 3884SOL     OW12550   6.761   3.193   1.934
 3884SOL    HW112551   6.744   3.142   2.018
 3884SOL    HW212552   6.855   3.228   1.935
 3885SOL     OW12553   4.214   5.417   1.982
 3885SOL    HW112554   4.233   5.320   1.999
 3885SOL    HW212555   4.149   5.425   1.906
 3886SOL     OW12556   2.848   5.068   6.237
 3886SOL    HW112557   2.879   5.124   6.160
 3886SOL    HW212558   2.753   5.089   6.258
 3887SOL     OW12559   1.941   5.805   1.955
 3887SOL    HW112560   1.950   5.869   1.879
 3887SOL    HW212561   1.940   5.711   1.921
 3888SOL     OW12562   5.262   4.734   3.247
 3888SOL    HW112563   5.169   4.708   3.270
 3888SOL    HW212564   5.323   4.711   3.324
 3889SOL     OW12565   5.917   3.617   0.237
 3889SOL    HW112566   6.000   3.642   0.187
 3889SOL    HW212567   5.921   3.520   0.262
 3890SOL     OW12568   5.110   3.963   3.946
 3890SOL    HW112569   5.209   3.949   3.950
 3890SOL    HW212570   5.090   4.061   3.953
 3891SOL     OW12571   4.876   5.061   3.709
 3891SOL    HW112572   4.783   5.078   3.741
 3891SOL    HW212573   4.940   5.075   3.785
 3892SOL     OW12574   6.948   2.372   1.322
 3892SOL    HW112575   6.851   2.359   1.340
 3892SOL    HW212576   6.989   2.427   1.395
 3893SOL     OW12577   3.717   3.197   3.659
 3893SOL    HW112578   3.769   3.127   3.707
 3893SOL    HW212579   3.620   3.186   3.681
 3894SOL     OW12580   4.012   0.898   5.954
 3894SOL    HW112581   4.087   0.843   5.918
 3894SOL    HW212582   3.993   0.870   6.049
 3895SOL     OW12583   0.682   0.181   4.293
 3895SOL    HW112584   0.728   0.269   4.287
 3895SOL    HW212585   0.603   0.181   4.231
 3896SOL     OW12586   2.201   1.535   6.799
 3896SOL    HW112587   2.260   1.559   6.876
 3896SOL    HW212588   2.254   1.537   6.715
 3897SOL     OW12589   3.162   6.158   0.840
 3897SOL    HW112590   3.117   6.116   0.761
 3897SOL    HW212591   3.256   6.125   0.847
 3898SOL     OW12592   4.166   3.160   1.254
 3898SOL    HW112593   4.129   3.175   1.162
 3898SOL    HW212594   4.171   3.248   1.302
 3899SOL     OW12595   3.071   6.740   5.321
 3899SOL    HW112596   3.155   6.711   5.367
 3899SOL    HW212597   3.013   6.660   5.303
 3900SOL     OW12598   4.469   4.782   2.804
 3900SOL    HW112599   4.438   4.871   2.772
 3900SOL    HW212600   4.471   4.782   2.904
 3901SOL     OW12601   3.168   1.592   0.320
 3901SOL    HW112602   3.128   1.503   0.299
 3901SOL    HW212603   3.102   1.664   0.302
 3902SOL     OW12604   5.139   2.865   2.597
 3902SOL    HW112605   5.196   2.863   2.515
 3902SOL    HW212606   5.147   2.778   2.646
 3903SOL     OW12607   3.665   4.680   6.881
 3903SOL    HW112608   3.741   4.636   6.832
 3903SOL    HW212609   3.702   4.742   6.950
 3904SOL     OW12610   1.696   6.641   1.040
 3904SOL    HW112611   1.738   6.554   1.015
 3904SOL    HW212612   1.666   6.637   1.135
 3905SOL     OW12613   0.005   6.506   5.368
 3905SOL    HW112614   0.070   6.579   5.347
 3905SOL    HW212615   6.934   6.546   5.390
 3906SOL     OW12616   0.428   6.379   5.463
 3906SOL    HW112617   0.348   6.333   5.424
 3906SOL    HW212618   0.511   6.334   5.431
 3907SOL     OW12619   5.396   2.184   3.938
 3907SOL    HW112620   5.359   2.148   4.023
 3907SOL    HW212621   5.423   2.108   3.879
 3908SOL     OW12622   2.599   3.868   5.919
 3908SOL    HW112623   2.545   3.842   5.838
 3908SOL    HW212624   2.557   3.948   5.963
 3909SOL     OW12625   4.746   5.729   3.872
 3909SOL    HW112626   4.789   5.807   3.828
 3909SOL    HW212627   4.808   5.689   3.939
 3910SOL     OW12628   3.667   3.917   2.393
 3910SOL    HW112629   3.574   3.918   2.358
 3910SOL    HW212630   3.731   3.929   2.317
 3911SOL     OW12631   5.786   2.226   5.397
 3911SOL    HW112632   5.744   2.150   5.348
 3911SOL    HW212633   5.836   2.284   5.333
 3912SOL     OW12634   5.767   2.857   6.381
 3912SOL    HW112635   5.762   2.954   6.359
 3912SOL    HW212636   5.681   2.828   6.424
 3913SOL     OW12637   1.226   6.945   1.633
 3913SOL    HW112638   1.265   0.020   1.630
 3913SOL    HW212639   1.253   6.895   1.551
 3914SOL     OW12640   3.322   5.935   5.330
 3914SOL    HW112641   3.230   5.937   5.291
 3914SOL    HW212642   3.363   5.846   5.312
 3915SOL     OW12643   5.633   5.655   1.645
 3915SOL    HW112644   5.610   5.714   1.567
 3915SOL    HW212645   5.549   5.615   1.682
 3916SOL     OW12646   0.225   0.126   3.628
 3916SOL    HW112647   0.250   0.039   3.587
 3916SOL    HW212648   0.171   0.180   3.563
 3917SOL     OW12649   2.952   6.984   6.896
 3917SOL    HW112650   2.917   6.920   6.827
 3917SOL    HW212651   3.050   6.999   6.880
 3918SOL     OW12652   6.104   3.794   6.857
 3918SOL    HW112653   6.048   3.718   6.827
 3918SOL    HW212654   6.059   3.880   6.834
 3919SOL     OW12655   3.582   6.548   0.431
 3919SOL    HW112656   3.493   6.551   0.477
 3919SOL    HW212657   3.622   6.639   0.428
 3920SOL     OW12658   2.199   0.935   0.155
 3920SOL    HW112659   2.109   0.907   0.190
 3920SOL    HW212660   2.233   0.866   0.091
 3921SOL     OW12661   0.714   3.282   0.959
 3921SOL    HW112662   0.692   3.335   1.040
 3921SOL    HW212663   0.630   3.260   0.909
 3922SOL     OW12664   0.689   5.506   1.040
 3922SOL    HW112665   0.630   5.508   0.958
 3922SOL    HW212666   0.658   5.434   1.101
 3923SOL     OW12667   0.041   5.893   0.491
 3923SOL    HW112668   0.017   5.853   0.402
 3923SOL    HW212669   6.976   5.929   0.534
 3924SOL     OW12670   6.268   5.041   4.319
 3924SOL    HW112671   6.302   4.972   4.383
 3924SOL    HW212672   6.169   5.036   4.313
 3925SOL     OW12673   1.080   5.007   1.051
 3925SOL    HW112674   1.037   4.966   0.970
 3925SOL    HW212675   1.010   5.033   1.117
 3926SOL     OW12676   3.349   5.474   2.989
 3926SOL    HW112677   3.270   5.527   2.958
 3926SOL    HW212678   3.355   5.479   3.089
 3927SOL     OW12679   2.463   3.622   6.561
 3927SOL    HW112680   2.505   3.635   6.651
 3927SOL    HW212681   2.366   3.646   6.565
 3928SOL     OW12682   6.965   6.429   6.310
 3928SOL    HW112683   0.002   6.509   6.337
 3928SOL    HW212684   6.932   6.442   6.216
 3929SOL     OW12685   1.091   1.762   4.858
 3929SOL    HW112686   1.160   1.798   4.794
 3929SOL    HW212687   1.084   1.663   4.847
 3930SOL     OW12688   3.147   1.357   4.087
 3930SOL    HW112689   3.056   1.351   4.127
 3930SOL    HW212690   3.181   1.451   4.093
 3931SOL     OW12691   3.937   6.732   2.313
 3931SOL    HW112692   4.003   6.668   2.353
 3931SOL    HW212693   3.854   6.734   2.368
 3932SOL     OW12694   1.788   3.186   3.511
 3932SOL    HW112695   1.871   3.237   3.485
 3932SOL    HW212696   1.811   3.121   3.583
 3933SOL     OW12697   2.210   1.293   6.132
 3933SOL    HW112698   2.280   1.227   6.104
 3933SOL    HW212699   2.120   1.261   6.102
 3934SOL     OW12700   5.504   5.939   6.767
 3934SOL    HW112701   5.462   6.018   6.721
 3934SOL    HW212702   5.589   5.968   6.812
 3935SOL     OW12703   4.780   6.825   2.411
 3935SOL    HW112704   4.813   6.764   2.339
 3935SOL    HW212705   4.689   6.859   2.387
 3936SOL     OW12706   1.006   4.185   2.302
 3936SOL    HW112707   0.913   4.146   2.301
 3936SOL    HW212708   1.032   4.205   2.397
 3937SOL     OW12709   0.344   1.977   2.611
 3937SOL    HW112710   0.366   1.882   2.592
 3937SOL    HW212711   0.399   2.009   2.689
 3938SOL     OW12712   6.182   3.171   3.075
 3938SOL    HW112713   6.146   3.085   3.113
 3938SOL    HW212714   6.139   3.188   2.987
 3939SOL     OW12715   2.143   2.223   1.490
 3939SOL    HW112716   2.243   2.229   1.483
 3939SOL    HW212717   2.102   2.235   1.399
 3940SOL     OW12718   4.158   4.505   0.802
 3940SOL    HW112719   4.075   4.560   0.803
 3940SOL    HW212720   4.172   4.465   0.893
 3941SOL     OW12721   5.441   3.253   0.210
 3941SOL    HW112722   5.444   3.233   0.308
 3941SOL    HW212723   5.378   3.329   0.194
 3942SOL     OW12724   6.632   6.881   1.065
 3942SOL    HW112725   6.532   6.874   1.063
 3942SOL    HW212726   6.665   6.900   0.972
 3943SOL     OW12727   6.555   2.874   4.923
 3943SOL    HW112728   6.567   2.797   4.860
 3943SOL    HW212729   6.523   2.840   5.011
 3944SOL     OW12730   5.766   1.693   4.931
 3944SOL    HW112731   5.789   1.790   4.929
 3944SOL    HW212732   5.850   1.639   4.925
 3945SOL     OW12733   0.238   6.815   0.771
 3945SOL    HW112734   0.205   6.776   0.857
 3945SOL    HW212735   0.182   6.893   0.747
 3946SOL     OW12736   3.526   4.907   3.428
 3946SOL    HW112737   3.494   4.871   3.340
 3946SOL    HW212738   3.616   4.869   3.449
 3947SOL     OW12739   6.942   4.193   5.800
 3947SOL    HW112740   6.912   4.260   5.732
 3947SOL    HW212741   6.994   4.120   5.754
 3948SOL     OW12742   6.451   3.693   1.003
 3948SOL    HW112743   6.486   3.731   1.089
 3948SOL    HW212744   6.473   3.595   0.999
 3949SOL     OW12745   5.586   6.518   2.976
 3949SOL    HW112746   5.668   6.518   3.032
 3949SOL    HW212747   5.580   6.433   2.925
 3950SOL     OW12748   1.534   6.409   0.426
 3950SOL    HW112749   1.443   6.403   0.468
 3950SOL    HW212750   1.577   6.319   0.426
 3951SOL     OW12751   5.745   5.404   2.171
 3951SOL    HW112752   5.700   5.461   2.103
 3951SOL    HW212753   5.684   5.392   2.250
 3952SOL     OW12754   6.165   1.283   6.324
 3952SOL    HW112755   6.238   1.221   6.352
 3952SOL    HW212756   6.125   1.326   6.405
 3953SOL     OW12757   2.954   3.142   2.742
 3953SOL    HW112758   3.008   3.065   2.707
 3953SOL    HW212759   2.911   3.190   2.665
 3954SOL     OW12760   4.110   4.124   6.052
 3954SOL    HW112761   4.200   4.158   6.026
 3954SOL    HW212762   4.117   4.029   6.082
 3955SOL     OW12763   3.572   1.037   4.921
 3955SOL    HW112764   3.512   1.104   4.879
 3955SOL    HW212765   3.517   0.960   4.955
 3956SOL     OW12766   2.046   1.577   0.744
 3956SOL    HW112767   2.127   1.543   0.792
 3956SOL    HW212768   2.072   1.648   0.679
 3957SOL     OW12769   4.341   1.661   3.800
 3957SOL    HW112770   4.336   1.691   3.895
 3957SOL    HW212771   4.251   1.669   3.758
 3958SOL     OW12772   5.158   6.392   5.938
 3958SOL    HW112773   5.174   6.390   6.037
 3958SOL    HW212774   5.238   6.429   5.892
 3959SOL     OW12775   5.889   5.572   6.217
 3959SOL    HW112776   5.952   5.500   6.246
 3959SOL    HW212777   5.824   5.591   6.290
 3960SOL     OW12778   5.781   2.740   4.649
 3960SOL    HW112779   5.749   2.813   4.588
 3960SOL    HW212780   5.708   2.716   4.713
 3961SOL     OW12781   4.887   6.852   4.204
 3961SOL    HW112782   4.963   6.792   4.178
 3961SOL    HW212783   4.906   6.945   4.170
 3962SOL     OW12784   6.630   5.091   4.928
 3962SOL    HW112785   6.534   5.079   4.953
 3962SOL    HW212786   6.688   5.068   5.005
 3963SOL     OW12787   3.791   6.691   2.088
 3963SOL    HW112788   3.849   6.666   2.165
 3963SOL    HW212789   3.724   6.759   2.117
 3964SOL     OW12790   5.532   2.726   3.812
 3964SOL    HW112791   5.566   2.637   3.783
 3964SOL    HW212792   5.466   2.760   3.745
 3965SOL     OW12793   5.127   4.200   4.177
 3965SOL    HW112794   5.034   4.196   4.140
 3965SOL    HW212795   5.151   4.296   4.194
 3966SOL     OW12796   2.700   6.694   6.510
 3966SOL    HW112797   2.668   6.776   6.557
 3966SOL    HW212798   2.656   6.688   6.420
 3967SOL     OW12799   1.520   4.028   3.841
 3967SOL    HW112800   1.600   3.999   3.893
 3967SOL    HW212801   1.522   4.127   3.830
 3968SOL     OW12802   4.298   6.994   0.926
 3968SOL    HW112803   4.307   6.973   1.023
 3968SOL    HW212804   4.243   0.059   0.914
 3969SOL     OW12805   0.256   4.479   3.565
 3969SOL    HW112806   0.158   4.465   3.547
 3969SOL    HW212807   0.309   4.411   3.516
 3970SOL     OW12808   4.599   6.145   1.448
 3970SOL    HW112809   4.530   6.217   1.448
 3970SOL    HW212810   4.635   6.133   1.540
 3971SOL     OW12811   0.783   5.955   3.750
 3971SOL    HW112812   0.809   5.920   3.660
 3971SOL    HW212813   0.823   6.045   3.764
 3972SOL     OW12814   1.432   3.998   0.278
 3972SOL    HW112815   1.510   3.988   0.340
 3972SOL    HW212816   1.356   4.041   0.327
 3973SOL     OW12817   1.855   4.474   0.815
 3973SOL    HW112818   1.949   4.443   0.800
 3973SOL    HW212819   1.844   4.501   0.911
 3974SOL     OW12820   2.763   0.588   6.043
 3974SOL    HW112821   2.676   0.618   6.003
 3974SOL    HW212822   2.792   0.502   6.000
 3975SOL     OW12823   6.679   3.217   0.029
 3975SOL    HW112824   6.731   3.184   0.108
 3975SOL    HW212825   6.740   3.269   6.986
 3976SOL     OW12826   1.457   4.347   2.488
 3976SOL    HW112827   1.446   4.442   2.518
 3976SOL    HW212828   1.400   4.330   2.407
 3977SOL     OW12829   0.678   2.600   0.082
 3977SOL    HW112830   0.678   2.611   7.000
 3977SOL    HW212831   0.699   2.505   0.106
 3978SOL     OW12832   5.694   4.178   4.007
 3978SOL    HW112833   5.767   4.222   3.954
 3978SOL    HW212834   5.707   4.196   4.104
 3979SOL     OW12835   3.908   5.821   6.069
 3979SOL    HW112836   3.940   5.825   6.163
 3979SOL    HW212837   3.986   5.811   6.007
 3980SOL     OW12838   5.393   4.858   6.024
 3980SOL    HW112839   5.417   4.938   5.968
 3980SOL    HW212840   5.402   4.881   6.121
 3981SOL     OW12841   4.690   5.419   6.896
 3981SOL    HW112842   4.737   5.474   6.828
 3981SOL    HW212843   4.719   5.324   6.889
 3982SOL     OW12844   2.284   6.165   2.833
 3982SOL    HW112845   2.368   6.202   2.874
 3982SOL    HW212846   2.206   6.191   2.890
 3983SOL     OW12847   3.370   6.167   4.379
 3983SOL    HW112848   3.325   6.085   4.344
 3983SOL    HW212849   3.396   6.226   4.303
 3984SOL     OW12850   6.559   2.809   3.145
 3984SOL    HW112851   6.519   2.895   3.178
 3984SOL    HW212852   6.491   2.761   3.088
 3985SOL     OW12853   4.022   5.234   6.060
 3985SOL    HW112854   4.090   5.168   6.092
 3985SOL    HW212855   3.969   5.268   6.137
 3986SOL     OW12856   5.353   0.595   2.947
 3986SOL    HW112857   5.409   0.678   2.955
 3986SOL    HW212858   5.267   0.609   2.996
 3987SOL     OW12859   3.517   5.273   5.659
 3987SOL    HW112860   3.521   5.245   5.755
 3987SOL    HW212861   3.536   5.194   5.600
 3988SOL     OW12862   4.833   5.724   0.797
 3988SOL    HW112863   4.784   5.756   0.716
 3988SOL    HW212864   4.870   5.633   0.781
 3989SOL     OW12865   6.387   2.836   1.353
 3989SOL    HW112866   6.472   2.887   1.338
 3989SOL    HW212867   6.313   2.881   1.303
 3990SOL     OW12868   6.614   1.655   1.716
 3990SOL    HW112869   6.542   1.687   1.777
 3990SOL    HW212870   6.671   1.732   1.688
 3991SOL     OW12871   5.280   1.322   3.439
 3991SOL    HW112872   5.298   1.225   3.452
 3991SOL    HW212873   5.301   1.348   3.345
 3992SOL     OW12874   4.570   1.611   1.479
 3992SOL    HW112875   4.626   1.694   1.478
 3992SOL    HW212876   4.535   1.594   1.387
 3993SOL     OW12877   1.141   3.295   1.456
 3993SOL    HW112878   1.149   3.277   1.554
 3993SOL    HW212879   1.099   3.385   1.442
 3994SOL     OW12880   2.512   5.556   4.303
 3994SOL    HW112881   2.527   5.647   4.265
 3994SOL    HW212882   2.542   5.487   4.236
 3995SOL     OW12883   1.439   2.171   4.074
 3995SOL    HW112884   1.412   2.250   4.019
 3995SOL    HW212885   1.514   2.123   4.029
 3996SOL     OW12886   0.160   5.678   4.510
 3996SOL    HW112887   0.183   5.615   4.436
 3996SOL    HW212888   0.142   5.626   4.593
 3997SOL     OW12889   2.767   0.726   3.100
 3997SOL    HW112890   2.855   0.680   3.109
 3997SOL    HW212891   2.728   0.706   3.010
 3998SOL     OW12892   4.216   2.289   2.842
 3998SOL    HW112893   4.254   2.203   2.810
 3998SOL    HW212894   4.287   2.359   2.842
 3999SOL     OW12895   4.487   1.390   4.230
 3999SOL    HW112896   4.489   1.459   4.158
 3999SOL    HW212897   4.505   1.433   4.319
 4000SOL     OW12898   4.600   5.720   4.594
 4000SOL    HW112899   4.558   5.810   4.603
 4000SOL    HW212900   4.555   5.670   4.520
 4001SOL     OW12901   0.827   1.930   4.729
 4001SOL    HW112902   0.908   1.910   4.674
 4001SOL    HW212903   0.855   1.960   4.820
 4002SOL     OW12904   2.086   4.669   1.744
 4002SOL    HW112905   2.002   4.619   1.725
 4002SOL    HW212906   2.063   4.763   1.770
 4003SOL     OW12907   3.723   2.056   4.770
 4003SOL    HW112908   3.817   2.064   4.738
 4003SOL    HW212909   3.704   2.126   4.838
 4004SOL     OW12910   6.690   1.713   6.315
 4004SOL    HW112911   6.618   1.676   6.256
 4004SOL    HW212912   6.657   1.714   6.410
 4005SOL     OW12913   6.592   4.500   4.455
 4005SOL    HW112914   6.595   4.505   4.356
 4005SOL    HW212915   6.683   4.521   4.492
 4006SOL     OW12916   3.747   6.037   3.492
 4006SOL    HW112917   3.657   6.038   3.447
 4006SOL    HW212918   3.806   5.971   3.446
 4007SOL     OW12919   0.249   1.686   5.622
 4007SOL    HW112920   0.341   1.655   5.647
 4007SOL    HW212921   0.232   1.664   5.526
 4008SOL     OW12922   2.882   1.487   5.390
 4008SOL    HW112923   2.851   1.481   5.295
 4008SOL    HW212924   2.975   1.522   5.392
 4009SOL     OW12925   3.294   3.785   3.051
 4009SOL    HW112926   3.308   3.696   3.009
 4009SOL    HW212927   3.227   3.837   2.998
 4010SOL     OW12928   1.337   3.258   0.358
 4010SOL    HW112929   1.367   3.184   0.418
 4010SOL    HW212930   1.268   3.313   0.406
 4011SOL     OW12931   0.601   1.852   0.924
 4011SOL    HW112932   0.545   1.870   0.844
 4011SOL    HW212933   0.551   1.792   0.987
 4012SOL     OW12934   5.563   3.145   3.294
 4012SOL    HW112935   5.513   3.060   3.278
 4012SOL    HW212936   5.653   3.125   3.331
 4013SOL     OW12937   5.048   2.618   3.053
 4013SOL    HW112938   4.957   2.637   3.090
 4013SOL    HW212939   5.114   2.682   3.093
 4014SOL     OW12940   5.388   4.561   2.407
 4014SOL    HW112941   5.475   4.602   2.378
 4014SOL    HW212942   5.396   4.529   2.502
 4015SOL     OW12943   5.528   3.438   0.485
 4015SOL    HW112944   5.431   3.433   0.460
 4015SOL    HW212945   5.576   3.500   0.423
 4016SOL     OW12946   2.965   6.430   4.719
 4016SOL    HW112947   2.896   6.385   4.777
 4016SOL    HW212948   2.935   6.429   4.624
 4017SOL     OW12949   5.511   6.982   6.232
 4017SOL    HW112950   5.507   6.891   6.191
 4017SOL    HW212951   5.497   0.034   6.161
 4018SOL     OW12952   2.368   0.353   6.935
 4018SOL    HW112953   2.393   0.450   6.940
 4018SOL    HW212954   2.370   0.313   0.009
 4019SOL     OW12955   5.315   6.478   3.854
 4019SOL    HW112956   5.344   6.382   3.845
 4019SOL    HW212957   5.218   6.486   3.832
 4020SOL     OW12958   5.611   1.508   4.401
 4020SOL    HW112959   5.548   1.445   4.446
 4020SOL    HW212960   5.640   1.578   4.466
 4021SOL     OW12961   5.482   3.791   0.045
 4021SOL    HW112962   5.409   3.739   0.002
 4021SOL    HW212963   5.570   3.765   0.003
 4022SOL     OW12964   5.893   0.561   1.270
 4022SOL    HW112965   5.905   0.634   1.203
 4022SOL    HW212966   5.840   0.487   1.230
 4023SOL     OW12967   6.649   6.084   5.244
 4023SOL    HW112968   6.711   6.162   5.259
 4023SOL    HW212969   6.559   6.118   5.219
 4024SOL     OW12970   4.452   4.320   5.421
 4024SOL    HW112971   4.382   4.304   5.491
 4024SOL    HW212972   4.513   4.393   5.452
 4025SOL     OW12973   0.030   3.713   3.931
 4025SOL    HW112974   6.973   3.648   3.944
 4025SOL    HW212975   0.117   3.668   3.949
 4026SOL     OW12976   6.117   0.977   5.139
 4026SOL    HW112977   6.118   0.949   5.043
 4026SOL    HW212978   6.161   0.907   5.195
 4027SOL     OW12979   2.640   5.195   2.932
 4027SOL    HW112980   2.603   5.102   2.942
 4027SOL    HW212981   2.693   5.218   3.013
 4028SOL     OW12982   1.375   5.439   3.108
 4028SOL    HW112983   1.304   5.382   3.066
 4028SOL    HW212984   1.459   5.433   3.054
 4029SOL     OW12985   1.475   3.974   3.329
 4029SOL    HW112986   1.444   4.064   3.357
 4029SOL    HW212987   1.493   3.918   3.410
 4030SOL     OW12988   2.479   1.102   6.491
 4030SOL    HW112989   2.445   1.185   6.447
 4030SOL    HW212990   2.424   1.082   6.572
 4031SOL     OW12991   6.692   6.072   4.498
 4031SOL    HW112992   6.743   6.127   4.432
 4031SOL    HW212993   6.595   6.072   4.474
 4032SOL     OW12994   3.159   6.583   4.997
 4032SOL    HW112995   3.203   6.519   4.935
 4032SOL    HW212996   3.082   6.628   4.951
 4033SOL     OW12997   3.609   3.837   6.208
 4033SOL    HW112998   3.697   3.819   6.163
 4033SOL    HW212999   3.617   3.919   6.265
 4034SOL     OW13000   5.848   3.489   5.065
 4034SOL    HW113001   5.849   3.413   5.130
 4034SOL    HW213002   5.829   3.574   5.114
 4035SOL     OW13003   0.249   6.220   2.003
 4035SOL    HW113004   0.200   6.237   1.917
 4035SOL    HW213005   0.292   6.305   2.034
 4036SOL     OW13006   6.262   5.780   1.458
 4036SOL    HW113007   6.235   5.686   1.436
 4036SOL    HW213008   6.181   5.832   1.483
 4037SOL     OW13009   0.764   3.705   6.343
 4037SOL    HW113010   0.853   3.736   6.310
 4037SOL    HW213011   0.703   3.784   6.353
 4038SOL     OW13012   6.242   5.596   3.630
 4038SOL    HW113013   6.285   5.545   3.555
 4038SOL    HW213014   6.143   5.598   3.616
 4039SOL     OW13015   2.669   4.824   1.036
 4039SOL    HW113016   2.730   4.904   1.041
 4039SOL    HW213017   2.703   4.753   1.097
 4040SOL     OW13018   3.466   6.946   6.988
 4040SOL    HW113019   3.528   0.007   6.985
 4040SOL    HW213020   3.415   6.946   0.057
 4041SOL     OW13021   0.380   5.888   3.473
 4041SOL    HW113022   0.448   5.820   3.499
 4041SOL    HW213023   0.390   5.911   3.377
 4042SOL     OW13024   5.745   5.733   1.953
 4042SOL    HW113025   5.769   5.797   1.881
 4042SOL    HW213026   5.714   5.647   1.912
 4043SOL     OW13027   0.006   3.468   1.033
 4043SOL    HW113028   0.008   3.554   1.083
 4043SOL    HW213029   0.098   3.428   1.033
 4044SOL     OW13030   5.612   4.728   2.352
 4044SOL    HW113031   5.581   4.817   2.318
 4044SOL    HW213032   5.643   4.737   2.447
 4045SOL     OW13033   2.590   5.109   5.336
 4045SOL    HW113034   2.554   5.017   5.354
 4045SOL    HW213035   2.551   5.174   5.401
 4046SOL     OW13036   0.307   3.500   0.712
 4046SOL    HW113037   0.346   3.417   0.751
 4046SOL    HW213038   0.207   3.493   0.713
 4047SOL     OW13039   2.999   3.196   3.200
 4047SOL    HW113040   3.001   3.096   3.208
 4047SOL    HW213041   3.051   3.236   3.276
 4048SOL     OW13042   5.128   2.294   0.442
 4048SOL    HW113043   5.084   2.384   0.432
 4048SOL    HW213044   5.100   2.235   0.366
 4049SOL     OW13045   6.887   6.687   6.524
 4049SOL    HW113046   6.923   6.678   6.616
 4049SOL    HW213047   6.962   6.680   6.457
 4050SOL     OW13048   2.261   0.989   2.745
 4050SOL    HW113049   2.264   0.995   2.645
 4050SOL    HW213050   2.328   0.921   2.776
 4051SOL     OW13051   2.827   3.452   0.798
 4051SOL    HW113052   2.822   3.532   0.738
 4051SOL    HW213053   2.915   3.405   0.784
 4052SOL     OW13054   1.536   0.221   0.720
 4052SOL    HW113055   1.514   0.213   0.623
 4052SOL    HW213056   1.618   0.277   0.731
 4053SOL     OW13057   2.402   5.282   2.598
 4053SOL    HW113058   2.492   5.256   2.562
 4053SOL    HW213059   2.413   5.324   2.688
 4054SOL     OW13060   5.300   1.545   6.309
 4054SOL    HW113061   5.386   1.497   6.293
 4054SOL    HW213062   5.308   1.599   6.393
 4055SOL     OW13063   4.527   3.429   6.498
 4055SOL    HW113064   4.444   3.423   6.443
 4055SOL    HW213065   4.584   3.505   6.465
 4056SOL     OW13066   4.563   2.872   6.759
 4056SOL    HW113067   4.529   2.965   6.774
 4056SOL    HW213068   4.551   2.818   6.842
 4057SOL     OW13069   6.599   2.391   0.621
 4057SOL    HW113070   6.547   2.416   0.702
 4057SOL    HW213071   6.674   2.330   0.648
 4058SOL     OW13072   0.733   3.452   3.779
 4058SOL    HW113073   0.826   3.474   3.810
 4058SOL    HW213074   0.680   3.536   3.770
 4059SOL     OW13075   0.362   2.023   4.780
 4059SOL    HW113076   0.276   2.060   4.744
 4059SOL    HW213077   0.378   2.059   4.872
 4060SOL     OW13078   2.305   6.673   5.708
 4060SOL    HW113079   2.260   6.723   5.781
 4060SOL    HW213080   2.245   6.600   5.675
 4061SOL     OW13081   1.924   2.801   1.486
 4061SOL    HW113082   2.006   2.761   1.527
 4061SOL    HW213083   1.846   2.740   1.504
 4062SOL     OW13084   2.938   0.456   3.342
 4062SOL    HW113085   2.959   0.533   3.281
 4062SOL    HW213086   2.996   0.378   3.319
 4063SOL     OW13087   3.629   6.331   6.236
 4063SOL    HW113088   3.599   6.286   6.320
 4063SOL    HW213089   3.722   6.366   6.249
 4064SOL     OW13090   6.186   6.830   4.640
 4064SOL    HW113091   6.225   6.840   4.731
 4064SOL    HW213092   6.113   6.898   4.627
 4065SOL     OW13093   1.229   4.243   5.609
 4065SOL    HW113094   1.160   4.218   5.677
 4065SOL    HW213095   1.203   4.330   5.566
 4066SOL     OW13096   4.807   4.520   2.225
 4066SOL    HW113097   4.850   4.564   2.305
 4066SOL    HW213098   4.727   4.468   2.254
 4067SOL     OW13099   5.395   0.404   1.526
 4067SOL    HW113100   5.364   0.455   1.607
 4067SOL    HW213101   5.493   0.419   1.513
 4068SOL     OW13102   5.355   0.952   4.686
 4068SOL    HW113103   5.268   0.936   4.734
 4068SOL    HW213104   5.338   0.958   4.588
 4069SOL     OW13105   6.653   6.073   0.438
 4069SOL    HW113106   6.671   5.984   0.396
 4069SOL    HW213107   6.576   6.065   0.501
 4070SOL     OW13108   6.822   3.616   2.460
 4070SOL    HW113109   6.906   3.569   2.489
 4070SOL    HW213110   6.780   3.565   2.385
 4071SOL     OW13111   2.719   7.009   4.945
 4071SOL    HW113112   2.735   6.957   5.028
 4071SOL    HW213113   2.740   0.088   4.962
 4072SOL     OW13114   0.440   0.416   4.424
 4072SOL    HW113115   0.468   0.345   4.359
 4072SOL    HW213116   0.403   0.373   4.506
 4073SOL     OW13117   2.652   4.842   1.959
 4073SOL    HW113118   2.605   4.815   1.875
 4073SOL    HW213119   2.727   4.778   1.976
 4074SOL     OW13120   0.084   3.142   1.493
 4074SOL    HW113121   0.150   3.112   1.562
 4074SOL    HW213122   7.010   3.144   1.532
 4075SOL     OW13123   6.616   0.729   3.435
 4075SOL    HW113124   6.655   0.712   3.344
 4075SOL    HW213125   6.516   0.729   3.429
 4076SOL     OW13126   1.530   3.510   3.373
 4076SOL    HW113127   1.608   3.496   3.312
 4076SOL    HW213128   1.445   3.492   3.323
 4077SOL     OW13129   3.793   0.698   1.697
 4077SOL    HW113130   3.696   0.724   1.695
 4077SOL    HW213131   3.843   0.754   1.632
 4078SOL     OW13132   4.871   4.597   2.509
 4078SOL    HW113133   4.901   4.679   2.557
 4078SOL    HW213134   4.776   4.576   2.535
 4079SOL     OW13135   4.821   0.903   3.280
 4079SOL    HW113136   4.827   0.844   3.200
 4079SOL    HW213137   4.728   0.940   3.287
 4080SOL     OW13138   3.340   3.905   4.545
 4080SOL    HW113139   3.244   3.928   4.533
 4080SOL    HW213140   3.397   3.976   4.502
 4081SOL     OW13141   2.722   6.998   0.352
 4081SOL    HW113142   2.679   0.038   0.422
 4081SOL    HW213143   2.722   0.030   0.265
 4082SOL     OW13144   2.139   1.379   5.530
 4082SOL    HW113145   2.040   1.390   5.528
 4082SOL    HW213146   2.163   1.291   5.489
 4083SOL     OW13147   5.767   4.357   2.625
 4083SOL    HW113148   5.718   4.295   2.687
 4083SOL    HW213149   5.731   4.347   2.532
 4084SOL     OW13150   4.180   6.235   2.658
 4084SOL    HW113151   4.161   6.332   2.671
 4084SOL    HW213152   4.148   6.207   2.567
 4085SOL     OW13153   1.456   4.632   2.537
 4085SOL    HW113154   1.539   4.594   2.579
 4085SOL    HW213155   1.458   4.731   2.544
 4086SOL     OW13156   5.568   5.353   4.786
 4086SOL    HW113157   5.484   5.367   4.839
 4086SOL    HW213158   5.608   5.442   4.763
 4087SOL     OW13159   1.602   1.201   1.336
 4087SOL    HW113160   1.584   1.286   1.386
 4087SOL    HW213161   1.521   1.178   1.282
 4088SOL     OW13162   7.002   2.396   5.219
 4088SOL    HW113163   0.039   2.339   5.158
 4088SOL    HW213164   0.014   2.381   5.314
 4089SOL     OW13165   6.703   6.659   2.568
 4089SOL    HW113166   6.750   6.582   2.611
 4089SOL    HW213167   6.707   6.649   2.469
 4090SOL     OW13168   3.521   2.496   5.393
 4090SOL    HW113169   3.557   2.407   5.366
 4090SOL    HW213170   3.435   2.514   5.346
 4091SOL     OW13171   4.165   6.768   3.516
 4091SOL    HW113172   4.156   6.715   3.601
 4091SOL    HW213173   4.139   6.863   3.532
 4092SOL     OW13174   4.648   1.995   6.437
 4092SOL    HW113175   4.737   2.039   6.427
 4092SOL    HW213176   4.660   1.901   6.468
 4093SOL     OW13177   5.810   4.295   1.708
 4093SOL    HW113178   5.847   4.278   1.617
 4093SOL    HW213179   5.858   4.239   1.775
 4094SOL     OW13180   6.269   6.219   0.422
 4094SOL    HW113181   6.347   6.221   0.485
 4094SOL    HW213182   6.208   6.296   0.441
 4095SOL     OW13183   1.480   5.169   0.301
 4095SOL    HW113184   1.567   5.148   0.256
 4095SOL    HW213185   1.427   5.085   0.312
 4096SOL     OW13186   1.118   6.543   5.945
 4096SOL    HW113187   1.145   6.447   5.952
 4096SOL    HW213188   1.163   6.585   5.866
 4097SOL     OW13189   1.547   3.872   5.962
 4097SOL    HW113190   1.578   3.921   5.881
 4097SOL    HW213191   1.547   3.774   5.944
 4098SOL     OW13192   1.171   6.046   1.755
 4098SOL    HW113193   1.178   6.092   1.666
 4098SOL    HW213194   1.198   5.950   1.745
 4099SOL     OW13195   0.046   2.268   5.898
 4099SOL    HW113196   0.075   2.336   5.966
 4099SOL    HW213197   0.063   2.176   5.933
 4100SOL     OW13198   2.307   1.026   3.638
 4100SOL    HW113199   2.289   1.121   3.611
 4100SOL    HW213200   2.254   0.964   3.581
 4101SOL     OW13201   5.744   6.303   6.030
 4101SOL    HW113202   5.646   6.316   6.024
 4101SOL    HW213203   5.786   6.317   5.940
 4102SOL     OW13204   2.727   5.291   0.552
 4102SOL    HW113205   2.741   5.328   0.460
 4102SOL    HW213206   2.630   5.273   0.566
 4103SOL     OW13207   1.893   5.193   2.325
 4103SOL    HW113208   1.902   5.272   2.265
 4103SOL    HW213209   1.925   5.217   2.417
 4104SOL     OW13210   2.406   5.700   5.460
 4104SOL    HW113211   2.341   5.624   5.467
 4104SOL    HW213212   2.366   5.773   5.406
 4105SOL     OW13213   3.796   0.228   1.742
 4105SOL    HW113214   3.885   0.211   1.785
 4105SOL    HW213215   3.798   0.316   1.694
 4106SOL     OW13216   1.456   6.600   3.009
 4106SOL    HW113217   1.491   6.692   3.025
 4106SOL    HW213218   1.371   6.605   2.957
 4107SOL     OW13219   2.272   1.914   0.622
 4107SOL    HW113220   2.297   1.821   0.647
 4107SOL    HW213221   2.354   1.972   0.625
 4108SOL     OW13222   0.671   5.460   5.215
 4108SOL    HW113223   0.690   5.368   5.181
 4108SOL    HW213224   0.713   5.472   5.305
 4109SOL     OW13225   5.068   0.408   5.268
 4109SOL    HW113226   5.062   0.461   5.184
 4109SOL    HW213227   4.976   0.375   5.293
 4110SOL     OW13228   4.992   2.221   0.686
 4110SOL    HW113229   5.058   2.230   0.612
 4110SOL    HW213230   4.944   2.134   0.678
 4111SOL     OW13231   6.385   4.347   4.028
 4111SOL    HW113232   6.414   4.345   3.933
 4111SOL    HW213233   6.399   4.257   4.070
 4112SOL     OW13234   3.854   5.343   5.410
 4112SOL    HW113235   3.889   5.288   5.486
 4112SOL    HW213236   3.778   5.399   5.442
 4113SOL     OW13237   5.251   5.849   5.840
 4113SOL    HW113238   5.262   5.757   5.803
 4113SOL    HW213239   5.335   5.877   5.886
 4114SOL     OW13240   6.427   1.425   3.669
 4114SOL    HW113241   6.452   1.515   3.702
 4114SOL    HW213242   6.328   1.420   3.656
 4115SOL     OW13243   4.584   0.152   4.903
 4115SOL    HW113244   4.554   0.235   4.856
 4115SOL    HW213245   4.665   0.115   4.857
 4116SOL     OW13246   5.820   3.447   3.464
 4116SOL    HW113247   5.906   3.491   3.493
 4116SOL    HW213248   5.779   3.501   3.391
 4117SOL     OW13249   0.931   2.898   2.488
 4117SOL    HW113250   0.858   2.847   2.534
 4117SOL    HW213251   1.017   2.885   2.537
 4118SOL     OW13252   0.815   1.148   1.994
 4118SOL    HW113253   0.853   1.199   1.916
 4118SOL    HW213254   0.887   1.130   2.060
 4119SOL     OW13255   6.481   1.198   4.352
 4119SOL    HW113256   6.457   1.184   4.256
 4119SOL    HW213257   6.575   1.231   4.358
 4120SOL     OW13258   1.800   0.243   0.406
 4120SOL    HW113259   1.717   0.289   0.374
 4120SOL    HW213260   1.781   0.145   0.415
 4121SOL     OW13261   6.685   0.164   1.474
 4121SOL    HW113262   6.639   0.129   1.555
 4121SOL    HW213263   6.638   0.246   1.441
 4122SOL     OW13264   0.991   4.463   3.155
 4122SOL    HW113265   0.989   4.488   3.252
 4122SOL    HW213266   0.961   4.368   3.145
 4123SOL     OW13267   5.923   4.518   2.189
 4123SOL    HW113268   5.946   4.462   2.269
 4123SOL    HW213269   5.826   4.506   2.167
 4124SOL     OW13270   5.553   6.246   0.505
 4124SOL    HW113271   5.548   6.147   0.515
 4124SOL    HW213272   5.478   6.278   0.448
 4125SOL     OW13273   0.833   2.795   0.208
 4125SOL    HW113274   0.761   2.727   0.196
 4125SOL    HW213275   0.914   2.753   0.248
 4126SOL     OW13276   1.706   4.112   3.389
 4126SOL    HW113277   1.733   4.055   3.467
 4126SOL    HW213278   1.626   4.072   3.345
 4127SOL     OW13279   4.549   2.403   4.449
 4127SOL    HW113280   4.577   2.475   4.386
 4127SOL    HW213281   4.620   2.332   4.451
 4128SOL     OW13282   6.178   2.758   6.336
 4128SOL    HW113283   6.213   2.758   6.243
 4128SOL    HW213284   6.247   2.720   6.398
 4129SOL     OW13285   3.212   0.039   2.314
 4129SOL    HW113286   3.248   0.077   2.229
 4129SOL    HW213287   3.153   6.979   2.293
 4130SOL     OW13288   4.962   0.959   0.220
 4130SOL    HW113289   4.955   0.891   0.146
 4130SOL    HW213290   5.011   1.039   0.186
 4131SOL     OW13291   5.522   5.818   4.210
 4131SOL    HW113292   5.614   5.847   4.235
 4131SOL    HW213293   5.464   5.898   4.195
 4132SOL     OW13294   6.859   3.377   2.264
 4132SOL    HW113295   6.919   3.305   2.228
 4132SOL    HW213296   6.862   3.457   2.204
 4133SOL     OW13297   5.508   6.111   3.872
 4133SOL    HW113298   5.451   6.029   3.861
 4133SOL    HW213299   5.462   6.175   3.933
 4134SOL     OW13300   2.092   2.726   0.868
 4134SOL    HW113301   2.192   2.723   0.859
 4134SOL    HW213302   2.051   2.669   0.797
 4135SOL     OW13303   6.159   0.626   1.027
 4135SOL    HW113304   6.064   0.646   1.004
 4135SOL    HW213305   6.167   0.531   1.058
 4136SOL     OW13306   0.446   5.287   0.081
 4136SOL    HW113307   0.535   5.284   0.128
 4136SOL    HW213308   0.462   5.291   7.000
 4137SOL     OW13309   0.354   2.401   5.144
 4137SOL    HW113310   0.325   2.452   5.225
 4137SOL    HW213311   0.425   2.335   5.171
 4138SOL     OW13312   5.922   6.631   6.537
 4138SOL    HW113313   5.866   6.636   6.454
 4138SOL    HW213314   6.009   6.586   6.515
 4139SOL     OW13315   1.339   4.267   2.260
 4139SOL    HW113316   1.283   4.184   2.261
 4139SOL    HW213317   1.401   4.265   2.181
 4140SOL     OW13318   2.529   6.739   0.807
 4140SOL    HW113319   2.605   6.690   0.765
 4140SOL    HW213320   2.540   6.739   0.907
 4141SOL     OW13321   4.916   6.763   6.020
 4141SOL    HW113322   4.938   6.665   6.020
 4141SOL    HW213323   4.882   6.789   5.930
 4142SOL     OW13324   0.248   6.904   1.898
 4142SOL    HW113325   0.294   6.822   1.932
 4142SOL    HW213326   0.200   6.948   1.974
 4143SOL     OW13327   6.657   3.335   6.269
 4143SOL    HW113328   6.580   3.282   6.304
 4143SOL    HW213329   6.673   3.414   6.329
 4144SOL     OW13330   4.840   0.624   1.803
 4144SOL    HW113331   4.918   0.687   1.801
 4144SOL    HW213332   4.762   0.666   1.756
 4145SOL     OW13333   4.596   0.925   1.107
 4145SOL    HW113334   4.674   0.977   1.073
 4145SOL    HW213335   4.514   0.982   1.105
 4146SOL     OW13336   3.325   1.522   2.128
 4146SOL    HW113337   3.415   1.534   2.085
 4146SOL    HW213338   3.337   1.510   2.226
 4147SOL     OW13339   5.189   4.378   6.704
 4147SOL    HW113340   5.093   4.363   6.728
 4147SOL    HW213341   5.237   4.290   6.701
 4148SOL     OW13342   3.274   0.849   6.157
 4148SOL    HW113343   3.212   0.841   6.235
 4148SOL    HW213344   3.232   0.909   6.088
 4149SOL     OW13345   1.723   2.204   6.595
 4149SOL    HW113346   1.781   2.249   6.527
 4149SOL    HW213347   1.739   2.245   6.685
 4150SOL     OW13348   0.187   1.609   1.481
 4150SOL    HW113349   0.173   1.637   1.386
 4150SOL    HW213350   0.117   1.543   1.507
 4151SOL     OW13351   2.837   5.508   4.446
 4151SOL    HW113352   2.886   5.592   4.425
 4151SOL    HW213353   2.767   5.527   4.515
 4152SOL     OW13354   2.874   4.162   1.349
 4152SOL    HW113355   2.802   4.221   1.385
 4152SOL    HW213356   2.841   4.068   1.343
 4153SOL     OW13357   6.145   6.432   0.506
 4153SOL    HW113358   6.191   6.433   0.595
 4153SOL    HW213359   6.048   6.451   0.518
 4154SOL     OW13360   0.692   6.476   3.759
 4154SOL    HW113361   0.683   6.522   3.847
 4154SOL    HW213362   0.635   6.521   3.691
 4155SOL     OW13363   5.216   1.051   2.387
 4155SOL    HW113364   5.204   1.034   2.289
 4155SOL    HW213365   5.141   1.007   2.437
 4156SOL     OW13366   0.773   5.427   6.057
 4156SOL    HW113367   0.830   5.482   5.997
 4156SOL    HW213368   0.816   5.338   6.071
 4157SOL     OW13369   4.426   6.231   0.608
 4157SOL    HW113370   4.383   6.318   0.586
 4157SOL    HW213371   4.503   6.246   0.670
 4158SOL     OW13372   6.518   1.105   6.701
 4158SOL    HW113373   6.456   1.157   6.760
 4158SOL    HW213374   6.604   1.155   6.690
 4159SOL     OW13375   3.178   0.637   4.476
 4159SOL    HW113376   3.128   0.699   4.536
 4159SOL    HW213377   3.179   0.675   4.383
 4160SOL     OW13378   1.631   0.623   6.001
 4160SOL    HW113379   1.638   0.722   5.987
 4160SOL    HW213380   1.655   0.576   5.916
 4161SOL     OW13381   3.501   3.634   5.051
 4161SOL    HW113382   3.554   3.700   4.999
 4161SOL    HW213383   3.492   3.665   5.146
 4162SOL     OW13384   4.525   6.696   1.098
 4162SOL    HW113385   4.556   6.608   1.136
 4162SOL    HW213386   4.426   6.704   1.109
 4163SOL     OW13387   3.681   6.224   1.520
 4163SOL    HW113388   3.616   6.157   1.557
 4163SOL    HW213389   3.661   6.240   1.423
 4164SOL     OW13390   5.942   1.088   6.968
 4164SOL    HW113391   6.035   1.056   6.950
 4164SOL    HW213392   5.924   1.170   6.914
 4165SOL     OW13393   3.188   1.559   4.598
 4165SOL    HW113394   3.204   1.481   4.536
 4165SOL    HW213395   3.275   1.591   4.634
 4166SOL     OW13396   5.447   1.704   2.334
 4166SOL    HW113397   5.493   1.625   2.374
 4166SOL    HW213398   5.388   1.674   2.259
 4167SOL     OW13399   3.664   6.334   4.800
 4167SOL    HW113400   3.737   6.400   4.820
 4167SOL    HW213401   3.657   6.322   4.701
 4168SOL     OW13402   5.499   3.541   6.784
 4168SOL    HW113403   5.596   3.562   6.775
 4168SOL    HW213404   5.463   3.510   6.696
 4169SOL     OW13405   5.414   4.447   6.910
 4169SOL    HW113406   5.337   4.383   6.910
 4169SOL    HW213407   5.385   4.532   6.954
 4170SOL     OW13408   0.904   3.077   5.258
 4170SOL    HW113409   0.950   3.053   5.172
 4170SOL    HW213410   0.919   3.006   5.326
 4171SOL     OW13411   0.221   0.638   6.167
 4171SOL    HW113412   0.176   0.586   6.239
 4171SOL    HW213413   0.269   0.575   6.106
 4172SOL     OW13414   3.486   3.293   0.091
 4172SOL    HW113415   3.397   3.337   0.075
 4172SOL    HW213416   3.525   3.265   0.003
 4173SOL     OW13417   5.751   1.326   6.065
 4173SOL    HW113418   5.688   1.249   6.053
 4173SOL    HW213419   5.819   1.325   5.991
 4174SOL     OW13420   2.236   6.875   3.670
 4174SOL    HW113421   2.163   6.941   3.649
 4174SOL    HW213422   2.323   6.909   3.634
 4175SOL     OW13423   1.519   3.281   6.295
 4175SOL    HW113424   1.560   3.206   6.244
 4175SOL    HW213425   1.458   3.333   6.235
 4176SOL     OW13426   4.177   6.709   5.014
 4176SOL    HW113427   4.187   6.711   4.915
 4176SOL    HW213428   4.260   6.671   5.055
 4177SOL     OW13429   5.054   6.378   4.159
 4177SOL    HW113430   4.981   6.405   4.096
 4177SOL    HW213431   5.123   6.450   4.162
 4178SOL     OW13432   3.204   6.472   1.167
 4178SOL    HW113433   3.161   6.555   1.131
 4178SOL    HW213434   3.266   6.496   1.241
 4179SOL     OW13435   4.185   1.757   6.947
 4179SOL    HW113436   4.085   1.762   6.946
 4179SOL    HW213437   4.220   1.778   0.021
 4180SOL     OW13438   4.105   4.202   6.869
 4180SOL    HW113439   4.117   4.214   6.967
 4180SOL    HW213440   4.017   4.156   6.852
 4181SOL     OW13441   5.146   6.062   5.707
 4181SOL    HW113442   5.206   6.088   5.631
 4181SOL    HW213443   5.177   5.976   5.747
 4182SOL     OW13444   6.506   5.065   5.353
 4182SOL    HW113445   6.466   4.984   5.397
 4182SOL    HW213446   6.516   5.138   5.420
 4183SOL     OW13447   5.574   2.771   0.146
 4183SOL    HW113448   5.549   2.857   0.101
 4183SOL    HW213449   5.532   2.695   0.097
 4184SOL     OW13450   3.567   5.660   3.423
 4184SOL    HW113451   3.636   5.589   3.436
 4184SOL    HW213452   3.518   5.676   3.510
 4185SOL     OW13453   4.410   4.460   3.283
 4185SOL    HW113454   4.500   4.497   3.306
 4185SOL    HW213455   4.411   4.424   3.189
 4186SOL     OW13456   1.817   4.934   1.055
 4186SOL    HW113457   1.858   5.019   1.089
 4186SOL    HW213458   1.788   4.877   1.132
 4187SOL     OW13459   1.336   3.599   6.254
 4187SOL    HW113460   1.284   3.549   6.184
 4187SOL    HW213461   1.290   3.590   6.343
 4188SOL     OW13462   5.256   0.693   6.323
 4188SOL    HW113463   5.195   0.653   6.391
 4188SOL    HW213464   5.203   0.749   6.259
 4189SOL     OW13465   4.107   5.607   3.460
 4189SOL    HW113466   4.081   5.607   3.556
 4189SOL    HW213467   4.196   5.563   3.449
 4190SOL     OW13468   6.502   5.636   1.255
 4190SOL    HW113469   6.497   5.639   1.355
 4190SOL    HW213470   6.430   5.576   1.220
 4191SOL     OW13471   4.910   2.531   5.815
 4191SOL    HW113472   4.902   2.506   5.912
 4191SOL    HW213473   4.910   2.630   5.806
 4192SOL     OW13474   1.810   3.611   6.337
 4192SOL    HW113475   1.722   3.659   6.328
 4192SOL    HW213476   1.795   3.522   6.381
 4193SOL     OW13477   5.394   6.528   1.426
 4193SOL    HW113478   5.335   6.454   1.391
 4193SOL    HW213479   5.385   6.608   1.367
 4194SOL     OW13480   5.364   0.352   6.895
 4194SOL    HW113481   5.280   0.377   6.848
 4194SOL    HW213482   5.366   0.253   6.909
 4195SOL     OW13483   2.171   6.209   0.639
 4195SOL    HW113484   2.241   6.138   0.627
 4195SOL    HW213485   2.096   6.173   0.695
 4196SOL     OW13486   6.432   3.175   2.967
 4196SOL    HW113487   6.360   3.139   3.027
 4196SOL    HW213488   6.409   3.268   2.940
 4197SOL     OW13489   4.117   0.566   0.069
 4197SOL    HW113490   4.138   0.663   0.055
 4197SOL    HW213491   4.042   0.557   0.134
 4198SOL     OW13492   6.597   2.278   1.861
 4198SOL    HW113493   6.513   2.227   1.884
 4198SOL    HW213494   6.580   2.338   1.783
 4199SOL     OW13495   1.756   3.766   0.133
 4199SOL    HW113496   1.771   3.750   0.036
 4199SOL    HW213497   1.669   3.723   0.160
 4200SOL     OW13498   5.489   1.238   2.745
 4200SOL    HW113499   5.417   1.206   2.808
 4200SOL    HW213500   5.499   1.337   2.754
 4201SOL     OW13501   4.838   0.297   5.323
 4201SOL    HW113502   4.801   0.343   5.403
 4201SOL    HW213503   4.767   0.240   5.281
 4202SOL     OW13504   4.536   4.391   1.484
 4202SOL    HW113505   4.568   4.377   1.578
 4202SOL    HW213506   4.615   4.394   1.422
 4203SOL     OW13507   6.377   3.733   4.738
 4203SOL    HW113508   6.340   3.682   4.660
 4203SOL    HW213509   6.444   3.799   4.705
 4204SOL     OW13510   2.364   4.324   5.860
 4204SOL    HW113511   2.331   4.265   5.934
 4204SOL    HW213512   2.319   4.298   5.774
 4205SOL     OW13513   5.543   5.320   5.589
 4205SOL    HW113514   5.463   5.269   5.619
 4205SOL    HW213515   5.527   5.357   5.498
 4206SOL     OW13516   2.662   2.450   5.033
 4206SOL    HW113517   2.720   2.422   5.110
 4206SOL    HW213518   2.567   2.455   5.063
 4207SOL     OW13519   2.596   2.456   1.049
 4207SOL    HW113520   2.606   2.365   1.090
 4207SOL    HW213521   2.586   2.524   1.122
 4208SOL     OW13522   1.646   2.655   2.764
 4208SOL    HW113523   1.678   2.725   2.700
 4208SOL    HW213524   1.714   2.642   2.836
 4209SOL     OW13525   6.569   5.136   2.756
 4209SOL    HW113526   6.592   5.233   2.770
 4209SOL    HW213527   6.485   5.129   2.702
 4210SOL     OW13528   3.191   5.542   5.036
 4210SOL    HW113529   3.289   5.537   5.017
 4210SOL    HW213530   3.141   5.484   4.971
 4211SOL     OW13531   5.067   3.038   5.920
 4211SOL    HW113532   4.985   3.068   5.967
 4211SOL    HW213533   5.096   3.107   5.854
 4212SOL     OW13534   0.812   2.723   3.103
 4212SOL    HW113535   0.844   2.774   3.183
 4212SOL    HW213536   0.712   2.722   3.103
 4213SOL     OW13537   3.016   0.637   3.761
 4213SOL    HW113538   3.044   0.545   3.788
 4213SOL    HW213539   3.048   0.656   3.668
 4214SOL     OW13540   6.466   6.337   3.952
 4214SOL    HW113541   6.566   6.340   3.953
 4214SOL    HW213542   6.430   6.419   3.996
 4215SOL     OW13543   5.893   6.963   5.299
 4215SOL    HW113544   5.832   6.884   5.291
 4215SOL    HW213545   5.931   6.985   5.209
 4216SOL     OW13546   1.847   6.016   2.448
 4216SOL    HW113547   1.783   6.004   2.524
 4216SOL    HW213548   1.911   5.940   2.446
 4217SOL     OW13549   0.022   0.264   3.126
 4217SOL    HW113550   0.107   0.236   3.169
 4217SOL    HW213551   0.025   0.244   3.028
 4218SOL     OW13552   2.509   0.788   1.691
 4218SOL    HW113553   2.467   0.795   1.601
 4218SOL    HW213554   2.582   0.719   1.689
 4219SOL     OW13555   3.180   5.741   2.453
 4219SOL    HW113556   3.199   5.687   2.371
 4219SOL    HW213557   3.124   5.820   2.429
 4220SOL     OW13558   5.630   1.562   1.369
 4220SOL    HW113559   5.539   1.594   1.394
 4220SOL    HW213560   5.624   1.505   1.287
 4221SOL     OW13561   0.570   0.157   1.177
 4221SOL    HW113562   0.665   0.136   1.198
 4221SOL    HW213563   0.562   0.252   1.146
 4222SOL     OW13564   4.905   3.805   4.429
 4222SOL    HW113565   4.889   3.707   4.441
 4222SOL    HW213566   4.934   3.824   4.335
 4223SOL     OW13567   3.511   4.113   2.595
 4223SOL    HW113568   3.452   4.126   2.675
 4223SOL    HW213569   3.588   4.176   2.600
 4224SOL     OW13570   4.732   4.091   5.072
 4224SOL    HW113571   4.690   4.162   5.015
 4224SOL    HW213572   4.687   4.089   5.161
 4225SOL     OW13573   0.611   1.391   6.170
 4225SOL    HW113574   0.706   1.421   6.161
 4225SOL    HW213575   0.608   1.294   6.193
 4226SOL     OW13576   5.332   5.147   4.188
 4226SOL    HW113577   5.263   5.088   4.231
 4226SOL    HW213578   5.356   5.222   4.250
 4227SOL     OW13579   5.626   5.929   0.995
 4227SOL    HW113580   5.673   5.936   0.907
 4227SOL    HW213581   5.686   5.883   1.061
 4228SOL     OW13582   1.844   4.528   3.300
 4228SOL    HW113583   1.881   4.613   3.338
 4228SOL    HW213584   1.781   4.487   3.366
 4229SOL     OW13585   6.025   6.593   5.924
 4229SOL    HW113586   6.017   6.602   6.023
 4229SOL    HW213587   6.106   6.539   5.902
 4230SOL     OW13588   0.691   1.846   2.213
 4230SOL    HW113589   0.654   1.925   2.263
 4230SOL    HW213590   0.632   1.766   2.230
 4231SOL     OW13591   0.008   0.619   5.824
 4231SOL    HW113592   0.060   0.546   5.868
 4231SOL    HW213593   6.936   0.628   5.867
 4232SOL     OW13594   1.993   4.554   2.468
 4232SOL    HW113595   1.950   4.501   2.541
 4232SOL    HW213596   2.093   4.552   2.480
 4233SOL     OW13597   4.641   5.446   2.325
 4233SOL    HW113598   4.718   5.457   2.262
 4233SOL    HW213599   4.602   5.354   2.314
 4234SOL     OW13600   3.193   5.349   6.467
 4234SOL    HW113601   3.255   5.371   6.392
 4234SOL    HW213602   3.214   5.257   6.501
 4235SOL     OW13603   6.785   6.133   0.007
 4235SOL    HW113604   6.788   6.171   0.100
 4235SOL    HW213605   6.700   6.163   6.979
 4236SOL     OW13606   0.070   4.930   3.624
 4236SOL    HW113607   0.127   4.863   3.672
 4236SOL    HW213608   0.124   4.977   3.555
 4237SOL     OW13609   6.138   4.756   4.169
 4237SOL    HW113610   6.170   4.752   4.264
 4237SOL    HW213611   6.131   4.664   4.132
 4238SOL     OW13612   1.750   5.794   3.304
 4238SOL    HW113613   1.827   5.845   3.265
 4238SOL    HW213614   1.784   5.734   3.377
 4239SOL     OW13615   4.129   1.059   3.622
 4239SOL    HW113616   4.151   1.151   3.588
 4239SOL    HW213617   4.039   1.032   3.589
 4240SOL     OW13618   4.780   6.700   1.963
 4240SOL    HW113619   4.864   6.680   1.912
 4240SOL    HW213620   4.774   6.637   2.041
 4241SOL     OW13621   0.414   4.494   6.735
 4241SOL    HW113622   0.401   4.506   6.637
 4241SOL    HW213623   0.332   4.526   6.783
 4242SOL     OW13624   3.652   2.144   2.787
 4242SOL    HW113625   3.641   2.147   2.887
 4242SOL    HW213626   3.748   2.157   2.763
 4243SOL     OW13627   2.715   1.916   2.898
 4243SOL    HW113628   2.720   1.979   2.976
 4243SOL    HW213629   2.674   1.962   2.820
 4244SOL     OW13630   2.912   3.354   5.121
 4244SOL    HW113631   2.939   3.435   5.173
 4244SOL    HW213632   2.817   3.332   5.142
 4245SOL     OW13633   6.967   1.241   5.324
 4245SOL    HW113634   0.011   1.256   5.401
 4245SOL    HW213635   6.911   1.160   5.341
 4246SOL     OW13636   0.976   4.756   6.064
 4246SOL    HW113637   0.876   4.757   6.059
 4246SOL    HW213638   1.006   4.679   6.121
 4247SOL     OW13639   0.391   4.635   4.980
 4247SOL    HW113640   0.368   4.664   4.888
 4247SOL    HW213641   0.308   4.603   5.027
 4248SOL     OW13642   2.241   3.573   6.809
 4248SOL    HW113643   2.175   3.510   6.767
 4248SOL    HW213644   2.191   3.643   6.860
 4249SOL     OW13645   5.160   3.466   6.345
 4249SOL    HW113646   5.124   3.375   6.322
 4249SOL    HW213647   5.223   3.496   6.273
 4250SOL     OW13648   6.724   3.962   3.685
 4250SOL    HW113649   6.720   3.956   3.785
 4250SOL    HW213650   6.813   3.998   3.657
 4251SOL     OW13651   6.033   4.845   6.145
 4251SOL    HW113652   5.997   4.910   6.079
 4251SOL    HW213653   6.120   4.808   6.113
 4252SOL     OW13654   6.065   4.905   5.371
 4252SOL    HW113655   6.015   4.845   5.433
 4252SOL    HW213656   6.154   4.864   5.350
 4253SOL     OW13657   3.124   0.273   3.288
 4253SOL    HW113658   3.191   0.344   3.266
 4253SOL    HW213659   3.171   0.194   3.327
 4254SOL     OW13660   3.717   3.274   3.033
 4254SOL    HW113661   3.691   3.283   2.937
 4254SOL    HW213662   3.807   3.231   3.040
 4255SOL     OW13663   0.708   2.415   4.160
 4255SOL    HW113664   0.806   2.393   4.153
 4255SOL    HW213665   0.665   2.402   4.071
 4256SOL     OW13666   0.986   0.868   1.632
 4256SOL    HW113667   0.947   0.832   1.716
 4256SOL    HW213668   1.067   0.923   1.654
 4257SOL     OW13669   4.188   2.239   4.780
 4257SOL    HW113670   4.192   2.274   4.873
 4257SOL    HW213671   4.094   2.213   4.758
 4258SOL     OW13672   5.507   5.834   2.131
 4258SOL    HW113673   5.538   5.916   2.178
 4258SOL    HW213674   5.582   5.795   2.078
 4259SOL     OW13675   2.866   3.196   1.824
 4259SOL    HW113676   2.852   3.288   1.860
 4259SOL    HW213677   2.947   3.155   1.867
 4260SOL     OW13678   4.155   6.276   4.981
 4260SOL    HW113679   4.181   6.308   4.890
 4260SOL    HW213680   4.058   6.252   4.981
 4261SOL     OW13681   1.278   1.362   3.160
 4261SOL    HW113682   1.262   1.430   3.088
 4261SOL    HW213683   1.218   1.284   3.146
 4262SOL     OW13684   0.899   6.734   5.324
 4262SOL    HW113685   0.983   6.780   5.351
 4262SOL    HW213686   0.880   6.751   5.228
 4263SOL     OW13687   4.412   5.388   6.820
 4263SOL    HW113688   4.508   5.403   6.844
 4263SOL    HW213689   4.358   5.468   6.846
 4264SOL     OW13690   1.567   0.796   1.299
 4264SOL    HW113691   1.571   0.839   1.209
 4264SOL    HW213692   1.489   0.733   1.303
 4265SOL     OW13693   1.929   1.631   1.097
 4265SOL    HW113694   1.948   1.671   1.007
 4265SOL    HW213695   1.945   1.700   1.168
 4266SOL     OW13696   2.874   4.776   0.423
 4266SOL    HW113697   2.904   4.702   0.484
 4266SOL    HW213698   2.790   4.816   0.458
 4267SOL     OW13699   1.404   3.819   5.079
 4267SOL    HW113700   1.496   3.843   5.046
 4267SOL    HW213701   1.341   3.816   5.001
 4268SOL     OW13702   0.811   1.718   1.249
 4268SOL    HW113703   0.747   1.707   1.325
 4268SOL    HW213704   0.815   1.634   1.195
 4269SOL     OW13705   2.908   3.780   0.651
 4269SOL    HW113706   2.868   3.701   0.603
 4269SOL    HW213707   2.994   3.752   0.694
 4270SOL     OW13708   3.979   2.939   6.877
 4270SOL    HW113709   3.903   2.874   6.870
 4270SOL    HW213710   3.950   3.019   6.928
 4271SOL     OW13711   1.746   0.507   1.513
 4271SOL    HW113712   1.792   0.497   1.425
 4271SOL    HW213713   1.807   0.554   1.577
 4272SOL     OW13714   1.203   4.498   3.386
 4272SOL    HW113715   1.237   4.591   3.373
 4272SOL    HW213716   1.109   4.500   3.419
 4273SOL     OW13717   6.519   6.600   3.529
 4273SOL    HW113718   6.456   6.572   3.601
 4273SOL    HW213719   6.594   6.654   3.568
 4274SOL     OW13720   1.696   0.383   3.478
 4274SOL    HW113721   1.669   0.467   3.432
 4274SOL    HW213722   1.764   0.335   3.422
 4275SOL     OW13723   0.699   0.571   6.004
 4275SOL    HW113724   0.686   0.660   6.048
 4275SOL    HW213725   0.641   0.565   5.922
 4276SOL     OW13726   2.131   3.518   3.697
 4276SOL    HW113727   2.062   3.536   3.767
 4276SOL    HW213728   2.194   3.595   3.692
 4277SOL     OW13729   0.413   5.737   5.842
 4277SOL    HW113730   0.439   5.755   5.937
 4277SOL    HW213731   0.491   5.696   5.794
 4278SOL     OW13732   0.873   6.230   6.584
 4278SOL    HW113733   0.905   6.271   6.499
 4278SOL    HW213734   0.802   6.286   6.625
 4279SOL     OW13735   3.764   6.043   3.184
 4279SOL    HW113736   3.765   6.123   3.124
 4279SOL    HW213737   3.676   5.997   3.177
 4280SOL     OW13738   4.846   2.959   4.278
 4280SOL    HW113739   4.910   2.954   4.355
 4280SOL    HW213740   4.887   3.011   4.204
 4281SOL     OW13741   1.862   3.823   4.745
 4281SOL    HW113742   1.922   3.785   4.815
 4281SOL    HW213743   1.786   3.759   4.729
 4282SOL     OW13744   0.894   1.340   6.953
 4282SOL    HW113745   0.912   1.272   6.883
 4282SOL    HW213746   0.822   1.308   7.014
 4283SOL     OW13747   2.882   1.190   3.716
 4283SOL    HW113748   2.854   1.273   3.765
 4283SOL    HW213749   2.867   1.110   3.775
 4284SOL     OW13750   0.098   2.673   3.130
 4284SOL    HW113751   0.029   2.682   3.057
 4284SOL    HW213752   0.076   2.594   3.187
 4285SOL     OW13753   0.861   6.059   4.297
 4285SOL    HW113754   0.948   6.109   4.290
 4285SOL    HW213755   0.829   6.061   4.391
 4286SOL     OW13756   4.664   5.539   0.138
 4286SOL    HW113757   4.650   5.638   0.148
 4286SOL    HW213758   4.677   5.516   0.042
 4287SOL     OW13759   4.246   5.695   5.773
 4287SOL    HW113760   4.191   5.612   5.762
 4287SOL    HW213761   4.275   5.727   5.682
 4288SOL     OW13762   1.090   6.207   4.286
 4288SOL    HW113763   1.178   6.237   4.323
 4288SOL    HW213764   1.097   6.200   4.187
 4289SOL     OW13765   0.653   4.055   6.764
 4289SOL    HW113766   0.653   3.990   6.840
 4289SOL    HW213767   0.744   4.059   6.724
 4290SOL     OW13768   1.595   1.938   2.692
 4290SOL    HW113769   1.637   1.849   2.709
 4290SOL    HW213770   1.652   1.989   2.627
 4291SOL     OW13771   6.941   4.177   0.924
 4291SOL    HW113772   6.868   4.196   0.989
 4291SOL    HW213773   0.002   4.237   0.943
 4292SOL     OW13774   5.619   5.612   4.729
 4292SOL    HW113775   5.684   5.626   4.803
 4292SOL    HW213776   5.596   5.701   4.688
 4293SOL     OW13777   0.722   1.748   0.644
 4293SOL    HW113778   0.783   1.749   0.723
 4293SOL    HW213779   0.691   1.842   0.625
 4294SOL     OW13780   4.467   2.361   5.934
 4294SOL    HW113781   4.388   2.407   5.893
 4294SOL    HW213782   4.438   2.274   5.974
 4295SOL     OW13783   3.426   5.256   5.153
 4295SOL    HW113784   3.510   5.300   5.120
 4295SOL    HW213785   3.356   5.325   5.168
 4296SOL     OW13786   2.004   1.492   2.534
 4296SOL    HW113787   1.986   1.403   2.575
 4296SOL    HW213788   1.963   1.564   2.590
 4297SOL     OW13789   5.295   0.016   0.606
 4297SOL    HW113790   5.221   0.051   0.663
 4297SOL    HW213791   5.381   0.019   0.656
 4298SOL     OW13792   1.602   4.343   1.677
 4298SOL    HW113793   1.698   4.321   1.661
 4298SOL    HW213794   1.595   4.421   1.740
 4299SOL     OW13795   1.135   5.712   5.067
 4299SOL    HW113796   1.109   5.808   5.062
 4299SOL    HW213797   1.178   5.685   4.981
 4300SOL     OW13798   5.520   0.491   5.457
 4300SOL    HW113799   5.591   0.540   5.405
 4300SOL    HW213800   5.431   0.530   5.435
 4301SOL     OW13801   2.968   0.674   0.681
 4301SOL    HW113802   3.028   0.740   0.725
 4301SOL    HW213803   3.020   0.591   0.660
 4302SOL     OW13804   0.790   0.204   6.976
 4302SOL    HW113805   0.868   0.219   6.916
 4302SOL    HW213806   0.720   0.151   6.928
 4303SOL     OW13807   0.640   4.337   2.029
 4303SOL    HW113808   0.695   4.258   2.002
 4303SOL    HW213809   0.565   4.307   2.088
 4304SOL     OW13810   2.826   3.720   5.580
 4304SOL    HW113811   2.902   3.655   5.573
 4304SOL    HW213812   2.756   3.683   5.641
 4305SOL     OW13813   0.470   1.415   5.072
 4305SOL    HW113814   0.415   1.351   5.018
 4305SOL    HW213815   0.475   1.504   5.026
 4306SOL     OW13816   6.343   5.584   5.650
 4306SOL    HW113817   6.401   5.528   5.709
 4306SOL    HW213818   6.273   5.631   5.705
 4307SOL     OW13819   6.313   3.904   0.946
 4307SOL    HW113820   6.382   3.831   0.943
 4307SOL    HW213821   6.259   3.902   0.862
 4308SOL     OW13822   3.089   6.949   5.505
 4308SOL    HW113823   3.039   6.886   5.446
 4308SOL    HW213824   3.066   6.931   5.600
 4309SOL     OW13825   1.047   0.305   1.523
 4309SOL    HW113826   1.081   0.229   1.467
 4309SOL    HW213827   0.968   0.274   1.576
 4310SOL     OW13828   1.379   6.920   2.774
 4310SOL    HW113829   1.451   6.875   2.826
 4310SOL    HW213830   1.395   0.002   2.773
 4311SOL     OW13831   1.120   4.884   4.856
 4311SOL    HW113832   1.116   4.955   4.786
 4311SOL    HW213833   1.089   4.922   4.944
 4312SOL     OW13834   1.090   5.223   2.916
 4312SOL    HW113835   1.015   5.288   2.923
 4312SOL    HW213836   1.066   5.150   2.853
 4313SOL     OW13837   5.096   1.158   1.206
 4313SOL    HW113838   5.153   1.162   1.288
 4313SOL    HW213839   5.119   1.075   1.154
 4314SOL     OW13840   6.577   3.079   1.314
 4314SOL    HW113841   6.504   3.123   1.262
 4314SOL    HW213842   6.624   3.147   1.371
 4315SOL     OW13843   1.443   0.805   2.183
 4315SOL    HW113844   1.452   0.806   2.283
 4315SOL    HW213845   1.470   0.716   2.148
 4316SOL     OW13846   0.307   1.179   2.369
 4316SOL    HW113847   0.255   1.248   2.421
 4316SOL    HW213848   0.372   1.134   2.430
 4317SOL     OW13849   4.363   0.780   3.299
 4317SOL    HW113850   4.429   0.714   3.265
 4317SOL    HW213851   4.296   0.733   3.357
 4318SOL     OW13852   7.009   2.238   4.861
 4318SOL    HW113853   6.921   2.204   4.893
 4318SOL    HW213854   0.057   2.241   4.936
 4319SOL     OW13855   4.013   2.960   6.451
 4319SOL    HW113856   3.913   2.967   6.461
 4319SOL    HW213857   4.036   2.962   6.354
 4320SOL     OW13858   6.875   6.306   3.490
 4320SOL    HW113859   6.950   6.322   3.426
 4320SOL    HW213860   6.903   6.238   3.558
 4321SOL     OW13861   0.405   0.824   4.563
 4321SOL    HW113862   0.373   0.748   4.619
 4321SOL    HW213863   0.371   0.814   4.469
 4322SOL     OW13864   6.429   0.917   0.615
 4322SOL    HW113865   6.427   1.006   0.660
 4322SOL    HW213866   6.509   0.866   0.644
 4323SOL     OW13867   0.018   2.307   3.816
 4323SOL    HW113868   6.951   2.254   3.820
 4323SOL    HW213869   0.095   2.245   3.800
 4324SOL     OW13870   5.653   2.339   5.856
 4324SOL    HW113871   5.559   2.335   5.891
 4324SOL    HW213872   5.656   2.301   5.764
 4325SOL     OW13873   1.793   2.411   6.391
 4325SOL    HW113874   1.790   2.504   6.429
 4325SOL    HW213875   1.866   2.405   6.323
 4326SOL     OW13876   6.678   2.538   5.388
 4326SOL    HW113877   6.688   2.635   5.366
 4326SOL    HW213878   6.717   2.483   5.315
 4327SOL     OW13879   5.039   0.747   3.332
 4327SOL    HW113880   5.048   0.732   3.430
 4327SOL    HW213881   4.980   0.826   3.316
 4328SOL     OW13882   6.428   4.931   0.661
 4328SOL    HW113883   6.355   4.893   0.604
 4328SOL    HW213884   6.390   5.003   0.719
 4329SOL     OW13885   5.067   1.821   6.402
 4329SOL    HW113886   5.011   1.764   6.340
 4329SOL    HW213887   5.042   1.917   6.391
 4330SOL     OW13888   1.065   0.939   6.144
 4330SOL    HW113889   1.029   0.895   6.062
 4330SOL    HW213890   1.109   0.870   6.202
 4331SOL     OW13891   5.360   2.871   6.272
 4331SOL    HW113892   5.385   2.922   6.354
 4331SOL    HW213893   5.420   2.791   6.263
 4332SOL     OW13894   6.336   4.659   2.060
 4332SOL    HW113895   6.406   4.656   1.989
 4332SOL    HW213896   6.246   4.646   2.019
 4333SOL     OW13897   6.533   1.524   4.877
 4333SOL    HW113898   6.603   1.467   4.835
 4333SOL    HW213899   6.497   1.588   4.809
 4334SOL     OW13900   3.990   6.937   2.123
 4334SOL    HW113901   3.974   6.887   2.208
 4334SOL    HW213902   3.999   6.872   2.047
 4335SOL     OW13903   3.800   4.459   6.105
 4335SOL    HW113904   3.874   4.473   6.170
 4335SOL    HW213905   3.713   4.453   6.153
 4336SOL     OW13906   1.414   0.579   6.133
 4336SOL    HW113907   1.505   0.572   6.092
 4336SOL    HW213908   1.420   0.557   6.230
 4337SOL     OW13909   1.008   5.308   6.114
 4337SOL    HW113910   0.984   5.231   6.056
 4337SOL    HW213911   1.051   5.275   6.198
 4338SOL     OW13912   5.494   6.772   3.061
 4338SOL    HW113913   5.519   6.854   3.010
 4338SOL    HW213914   5.571   6.709   3.064
 4339SOL     OW13915   6.603   0.886   0.370
 4339SOL    HW113916   6.624   0.793   0.399
 4339SOL    HW213917   6.508   0.908   0.393
 4340SOL     OW13918   4.846   3.431   1.944
 4340SOL    HW113919   4.770   3.391   1.893
 4340SOL    HW213920   4.816   3.515   1.987
 4341SOL     OW13921   1.124   3.365   0.501
 4341SOL    HW113922   1.073   3.286   0.534
 4341SOL    HW213923   1.060   3.430   0.460
 4342SOL     OW13924   0.334   2.477   2.500
 4342SOL    HW113925   0.360   2.449   2.408
 4342SOL    HW213926   0.247   2.526   2.497
 4343SOL     OW13927   3.235   3.025   1.394
 4343SOL    HW113928   3.151   3.043   1.342
 4343SOL    HW213929   3.252   2.927   1.396
 4344SOL     OW13930   2.361   3.210   1.738
 4344SOL    HW113931   2.453   3.174   1.722
 4344SOL    HW213932   2.367   3.304   1.772
 4345SOL     OW13933   2.928   0.838   6.074
 4345SOL    HW113934   2.891   0.747   6.058
 4345SOL    HW213935   2.924   0.892   5.990
 4346SOL     OW13936   0.221   3.994   1.317
 4346SOL    HW113937   0.257   3.930   1.249
 4346SOL    HW213938   0.122   3.988   1.318
 4347SOL     OW13939   5.171   6.001   2.336
 4347SOL    HW113940   5.136   6.020   2.244
 4347SOL    HW213941   5.246   6.064   2.356
 4348SOL     OW13942   1.298   3.591   0.356
 4348SOL    HW113943   1.246   3.660   0.406
 4348SOL    HW213944   1.243   3.508   0.346
 4349SOL     OW13945   6.283   1.319   1.057
 4349SOL    HW113946   6.306   1.292   1.151
 4349SOL    HW213947   6.263   1.237   1.003
 4350SOL     OW13948   3.299   0.464   3.166
 4350SOL    HW113949   3.350   0.528   3.225
 4350SOL    HW213950   3.280   0.507   3.078
 4351SOL     OW13951   3.514   6.953   0.495
 4351SOL    HW113952   3.557   0.024   0.478
 4351SOL    HW213953   3.463   6.957   0.581
 4352SOL     OW13954   6.221   1.962   1.455
 4352SOL    HW113955   6.303   1.953   1.397
 4352SOL    HW213956   6.140   1.938   1.402
 4353SOL     OW13957   3.125   5.574   0.649
 4353SOL    HW113958   3.160   5.504   0.710
 4353SOL    HW213959   3.025   5.572   0.649
 4354SOL     OW13960   2.835   1.192   1.393
 4354SOL    HW113961   2.783   1.127   1.448
 4354SOL    HW213962   2.785   1.211   1.308
 4355SOL     OW13963   4.548   6.949   6.779
 4355SOL    HW113964   4.611   6.995   6.842
 4355SOL    HW213965   4.483   7.016   6.743
 4356SOL     OW13966   3.445   3.827   1.206
 4356SOL    HW113967   3.459   3.861   1.299
 4356SOL    HW213968   3.522   3.769   1.180
 4357SOL     OW13969   5.788   0.160   0.913
 4357SOL    HW113970   5.864   0.107   0.951
 4357SOL    HW213971   5.815   0.202   0.827
 4358SOL     OW13972   6.589   0.613   1.181
 4358SOL    HW113973   6.631   0.533   1.138
 4358SOL    HW213974   6.575   0.684   1.113
 4359SOL     OW13975   6.990   4.023   4.478
 4359SOL    HW113976   6.900   4.059   4.453
 4359SOL    HW213977   0.032   4.025   4.399
 4360SOL     OW13978   2.531   3.419   1.066
 4360SOL    HW113979   2.526   3.370   1.153
 4360SOL    HW213980   2.563   3.356   0.995
 4361SOL     OW13981   4.978   1.703   2.271
 4361SOL    HW113982   4.975   1.786   2.215
 4361SOL    HW213983   5.012   1.725   2.362
 4362SOL     OW13984   4.727   4.102   2.522
 4362SOL    HW113985   4.689   4.121   2.612
 4362SOL    HW213986   4.814   4.151   2.511
 4363SOL     OW13987   5.080   0.554   6.459
 4363SOL    HW113988   5.024   0.503   6.524
 4363SOL    HW213989   5.112   0.493   6.387
 4364SOL     OW13990   4.439   3.659   5.548
 4364SOL    HW113991   4.496   3.590   5.503
 4364SOL    HW213992   4.392   3.714   5.478
 4365SOL     OW13993   5.203   2.466   0.031
 4365SOL    HW113994   5.260   2.383   0.035
 4365SOL    HW213995   5.122   2.447   6.993
 4366SOL     OW13996   4.944   5.219   0.802
 4366SOL    HW113997   5.004   5.141   0.783
 4366SOL    HW213998   4.906   5.210   0.893
 4367SOL     OW13999   6.254   6.212   0.878
 4367SOL    HW114000   6.256   6.302   0.922
 4367SOL    HW214001   6.161   6.176   0.881
 4368SOL     OW14002   4.562   5.666   2.193
 4368SOL    HW114003   4.573   5.599   2.266
 4368SOL    HW214004   4.465   5.680   2.175
 4369SOL     OW14005   3.172   5.536   1.613
 4369SOL    HW114006   3.119   5.482   1.547
 4369SOL    HW214007   3.124   5.623   1.631
 4370SOL     OW14008   5.522   4.216   1.724
 4370SOL    HW114009   5.461   4.267   1.664
 4370SOL    HW214010   5.617   4.238   1.702
 4371SOL     OW14011   1.116   1.788   2.499
 4371SOL    HW114012   1.038   1.730   2.478
 4371SOL    HW214013   1.111   1.819   2.594
 4372SOL     OW14014   5.201   6.958   3.956
 4372SOL    HW114015   5.176   6.880   4.013
 4372SOL    HW214016   5.206   0.023   4.011
 4373SOL     OW14017   0.644   1.947   5.446
 4373SOL    HW114018   0.635   1.959   5.347
 4373SOL    HW214019   0.652   1.849   5.467
 4374SOL     OW14020   3.929   1.449   0.255
 4374SOL    HW114021   3.961   1.362   0.291
 4374SOL    HW214022   3.977   1.524   0.302
 4375SOL     OW14023   3.228   5.580   4.323
 4375SOL    HW114024   3.284   5.624   4.394
 4375SOL    HW214025   3.204   5.487   4.352
 4376SOL     OW14026   0.269   2.884   3.149
 4376SOL    HW114027   0.230   2.797   3.119
 4376SOL    HW214028   0.228   2.959   3.098
 4377SOL     OW14029   0.084   4.413   6.077
 4377SOL    HW114030   0.170   4.386   6.032
 4377SOL    HW214031   0.007   4.383   6.021
 4378SOL     OW14032   2.919   2.022   4.315
 4378SOL    HW114033   2.925   2.100   4.253
 4378SOL    HW214034   2.990   2.030   4.386
 4379SOL     OW14035   3.433   1.606   6.158
 4379SOL    HW114036   3.410   1.665   6.081
 4379SOL    HW214037   3.515   1.640   6.203
 4380SOL     OW14038   6.998   2.310   2.900
 4380SOL    HW114039   6.938   2.277   2.828
 4380SOL    HW214040   0.073   2.321   2.864
 4381SOL     OW14041   0.961   4.769   6.728
 4381SOL    HW114042   0.974   4.861   6.765
 4381SOL    HW214043   0.938   4.775   6.631
 4382SOL     OW14044   1.489   4.676   4.597
 4382SOL    HW114045   1.557   4.733   4.550
 4382SOL    HW214046   1.447   4.729   4.670
 4383SOL     OW14047   0.459   4.535   0.295
 4383SOL    HW114048   0.542   4.547   0.350
 4383SOL    HW214049   0.384   4.588   0.335
 4384SOL     OW14050   5.039   6.472   3.822
 4384SOL    HW114051   4.968   6.436   3.883
 4384SOL    HW214052   5.018   6.567   3.799
 4385SOL     OW14053   4.280   0.293   5.813
 4385SOL    HW114054   4.341   0.352   5.865
 4385SOL    HW214055   4.202   0.345   5.780
 4386SOL     OW14056   2.144   3.556   4.341
 4386SOL    HW114057   2.107   3.644   4.312
 4386SOL    HW214058   2.214   3.571   4.411
 4387SOL     OW14059   4.990   1.893   1.129
 4387SOL    HW114060   5.084   1.923   1.138
 4387SOL    HW214061   4.960   1.906   1.034
 4388SOL     OW14062   6.190   3.512   0.426
 4388SOL    HW114063   6.169   3.425   0.471
 4388SOL    HW214064   6.121   3.580   0.450
 4389SOL     OW14065   2.339   1.560   6.556
 4389SOL    HW114066   2.418   1.500   6.567
 4389SOL    HW214067   2.289   1.534   6.473
 4390SOL     OW14068   6.803   1.172   0.968
 4390SOL    HW114069   6.787   1.143   1.062
 4390SOL    HW214070   6.890   1.221   0.962
 4391SOL     OW14071   0.100   6.243   1.374
 4391SOL    HW114072   0.142   6.196   1.452
 4391SOL    HW214073   0.001   6.235   1.381
 4392SOL     OW14074   1.254   2.961   6.211
 4392SOL    HW114075   1.285   2.932   6.120
 4392SOL    HW214076   1.316   2.927   6.280
 4393SOL     OW14077   6.316   0.399   2.005
 4393SOL    HW114078   6.274   0.470   2.062
 4393SOL    HW214079   6.400   0.367   2.049
 4394SOL     OW14080   0.141   1.102   2.616
 4394SOL    HW114081   0.085   1.179   2.587
 4394SOL    HW214082   0.106   1.065   2.702
 4395SOL     OW14083   1.385   3.585   1.330
 4395SOL    HW114084   1.334   3.558   1.248
 4395SOL    HW214085   1.446   3.660   1.308
 4396SOL     OW14086   2.555   1.978   2.477
 4396SOL    HW114087   2.653   1.977   2.459
 4396SOL    HW214088   2.513   1.895   2.439
 4397SOL     OW14089   3.444   0.405   4.988
 4397SOL    HW114090   3.358   0.372   4.949
 4397SOL    HW214091   3.481   0.477   4.929
 4398SOL     OW14092   1.748   3.079   6.102
 4398SOL    HW114093   1.794   3.082   6.190
 4398SOL    HW214094   1.792   3.143   6.039
 4399SOL     OW14095   2.776   5.866   1.768
 4399SOL    HW114096   2.715   5.790   1.791
 4399SOL    HW214097   2.773   5.882   1.669
 4400SOL     OW14098   1.358   6.255   5.507
 4400SOL    HW114099   1.377   6.289   5.599
 4400SOL    HW214100   1.331   6.331   5.448
 4401SOL     OW14101   3.086   0.098   6.549
 4401SOL    HW114102   3.140   0.037   6.606
 4401SOL    HW214103   3.027   0.154   6.607
 4402SOL     OW14104   0.934   0.390   2.689
 4402SOL    HW114105   0.959   0.379   2.593
 4402SOL    HW214106   0.969   0.312   2.741
 4403SOL     OW14107   6.548   6.058   3.096
 4403SOL    HW114108   6.596   6.066   3.183
 4403SOL    HW214109   6.545   6.147   3.051
 4404SOL     OW14110   1.010   6.475   5.179
 4404SOL    HW114111   1.028   6.573   5.171
 4404SOL    HW214112   0.917   6.461   5.214
 4405SOL     OW14113   0.742   5.256   2.864
 4405SOL    HW114114   0.801   5.181   2.834
 4405SOL    HW214115   0.789   5.311   2.933
 4406SOL     OW14116   6.281   4.093   2.585
 4406SOL    HW114117   6.194   4.139   2.604
 4406SOL    HW214118   6.346   4.158   2.547
 4407SOL     OW14119   5.253   0.175   1.615
 4407SOL    HW114120   5.308   0.253   1.585
 4407SOL    HW214121   5.266   0.099   1.552
 4408SOL     OW14122   4.913   0.680   0.806
 4408SOL    HW114123   4.949   0.596   0.846
 4408SOL    HW214124   4.822   0.697   0.842
 4409SOL     OW14125   3.981   0.724   3.653
 4409SOL    HW114126   4.047   0.743   3.580
 4409SOL    HW214127   3.892   0.763   3.629
 4410SOL     OW14128   1.620   0.466   1.098
 4410SOL    HW114129   1.555   0.451   1.173
 4410SOL    HW214130   1.619   0.387   1.037
 4411SOL     OW14131   4.527   4.569   4.345
 4411SOL    HW114132   4.520   4.589   4.247
 4411SOL    HW214133   4.524   4.470   4.359
 4412SOL     OW14134   4.742   6.388   1.193
 4412SOL    HW114135   4.644   6.404   1.186
 4412SOL    HW214136   4.761   6.291   1.181
 4413SOL     OW14137   5.287   6.258   4.406
 4413SOL    HW114138   5.362   6.322   4.422
 4413SOL    HW214139   5.232   6.290   4.328
 4414SOL     OW14140   5.999   3.993   1.174
 4414SOL    HW114141   6.003   3.966   1.271
 4414SOL    HW214142   6.042   4.082   1.163
 4415SOL     OW14143   1.395   4.324   1.450
 4415SOL    HW114144   1.458   4.358   1.379
 4415SOL    HW214145   1.435   4.340   1.540
 4416SOL     OW14146   4.705   2.786   4.426
 4416SOL    HW114147   4.739   2.859   4.367
 4416SOL    HW214148   4.671   2.710   4.370
 4417SOL     OW14149   0.041   4.255   2.090
 4417SOL    HW114150   0.061   4.168   2.046
 4417SOL    HW214151   0.028   4.242   2.188
 4418SOL     OW14152   6.402   2.078   5.561
 4418SOL    HW114153   6.442   1.987   5.576
 4418SOL    HW214154   6.474   2.147   5.563
 4419SOL     OW14155   6.292   6.556   6.705
 4419SOL    HW114156   6.388   6.580   6.717
 4419SOL    HW214157   6.265   6.491   6.776
 4420SOL     OW14158   3.239   0.612   0.920
 4420SOL    HW114159   3.180   0.678   0.966
 4420SOL    HW214160   3.280   0.654   0.840
 4421SOL     OW14161   2.738   2.593   0.315
 4421SOL    HW114162   2.673   2.520   0.337
 4421SOL    HW214163   2.705   2.680   0.351
 4422SOL     OW14164   1.022   3.179   6.756
 4422SOL    HW114165   0.943   3.136   6.714
 4422SOL    HW214166   1.010   3.181   6.856
 4423SOL     OW14167   5.648   4.849   4.458
 4423SOL    HW114168   5.672   4.922   4.522
 4423SOL    HW214169   5.589   4.783   4.505
 4424SOL     OW14170   4.111   5.576   2.410
 4424SOL    HW114171   4.183   5.638   2.379
 4424SOL    HW214172   4.024   5.604   2.370
 4425SOL     OW14173   0.632   5.827   1.020
 4425SOL    HW114174   0.680   5.889   1.082
 4425SOL    HW214175   0.542   5.866   0.997
 4426SOL     OW14176   0.942   0.811   4.262
 4426SOL    HW114177   0.851   0.845   4.285
 4426SOL    HW214178   0.965   0.733   4.321
 4427SOL     OW14179   3.420   6.328   1.082
 4427SOL    HW114180   3.442   6.259   1.014
 4427SOL    HW214181   3.320   6.340   1.086
 4428SOL     OW14182   6.405   6.275   3.397
 4428SOL    HW114183   6.423   6.177   3.409
 4428SOL    HW214184   6.491   6.326   3.403
 4429SOL     OW14185   2.458   5.936   2.817
 4429SOL    HW114186   2.417   6.027   2.827
 4429SOL    HW214187   2.454   5.908   2.721
 4430SOL     OW14188   5.738   4.074   4.569
 4430SOL    HW114189   5.812   4.061   4.634
 4430SOL    HW214190   5.674   3.998   4.575
 4431SOL     OW14191   4.300   7.001   5.011
 4431SOL    HW114192   4.285   6.992   4.912
 4431SOL    HW214193   4.391   6.967   5.034
 4432SOL     OW14194   2.099   3.237   6.273
 4432SOL    HW114195   2.114   3.256   6.176
 4432SOL    HW214196   2.123   3.318   6.327
 4433SOL     OW14197   0.745   0.428   4.923
 4433SOL    HW114198   0.674   0.414   4.853
 4433SOL    HW214199   0.828   0.379   4.896
 4434SOL     OW14200   6.469   0.889   2.681
 4434SOL    HW114201   6.508   0.901   2.772
 4434SOL    HW214202   6.412   0.968   2.659
 4435SOL     OW14203   1.852   4.538   1.752
 4435SOL    HW114204   1.844   4.440   1.733
 4435SOL    HW214205   1.804   4.560   1.837
 4436SOL     OW14206   4.979   2.317   1.656
 4436SOL    HW114207   4.953   2.275   1.743
 4436SOL    HW214208   4.930   2.403   1.645
 4437SOL     OW14209   6.573   5.580   6.592
 4437SOL    HW114210   6.583   5.524   6.675
 4437SOL    HW214211   6.479   5.575   6.559
 4438SOL     OW14212   3.607   1.652   4.987
 4438SOL    HW114213   3.661   1.569   4.995
 4438SOL    HW214214   3.652   1.716   4.924
 4439SOL     OW14215   2.759   5.000   1.633
 4439SOL    HW114216   2.793   4.923   1.687
 4439SOL    HW214217   2.659   4.998   1.631
 4440SOL     OW14218   1.955   5.477   5.545
 4440SOL    HW114219   1.916   5.473   5.637
 4440SOL    HW214220   1.882   5.486   5.478
 4441SOL     OW14221   6.423   1.159   0.715
 4441SOL    HW114222   6.371   1.208   0.644
 4441SOL    HW214223   6.481   1.224   0.764
 4442SOL     OW14224   1.721   4.699   1.227
 4442SOL    HW114225   1.627   4.701   1.193
 4442SOL    HW214226   1.724   4.739   1.319
 4443SOL     OW14227   1.339   6.055   5.130
 4443SOL    HW114228   1.418   6.063   5.069
 4443SOL    HW214229   1.259   6.026   5.078
 4444SOL     OW14230   4.693   6.497   6.970
 4444SOL    HW114231   4.692   6.445   6.885
 4444SOL    HW214232   4.630   6.457   0.018
 4445SOL     OW14233   2.232   3.474   0.511
 4445SOL    HW114234   2.152   3.501   0.457
 4445SOL    HW214235   2.202   3.445   0.603
 4446SOL     OW14236   5.705   2.130   1.338
 4446SOL    HW114237   5.634   2.185   1.295
 4446SOL    HW214238   5.662   2.051   1.383
 4447SOL     OW14239   4.912   5.656   5.578
 4447SOL    HW114240   4.949   5.681   5.488
 4447SOL    HW214241   4.834   5.715   5.600
 4448SOL     OW14242   3.169   6.307   2.406
 4448SOL    HW114243   3.146   6.373   2.335
 4448SOL    HW214244   3.235   6.241   2.370
 4449SOL     OW14245   3.832   1.929   5.378
 4449SOL    HW114246   3.828   1.928   5.278
 4449SOL    HW214247   3.774   1.856   5.414
 4450SOL     OW14248   2.422   5.996   0.950
 4450SOL    HW114249   2.326   5.969   0.950
 4450SOL    HW214250   2.478   5.920   0.982
 4451SOL     OW14251   5.005   6.027   3.477
 4451SOL    HW114252   5.101   6.053   3.487
 4451SOL    HW214253   4.996   5.960   3.404
 4452SOL     OW14254   5.014   4.649   3.299
 4452SOL    HW114255   4.968   4.567   3.332
 4452SOL    HW214256   4.953   4.699   3.236
 4453SOL     OW14257   0.529   5.663   1.278
 4453SOL    HW114258   0.579   5.638   1.194
 4453SOL    HW214259   0.498   5.758   1.270
 4454SOL     OW14260   7.017   0.859   0.187
 4454SOL    HW114261   6.964   0.896   0.263
 4454SOL    HW214262   7.003   0.915   0.106
 4455SOL     OW14263   0.816   0.539   3.709
 4455SOL    HW114264   0.759   0.552   3.791
 4455SOL    HW214265   0.880   0.615   3.701
 4456SOL     OW14266   1.853   5.638   4.058
 4456SOL    HW114267   1.809   5.675   4.139
 4456SOL    HW214268   1.791   5.574   4.012
 4457SOL     OW14269   1.242   2.066   4.706
 4457SOL    HW114270   1.208   2.004   4.635
 4457SOL    HW214271   1.294   2.140   4.663
 4458SOL     OW14272   2.358   2.383   5.504
 4458SOL    HW114273   2.406   2.306   5.546
 4458SOL    HW214274   2.266   2.354   5.476
 4459SOL     OW14275   1.277   4.389   3.136
 4459SOL    HW114276   1.352   4.453   3.155
 4459SOL    HW214277   1.211   4.392   3.211
 4460SOL     OW14278   0.221   3.082   5.288
 4460SOL    HW114279   0.154   3.039   5.227
 4460SOL    HW214280   0.183   3.088   5.380
 4461SOL     OW14281   2.365   0.163   0.687
 4461SOL    HW114282   2.352   0.250   0.735
 4461SOL    HW214283   2.284   0.143   0.632
 4462SOL     OW14284   0.388   4.495   2.335
 4462SOL    HW114285   0.427   4.406   2.312
 4462SOL    HW214286   0.442   4.536   2.409
 4463SOL     OW14287   5.890   1.929   0.105
 4463SOL    HW114288   5.935   1.961   0.188
 4463SOL    HW214289   5.821   1.996   0.076
 4464SOL     OW14290   0.600   3.458   1.154
 4464SOL    HW114291   0.539   3.380   1.173
 4464SOL    HW214292   0.650   3.482   1.238
 4465SOL     OW14293   4.355   4.892   1.174
 4465SOL    HW114294   4.327   4.821   1.109
 4465SOL    HW214295   4.358   4.980   1.127
 4466SOL     OW14296   1.247   2.892   2.805
 4466SOL    HW114297   1.155   2.925   2.824
 4466SOL    HW214298   1.282   2.938   2.723
 4467SOL     OW14299   5.383   4.754   1.729
 4467SOL    HW114300   5.405   4.678   1.667
 4467SOL    HW214301   5.399   4.841   1.682
 4468SOL     OW14302   2.076   3.557   0.302
 4468SOL    HW114303   2.062   3.654   0.284
 4468SOL    HW214304   2.118   3.513   0.222
 4469SOL     OW14305   1.398   5.891   2.133
 4469SOL    HW114306   1.410   5.959   2.205
 4469SOL    HW214307   1.464   5.906   2.060
 4470SOL     OW14308   0.853   0.097   3.409
 4470SOL    HW114309   0.758   0.098   3.377
 4470SOL    HW214310   0.868   0.175   3.470
 4471SOL     OW14311   1.202   0.982   6.718
 4471SOL    HW114312   1.149   0.961   6.801
 4471SOL    HW214313   1.141   0.983   6.639
 4472SOL     OW14314   2.258   3.150   0.972
 4472SOL    HW114315   2.166   3.121   0.945
 4472SOL    HW214316   2.252   3.216   1.046
 4473SOL     OW14317   0.574   3.033   5.020
 4473SOL    HW114318   0.643   3.099   5.051
 4473SOL    HW214319   0.495   3.082   4.984
 4474SOL     OW14320   2.105   6.646   1.263
 4474SOL    HW114321   2.051   6.722   1.227
 4474SOL    HW214322   2.154   6.675   1.345
 4475SOL     OW14323   0.749   3.286   0.633
 4475SOL    HW114324   0.843   3.252   0.633
 4475SOL    HW214325   0.693   3.230   0.694
 4476SOL     OW14326   4.960   0.905   3.707
 4476SOL    HW114327   4.902   0.824   3.713
 4476SOL    HW214328   4.960   0.953   3.794
 4477SOL     OW14329   6.935   1.350   4.501
 4477SOL    HW114330   0.012   1.351   4.534
 4477SOL    HW214331   6.872   1.358   4.579
 4478SOL     OW14332   1.050   0.294   2.416
 4478SOL    HW114333   1.059   0.387   2.380
 4478SOL    HW214334   0.954   0.266   2.414
 4479SOL     OW14335   2.710   3.222   0.137
 4479SOL    HW114336   2.637   3.162   0.103
 4479SOL    HW214337   2.673   3.283   0.207
 4480SOL     OW14338   6.805   0.714   3.226
 4480SOL    HW114339   6.874   0.645   3.245
 4480SOL    HW214340   6.779   0.710   3.129
 4481SOL     OW14341   2.052   3.987   6.002
 4481SOL    HW114342   2.025   3.900   6.043
 4481SOL    HW214343   2.007   3.998   5.914
 4482SOL     OW14344   2.759   6.780   1.318
 4482SOL    HW114345   2.805   6.782   1.407
 4482SOL    HW214346   2.683   6.714   1.322
 4483SOL     OW14347   1.007   2.960   0.824
 4483SOL    HW114348   1.099   2.997   0.836
 4483SOL    HW214349   0.946   3.000   0.893
 4484SOL     OW14350   4.543   0.099   1.185
 4484SOL    HW114351   4.541   0.184   1.238
 4484SOL    HW214352   4.596   0.030   1.234
 4485SOL     OW14353   0.322   2.491   5.401
 4485SOL    HW114354   0.363   2.582   5.413
 4485SOL    HW214355   0.228   2.493   5.435
 4486SOL     OW14356   5.312   4.730   3.721
 4486SOL    HW114357   5.378   4.748   3.794
 4486SOL    HW214358   5.318   4.804   3.653
 4487SOL     OW14359   0.466   3.008   6.565
 4487SOL    HW114360   0.516   3.019   6.652
 4487SOL    HW214361   0.383   3.064   6.567
 4488SOL     OW14362   5.536   4.626   3.351
 4488SOL    HW114363   5.498   4.534   3.362
 4488SOL    HW214364   5.619   4.634   3.407
 4489SOL     OW14365   3.296   6.229   5.845
 4489SOL    HW114366   3.229   6.190   5.908
 4489SOL    HW214367   3.383   6.242   5.892
 4490SOL     OW14368   5.339   1.608   1.923
 4490SOL    HW114369   5.317   1.631   2.017
 4490SOL    HW214370   5.366   1.690   1.874
 4491SOL     OW14371   0.534   3.863   3.561
 4491SOL    HW114372   0.486   3.791   3.611
 4491SOL    HW214373   0.587   3.823   3.487
 4492SOL     OW14374   6.801   0.956   1.976
 4492SOL    HW114375   6.869   0.883   1.972
 4492SOL    HW214376   6.742   0.942   2.056
 4493SOL     OW14377   5.132   1.418   6.146
 4493SOL    HW114378   5.197   1.468   6.204
 4493SOL    HW214379   5.067   1.368   6.204
 4494SOL     OW14380   1.400   1.615   2.313
 4494SOL    HW114381   1.364   1.587   2.402
 4494SOL    HW214382   1.497   1.634   2.321
 4495SOL     OW14383   3.961   6.288   1.579
 4495SOL    HW114384   3.974   6.377   1.534
 4495SOL    HW214385   3.864   6.262   1.572
 4496SOL     OW14386   2.355   5.230   5.507
 4496SOL    HW114387   2.257   5.230   5.487
 4496SOL    HW214388   2.387   5.324   5.518
 4497SOL     OW14389   5.297   6.323   4.921
 4497SOL    HW114390   5.215   6.341   4.974
 4497SOL    HW214391   5.353   6.406   4.917
 4498SOL     OW14392   1.636   4.985   3.754
 4498SOL    HW114393   1.553   5.041   3.752
 4498SOL    HW214394   1.670   4.980   3.848
 4499SOL     OW14395   5.207   1.327   1.930
 4499SOL    HW114396   5.206   1.360   2.025
 4499SOL    HW214397   5.285   1.368   1.882
 4500SOL     OW14398   3.218   6.271   0.324
 4500SOL    HW114399   3.253   6.265   0.417
 4500SOL    HW214400   3.263   6.202   0.267
 4501SOL     OW14401   5.368   0.668   3.523
 4501SOL    HW114402   5.270   0.651   3.533
 4501SOL    HW214403   5.382   0.748   3.464
 4502SOL     OW14404   0.841   4.099   0.068
 4502SOL    HW114405   0.744   4.120   0.070
 4502SOL    HW214406   0.858   4.026   0.001
 4503SOL     OW14407   3.378   1.482   3.140
 4503SOL    HW114408   3.446   1.410   3.151
 4503SOL    HW214409   3.370   1.534   3.224
 4504SOL     OW14410   1.171   2.801   3.565
 4504SOL    HW114411   1.218   2.872   3.513
 4504SOL    HW214412   1.140   2.729   3.502
 4505SOL     OW14413   6.295   3.720   3.588
 4505SOL    HW114414   6.297   3.727   3.688
 4505SOL    HW214415   6.245   3.798   3.550
 4506SOL     OW14416   4.290   3.696   6.846
 4506SOL    HW114417   4.286   3.736   6.937
 4506SOL    HW214418   4.385   3.691   6.816
 4507SOL     OW14419   5.690   2.264   2.755
 4507SOL    HW114420   5.672   2.198   2.828
 4507SOL    HW214421   5.787   2.260   2.730
 4508SOL     OW14422   6.559   4.193   0.452
 4508SOL    HW114423   6.525   4.181   0.359
 4508SOL    HW214424   6.493   4.158   0.517
 4509SOL     OW14425   4.699   1.637   2.768
 4509SOL    HW114426   4.604   1.605   2.770
 4509SOL    HW214427   4.740   1.614   2.679
 4510SOL     OW14428   4.947   1.573   3.782
 4510SOL    HW114429   4.874   1.578   3.851
 4510SOL    HW214430   4.995   1.486   3.791
 4511SOL     OW14431   1.160   4.023   6.629
 4511SOL    HW114432   1.149   3.940   6.684
 4511SOL    HW214433   1.228   4.083   6.672
 4512SOL     OW14434   2.634   3.718   6.132
 4512SOL    HW114435   2.619   3.771   6.049
 4512SOL    HW214436   2.732   3.709   6.149
 4513SOL     OW14437   0.443   1.736   1.100
 4513SOL    HW114438   0.447   1.727   1.199
 4513SOL    HW214439   0.486   1.656   1.057
 4514SOL     OW14440   4.065   5.266   6.677
 4514SOL    HW114441   4.133   5.293   6.609
 4514SOL    HW214442   4.081   5.172   6.705
 4515SOL     OW14443   4.377   0.012   5.898
 4515SOL    HW114444   4.336   0.101   5.881
 4515SOL    HW214445   4.439   7.006   5.823
 4516SOL     OW14446   3.334   1.677   5.189
 4516SOL    HW114447   3.319   1.673   5.090
 4516SOL    HW214448   3.408   1.742   5.209
 4517SOL     OW14449   3.525   0.190   4.370
 4517SOL    HW114450   3.530   0.258   4.443
 4517SOL    HW214451   3.590   0.116   4.389
 4518SOL     OW14452   6.580   6.460   0.893
 4518SOL    HW114453   6.502   6.517   0.870
 4518SOL    HW214454   6.554   6.396   0.966
 4519SOL     OW14455   5.192   6.650   6.509
 4519SOL    HW114456   5.261   6.609   6.569
 4519SOL    HW214457   5.224   6.739   6.476
 4520SOL     OW14458   4.590   5.379   4.910
 4520SOL    HW114459   4.562   5.283   4.915
 4520SOL    HW214460   4.674   5.386   4.857
 4521SOL     OW14461   4.569   2.572   3.786
 4521SOL    HW114462   4.620   2.503   3.735
 4521SOL    HW214463   4.537   2.533   3.873
 4522SOL     OW14464   5.298   4.253   3.830
 4522SOL    HW114465   5.292   4.275   3.927
 4522SOL    HW214466   5.300   4.338   3.777
 4523SOL     OW14467   0.927   2.999   0.039
 4523SOL    HW114468   0.898   2.948   0.120
 4523SOL    HW214469   1.002   2.950   7.012
 4524SOL     OW14470   1.893   3.447   1.887
 4524SOL    HW114471   1.844   3.395   1.958
 4524SOL    HW214472   1.851   3.538   1.878
 4525SOL     OW14473   3.273   1.951   6.036
 4525SOL    HW114474   3.280   1.968   6.134
 4525SOL    HW214475   3.285   2.036   5.986
 4526SOL     OW14476   0.823   0.083   5.465
 4526SOL    HW114477   0.787   0.030   5.387
 4526SOL    HW214478   0.923   0.079   5.464
 4527SOL     OW14479   1.117   2.670   2.608
 4527SOL    HW114480   1.215   2.664   2.588
 4527SOL    HW214481   1.103   2.682   2.706
 4528SOL     OW14482   5.192   2.189   4.466
 4528SOL    HW114483   5.274   2.137   4.441
 4528SOL    HW214484   5.167   2.169   4.561
 4529SOL     OW14485   1.508   2.662   3.482
 4529SOL    HW114486   1.538   2.585   3.425
 4529SOL    HW214487   1.423   2.700   3.445
 4530SOL     OW14488   4.027   4.491   6.288
 4530SOL    HW114489   4.007   4.406   6.336
 4530SOL    HW214490   4.052   4.562   6.355
 4531SOL     OW14491   1.530   6.983   5.268
 4531SOL    HW114492   1.443   0.007   5.243
 4531SOL    HW214493   1.562   0.004   5.354
 4532SOL     OW14494   6.052   0.535   2.093
 4532SOL    HW114495   5.971   0.513   2.148
 4532SOL    HW214496   6.127   0.563   2.153
 4533SOL     OW14497   2.771   5.620   1.150
 4533SOL    HW114498   2.856   5.650   1.193
 4533SOL    HW214499   2.738   5.537   1.196
 4534SOL     OW14500   6.015   1.572   4.949
 4534SOL    HW114501   6.012   1.473   4.955
 4534SOL    HW214502   6.072   1.600   4.871
 4535SOL     OW14503   1.959   6.910   0.302
 4535SOL    HW114504   2.053   6.940   0.285
 4535SOL    HW214505   1.898   6.947   0.232
 4536SOL     OW14506   3.786   0.598   5.663
 4536SOL    HW114507   3.795   0.553   5.752
 4536SOL    HW214508   3.755   0.532   5.595
 4537SOL     OW14509   3.325   3.859   3.313
 4537SOL    HW114510   3.238   3.853   3.362
 4537SOL    HW214511   3.313   3.821   3.221
 4538SOL     OW14512   1.424   2.590   0.265
 4538SOL    HW114513   1.354   2.629   0.206
 4538SOL    HW214514   1.404   2.612   0.360
 4539SOL     OW14515   0.987   4.812   5.517
 4539SOL    HW114516   1.013   4.886   5.579
 4539SOL    HW214517   0.943   4.738   5.567
 4540SOL     OW14518   1.641   1.350   0.357
 4540SOL    HW114519   1.599   1.364   0.267
 4540SOL    HW214520   1.569   1.345   0.426
 4541SOL     OW14521   4.508   2.769   0.023
 4541SOL    HW114522   4.421   2.797   0.064
 4541SOL    HW214523   4.577   2.840   0.039
 4542SOL     OW14524   0.140   1.833   0.610
 4542SOL    HW114525   0.043   1.844   0.585
 4542SOL    HW214526   0.147   1.810   0.707
 4543SOL     OW14527   4.429   1.132   1.072
 4543SOL    HW114528   4.341   1.143   1.027
 4543SOL    HW214529   4.443   1.206   1.138
 4544SOL     OW14530   5.003   6.234   0.287
 4544SOL    HW114531   5.014   6.267   0.381
 4544SOL    HW214532   4.906   6.218   0.269
 4545SOL     OW14533   2.804   3.200   5.723
 4545SOL    HW114534   2.735   3.128   5.715
 4545SOL    HW214535   2.810   3.250   5.636
 4546SOL     OW14536   5.153   6.394   5.550
 4546SOL    HW114537   5.200   6.319   5.595
 4546SOL    HW214538   5.118   6.363   5.461
 4547SOL     OW14539   0.264   0.394   0.864
 4547SOL    HW114540   0.285   0.373   0.769
 4547SOL    HW214541   0.215   0.317   0.905
 4548SOL     OW14542   3.404   1.231   2.067
 4548SOL    HW114543   3.363   1.322   2.061
 4548SOL    HW214544   3.340   1.163   2.033
 4549SOL     OW14545   6.826   5.050   3.771
 4549SOL    HW114546   6.761   5.000   3.713
 4549SOL    HW214547   6.918   5.014   3.756
 4550SOL     OW14548   2.160   5.655   6.701
 4550SOL    HW114549   2.190   5.725   6.765
 4550SOL    HW214550   2.224   5.651   6.624
 4551SOL     OW14551   3.592   2.920   6.282
 4551SOL    HW114552   3.518   2.901   6.218
 4551SOL    HW214553   3.563   2.989   6.348
 4552SOL     OW14554   5.286   0.125   6.580
 4552SOL    HW114555   5.360   0.102   6.643
 4552SOL    HW214556   5.323   0.137   6.488
 4553SOL     OW14557   7.016   6.941   0.632
 4553SOL    HW114558   0.016   0.002   0.573
 4553SOL    HW214559   6.917   6.922   0.634
 4554SOL     OW14560   5.802   6.227   3.166
 4554SOL    HW114561   5.804   6.134   3.203
 4554SOL    HW214562   5.865   6.234   3.089
 4555SOL     OW14563   0.587   0.112   3.368
 4555SOL    HW114564   0.585   0.159   3.456
 4555SOL    HW214565   0.582   0.180   3.294
 4556SOL     OW14566   4.811   4.713   4.699
 4556SOL    HW114567   4.889   4.772   4.680
 4556SOL    HW214568   4.835   4.645   4.768
 4557SOL     OW14569   0.285   5.713   5.182
 4557SOL    HW114570   0.334   5.728   5.095
 4557SOL    HW214571   0.351   5.683   5.251
 4558SOL     OW14572   0.779   4.445   3.766
 4558SOL    HW114573   0.816   4.527   3.810
 4558SOL    HW214574   0.834   4.365   3.792
 4559SOL     OW14575   0.031   3.436   4.563
 4559SOL    HW114576   6.964   3.450   4.509
 4559SOL    HW214577   0.110   3.437   4.501
 4560SOL     OW14578   6.662   3.199   4.531
 4560SOL    HW114579   6.641   3.293   4.559
 4560SOL    HW214580   6.755   3.176   4.561
 4561SOL     OW14581   5.560   3.435   4.657
 4561SOL    HW114582   5.583   3.529   4.682
 4561SOL    HW214583   5.602   3.372   4.723
 4562SOL     OW14584   4.829   1.082   1.040
 4562SOL    HW114585   4.854   1.164   0.988
 4562SOL    HW214586   4.892   1.070   1.116
 4563SOL     OW14587   1.001   3.618   2.278
 4563SOL    HW114588   1.041   3.692   2.333
 4563SOL    HW214589   1.064   3.541   2.275
 4564SOL     OW14590   2.117   3.482   2.285
 4564SOL    HW114591   2.155   3.489   2.193
 4564SOL    HW214592   2.127   3.570   2.331
 4565SOL     OW14593   1.794   6.239   5.024
 4565SOL    HW114594   1.723   6.205   5.085
 4565SOL    HW214595   1.775   6.334   5.000
 4566SOL     OW14596   6.831   5.009   3.249
 4566SOL    HW114597   6.816   5.064   3.167
 4566SOL    HW214598   6.884   4.928   3.225
 4567SOL     OW14599   1.546   0.363   0.331
 4567SOL    HW114600   1.533   0.452   0.376
 4567SOL    HW214601   1.468   0.304   0.350
 4568SOL     OW14602   6.938   4.577   3.930
 4568SOL    HW114603   7.013   4.640   3.910
 4568SOL    HW214604   6.946   4.544   4.024
 4569SOL     OW14605   6.902   2.550   3.262
 4569SOL    HW114606   6.894   2.458   3.222
 4569SOL    HW214607   6.868   2.617   3.197
 4570SOL     OW14608   4.712   5.825   1.706
 4570SOL    HW114609   4.680   5.739   1.666
 4570SOL    HW214610   4.698   5.823   1.805
 4571SOL     OW14611   2.162   2.326   5.005
 4571SOL    HW114612   2.115   2.394   5.060
 4571SOL    HW214613   2.186   2.366   4.916
 4572SOL     OW14614   5.040   3.210   1.864
 4572SOL    HW114615   5.037   3.274   1.941
 4572SOL    HW214616   4.950   3.204   1.822
 4573SOL     OW14617   2.441   4.662   0.964
 4573SOL    HW114618   2.363   4.701   1.014
 4573SOL    HW214619   2.516   4.728   0.964
 4574SOL     OW14620   4.652   0.307   2.200
 4574SOL    HW114621   4.633   0.223   2.150
 4574SOL    HW214622   4.570   0.364   2.202
 4575SOL     OW14623   0.280   1.767   5.115
 4575SOL    HW114624   0.254   1.675   5.144
 4575SOL    HW214625   0.229   1.793   5.033
 4576SOL     OW14626   3.146   3.662   7.012
 4576SOL    HW114627   3.046   3.658   0.004
 4576SOL    HW214628   3.169   3.682   6.916
 4577SOL     OW14629   0.484   1.929   2.020
 4577SOL    HW114630   0.422   1.908   2.096
 4577SOL    HW214631   0.569   1.878   2.033
 4578SOL     OW14632   2.123   0.524   2.442
 4578SOL    HW114633   2.115   0.622   2.425
 4578SOL    HW214634   2.107   0.504   2.538
 4579SOL     OW14635   3.874   0.783   2.694
 4579SOL    HW114636   3.791   0.756   2.646
 4579SOL    HW214637   3.867   0.758   2.791
 4580SOL     OW14638   0.795   0.244   1.655
 4580SOL    HW114639   0.762   0.257   1.749
 4580SOL    HW214640   0.774   0.151   1.625
 4581SOL     OW14641   3.286   0.742   1.552
 4581SOL    HW114642   3.216   0.692   1.605
 4581SOL    HW214643   3.331   0.678   1.489
 4582SOL     OW14644   5.646   1.339   4.701
 4582SOL    HW114645   5.559   1.301   4.669
 4582SOL    HW214646   5.721   1.281   4.670
 4583SOL     OW14647   1.771   5.814   6.710
 4583SOL    HW114648   1.683   5.858   6.728
 4583SOL    HW214649   1.844   5.870   6.749
 4584SOL     OW14650   6.811   0.864   4.392
 4584SOL    HW114651   6.855   0.826   4.310
 4584SOL    HW214652   6.854   0.952   4.414
 4585SOL     OW14653   1.544   3.152   2.516
 4585SOL    HW114654   1.515   3.236   2.562
 4585SOL    HW214655   1.613   3.174   2.447
 4586SOL     OW14656   0.382   4.129   5.718
 4586SOL    HW114657   0.380   4.228   5.711
 4586SOL    HW214658   0.462   4.093   5.669
 4587SOL     OW14659   4.137   3.130   5.911
 4587SOL    HW114660   4.044   3.137   5.946
 4587SOL    HW214661   4.140   3.060   5.839
 4588SOL     OW14662   2.101   5.008   6.424
 4588SOL    HW114663   2.004   5.008   6.448
 4588SOL    HW214664   2.148   4.934   6.473
 4589SOL     OW14665   5.153   5.614   1.987
 4589SOL    HW114666   5.089   5.654   2.053
 4589SOL    HW214667   5.108   5.539   1.938
 4590SOL     OW14668   2.203   5.037   1.583
 4590SOL    HW114669   2.227   4.963   1.646
 4590SOL    HW214670   2.226   5.125   1.625
 4591SOL     OW14671   2.408   1.814   4.968
 4591SOL    HW114672   2.444   1.892   4.917
 4591SOL    HW214673   2.480   1.775   5.024
 4592SOL     OW14674   2.639   2.422   2.904
 4592SOL    HW114675   2.644   2.371   2.819
 4592SOL    HW214676   2.713   2.394   2.965
 4593SOL     OW14677   1.845   5.610   4.806
 4593SOL    HW114678   1.879   5.661   4.727
 4593SOL    HW214679   1.863   5.513   4.793
 4594SOL     OW14680   0.860   6.714   3.956
 4594SOL    HW114681   0.876   6.812   3.971
 4594SOL    HW214682   0.762   6.698   3.946
 4595SOL     OW14683   5.734   1.691   6.671
 4595SOL    HW114684   5.801   1.638   6.723
 4595SOL    HW214685   5.654   1.709   6.728
 4596SOL     OW14686   0.638   1.557   2.261
 4596SOL    HW114687   0.640   1.486   2.332
 4596SOL    HW214688   0.650   1.514   2.171
 4597SOL     OW14689   1.823   5.315   0.487
 4597SOL    HW114690   1.763   5.371   0.544
 4597SOL    HW214691   1.872   5.375   0.423
 4598SOL     OW14692   0.739   2.370   0.318
 4598SOL    HW114693   0.750   2.270   0.318
 4598SOL    HW214694   0.701   2.399   0.405
 4599SOL     OW14695   2.941   6.487   3.100
 4599SOL    HW114696   2.857   6.481   3.047
 4599SOL    HW214697   3.008   6.541   3.050
 4600SOL     OW14698   0.209   6.930   5.586
 4600SOL    HW114699   0.193   6.902   5.681
 4600SOL    HW214700   0.307   6.928   5.567
 4601SOL     OW14701   1.545   1.225   4.842
 4601SOL    HW114702   1.640   1.253   4.826
 4601SOL    HW214703   1.522   1.148   4.783
 4602SOL     OW14704   4.458   0.342   5.576
 4602SOL    HW114705   4.406   0.426   5.591
 4602SOL    HW214706   4.395   0.267   5.559
 4603SOL     OW14707   4.757   6.645   0.473
 4603SOL    HW114708   4.785   6.685   0.561
 4603SOL    HW214709   4.744   6.546   0.485
 4604SOL     OW14710   0.509   6.607   3.612
 4604SOL    HW114711   0.412   6.586   3.608
 4604SOL    HW214712   0.536   6.659   3.531
 4605SOL     OW14713   4.131   1.252   2.013
 4605SOL    HW114714   4.215   1.241   1.960
 4605SOL    HW214715   4.059   1.289   1.954
 4606SOL     OW14716   6.955   0.182   4.510
 4606SOL    HW114717   6.879   0.220   4.564
 4606SOL    HW214718   7.011   0.257   4.474
 4607SOL     OW14719   2.458   1.822   1.016
 4607SOL    HW114720   2.392   1.818   1.092
 4607SOL    HW214721   2.448   1.909   0.968
 4608SOL     OW14722   0.450   2.316   5.943
 4608SOL    HW114723   0.539   2.298   5.984
 4608SOL    HW214724   0.462   2.366   5.857
 4609SOL     OW14725   5.604   5.130   6.216
 4609SOL    HW114726   5.681   5.146   6.154
 4609SOL    HW214727   5.525   5.182   6.184
 4610SOL     OW14728   4.974   3.939   6.380
 4610SOL    HW114729   5.014   3.872   6.317
 4610SOL    HW214730   4.933   3.892   6.458
 4611SOL     OW14731   0.441   0.418   6.448
 4611SOL    HW114732   0.484   0.399   6.360
 4611SOL    HW214733   0.482   0.500   6.488
 4612SOL     OW14734   1.507   0.545   2.145
 4612SOL    HW114735   1.514   0.485   2.065
 4612SOL    HW214736   1.560   0.506   2.220
 4613SOL     OW14737   1.355   4.872   3.868
 4613SOL    HW114738   1.407   4.882   3.952
 4613SOL    HW214739   1.258   4.859   3.890
 4614SOL     OW14740   6.493   4.670   2.646
 4614SOL    HW114741   6.568   4.632   2.700
 4614SOL    HW214742   6.529   4.713   2.564
 4615SOL     OW14743   0.572   4.771   6.822
 4615SOL    HW114744   0.517   4.717   6.885
 4615SOL    HW214745   0.642   4.713   6.781
 4616SOL     OW14746   1.773   4.689   6.099
 4616SOL    HW114747   1.757   4.613   6.163
 4616SOL    HW214748   1.768   4.776   6.148
 4617SOL     OW14749   0.598   4.461   4.407
 4617SOL    HW114750   0.579   4.365   4.392
 4617SOL    HW214751   0.664   4.494   4.339
 4618SOL     OW14752   2.267   4.346   5.258
 4618SOL    HW114753   2.208   4.274   5.222
 4618SOL    HW214754   2.345   4.306   5.305
 4619SOL     OW14755   4.690   6.195   6.955
 4619SOL    HW114756   4.784   6.226   6.940
 4619SOL    HW214757   4.680   6.101   6.923
 4620SOL     OW14758   0.788   4.717   1.745
 4620SOL    HW114759   0.712   4.659   1.777
 4620SOL    HW214760   0.796   4.708   1.646
 4621SOL     OW14761   2.574   0.378   2.732
 4621SOL    HW114762   2.641   0.343   2.666
 4621SOL    HW214763   2.528   0.301   2.777
 4622SOL     OW14764   6.119   6.633   1.102
 4622SOL    HW114765   6.114   6.670   1.194
 4622SOL    HW214766   6.190   6.681   1.050
 4623SOL     OW14767   2.832   4.890   2.669
 4623SOL    HW114768   2.755   4.829   2.683
 4623SOL    HW214769   2.803   4.985   2.680
 4624SOL     OW14770   5.500   1.858   0.708
 4624SOL    HW114771   5.418   1.900   0.747
 4624SOL    HW214772   5.489   1.759   0.707
 4625SOL     OW14773   0.588   6.998   1.761
 4625SOL    HW114774   0.527   0.045   1.808
 4625SOL    HW214775   0.548   6.974   1.672
 4626SOL     OW14776   4.242   4.161   1.706
 4626SOL    HW114777   4.183   4.109   1.769
 4626SOL    HW214778   4.300   4.222   1.759
 4627SOL     OW14779   5.668   6.267   4.773
 4627SOL    HW114780   5.708   6.208   4.703
 4627SOL    HW214781   5.593   6.221   4.818
 4628SOL     OW14782   6.616   3.419   2.758
 4628SOL    HW114783   6.672   3.337   2.756
 4628SOL    HW214784   6.541   3.411   2.691
 4629SOL     OW14785   1.493   5.314   1.310
 4629SOL    HW114786   1.427   5.389   1.318
 4629SOL    HW214787   1.446   5.231   1.282
 4630SOL     OW14788   1.767   3.470   1.595
 4630SOL    HW114789   1.734   3.526   1.671
 4630SOL    HW214790   1.742   3.374   1.611
 4631SOL     OW14791   5.886   1.353   1.802
 4631SOL    HW114792   5.891   1.268   1.854
 4631SOL    HW214793   5.970   1.366   1.750
 4632SOL     OW14794   2.827   5.003   3.622
 4632SOL    HW114795   2.844   4.916   3.575
 4632SOL    HW214796   2.845   4.992   3.719
 4633SOL     OW14797   5.283   3.239   3.455
 4633SOL    HW114798   5.300   3.159   3.512
 4633SOL    HW214799   5.309   3.218   3.360
 4634SOL     OW14800   3.887   2.946   5.178
 4634SOL    HW114801   3.829   3.005   5.235
 4634SOL    HW214802   3.885   2.978   5.084
 4635SOL     OW14803   4.328   0.150   2.356
 4635SOL    HW114804   4.352   0.191   2.268
 4635SOL    HW214805   4.391   0.182   2.427
 4636SOL     OW14806   1.515   5.898   6.836
 4636SOL    HW114807   1.524   5.946   6.923
 4636SOL    HW214808   1.497   5.801   6.853
 4637SOL     OW14809   2.026   2.676   3.210
 4637SOL    HW114810   2.115   2.682   3.254
 4637SOL    HW214811   1.970   2.755   3.235
 4638SOL     OW14812   4.327   4.123   6.734
 4638SOL    HW114813   4.294   4.079   6.651
 4638SOL    HW214814   4.250   4.156   6.788
 4639SOL     OW14815   3.734   2.824   1.735
 4639SOL    HW114816   3.638   2.851   1.728
 4639SOL    HW214817   3.741   2.725   1.731
 4640SOL     OW14818   0.210   2.093   0.799
 4640SOL    HW114819   0.258   2.014   0.761
 4640SOL    HW214820   0.142   2.126   0.734
 4641SOL     OW14821   1.169   5.960   4.929
 4641SOL    HW114822   1.103   5.998   4.864
 4641SOL    HW214823   1.253   5.935   4.881
 4642SOL     OW14824   5.553   1.165   6.404
 4642SOL    HW114825   5.516   1.152   6.496
 4642SOL    HW214826   5.543   1.262   6.378
 4643SOL     OW14827   0.778   1.807   0.369
 4643SOL    HW114828   0.781   1.757   0.456
 4643SOL    HW214829   0.773   1.743   0.293
 4644SOL     OW14830   1.346   1.953   1.044
 4644SOL    HW114831   1.338   1.959   1.144
 4644SOL    HW214832   1.399   1.871   1.020
 4645SOL     OW14833   5.714   2.566   5.968
 4645SOL    HW114834   5.667   2.649   5.938
 4645SOL    HW214835   5.674   2.486   5.922
 4646SOL     OW14836   1.097   3.795   2.088
 4646SOL    HW114837   1.009   3.821   2.048
 4646SOL    HW214838   1.086   3.708   2.137
 4647SOL     OW14839   1.592   5.637   2.380
 4647SOL    HW114840   1.615   5.681   2.466
 4647SOL    HW214841   1.493   5.627   2.373
 4648SOL     OW14842   2.865   1.357   4.121
 4648SOL    HW114843   2.827   1.381   4.210
 4648SOL    HW214844   2.883   1.259   4.117
 4649SOL     OW14845   4.570   3.308   1.626
 4649SOL    HW114846   4.545   3.402   1.651
 4649SOL    HW214847   4.494   3.247   1.648
 4650SOL     OW14848   3.803   4.996   0.737
 4650SOL    HW114849   3.844   5.057   0.805
 4650SOL    HW214850   3.788   5.045   0.652
 4651SOL     OW14851   1.395   3.329   0.101
 4651SOL    HW114852   1.360   3.306   0.191
 4651SOL    HW214853   1.491   3.357   0.108
 4652SOL     OW14854   6.636   0.381   5.661
 4652SOL    HW114855   6.549   0.387   5.712
 4652SOL    HW214856   6.616   0.367   5.564
 4653SOL     OW14857   1.142   6.739   0.889
 4653SOL    HW114858   1.068   6.719   0.825
 4653SOL    HW214859   1.203   6.807   0.848
 4654SOL     OW14860   1.093   1.133   5.290
 4654SOL    HW114861   1.102   1.225   5.251
 4654SOL    HW214862   1.113   1.136   5.388
 4655SOL     OW14863   5.559   5.069   3.058
 4655SOL    HW114864   5.615   5.046   2.978
 4655SOL    HW214865   5.549   4.988   3.116
 4656SOL     OW14866   6.381   0.582   1.390
 4656SOL    HW114867   6.413   0.676   1.401
 4656SOL    HW214868   6.415   0.545   1.304
 4657SOL     OW14869   3.493   2.116   2.367
 4657SOL    HW114870   3.424   2.105   2.296
 4657SOL    HW214871   3.579   2.149   2.326
 4658SOL     OW14872   1.843   1.400   0.726
 4658SOL    HW114873   1.927   1.453   0.734
 4658SOL    HW214874   1.833   1.368   0.632
 4659SOL     OW14875   2.214   4.973   0.812
 4659SOL    HW114876   2.188   4.884   0.848
 4659SOL    HW214877   2.136   5.015   0.765
 4660SOL     OW14878   0.025   4.737   4.684
 4660SOL    HW114879   0.001   4.660   4.626
 4660SOL    HW214880   0.008   4.822   4.634
 4661SOL     OW14881   0.657   0.908   5.409
 4661SOL    HW114882   0.666   0.932   5.506
 4661SOL    HW214883   0.688   0.984   5.352
 4662SOL     OW14884   2.858   0.053   6.357
 4662SOL    HW114885   2.935   0.040   6.419
 4662SOL    HW214886   2.793   0.118   6.397
 4663SOL     OW14887   0.383   0.520   1.210
 4663SOL    HW114888   0.430   0.608   1.198
 4663SOL    HW214889   0.324   0.503   1.131
 4664SOL     OW14890   6.498   6.449   4.998
 4664SOL    HW114891   6.579   6.450   5.057
 4664SOL    HW214892   6.476   6.355   4.973
 4665SOL     OW14893   0.486   1.111   2.811
 4665SOL    HW114894   0.403   1.162   2.833
 4665SOL    HW214895   0.493   1.100   2.712
 4666SOL     OW14896   1.656   2.550   5.761
 4666SOL    HW114897   1.729   2.612   5.789
 4666SOL    HW214898   1.620   2.502   5.841
 4667SOL     OW14899   6.647   2.275   0.926
 4667SOL    HW114900   6.696   2.347   0.976
 4667SOL    HW214901   6.562   2.311   0.889
 4668SOL     OW14902   4.526   1.762   5.143
 4668SOL    HW114903   4.508   1.714   5.057
 4668SOL    HW214904   4.513   1.860   5.130
 4669SOL     OW14905   5.490   6.162   6.364
 4669SOL    HW114906   5.516   6.068   6.343
 4669SOL    HW214907   5.564   6.207   6.412
 4670SOL     OW14908   0.438   3.171   0.564
 4670SOL    HW114909   0.470   3.260   0.532
 4670SOL    HW214910   0.508   3.102   0.546
 4671SOL     OW14911   6.807   1.576   1.891
 4671SOL    HW114912   6.738   1.588   1.819
 4671SOL    HW214913   6.894   1.615   1.861
 4672SOL     OW14914   4.250   3.308   0.977
 4672SOL    HW114915   4.312   3.377   0.940
 4672SOL    HW214916   4.256   3.225   0.921
 4673SOL     OW14917   4.508   1.464   0.544
 4673SOL    HW114918   4.496   1.543   0.604
 4673SOL    HW214919   4.594   1.417   0.566
 4674SOL     OW14920   1.002   3.138   0.596
 4674SOL    HW114921   0.966   3.101   0.510
 4674SOL    HW214922   0.998   3.068   0.667
 4675SOL     OW14923   2.078   6.596   0.459
 4675SOL    HW114924   2.144   6.559   0.393
 4675SOL    HW214925   2.058   6.691   0.435
 4676SOL     OW14926   0.973   5.517   4.853
 4676SOL    HW114927   0.887   5.553   4.819
 4676SOL    HW214928   0.978   5.529   4.952
 4677SOL     OW14929   5.088   0.113   0.015
 4677SOL    HW114930   5.081   0.144   6.938
 4677SOL    HW214931   5.083   0.013   0.018
 4678SOL     OW14932   2.622   4.900   0.482
 4678SOL    HW114933   2.591   4.819   0.433
 4678SOL    HW214934   2.548   4.933   0.541
 4679SOL     OW14935   2.072   6.618   5.352
 4679SOL    HW114936   2.023   6.564   5.284
 4679SOL    HW214937   2.133   6.559   5.404
 4680SOL     OW14938   1.322   5.558   6.135
 4680SOL    HW114939   1.418   5.568   6.107
 4680SOL    HW214940   1.264   5.615   6.077
 4681SOL     OW14941   6.726   6.433   5.155
 4681SOL    HW114942   6.730   6.490   5.237
 4681SOL    HW214943   6.786   6.354   5.166
 4682SOL     OW14944   3.098   6.929   0.920
 4682SOL    HW114945   3.015   6.980   0.942
 4682SOL    HW214946   3.090   6.887   0.830
 4683SOL     OW14947   0.727   4.809   3.754
 4683SOL    HW114948   0.734   4.810   3.853
 4683SOL    HW214949   0.647   4.756   3.726
 4684SOL     OW14950   2.581   1.305   5.164
 4684SOL    HW114951   2.511   1.234   5.166
 4684SOL    HW214952   2.614   1.322   5.257
 4685SOL     OW14953   5.439   4.663   3.972
 4685SOL    HW114954   5.497   4.582   3.964
 4685SOL    HW214955   5.496   4.745   3.975
 4686SOL     OW14956   4.713   5.429   6.119
 4686SOL    HW114957   4.722   5.512   6.063
 4686SOL    HW214958   4.728   5.348   6.062
 4687SOL     OW14959   4.251   0.833   5.048
 4687SOL    HW114960   4.159   0.868   5.032
 4687SOL    HW214961   4.269   0.832   5.147
 4688SOL     OW14962   6.851   0.810   1.143
 4688SOL    HW114963   6.764   0.823   1.095
 4688SOL    HW214964   6.890   0.721   1.118
 4689SOL     OW14965   2.127   5.367   4.468
 4689SOL    HW114966   2.177   5.376   4.554
 4689SOL    HW214967   2.117   5.457   4.426
 4690SOL     OW14968   2.837   1.795   0.466
 4690SOL    HW114969   2.803   1.889   0.461
 4690SOL    HW214970   2.771   1.734   0.422
 4691SOL     OW14971   3.140   4.787   0.033
 4691SOL    HW114972   3.206   4.854   0.066
 4691SOL    HW214973   3.110   4.812   6.958
 4692SOL     OW14974   0.791   4.962   3.320
 4692SOL    HW114975   0.854   4.910   3.263
 4692SOL    HW214976   0.726   5.012   3.262
 4693SOL     OW14977   0.520   2.033   2.352
 4693SOL    HW114978   0.424   2.007   2.346
 4693SOL    HW214979   0.528   2.132   2.338
 4694SOL     OW14980   1.717   0.987   5.008
 4694SOL    HW114981   1.771   0.992   5.091
 4694SOL    HW214982   1.777   0.978   4.929
 4695SOL     OW14983   2.934   3.768   3.096
 4695SOL    HW114984   2.921   3.714   3.179
 4695SOL    HW214985   2.965   3.860   3.120
 4696SOL     OW14986   0.228   2.585   6.838
 4696SOL    HW114987   0.253   2.679   6.860
 4696SOL    HW214988   0.301   2.523   6.867
 4697SOL     OW14989   0.445   5.210   6.813
 4697SOL    HW114990   0.355   5.206   6.857
 4697SOL    HW214991   0.451   5.293   6.756
 4698SOL     OW14992   5.422   2.820   2.663
 4698SOL    HW114993   5.440   2.911   2.699
 4698SOL    HW214994   5.454   2.815   2.569
 4699SOL     OW14995   0.006   0.470   3.293
 4699SOL    HW114996   0.003   0.404   3.218
 4699SOL    HW214997   6.981   0.430   3.374
 4700SOL     OW14998   5.295   0.206   5.243
 4700SOL    HW114999   5.229   0.275   5.275
 4700SOL    HW215000   5.274   0.182   5.148
 4701SOL     OW15001   2.285   0.960   6.338
 4701SOL    HW115002   2.323   0.914   6.418
 4701SOL    HW215003   2.222   0.898   6.291
 4702SOL     OW15004   3.513   2.507   1.164
 4702SOL    HW115005   3.484   2.598   1.134
 4702SOL    HW215006   3.439   2.463   1.215
 4703SOL     OW15007   0.577   6.382   1.948
 4703SOL    HW115008   0.676   6.389   1.955
 4703SOL    HW215009   0.549   6.287   1.963
 4704SOL     OW15010   4.452   6.828   6.411
 4704SOL    HW115011   4.485   6.842   6.317
 4704SOL    HW215012   4.442   6.731   6.429
 4705SOL     OW15013   3.758   2.883   4.880
 4705SOL    HW115014   3.819   2.844   4.949
 4705SOL    HW215015   3.665   2.888   4.917
 4706SOL     OW15016   5.773   3.455   0.028
 4706SOL    HW115017   5.765   3.398   0.109
 4706SOL    HW215018   5.728   3.410   6.968
 4707SOL     OW15019   2.815   4.514   0.520
 4707SOL    HW115020   2.735   4.568   0.549
 4707SOL    HW215021   2.790   4.417   0.516
 4708SOL     OW15022   1.888   2.916   2.355
 4708SOL    HW115023   1.804   2.927   2.303
 4708SOL    HW215024   1.964   2.899   2.292
 4709SOL     OW15025   3.041   4.189   0.302
 4709SOL    HW115026   3.069   4.198   0.398
 4709SOL    HW215027   3.097   4.250   0.246
 4710SOL     OW15028   4.765   2.795   1.402
 4710SOL    HW115029   4.714   2.876   1.430
 4710SOL    HW215030   4.787   2.800   1.305
 4711SOL     OW15031   2.878   0.092   3.644
 4711SOL    HW115032   2.841   0.031   3.574
 4711SOL    HW215033   2.958   0.050   3.686
 4712SOL     OW15034   1.424   3.875   6.821
 4712SOL    HW115035   1.399   3.849   6.727
 4712SOL    HW215036   1.429   3.793   6.878
 4713SOL     OW15037   0.778   6.014   1.110
 4713SOL    HW115038   0.759   6.112   1.124
 4713SOL    HW215039   0.840   5.982   1.181
 4714SOL     OW15040   4.178   2.206   1.028
 4714SOL    HW115041   4.130   2.154   1.098
 4714SOL    HW215042   4.277   2.196   1.041
 4715SOL     OW15043   4.883   3.457   4.738
 4715SOL    HW115044   4.942   3.385   4.775
 4715SOL    HW215045   4.831   3.499   4.812
 4716SOL     OW15046   2.110   5.773   6.327
 4716SOL    HW115047   2.074   5.820   6.407
 4716SOL    HW215048   2.059   5.689   6.310
 4717SOL     OW15049   2.043   4.966   4.608
 4717SOL    HW115050   2.141   4.983   4.597
 4717SOL    HW215051   2.024   4.869   4.592
 4718SOL     OW15052   4.977   6.750   0.283
 4718SOL    HW115053   5.049   6.756   0.353
 4718SOL    HW215054   4.902   6.694   0.317
 4719SOL     OW15055   4.460   3.663   1.367
 4719SOL    HW115056   4.443   3.636   1.461
 4719SOL    HW215057   4.420   3.595   1.305
 4720SOL     OW15058   2.167   1.869   3.435
 4720SOL    HW115059   2.208   1.960   3.445
 4720SOL    HW215060   2.222   1.814   3.372
 4721SOL     OW15061   1.878   1.383   1.705
 4721SOL    HW115062   1.865   1.454   1.636
 4721SOL    HW215063   1.964   1.399   1.753
 4722SOL     OW15064   2.473   0.865   2.881
 4722SOL    HW115065   2.406   0.873   2.954
 4722SOL    HW215066   2.536   0.943   2.883
 4723SOL     OW15067   2.662   0.383   5.434
 4723SOL    HW115068   2.687   0.376   5.530
 4723SOL    HW215069   2.603   0.463   5.420
 4724SOL     OW15070   4.840   5.224   1.067
 4724SOL    HW115071   4.783   5.151   1.102
 4724SOL    HW215072   4.875   5.279   1.143
 4725SOL     OW15073   5.940   4.885   2.766
 4725SOL    HW115074   5.947   4.791   2.797
 4725SOL    HW215075   5.922   4.886   2.667
 4726SOL     OW15076   6.924   6.500   4.330
 4726SOL    HW115077   6.824   6.501   4.335
 4726SOL    HW215078   6.953   6.522   4.237
 4727SOL     OW15079   5.218   6.627   2.061
 4727SOL    HW115080   5.193   6.717   2.096
 4727SOL    HW215081   5.306   6.599   2.099
 4728SOL     OW15082   6.698   6.471   6.517
 4728SOL    HW115083   6.678   6.418   6.435
 4728SOL    HW215084   6.772   6.535   6.499
 4729SOL     OW15085   3.166   0.558   1.234
 4729SOL    HW115086   3.073   0.532   1.209
 4729SOL    HW215087   3.163   0.639   1.293
 4730SOL     OW15088   1.735   0.627   6.258
 4730SOL    HW115089   1.692   0.637   6.168
 4730SOL    HW215090   1.782   0.712   6.282
 4731SOL     OW15091   4.371   1.358   5.807
 4731SOL    HW115092   4.430   1.373   5.728
 4731SOL    HW215093   4.358   1.445   5.855
 4732SOL     OW15094   0.611   6.608   6.489
 4732SOL    HW115095   0.531   6.579   6.437
 4732SOL    HW215096   0.588   6.613   6.587
 4733SOL     OW15097   5.638   3.908   3.198
 4733SOL    HW115098   5.683   3.819   3.199
 4733SOL    HW215099   5.620   3.937   3.292
 4734SOL     OW15100   6.404   3.471   5.923
 4734SOL    HW115101   6.306   3.472   5.941
 4734SOL    HW215102   6.452   3.517   5.997
 4735SOL     OW15103   0.569   4.082   3.805
 4735SOL    HW115104   0.642   4.018   3.781
 4735SOL    HW215105   0.482   4.034   3.808
 4736SOL     OW15106   1.430   6.813   2.213
 4736SOL    HW115107   1.401   6.718   2.216
 4736SOL    HW215108   1.355   6.870   2.181
 4737SOL     OW15109   3.282   5.000   2.149
 4737SOL    HW115110   3.191   4.999   2.191
 4737SOL    HW215111   3.314   5.095   2.142
 4738SOL     OW15112   1.022   0.084   3.208
 4738SOL    HW115113   0.943   0.085   3.269
 4738SOL    HW215114   1.057   0.177   3.197
 4739SOL     OW15115   3.725   0.038   1.519
 4739SOL    HW115116   3.668   0.078   1.447
 4739SOL    HW215117   3.745   0.107   1.589
 4740SOL     OW15118   0.948   1.715   4.591
 4740SOL    HW115119   0.864   1.674   4.626
 4740SOL    HW215120   1.007   1.644   4.552
 4741SOL     OW15121   3.645   4.109   3.245
 4741SOL    HW115122   3.695   4.022   3.248
 4741SOL    HW215123   3.610   4.129   3.336
 4742SOL     OW15124   4.960   1.084   3.002
 4742SOL    HW115125   5.052   1.061   2.971
 4742SOL    HW215126   4.964   1.115   3.097
 4743SOL     OW15127   0.837   5.340   0.530
 4743SOL    HW115128   0.889   5.298   0.604
 4743SOL    HW215129   0.739   5.325   0.545
 4744SOL     OW15130   1.657   5.080   1.708
 4744SOL    HW115131   1.577   5.135   1.734
 4744SOL    HW215132   1.698   5.120   1.626
 4745SOL     OW15133   1.668   3.158   0.123
 4745SOL    HW115134   1.659   3.058   0.120
 4745SOL    HW215135   1.684   3.187   0.218
 4746SOL     OW15136   5.902   5.894   4.467
 4746SOL    HW115137   5.852   5.958   4.409
 4746SOL    HW215138   5.843   5.817   4.492
 4747SOL     OW15139   3.989   0.712   1.184
 4747SOL    HW115140   3.898   0.754   1.178
 4747SOL    HW215141   3.982   0.624   1.229
 4748SOL     OW15142   1.868   6.782   3.074
 4748SOL    HW115143   1.845   6.742   3.163
 4748SOL    HW215144   1.825   6.872   3.066
 4749SOL     OW15145   2.434   0.999   1.277
 4749SOL    HW115146   2.503   1.072   1.273
 4749SOL    HW215147   2.345   1.039   1.297
 4750SOL     OW15148   5.295   3.260   6.728
 4750SOL    HW115149   5.382   3.210   6.734
 4750SOL    HW215150   5.234   3.213   6.665
 4751SOL     OW15151   3.969   1.701   2.709
 4751SOL    HW115152   3.908   1.749   2.646
 4751SOL    HW215153   4.025   1.768   2.758
 4752SOL     OW15154   5.736   6.780   6.910
 4752SOL    HW115155   5.824   6.791   6.865
 4752SOL    HW215156   5.662   6.796   6.844
 4753SOL     OW15157   3.065   5.348   4.870
 4753SOL    HW115158   2.967   5.352   4.847
 4753SOL    HW215159   3.087   5.255   4.901
 4754SOL     OW15160   5.633   4.705   0.569
 4754SOL    HW115161   5.655   4.727   0.475
 4754SOL    HW215162   5.547   4.653   0.572
 4755SOL     OW15163   0.144   1.169   1.464
 4755SOL    HW115164   0.121   1.077   1.495
 4755SOL    HW215165   0.119   1.236   1.534
 4756SOL     OW15166   6.724   3.949   5.199
 4756SOL    HW115167   6.713   3.871   5.261
 4756SOL    HW215168   6.807   3.999   5.222
 4757SOL     OW15169   2.182   3.158   1.314
 4757SOL    HW115170   2.104   3.096   1.322
 4757SOL    HW215171   2.149   3.252   1.306
 4758SOL     OW15172   1.996   5.131   1.989
 4758SOL    HW115173   2.035   5.210   2.037
 4758SOL    HW215174   1.943   5.076   2.055
 4759SOL     OW15175   0.733   6.848   2.546
 4759SOL    HW115176   0.653   6.790   2.556
 4759SOL    HW215177   0.736   6.914   2.621
 4760SOL     OW15178   0.404   0.115   1.906
 4760SOL    HW115179   0.397   0.156   1.997
 4760SOL    HW215180   0.330   0.049   1.893
 4761SOL     OW15181   4.357   6.280   2.092
 4761SOL    HW115182   4.363   6.310   2.188
 4761SOL    HW215183   4.313   6.191   2.088
 4762SOL     OW15184   0.924   0.880   2.335
 4762SOL    HW115185   1.014   0.922   2.337
 4762SOL    HW215186   0.903   0.851   2.242
 4763SOL     OW15187   5.155   4.725   1.844
 4763SOL    HW115188   5.248   4.730   1.809
 4763SOL    HW215189   5.128   4.629   1.852
 4764SOL     OW15190   4.853   2.737   6.736
 4764SOL    HW115191   4.754   2.723   6.742
 4764SOL    HW215192   4.895   2.656   6.694
 4765SOL     OW15193   3.471   1.417   5.417
 4765SOL    HW115194   3.433   1.507   5.441
 4765SOL    HW215195   3.413   1.345   5.456
 4766SOL     OW15196   1.421   0.787   3.614
 4766SOL    HW115197   1.322   0.790   3.627
 4766SOL    HW215198   1.445   0.835   3.529
 4767SOL     OW15199   2.721   4.820   3.226
 4767SOL    HW115200   2.782   4.794   3.152
 4767SOL    HW215201   2.749   4.908   3.264
 4768SOL     OW15202   4.808   2.267   6.211
 4768SOL    HW115203   4.842   2.253   6.118
 4768SOL    HW215204   4.743   2.343   6.212
 4769SOL     OW15205   2.929   3.035   0.634
 4769SOL    HW115206   2.843   2.989   0.660
 4769SOL    HW215207   2.995   2.966   0.605
 4770SOL     OW15208   7.006   1.964   3.925
 4770SOL    HW115209   0.016   1.867   3.927
 4770SOL    HW215210   0.061   2.018   3.882
 4771SOL     OW15211   3.114   0.781   4.250
 4771SOL    HW115212   3.048   0.709   4.227
 4771SOL    HW215213   3.066   0.858   4.291
 4772SOL     OW15214   2.539   4.978   2.620
 4772SOL    HW115215   2.466   4.932   2.670
 4772SOL    HW215216   2.499   5.039   2.552
 4773SOL     OW15217   2.843   5.596   4.085
 4773SOL    HW115218   2.872   5.660   4.156
 4773SOL    HW215219   2.789   5.523   4.126
 4774SOL     OW15220   0.826   4.617   0.247
 4774SOL    HW115221   0.781   4.569   0.171
 4774SOL    HW215222   0.774   4.603   0.330
 4775SOL     OW15223   5.626   5.035   4.254
 4775SOL    HW115224   5.535   5.075   4.265
 4775SOL    HW215225   5.637   4.960   4.319
 4776SOL     OW15226   0.107   2.055   4.703
 4776SOL    HW115227   0.049   2.109   4.764
 4776SOL    HW215228   0.075   2.064   4.609
 4777SOL     OW15229   0.967   6.527   3.671
 4777SOL    HW115230   1.037   6.467   3.710
 4777SOL    HW215231   0.881   6.516   3.722
 4778SOL     OW15232   1.819   6.943   0.702
 4778SOL    HW115233   1.740   6.900   0.745
 4778SOL    HW215234   1.790   6.996   0.623
 4779SOL     OW15235   4.831   1.956   4.403
 4779SOL    HW115236   4.830   1.856   4.412
 4779SOL    HW215237   4.883   1.995   4.479
 4780SOL     OW15238   4.854   2.864   5.061
 4780SOL    HW115239   4.836   2.885   4.965
 4780SOL    HW215240   4.946   2.895   5.085
 4781SOL     OW15241   2.726   5.392   2.021
 4781SOL    HW115242   2.798   5.369   1.956
 4781SOL    HW215243   2.763   5.389   2.114
 4782SOL     OW15244   1.227   6.897   3.055
 4782SOL    HW115245   1.142   6.923   3.101
 4782SOL    HW215246   1.279   6.979   3.031
 4783SOL     OW15247   0.915   4.169   6.678
 4783SOL    HW115248   0.912   4.260   6.719
 4783SOL    HW215249   1.009   4.134   6.683
 4784SOL     OW15250   5.966   2.668   6.893
 4784SOL    HW115251   5.890   2.664   6.828
 4784SOL    HW215252   5.933   2.700   6.981
 4785SOL     OW15253   0.431   1.382   3.999
 4785SOL    HW115254   0.473   1.465   3.963
 4785SOL    HW215255   0.478   1.302   3.960
 4786SOL     OW15256   1.858   6.370   0.293
 4786SOL    HW115257   1.901   6.281   0.278
 4786SOL    HW215258   1.923   6.431   0.337
 4787SOL     OW15259   4.229   1.277   5.063
 4787SOL    HW115260   4.238   1.209   4.990
 4787SOL    HW215261   4.301   1.262   5.131
 4788SOL     OW15262   6.991   5.903   0.818
 4788SOL    HW115263   6.984   5.815   0.865
 4788SOL    HW215264   6.920   5.909   0.748
 4789SOL     OW15265   5.998   1.061   2.117
 4789SOL    HW115266   6.077   1.026   2.066
 4789SOL    HW215267   5.919   1.069   2.055
 4790SOL     OW15268   0.355   2.585   6.351
 4790SOL    HW115269   0.274   2.625   6.394
 4790SOL    HW215270   0.333   2.558   6.257
 4791SOL     OW15271   1.063   0.641   6.555
 4791SOL    HW115272   1.111   0.648   6.467
 4791SOL    HW215273   1.034   0.732   6.585
 4792SOL     OW15274   0.979   4.065   1.477
 4792SOL    HW115275   1.007   4.082   1.571
 4792SOL    HW215276   0.917   4.137   1.446
 4793SOL     OW15277   0.796   3.323   5.355
 4793SOL    HW115278   0.757   3.339   5.445
 4793SOL    HW215279   0.841   3.233   5.353
 4794SOL     OW15280   5.599   1.427   6.335
 4794SOL    HW115281   5.689   1.444   6.375
 4794SOL    HW215282   5.608   1.407   6.238
 4795SOL     OW15283   0.067   6.655   6.741
 4795SOL    HW115284   0.083   6.624   6.835
 4795SOL    HW215285   0.075   6.577   6.678
 4796SOL     OW15286   5.919   1.370   5.871
 4796SOL    HW115287   5.865   1.454   5.872
 4796SOL    HW215288   5.980   1.370   5.792
 4797SOL     OW15289   3.073   4.915   5.367
 4797SOL    HW115290   2.996   4.912   5.431
 4797SOL    HW215291   3.154   4.950   5.415
 4798SOL     OW15292   3.424   6.034   0.216
 4798SOL    HW115293   3.492   5.972   0.177
 4798SOL    HW215294   3.391   5.997   0.303
 4799SOL     OW15295   4.452   3.852   1.087
 4799SOL    HW115296   4.361   3.889   1.068
 4799SOL    HW215297   4.491   3.900   1.166
 4800SOL     OW15298   1.011   4.865   0.087
 4800SOL    HW115299   1.068   4.943   0.112
 4800SOL    HW215300   0.915   4.888   0.101
 4801SOL     OW15301   4.886   3.500   3.439
 4801SOL    HW115302   4.808   3.556   3.469
 4801SOL    HW215303   4.955   3.499   3.511
 4802SOL     OW15304   6.972   0.600   5.097
 4802SOL    HW115305   7.009   0.595   5.190
 4802SOL    HW215306   6.888   0.546   5.091
 4803SOL     OW15307   5.504   3.366   5.786
 4803SOL    HW115308   5.453   3.346   5.703
 4803SOL    HW215309   5.463   3.318   5.863
 4804SOL     OW15310   5.547   2.786   1.016
 4804SOL    HW115311   5.493   2.825   1.090
 4804SOL    HW215312   5.537   2.843   0.934
 4805SOL     OW15313   5.776   0.776   6.215
 4805SOL    HW115314   5.721   0.859   6.218
 4805SOL    HW215315   5.856   0.787   6.274
 4806SOL     OW15316   1.874   3.030   3.702
 4806SOL    HW115317   1.929   3.078   3.770
 4806SOL    HW215318   1.789   2.998   3.744
 4807SOL     OW15319   1.337   3.512   0.682
 4807SOL    HW115320   1.384   3.597   0.659
 4807SOL    HW215321   1.284   3.480   0.603
 4808SOL     OW15322   3.287   6.583   3.321
 4808SOL    HW115323   3.280   6.649   3.395
 4808SOL    HW215324   3.200   6.579   3.272
 4809SOL     OW15325   2.788   4.265   0.237
 4809SOL    HW115326   2.879   4.237   0.267
 4809SOL    HW215327   2.758   4.206   0.162
 4810SOL     OW15328   1.840   5.503   4.379
 4810SOL    HW115329   1.771   5.439   4.412
 4810SOL    HW215330   1.911   5.452   4.330
 4811SOL     OW15331   3.406   3.396   4.926
 4811SOL    HW115332   3.323   3.393   4.982
 4811SOL    HW215333   3.466   3.470   4.959
 4812SOL     OW15334   2.330   6.574   1.109
 4812SOL    HW115335   2.262   6.611   1.171
 4812SOL    HW215336   2.306   6.597   1.015
 4813SOL     OW15337   0.827   2.682   4.988
 4813SOL    HW115338   0.889   2.604   4.983
 4813SOL    HW215339   0.875   2.764   4.958
 4814SOL     OW15340   4.750   1.459   0.239
 4814SOL    HW115341   4.704   1.521   0.175
 4814SOL    HW215342   4.692   1.381   0.259
 4815SOL     OW15343   6.732   3.843   3.101
 4815SOL    HW115344   6.797   3.769   3.122
 4815SOL    HW215345   6.649   3.830   3.155
 4816SOL     OW15346   2.092   0.531   2.702
 4816SOL    HW115347   2.191   0.536   2.719
 4816SOL    HW215348   2.044   0.583   2.773
 4817SOL     OW15349   4.694   3.042   0.015
 4817SOL    HW115350   4.695   3.045   0.115
 4817SOL    HW215351   4.626   3.107   6.997
 4818SOL     OW15352   4.681   6.545   5.532
 4818SOL    HW115353   4.619   6.480   5.577
 4818SOL    HW215354   4.634   6.586   5.453
 4819SOL     OW15355   3.162   0.708   0.339
 4819SOL    HW115356   3.181   0.724   0.242
 4819SOL    HW215357   3.066   0.685   0.350
 4820SOL     OW15358   0.476   5.078   1.434
 4820SOL    HW115359   0.392   5.053   1.482
 4820SOL    HW215360   0.521   5.152   1.484
 4821SOL     OW15361   6.566   5.651   1.527
 4821SOL    HW115362   6.487   5.678   1.582
 4821SOL    HW215363   6.633   5.725   1.524
 4822SOL     OW15364   0.320   3.642   1.850
 4822SOL    HW115365   0.273   3.690   1.776
 4822SOL    HW215366   0.256   3.628   1.926
 4823SOL     OW15367   0.313   1.761   2.803
 4823SOL    HW115368   0.287   1.783   2.897
 4823SOL    HW215369   0.392   1.701   2.803
 4824SOL     OW15370   5.068   1.725   2.869
 4824SOL    HW115371   5.003   1.679   2.929
 4824SOL    HW215372   5.116   1.796   2.920
 4825SOL     OW15373   2.153   4.028   4.387
 4825SOL    HW115374   2.181   4.059   4.297
 4825SOL    HW215375   2.111   3.938   4.380
 4826SOL     OW15376   0.520   6.080   0.128
 4826SOL    HW115377   0.590   6.144   0.095
 4826SOL    HW215378   0.514   6.087   0.228
 4827SOL     OW15379   5.187   0.663   0.001
 4827SOL    HW115380   5.133   0.579   7.016
 4827SOL    HW215381   5.285   0.640   0.003
 4828SOL     OW15382   6.586   2.639   6.894
 4828SOL    HW115383   6.610   2.655   6.798
 4828SOL    HW215384   6.607   2.544   6.918
 4829SOL     OW15385   2.525   0.708   5.972
 4829SOL    HW115386   2.432   0.717   6.009
 4829SOL    HW215387   2.554   0.796   5.934
 4830SOL     OW15388   5.289   4.703   4.666
 4830SOL    HW115389   5.336   4.672   4.583
 4830SOL    HW215390   5.268   4.624   4.724
 4831SOL     OW15391   6.666   1.800   6.592
 4831SOL    HW115392   6.593   1.824   6.657
 4831SOL    HW215393   6.751   1.787   6.642
 4832SOL     OW15394   1.353   2.686   6.437
 4832SOL    HW115395   1.407   2.640   6.366
 4832SOL    HW215396   1.339   2.624   6.514
 4833SOL     OW15397   6.260   2.732   2.438
 4833SOL    HW115398   6.334   2.781   2.484
 4833SOL    HW215399   6.188   2.797   2.413
 4834SOL     OW15400   5.905   0.190   3.076
 4834SOL    HW115401   5.835   0.219   3.011
 4834SOL    HW215402   5.979   0.143   3.028
 4835SOL     OW15403   2.297   2.294   5.854
 4835SOL    HW115404   2.317   2.367   5.920
 4835SOL    HW215405   2.383   2.257   5.819
 4836SOL     OW15406   6.014   4.486   3.348
 4836SOL    HW115407   6.030   4.400   3.397
 4836SOL    HW215408   6.006   4.467   3.250
 4837SOL     OW15409   0.057   5.207   1.416
 4837SOL    HW115410   0.016   5.116   1.412
 4837SOL    HW215411   0.028   5.253   1.499
 4838SOL     OW15412   2.928   6.339   2.611
 4838SOL    HW115413   2.862   6.268   2.636
 4838SOL    HW215414   2.997   6.300   2.549
 4839SOL     OW15415   0.782   0.018   6.282
 4839SOL    HW115416   0.846   0.041   6.209
 4839SOL    HW215417   0.752   0.102   6.328
 4840SOL     OW15418   6.722   5.373   5.674
 4840SOL    HW115419   6.792   5.337   5.736
 4840SOL    HW215420   6.738   5.338   5.582
 4841SOL     OW15421   1.248   5.309   1.995
 4841SOL    HW115422   1.208   5.290   1.906
 4841SOL    HW215423   1.271   5.223   2.041
 4842SOL     OW15424   3.352   6.559   0.573
 4842SOL    HW115425   3.269   6.601   0.536
 4842SOL    HW215426   3.361   6.582   0.670
 4843SOL     OW15427   1.924   4.071   0.748
 4843SOL    HW115428   1.835   4.095   0.787
 4843SOL    HW215429   1.930   3.971   0.738
 4844SOL     OW15430   0.512   1.135   5.223
 4844SOL    HW115431   0.535   1.220   5.175
 4844SOL    HW215432   0.455   1.157   5.303
 4845SOL     OW15433   5.785   6.941   3.474
 4845SOL    HW115434   5.702   6.894   3.504
 4845SOL    HW215435   5.762   7.006   3.403
 4846SOL     OW15436   0.190   4.124   5.474
 4846SOL    HW115437   0.165   4.070   5.555
 4846SOL    HW215438   0.289   4.132   5.468
 4847SOL     OW15439   5.176   3.337   4.321
 4847SOL    HW115440   5.263   3.304   4.284
 4847SOL    HW215441   5.192   3.384   4.408
 4848SOL     OW15442   3.246   4.001   1.158
 4848SOL    HW115443   3.316   3.930   1.149
 4848SOL    HW215444   3.216   4.030   1.067
 4849SOL     OW15445   2.353   6.533   6.710
 4849SOL    HW115446   2.410   6.516   6.790
 4849SOL    HW215447   2.281   6.464   6.705
 4850SOL     OW15448   3.396   6.626   3.063
 4850SOL    HW115449   3.369   6.607   3.157
 4850SOL    HW215450   3.470   6.566   3.036
 4851SOL     OW15451   4.718   1.665   5.500
 4851SOL    HW115452   4.676   1.617   5.578
 4851SOL    HW215453   4.814   1.638   5.493
 4852SOL     OW15454   1.300   1.888   1.600
 4852SOL    HW115455   1.245   1.825   1.655
 4852SOL    HW215456   1.246   1.970   1.578
 4853SOL     OW15457   3.345   1.004   1.565
 4853SOL    HW115458   3.279   1.065   1.523
 4853SOL    HW215459   3.302   0.915   1.582
 4854SOL     OW15460   4.054   0.100   5.772
 4854SOL    HW115461   4.136   0.136   5.817
 4854SOL    HW215462   4.067   0.102   5.673
 4855SOL     OW15463   0.486   2.574   2.221
 4855SOL    HW115464   0.558   2.562   2.290
 4855SOL    HW215465   0.426   2.495   2.221
 4856SOL     OW15466   6.965   4.678   3.076
 4856SOL    HW115467   6.991   4.734   3.155
 4856SOL    HW215468   7.008   4.588   3.084
 4857SOL     OW15469   6.867   1.050   5.750
 4857SOL    HW115470   6.879   1.018   5.655
 4857SOL    HW215471   6.951   1.030   5.801
 4858SOL     OW15472   1.176   0.402   3.574
 4858SOL    HW115473   1.250   0.407   3.507
 4858SOL    HW215474   1.156   0.306   3.596
 4859SOL     OW15475   3.270   6.397   5.611
 4859SOL    HW115476   3.278   6.318   5.672
 4859SOL    HW215477   3.181   6.394   5.566
 4860SOL     OW15478   3.302   5.355   0.147
 4860SOL    HW115479   3.307   5.269   0.196
 4860SOL    HW215480   3.349   5.346   0.059
 4861SOL     OW15481   4.313   4.062   6.471
 4861SOL    HW115482   4.337   4.158   6.456
 4861SOL    HW215483   4.284   4.021   6.385
 4862SOL     OW15484   2.168   0.081   0.511
 4862SOL    HW115485   2.172   0.111   0.416
 4862SOL    HW215486   2.183   7.000   0.515
 4863SOL     OW15487   5.214   3.853   5.982
 4863SOL    HW115488   5.310   3.824   5.990
 4863SOL    HW215489   5.197   3.926   6.048
 4864SOL     OW15490   3.447   1.206   4.005
 4864SOL    HW115491   3.457   1.275   3.933
 4864SOL    HW215492   3.410   1.122   3.966
 4865SOL     OW15493   1.336   5.979   5.391
 4865SOL    HW115494   1.345   6.017   5.299
 4865SOL    HW215495   1.369   6.046   5.458
 4866SOL     OW15496   6.828   3.951   5.669
 4866SOL    HW115497   6.772   3.890   5.725
 4866SOL    HW215498   6.895   3.897   5.618
 4867SOL     OW15499   4.033   1.234   3.396
 4867SOL    HW115500   4.026   1.324   3.438
 4867SOL    HW215501   4.061   1.243   3.301
 4868SOL     OW15502   0.450   5.916   1.554
 4868SOL    HW115503   0.468   5.946   1.460
 4868SOL    HW215504   0.505   5.836   1.574
 4869SOL     OW15505   0.329   0.910   0.911
 4869SOL    HW115506   0.310   0.992   0.965
 4869SOL    HW215507   0.428   0.897   0.904
 4870SOL     OW15508   1.320   0.492   0.979
 4870SOL    HW115509   1.368   0.405   0.988
 4870SOL    HW215510   1.360   0.545   0.905
 4871SOL     OW15511   0.653   2.107   4.145
 4871SOL    HW115512   0.730   2.170   4.133
 4871SOL    HW215513   0.581   2.152   4.197
 4872SOL     OW15514   5.419   0.428   3.410
 4872SOL    HW115515   5.496   0.370   3.435
 4872SOL    HW215516   5.426   0.516   3.457
 4873SOL     OW15517   6.961   6.147   4.047
 4873SOL    HW115518   0.025   6.092   4.030
 4873SOL    HW215519   6.952   6.215   3.974
 4874SOL     OW15520   6.136   4.413   2.418
 4874SOL    HW115521   6.194   4.476   2.470
 4874SOL    HW215522   6.179   4.394   2.329
 4875SOL     OW15523   6.556   6.800   4.521
 4875SOL    HW115524   6.617   6.849   4.583
 4875SOL    HW215525   6.576   6.826   4.427
 4876SOL     OW15526   6.099   1.550   2.275
 4876SOL    HW115527   6.009   1.538   2.234
 4876SOL    HW215528   6.121   1.647   2.280
 4877SOL     OW15529   0.445   1.651   0.312
 4877SOL    HW115530   0.451   1.597   0.396
 4877SOL    HW215531   0.512   1.617   0.246
 4878SOL     OW15532   5.611   4.445   3.916
 4878SOL    HW115533   5.668   4.386   3.972
 4878SOL    HW215534   5.668   4.493   3.848
 4879SOL     OW15535   6.217   0.833   2.852
 4879SOL    HW115536   6.121   0.861   2.861
 4879SOL    HW215537   6.271   0.910   2.818
 4880SOL     OW15538   0.007   3.400   6.305
 4880SOL    HW115539   6.967   3.327   6.269
 4880SOL    HW215540   0.103   3.373   6.301
 4881SOL     OW15541   6.938   3.772   1.605
 4881SOL    HW115542   6.905   3.853   1.557
 4881SOL    HW215543   0.018   3.781   1.624
 4882SOL     OW15544   5.129   2.428   4.349
 4882SOL    HW115545   5.187   2.349   4.373
 4882SOL    HW215546   5.045   2.425   4.403
 4883SOL     OW15547   0.084   4.004   6.250
 4883SOL    HW115548   0.158   3.962   6.198
 4883SOL    HW215549   0.122   4.065   6.320
 4884SOL     OW15550   1.473   2.170   1.569
 4884SOL    HW115551   1.496   2.145   1.474
 4884SOL    HW215552   1.535   2.123   1.632
 4885SOL     OW15553   0.903   5.964   6.601
 4885SOL    HW115554   0.814   5.927   6.574
 4885SOL    HW215555   0.892   6.059   6.631
 4886SOL     OW15556   3.606   0.849   2.233
 4886SOL    HW115557   3.697   0.887   2.215
 4886SOL    HW215558   3.567   0.894   2.313
 4887SOL     OW15559   5.181   5.329   0.502
 4887SOL    HW115560   5.175   5.231   0.519
 4887SOL    HW215561   5.095   5.374   0.527
 4888SOL     OW15562   4.243   6.879   2.692
 4888SOL    HW115563   4.248   6.813   2.767
 4888SOL    HW215564   4.181   6.953   2.719
 4889SOL     OW15565   5.121   3.409   3.635
 4889SOL    HW115566   5.177   3.332   3.605
 4889SOL    HW215567   5.161   3.451   3.715
 4890SOL     OW15568   6.529   2.270   4.639
 4890SOL    HW115569   6.576   2.183   4.627
 4890SOL    HW215570   6.451   2.275   4.577
 4891SOL     OW15571   2.638   5.522   0.101
 4891SOL    HW115572   2.721   5.480   0.138
 4891SOL    HW215573   2.660   5.569   0.015
 4892SOL     OW15574   5.147   4.895   2.062
 4892SOL    HW115575   5.148   4.841   2.147
 4892SOL    HW215576   5.155   4.834   1.984
 4893SOL     OW15577   2.582   2.882   0.813
 4893SOL    HW115578   2.536   2.825   0.745
 4893SOL    HW215579   2.540   2.973   0.813
 4894SOL     OW15580   5.321   6.370   6.873
 4894SOL    HW115581   5.338   6.298   6.805
 4894SOL    HW215582   5.258   6.336   6.942
 4895SOL     OW15583   6.334   3.450   5.350
 4895SOL    HW115584   6.299   3.434   5.442
 4895SOL    HW215585   6.287   3.529   5.309
 4896SOL     OW15586   2.762   5.065   4.845
 4896SOL    HW115587   2.750   5.039   4.941
 4896SOL    HW215588   2.775   5.164   4.839
 4897SOL     OW15589   2.703   1.985   5.764
 4897SOL    HW115590   2.719   1.994   5.665
 4897SOL    HW215591   2.787   2.008   5.813
 4898SOL     OW15592   4.314   2.356   3.412
 4898SOL    HW115593   4.332   2.411   3.330
 4898SOL    HW215594   4.380   2.281   3.417
 4899SOL     OW15595   6.383   5.982   1.642
 4899SOL    HW115596   6.469   5.939   1.669
 4899SOL    HW215597   6.339   5.928   1.570
 4900SOL     OW15598   3.485   5.294   6.208
 4900SOL    HW115599   3.560   5.285   6.273
 4900SOL    HW215600   3.450   5.387   6.210
 4901SOL     OW15601   2.552   0.648   6.924
 4901SOL    HW115602   2.567   0.737   6.880
 4901SOL    HW215603   2.510   0.662   7.014
 4902SOL     OW15604   2.091   0.278   5.606
 4902SOL    HW115605   2.060   0.291   5.700
 4902SOL    HW215606   2.190   0.265   5.605
 4903SOL     OW15607   4.892   3.734   2.523
 4903SOL    HW115608   4.840   3.781   2.452
 4903SOL    HW215609   4.872   3.775   2.612
 4904SOL     OW15610   2.386   0.811   2.002
 4904SOL    HW115611   2.412   0.726   1.955
 4904SOL    HW215612   2.410   0.889   1.944
 4905SOL     OW15613   2.661   1.859   1.730
 4905SOL    HW115614   2.676   1.784   1.666
 4905SOL    HW215615   2.566   1.890   1.723
 4906SOL     OW15616   5.320   3.242   4.766
 4906SOL    HW115617   5.377   3.265   4.687
 4906SOL    HW215618   5.260   3.166   4.743
 4907SOL     OW15619   4.266   2.756   0.796
 4907SOL    HW115620   4.289   2.849   0.766
 4907SOL    HW215621   4.203   2.760   0.873
 4908SOL     OW15622   2.660   6.475   6.640
 4908SOL    HW115623   2.566   6.468   6.671
 4908SOL    HW215624   2.670   6.555   6.581
 4909SOL     OW15625   4.873   6.296   4.903
 4909SOL    HW115626   4.933   6.302   4.983
 4909SOL    HW215627   4.863   6.386   4.861
 4910SOL     OW15628   4.953   2.139   6.691
 4910SOL    HW115629   4.898   2.191   6.625
 4910SOL    HW215630   4.912   2.146   6.782
 4911SOL     OW15631   6.610   4.283   3.742
 4911SOL    HW115632   6.671   4.206   3.725
 4911SOL    HW215633   6.659   4.368   3.723
 4912SOL     OW15634   5.784   2.878   4.343
 4912SOL    HW115635   5.708   2.815   4.355
 4912SOL    HW215636   5.766   2.962   4.394
 4913SOL     OW15637   1.260   3.858   6.027
 4913SOL    HW115638   1.222   3.765   6.029
 4913SOL    HW215639   1.354   3.854   5.992
 4914SOL     OW15640   2.596   6.723   4.122
 4914SOL    HW115641   2.527   6.684   4.183
 4914SOL    HW215642   2.551   6.787   4.059
 4915SOL     OW15643   4.666   6.683   5.070
 4915SOL    HW115644   4.638   6.768   5.026
 4915SOL    HW215645   4.766   6.680   5.076
 4916SOL     OW15646   5.860   2.962   3.671
 4916SOL    HW115647   5.819   2.942   3.761
 4916SOL    HW215648   5.868   3.061   3.660
 4917SOL     OW15649   5.011   6.479   6.732
 4917SOL    HW115650   5.081   6.506   6.666
 4917SOL    HW215651   4.920   6.493   6.692
 4918SOL     OW15652   4.764   6.209   4.138
 4918SOL    HW115653   4.681   6.154   4.134
 4918SOL    HW215654   4.840   6.158   4.097
 4919SOL     OW15655   4.721   4.038   1.716
 4919SOL    HW115656   4.815   4.014   1.692
 4919SOL    HW215657   4.714   4.136   1.732
 4920SOL     OW15658   6.076   0.933   5.528
 4920SOL    HW115659   6.110   0.871   5.457
 4920SOL    HW215660   6.124   1.021   5.520
 4921SOL     OW15661   6.423   0.421   2.423
 4921SOL    HW115662   6.520   0.425   2.398
 4921SOL    HW215663   6.389   0.514   2.441
 4922SOL     OW15664   3.895   0.511   6.419
 4922SOL    HW115665   3.898   0.415   6.390
 4922SOL    HW215666   3.987   0.550   6.414
 4923SOL     OW15667   3.801   1.388   2.288
 4923SOL    HW115668   3.766   1.352   2.202
 4923SOL    HW215669   3.861   1.466   2.270
 4924SOL     OW15670   3.170   1.489   5.317
 4924SOL    HW115671   3.125   1.434   5.246
 4924SOL    HW215672   3.232   1.555   5.274
 4925SOL     OW15673   5.483   0.163   3.631
 4925SOL    HW115674   5.538   0.152   3.548
 4925SOL    HW215675   5.432   0.079   3.649
 4926SOL     OW15676   4.852   2.573   2.201
 4926SOL    HW115677   4.915   2.555   2.125
 4926SOL    HW215678   4.850   2.671   2.220
 4927SOL     OW15679   2.345   1.589   0.439
 4927SOL    HW115680   2.334   1.673   0.386
 4927SOL    HW215681   2.380   1.612   0.530
 4928SOL     OW15682   0.977   2.035   1.395
 4928SOL    HW115683   0.939   2.018   1.486
 4928SOL    HW215684   0.903   2.036   1.328
 4929SOL     OW15685   6.607   0.614   4.918
 4929SOL    HW115686   6.650   0.658   4.839
 4929SOL    HW215687   6.512   0.643   4.924
 4930SOL     OW15688   4.987   5.727   2.173
 4930SOL    HW115689   4.935   5.810   2.192
 4930SOL    HW215690   5.056   5.714   2.244
 4931SOL     OW15691   4.641   0.524   1.414
 4931SOL    HW115692   4.586   0.469   1.351
 4931SOL    HW215693   4.689   0.464   1.478
 4932SOL     OW15694   3.074   3.860   3.416
 4932SOL    HW115695   3.062   3.761   3.403
 4932SOL    HW215696   3.035   3.887   3.504
 4933SOL     OW15697   1.647   0.701   5.221
 4933SOL    HW115698   1.707   0.778   5.202
 4933SOL    HW215699   1.677   0.621   5.168
 4934SOL     OW15700   2.160   6.970   2.780
 4934SOL    HW115701   2.190   6.881   2.745
 4934SOL    HW215702   2.214   0.025   2.738
 4935SOL     OW15703   6.333   0.485   4.808
 4935SOL    HW115704   6.239   0.480   4.774
 4935SOL    HW215705   6.334   0.535   4.895
 4936SOL     OW15706   4.895   3.019   0.756
 4936SOL    HW115707   4.865   3.086   0.689
 4936SOL    HW215708   4.968   2.963   0.716
 4937SOL     OW15709   3.699   2.808   5.451
 4937SOL    HW115710   3.728   2.712   5.448
 4937SOL    HW215711   3.602   2.813   5.475
 4938SOL     OW15712   2.751   4.779   6.904
 4938SOL    HW115713   2.839   4.731   6.910
 4938SOL    HW215714   2.701   4.749   6.823
 4939SOL     OW15715   5.137   3.141   6.538
 4939SOL    HW115716   5.126   3.179   6.446
 4939SOL    HW215717   5.061   3.079   6.558
 4940SOL     OW15718   1.374   5.936   3.446
 4940SOL    HW115719   1.311   5.891   3.508
 4940SOL    HW215720   1.467   5.929   3.482
 4941SOL     OW15721   6.624   0.314   0.620
 4941SOL    HW115722   6.601   0.258   0.701
 4941SOL    HW215723   6.681   0.260   0.558
 4942SOL     OW15724   5.556   2.799   5.892
 4942SOL    HW115725   5.474   2.742   5.898
 4942SOL    HW215726   5.573   2.824   5.797
 4943SOL     OW15727   6.117   3.529   0.938
 4943SOL    HW115728   6.089   3.614   0.982
 4943SOL    HW215729   6.208   3.540   0.898
 4944SOL     OW15730   1.691   3.181   1.613
 4944SOL    HW115731   1.717   3.146   1.703
 4944SOL    HW215732   1.692   3.106   1.547
 4945SOL     OW15733   6.700   5.458   4.090
 4945SOL    HW115734   6.793   5.474   4.123
 4945SOL    HW215735   6.636   5.508   4.148
 4946SOL     OW15736   6.696   4.625   2.213
 4946SOL    HW115737   6.791   4.598   2.194
 4946SOL    HW215738   6.640   4.606   2.133
 4947SOL     OW15739   5.875   0.297   0.679
 4947SOL    HW115740   5.823   0.377   0.709
 4947SOL    HW215741   5.973   0.315   0.690
 4948SOL     OW15742   2.838   1.421   2.002
 4948SOL    HW115743   2.751   1.461   2.033
 4948SOL    HW215744   2.914   1.468   2.047
 4949SOL     OW15745   5.387   2.290   5.907
 4949SOL    HW115746   5.344   2.255   5.991
 4949SOL    HW215747   5.336   2.370   5.875
 4950SOL     OW15748   3.529   5.335   4.145
 4950SOL    HW115749   3.589   5.368   4.072
 4950SOL    HW215750   3.577   5.267   4.199
 4951SOL     OW15751   4.635   2.748   4.025
 4951SOL    HW115752   4.634   2.695   3.940
 4951SOL    HW215753   4.560   2.815   4.024
 4952SOL     OW15754   6.484   5.234   4.253
 4952SOL    HW115755   6.417   5.160   4.248
 4952SOL    HW215756   6.562   5.212   4.195
 4953SOL     OW15757   0.833   5.010   1.722
 4953SOL    HW115758   0.808   4.923   1.764
 4953SOL    HW215759   0.864   4.994   1.628
 4954SOL     OW15760   0.373   6.765   6.157
 4954SOL    HW115761   0.345   6.683   6.105
 4954SOL    HW215762   0.460   6.798   6.122
 4955SOL     OW15763   1.501   0.142   2.106
 4955SOL    HW115764   1.464   0.219   2.056
 4955SOL    HW215765   1.426   0.080   2.133
 4956SOL     OW15766   6.095   6.088   3.303
 4956SOL    HW115767   6.093   6.113   3.206
 4956SOL    HW215768   6.159   6.013   3.317
 4957SOL     OW15769   1.443   5.527   4.403
 4957SOL    HW115770   1.465   5.551   4.308
 4957SOL    HW215771   1.397   5.604   4.447
 4958SOL     OW15772   0.286   6.344   6.804
 4958SOL    HW115773   0.259   6.405   6.879
 4958SOL    HW215774   0.319   6.258   6.841
 4959SOL     OW15775   1.317   1.577   0.037
 4959SOL    HW115776   1.339   1.482   0.016
 4959SOL    HW215777   1.401   1.630   0.047
 4960SOL     OW15778   3.842   6.712   5.383
 4960SOL    HW115779   3.803   6.800   5.357
 4960SOL    HW215780   3.781   6.638   5.354
 4961SOL     OW15781   5.680   0.144   5.099
 4961SOL    HW115782   5.778   0.139   5.083
 4961SOL    HW215783   5.661   0.202   5.178
 4962SOL     OW15784   6.303   2.048   2.520
 4962SOL    HW115785   6.211   2.013   2.535
 4962SOL    HW215786   6.358   1.981   2.471
 4963SOL     OW15787   1.017   4.507   1.340
 4963SOL    HW115788   1.111   4.531   1.362
 4963SOL    HW215789   1.005   4.508   1.240
 4964SOL     OW15790   3.785   1.170   3.473
 4964SOL    HW115791   3.874   1.216   3.472
 4964SOL    HW215792   3.740   1.189   3.560
 4965SOL     OW15793   0.388   5.413   5.293
 4965SOL    HW115794   0.444   5.329   5.289
 4965SOL    HW215795   0.334   5.420   5.209
 4966SOL     OW15796   5.034   5.952   5.143
 4966SOL    HW115797   5.060   6.010   5.066
 4966SOL    HW215798   5.057   5.857   5.124
 4967SOL     OW15799   5.563   0.693   0.195
 4967SOL    HW115800   5.660   0.717   0.204
 4967SOL    HW215801   5.508   0.777   0.196
 4968SOL     OW15802   5.359   3.468   6.562
 4968SOL    HW115803   5.330   3.381   6.602
 4968SOL    HW215804   5.298   3.493   6.487
 4969SOL     OW15805   1.022   0.883   1.313
 4969SOL    HW115806   1.120   0.903   1.305
 4969SOL    HW215807   0.998   0.871   1.409
 4970SOL     OW15808   1.984   1.982   6.106
 4970SOL    HW115809   1.972   1.965   6.008
 4970SOL    HW215810   2.024   2.073   6.119
 4971SOL     OW15811   6.045   5.739   3.917
 4971SOL    HW115812   6.132   5.787   3.903
 4971SOL    HW215813   6.048   5.687   4.002
 4972SOL     OW15814   1.672   2.370   4.545
 4972SOL    HW115815   1.761   2.366   4.499
 4972SOL    HW215816   1.646   2.465   4.557
 4973SOL     OW15817   4.580   5.898   3.074
 4973SOL    HW115818   4.615   5.990   3.058
 4973SOL    HW215819   4.516   5.899   3.151
 4974SOL     OW15820   3.500   6.576   6.178
 4974SOL    HW115821   3.406   6.569   6.212
 4974SOL    HW215822   3.555   6.503   6.218
 4975SOL     OW15823   4.107   5.788   6.752
 4975SOL    HW115824   4.046   5.867   6.760
 4975SOL    HW215825   4.063   5.707   6.791
 4976SOL     OW15826   2.559   1.150   4.771
 4976SOL    HW115827   2.481   1.151   4.709
 4976SOL    HW215828   2.530   1.180   4.862
 4977SOL     OW15829   3.928   3.509   1.911
 4977SOL    HW115830   3.895   3.435   1.852
 4977SOL    HW215831   4.026   3.519   1.899
 4978SOL     OW15832   6.014   3.789   6.388
 4978SOL    HW115833   6.100   3.750   6.356
 4978SOL    HW215834   5.942   3.721   6.379
 4979SOL     OW15835   1.238   1.854   3.446
 4979SOL    HW115836   1.200   1.764   3.465
 4979SOL    HW215837   1.233   1.872   3.348
 4980SOL     OW15838   2.305   4.703   2.495
 4980SOL    HW115839   2.314   4.627   2.560
 4980SOL    HW215840   2.256   4.778   2.539
 4981SOL     OW15841   5.076   5.726   5.379
 4981SOL    HW115842   5.135   5.651   5.349
 4981SOL    HW215843   5.122   5.813   5.361
 4982SOL     OW15844   2.725   1.252   6.421
 4982SOL    HW115845   2.678   1.326   6.374
 4982SOL    HW215846   2.657   1.187   6.457
 4983SOL     OW15847   6.801   1.645   3.893
 4983SOL    HW115848   6.794   1.668   3.796
 4983SOL    HW215849   6.717   1.671   3.940
 4984SOL     OW15850   4.989   5.273   3.582
 4984SOL    HW115851   4.958   5.183   3.612
 4984SOL    HW215852   4.916   5.318   3.530
 4985SOL     OW15853   5.742   4.006   1.432
 4985SOL    HW115854   5.690   3.961   1.360
 4985SOL    HW215855   5.688   4.009   1.516
 4986SOL     OW15856   3.871   5.121   3.482
 4986SOL    HW115857   3.950   5.149   3.427
 4986SOL    HW215858   3.833   5.037   3.444
 4987SOL     OW15859   1.113   2.508   0.127
 4987SOL    HW115860   1.128   2.411   0.148
 4987SOL    HW215861   1.065   2.551   0.203
 4988SOL     OW15862   2.315   1.993   4.633
 4988SOL    HW115863   2.221   1.957   4.636
 4988SOL    HW215864   2.375   1.933   4.687
 4989SOL     OW15865   0.073   0.819   1.258
 4989SOL    HW115866   7.003   0.830   1.211
 4989SOL    HW215867   0.144   0.795   1.191
 4990SOL     OW15868   1.825   1.948   6.645
 4990SOL    HW115869   1.848   1.973   6.738
 4990SOL    HW215870   1.767   2.018   6.604
 4991SOL     OW15871   2.428   1.936   5.803
 4991SOL    HW115872   2.522   1.936   5.768
 4991SOL    HW215873   2.393   1.843   5.806
 4992SOL     OW15874   3.889   0.029   4.618
 4992SOL    HW115875   3.932   6.986   4.685
 4992SOL    HW215876   3.948   0.038   4.538
 4993SOL     OW15877   1.263   6.468   4.676
 4993SOL    HW115878   1.261   6.514   4.588
 4993SOL    HW215879   1.197   6.511   4.738
 4994SOL     OW15880   0.114   5.833   3.370
 4994SOL    HW115881   0.119   5.736   3.389
 4994SOL    HW215882   0.184   5.881   3.423
 4995SOL     OW15883   5.541   2.598   5.237
 4995SOL    HW115884   5.514   2.517   5.185
 4995SOL    HW215885   5.470   2.668   5.231
 4996SOL     OW15886   0.379   2.516   4.092
 4996SOL    HW115887   0.446   2.495   4.164
 4996SOL    HW215888   0.305   2.449   4.096
 4997SOL     OW15889   0.194   2.319   3.579
 4997SOL    HW115890   0.274   2.265   3.605
 4997SOL    HW215891   0.219   2.416   3.578
 4998SOL     OW15892   1.220   5.680   5.912
 4998SOL    HW115893   1.179   5.754   5.858
 4998SOL    HW215894   1.260   5.612   5.851
 4999SOL     OW15895   6.059   5.294   1.036
 4999SOL    HW115896   5.969   5.283   0.995
 4999SOL    HW215897   6.051   5.290   1.136
 5000SOL     OW15898   5.814   5.592   3.756
 5000SOL    HW115899   5.767   5.655   3.695
 5000SOL    HW215900   5.883   5.642   3.809
 5001SOL     OW15901   4.731   3.415   5.670
 5001SOL    HW115902   4.670   3.425   5.592
 5001SOL    HW215903   4.743   3.504   5.715
 5002SOL     OW15904   1.197   2.132   1.576
 5002SOL    HW115905   1.293   2.151   1.595
 5002SOL    HW215906   1.176   2.154   1.481
 5003SOL     OW15907   5.748   5.652   4.436
 5003SOL    HW115908   5.715   5.597   4.512
 5003SOL    HW215909   5.732   5.603   4.350
 5004SOL     OW15910   2.106   4.969   5.896
 5004SOL    HW115911   2.088   4.942   5.802
 5004SOL    HW215912   2.178   5.039   5.898
 5005SOL     OW15913   5.555   1.919   0.178
 5005SOL    HW115914   5.473   1.936   0.233
 5005SOL    HW215915   5.575   2.000   0.123
 5006SOL     OW15916   4.268   5.250   1.635
 5006SOL    HW115917   4.358   5.291   1.653
 5006SOL    HW215918   4.273   5.193   1.553
 5007SOL     OW15919   3.446   0.712   4.595
 5007SOL    HW115920   3.365   0.668   4.558
 5007SOL    HW215921   3.494   0.760   4.521
 5008SOL     OW15922   6.277   2.082   4.124
 5008SOL    HW115923   6.198   2.131   4.162
 5008SOL    HW215924   6.271   2.081   4.024
 5009SOL     OW15925   2.788   6.859   2.372
 5009SOL    HW115926   2.692   6.855   2.343
 5009SOL    HW215927   2.804   6.792   2.445
 5010SOL     OW15928   3.087   3.844   5.856
 5010SOL    HW115929   3.088   3.886   5.765
 5010SOL    HW215930   3.044   3.907   5.921
 5011SOL     OW15931   1.043   1.449   4.862
 5011SOL    HW115932   1.006   1.462   4.770
 5011SOL    HW215933   1.128   1.398   4.857
 5012SOL     OW15934   6.655   2.351   0.009
 5012SOL    HW115935   6.624   2.275   0.066
 5012SOL    HW215936   6.715   2.316   6.955
 5013SOL     OW15937   4.673   1.543   5.253
 5013SOL    HW115938   4.701   1.579   5.342
 5013SOL    HW215939   4.614   1.610   5.208
 5014SOL     OW15940   0.804   4.375   6.275
 5014SOL    HW115941   0.832   4.297   6.331
 5014SOL    HW215942   0.812   4.459   6.328
 5015SOL     OW15943   4.735   2.288   3.491
 5015SOL    HW115944   4.657   2.310   3.550
 5015SOL    HW215945   4.815   2.268   3.546
 5016SOL     OW15946   2.228   5.738   1.770
 5016SOL    HW115947   2.257   5.694   1.685
 5016SOL    HW215948   2.137   5.704   1.795
 5017SOL     OW15949   0.054   2.232   1.109
 5017SOL    HW115950   7.004   2.199   1.043
 5017SOL    HW215951   0.009   2.294   1.174
 5018SOL     OW15952   6.332   5.594   4.460
 5018SOL    HW115953   6.241   5.629   4.437
 5018SOL    HW215954   6.402   5.652   4.419
 5019SOL     OW15955   2.689   5.584   4.665
 5019SOL    HW115956   2.759   5.642   4.706
 5019SOL    HW215957   2.622   5.559   4.735
 5020SOL     OW15958   4.452   5.460   0.279
 5020SOL    HW115959   4.532   5.479   0.223
 5020SOL    HW215960   4.377   5.427   0.221
 5021SOL     OW15961   2.489   4.862   5.412
 5021SOL    HW115962   2.540   4.800   5.352
 5021SOL    HW215963   2.418   4.810   5.460
 5022SOL     OW15964   1.693   2.811   6.092
 5022SOL    HW115965   1.695   2.911   6.089
 5022SOL    HW215966   1.785   2.776   6.110
 5023SOL     OW15967   6.238   2.995   3.842
 5023SOL    HW115968   6.158   3.038   3.886
 5023SOL    HW215969   6.320   3.046   3.868
 5024SOL     OW15970   4.968   4.028   5.211
 5024SOL    HW115971   4.939   3.965   5.283
 5024SOL    HW215972   4.891   4.046   5.149
 5025SOL     OW15973   5.542   6.939   5.143
 5025SOL    HW115974   5.605   7.017   5.134
 5025SOL    HW215975   5.467   6.965   5.204
 5026SOL     OW15976   1.120   5.628   2.421
 5026SOL    HW115977   1.113   5.591   2.514
 5026SOL    HW215978   1.205   5.596   2.379
 5027SOL     OW15979   1.017   5.581   3.257
 5027SOL    HW115980   1.046   5.671   3.224
 5027SOL    HW215981   1.085   5.546   3.321
 5028SOL     OW15982   0.714   6.460   2.398
 5028SOL    HW115983   0.783   6.485   2.330
 5028SOL    HW215984   0.624   6.455   2.355
 5029SOL     OW15985   5.581   0.185   4.556
 5029SOL    HW115986   5.504   0.232   4.599
 5029SOL    HW215987   5.647   0.156   4.626
 5030SOL     OW15988   1.719   5.831   0.679
 5030SOL    HW115989   1.659   5.906   0.707
 5030SOL    HW215990   1.692   5.747   0.727
 5031SOL     OW15991   5.575   0.442   0.089
 5031SOL    HW115992   5.578   0.540   0.110
 5031SOL    HW215993   5.493   0.422   0.037
 5032SOL     OW15994   1.874   5.714   2.630
 5032SOL    HW115995   1.960   5.696   2.583
 5032SOL    HW215996   1.847   5.634   2.683
 5033SOL     OW15997   0.891   4.491   4.685
 5033SOL    HW115998   0.948   4.511   4.606
 5033SOL    HW215999   0.823   4.421   4.660
 5034SOL     OW16000   0.999   2.557   6.003
 5034SOL    HW116001   1.064   2.624   6.040
 5034SOL    HW216002   0.955   2.595   5.922
 5035SOL     OW16003   6.813   5.216   0.837
 5035SOL    HW116004   6.796   5.190   0.932
 5035SOL    HW216005   6.772   5.149   0.776
 5036SOL     OW16006   1.190   1.474   2.918
 5036SOL    HW116007   1.192   1.572   2.938
 5036SOL    HW216008   1.100   1.437   2.940
 5037SOL     OW16009   5.164   3.784   1.007
 5037SOL    HW116010   5.200   3.875   0.984
 5037SOL    HW216011   5.235   3.730   1.050
 5038SOL     OW16012   3.045   5.709   5.453
 5038SOL    HW116013   3.098   5.768   5.514
 5038SOL    HW216014   3.078   5.615   5.459
 5039SOL     OW16015   0.921   2.816   3.716
 5039SOL    HW116016   1.007   2.802   3.667
 5039SOL    HW216017   0.921   2.906   3.759
 5040SOL     OW16018   2.404   3.107   6.764
 5040SOL    HW116019   2.407   3.192   6.710
 5040SOL    HW216020   2.310   3.072   6.766
 5041SOL     OW16021   0.560   5.825   0.109
 5041SOL    HW116022   0.633   5.818   0.176
 5041SOL    HW216023   0.544   5.922   0.087
 5042SOL     OW16024   5.705   1.040   6.242
 5042SOL    HW116025   5.796   1.081   6.246
 5042SOL    HW216026   5.646   1.085   6.309
 5043SOL     OW16027   5.350   6.530   4.226
 5043SOL    HW116028   5.353   6.530   4.326
 5043SOL    HW216029   5.428   6.582   4.190
 5044SOL     OW16030   6.787   4.021   2.232
 5044SOL    HW116031   6.758   4.002   2.138
 5044SOL    HW216032   6.754   3.949   2.293
 5045SOL     OW16033   5.192   2.759   5.466
 5045SOL    HW116034   5.169   2.662   5.476
 5045SOL    HW216035   5.139   2.798   5.391
 5046SOL     OW16036   3.921   2.827   5.935
 5046SOL    HW116037   3.872   2.825   5.848
 5046SOL    HW216038   3.868   2.880   6.002
 5047SOL     OW16039   0.366   1.885   1.779
 5047SOL    HW116040   0.268   1.862   1.783
 5047SOL    HW216041   0.398   1.909   1.870
 5048SOL     OW16042   5.466   4.450   0.395
 5048SOL    HW116043   5.475   4.469   0.492
 5048SOL    HW216044   5.385   4.496   0.359
 5049SOL     OW16045   1.378   0.855   0.901
 5049SOL    HW116046   1.417   0.785   0.841
 5049SOL    HW216047   1.280   0.836   0.915
 5050SOL     OW16048   1.669   3.812   0.896
 5050SOL    HW116049   1.709   3.728   0.859
 5050SOL    HW216050   1.692   3.820   0.993
 5051SOL     OW16051   2.136   3.954   6.392
 5051SOL    HW116052   2.223   3.906   6.380
 5051SOL    HW216053   2.147   4.049   6.361
 5052SOL     OW16054   6.348   3.186   1.209
 5052SOL    HW116055   6.294   3.102   1.202
 5052SOL    HW216056   6.316   3.239   1.288
 5053SOL     OW16057   1.151   3.838   1.550
 5053SOL    HW116058   1.243   3.863   1.580
 5053SOL    HW216059   1.094   3.920   1.544
 5054SOL     OW16060   4.161   5.787   5.094
 5054SOL    HW116061   4.196   5.869   5.048
 5054SOL    HW216062   4.194   5.786   5.188
 5055SOL     OW16063   0.843   0.402   4.243
 5055SOL    HW116064   0.822   0.497   4.268
 5055SOL    HW216065   0.900   0.401   4.161
 5056SOL     OW16066   2.956   1.430   6.137
 5056SOL    HW116067   3.019   1.435   6.215
 5056SOL    HW216068   2.955   1.518   6.090
 5057SOL     OW16069   0.528   3.577   2.325
 5057SOL    HW116070   0.518   3.602   2.229
 5057SOL    HW216071   0.606   3.515   2.335
 5058SOL     OW16072   3.998   2.174   0.165
 5058SOL    HW116073   4.058   2.203   0.091
 5058SOL    HW216074   4.013   2.231   0.246
 5059SOL     OW16075   5.586   2.434   2.354
 5059SOL    HW116076   5.526   2.511   2.377
 5059SOL    HW216077   5.562   2.356   2.412
 5060SOL     OW16078   6.860   2.644   5.718
 5060SOL    HW116079   6.836   2.547   5.717
 5060SOL    HW216080   6.799   2.695   5.657
 5061SOL     OW16081   4.586   2.736   6.103
 5061SOL    HW116082   4.603   2.816   6.160
 5061SOL    HW216083   4.489   2.711   6.109
 5062SOL     OW16084   5.919   0.992   3.272
 5062SOL    HW116085   5.942   1.032   3.360
 5062SOL    HW216086   5.866   0.908   3.286
 5063SOL     OW16087   0.311   0.755   0.328
 5063SOL    HW116088   0.309   0.734   0.426
 5063SOL    HW216089   0.321   0.854   0.316
 5064SOL     OW16090   6.314   5.116   0.333
 5064SOL    HW116091   6.338   5.025   0.366
 5064SOL    HW216092   6.293   5.176   0.411
 5065SOL     OW16093   0.925   2.114   2.634
 5065SOL    HW116094   0.871   2.196   2.653
 5065SOL    HW216095   0.869   2.048   2.584
 5066SOL     OW16096   0.906   5.030   4.174
 5066SOL    HW116097   0.854   5.114   4.189
 5066SOL    HW216098   1.004   5.050   4.176
 5067SOL     OW16099   4.481   3.198   0.813
 5067SOL    HW116100   4.402   3.211   0.753
 5067SOL    HW216101   4.526   3.286   0.829
 5068SOL     OW16102   1.304   6.821   1.389
 5068SOL    HW116103   1.242   6.793   1.316
 5068SOL    HW216104   1.391   6.772   1.381
 5069SOL     OW16105   4.062   4.634   6.040
 5069SOL    HW116106   3.967   4.667   6.036
 5069SOL    HW216107   4.083   4.604   6.133
 5070SOL     OW16108   0.880   3.508   6.604
 5070SOL    HW116109   0.843   3.592   6.642
 5070SOL    HW216110   0.853   3.499   6.508
 5071SOL     OW16111   1.443   6.485   2.298
 5071SOL    HW116112   1.436   6.456   2.203
 5071SOL    HW216113   1.353   6.478   2.342
 5072SOL     OW16114   0.577   2.132   2.690
 5072SOL    HW116115   0.560   2.170   2.599
 5072SOL    HW216116   0.665   2.166   2.724
 5073SOL     OW16117   1.832   1.822   4.329
 5073SOL    HW116118   1.874   1.909   4.356
 5073SOL    HW216119   1.803   1.827   4.233
 5074SOL     OW16120   4.269   2.058   1.353
 5074SOL    HW116121   4.277   2.128   1.423
 5074SOL    HW216122   4.307   1.972   1.387
 5075SOL     OW16123   6.290   1.902   6.832
 5075SOL    HW116124   6.286   1.890   6.733
 5075SOL    HW216125   6.216   1.962   6.861
 5076SOL     OW16126   0.161   1.367   5.952
 5076SOL    HW116127   0.129   1.283   5.997
 5076SOL    HW216128   0.224   1.415   6.013
 5077SOL     OW16129   0.705   4.954   4.533
 5077SOL    HW116130   0.710   5.048   4.567
 5077SOL    HW216131   0.689   4.891   4.609
 5078SOL     OW16132   6.064   1.293   2.856
 5078SOL    HW116133   6.073   1.253   2.947
 5078SOL    HW216134   6.036   1.389   2.864
 5079SOL     OW16135   1.594   3.413   5.705
 5079SOL    HW116136   1.649   3.331   5.686
 5079SOL    HW216137   1.602   3.477   5.628
 5080SOL     OW16138   6.579   6.233   6.892
 5080SOL    HW116139   6.626   6.319   6.874
 5080SOL    HW216140   6.493   6.230   6.843
 5081SOL     OW16141   3.445   4.506   5.635
 5081SOL    HW116142   3.407   4.415   5.619
 5081SOL    HW216143   3.393   4.574   5.583
 5082SOL     OW16144   5.547   6.933   2.853
 5082SOL    HW116145   5.507   0.006   2.873
 5082SOL    HW216146   5.581   6.932   2.760
 5083SOL     OW16147   0.326   0.365   3.144
 5083SOL    HW116148   0.368   0.455   3.145
 5083SOL    HW216149   0.396   0.295   3.151
 5084SOL     OW16150   3.587   5.219   5.951
 5084SOL    HW116151   3.676   5.263   5.960
 5084SOL    HW216152   3.538   5.222   6.038
 5085SOL     OW16153   1.136   3.419   6.643
 5085SOL    HW116154   1.057   3.469   6.607
 5085SOL    HW216155   1.105   3.345   6.703
 5086SOL     OW16156   1.034   4.737   2.098
 5086SOL    HW116157   0.971   4.659   2.097
 5086SOL    HW216158   0.984   4.820   2.076
 5087SOL     OW16159   6.318   5.452   1.528
 5087SOL    HW116160   6.366   5.365   1.535
 5087SOL    HW216161   6.362   5.520   1.586
 5088SOL     OW16162   4.097   4.919   2.325
 5088SOL    HW116163   4.120   4.878   2.236
 5088SOL    HW216164   4.011   4.968   2.317
 5089SOL     OW16165   5.052   5.646   6.073
 5089SOL    HW116166   5.007   5.693   6.149
 5089SOL    HW216167   5.094   5.562   6.107
 5090SOL     OW16168   2.150   6.698   4.598
 5090SOL    HW116169   2.100   6.728   4.678
 5090SOL    HW216170   2.189   6.608   4.615
 5091SOL     OW16171   6.412   5.811   5.017
 5091SOL    HW116172   6.501   5.783   5.053
 5091SOL    HW216173   6.342   5.794   5.086
 5092SOL     OW16174   3.801   2.977   4.634
 5092SOL    HW116175   3.792   3.077   4.627
 5092SOL    HW216176   3.815   2.952   4.730
 5093SOL     OW16177   2.948   2.093   3.571
 5093SOL    HW116178   2.936   1.994   3.584
 5093SOL    HW216179   3.037   2.110   3.529
 5094SOL     OW16180   2.353   4.813   4.886
 5094SOL    HW116181   2.408   4.809   4.970
 5094SOL    HW216182   2.289   4.736   4.885
 5095SOL     OW16183   5.930   2.054   3.341
 5095SOL    HW116184   5.944   2.135   3.397
 5095SOL    HW216185   5.915   1.975   3.400
 5096SOL     OW16186   5.834   2.991   5.374
 5096SOL    HW116187   5.845   3.039   5.287
 5096SOL    HW216188   5.914   2.931   5.389
 5097SOL     OW16189   0.864   0.351   6.127
 5097SOL    HW116190   0.811   0.407   6.063
 5097SOL    HW216191   0.889   0.264   6.084
 5098SOL     OW16192   3.112   2.041   0.797
 5098SOL    HW116193   3.046   2.110   0.827
 5098SOL    HW216194   3.201   2.084   0.785
 5099SOL     OW16195   1.554   5.872   1.883
 5099SOL    HW116196   1.497   5.795   1.912
 5099SOL    HW216197   1.649   5.843   1.878
 5100SOL     OW16198   6.653   3.506   1.240
 5100SOL    HW116199   6.612   3.463   1.160
 5100SOL    HW216200   6.580   3.545   1.297
 5101SOL     OW16201   4.443   2.111   6.070
 5101SOL    HW116202   4.353   2.068   6.060
 5101SOL    HW216203   4.514   2.041   6.066
 5102SOL     OW16204   5.359   4.534   5.360
 5102SOL    HW116205   5.341   4.436   5.374
 5102SOL    HW216206   5.453   4.555   5.386
 5103SOL     OW16207   0.325   0.372   5.608
 5103SOL    HW116208   0.305   0.391   5.512
 5103SOL    HW216209   0.323   0.458   5.660
 5104SOL     OW16210   3.348   3.191   3.958
 5104SOL    HW116211   3.373   3.269   4.016
 5104SOL    HW216212   3.392   3.200   3.869
 5105SOL     OW16213   4.533   2.510   6.624
 5105SOL    HW116214   4.450   2.550   6.661
 5105SOL    HW216215   4.540   2.533   6.527
 5106SOL     OW16216   4.256   0.535   1.667
 5106SOL    HW116217   4.352   0.562   1.663
 5106SOL    HW216218   4.203   0.590   1.603
 5107SOL     OW16219   6.303   4.585   6.409
 5107SOL    HW116220   6.217   4.629   6.383
 5107SOL    HW216221   6.309   4.579   6.508
 5108SOL     OW16222   4.282   4.213   1.174
 5108SOL    HW116223   4.236   4.133   1.136
 5108SOL    HW216224   4.304   4.196   1.271
 5109SOL     OW16225   1.749   2.293   1.940
 5109SOL    HW116226   1.742   2.270   2.037
 5109SOL    HW216227   1.691   2.231   1.887
 5110SOL     OW16228   3.073   6.235   5.012
 5110SOL    HW116229   3.089   6.320   4.961
 5110SOL    HW216230   3.131   6.234   5.094
 5111SOL     OW16231   2.667   6.052   6.152
 5111SOL    HW116232   2.604   6.019   6.082
 5111SOL    HW216233   2.629   6.134   6.195
 5112SOL     OW16234   0.565   4.005   2.469
 5112SOL    HW116235   0.583   4.039   2.377
 5112SOL    HW216236   0.613   4.061   2.536
 5113SOL     OW16237   2.718   4.585   1.159
 5113SOL    HW116238   2.806   4.541   1.177
 5113SOL    HW216239   2.664   4.585   1.243
 5114SOL     OW16240   4.722   4.405   1.284
 5114SOL    HW116241   4.712   4.346   1.203
 5114SOL    HW216242   4.739   4.499   1.255
 5115SOL     OW16243   1.743   3.955   0.337
 5115SOL    HW116244   1.759   3.881   0.271
 5115SOL    HW216245   1.724   4.040   0.287
 5116SOL     OW16246   0.356   6.558   5.658
 5116SOL    HW116247   0.389   6.477   5.608
 5116SOL    HW216248   0.265   6.541   5.694
 5117SOL     OW16249   7.013   3.542   4.252
 5117SOL    HW116250   6.983   3.604   4.325
 5117SOL    HW216251   6.933   3.512   4.199
 5118SOL     OW16252   4.976   5.311   0.025
 5118SOL    HW116253   4.982   5.211   0.027
 5118SOL    HW216254   4.942   5.344   0.113
 5119SOL     OW16255   5.365   1.321   0.137
 5119SOL    HW116256   5.438   1.369   0.089
 5119SOL    HW216257   5.398   1.293   0.227
 5120SOL     OW16258   5.709   6.527   6.701
 5120SOL    HW116259   5.710   6.536   6.800
 5120SOL    HW216260   5.791   6.569   6.662
 5121SOL     OW16261   2.662   3.804   0.008
 5121SOL    HW116262   2.595   3.792   6.952
 5121SOL    HW216263   2.614   3.805   0.096
 5122SOL     OW16264   5.276   5.643   3.595
 5122SOL    HW116265   5.356   5.603   3.640
 5122SOL    HW216266   5.195   5.627   3.652
 5123SOL     OW16267   4.609   1.853   1.316
 5123SOL    HW116268   4.646   1.946   1.306
 5123SOL    HW216269   4.682   1.787   1.299
 5124SOL     OW16270   0.584   5.854   4.649
 5124SOL    HW116271   0.557   5.764   4.685
 5124SOL    HW216272   0.575   5.853   4.549
 5125SOL     OW16273   4.883   2.549   3.912
 5125SOL    HW116274   4.923   2.599   3.989
 5125SOL    HW216275   4.865   2.455   3.940
 5126SOL     OW16276   2.549   0.807   2.565
 5126SOL    HW116277   2.496   0.868   2.624
 5126SOL    HW216278   2.604   0.861   2.501
 5127SOL     OW16279   2.296   6.326   1.237
 5127SOL    HW116280   2.317   6.340   1.334
 5127SOL    HW216281   2.315   6.409   1.186
 5128SOL     OW16282   4.074   0.305   2.302
 5128SOL    HW116283   4.161   0.260   2.324
 5128SOL    HW216284   3.998   0.245   2.326
 5129SOL     OW16285   6.082   5.588   6.783
 5129SOL    HW116286   6.096   5.684   6.807
 5129SOL    HW216287   6.097   5.532   6.864
 5130SOL     OW16288   5.960   4.768   2.289
 5130SOL    HW116289   5.914   4.685   2.257
 5130SOL    HW216290   6.027   4.744   2.359
 5131SOL     OW16291   2.287   2.225   1.779
 5131SOL    HW116292   2.268   2.323   1.769
 5131SOL    HW216293   2.309   2.205   1.875
 5132SOL     OW16294   2.511   6.119   5.654
 5132SOL    HW116295   2.469   6.164   5.576
 5132SOL    HW216296   2.449   6.123   5.732
 5133SOL     OW16297   4.178   6.032   4.672
 5133SOL    HW116298   4.174   5.932   4.665
 5133SOL    HW216299   4.085   6.069   4.671
 5134SOL     OW16300   1.068   2.489   6.873
 5134SOL    HW116301   1.082   2.516   6.969
 5134SOL    HW216302   0.996   2.546   6.833
 5135SOL     OW16303   6.280   1.213   3.354
 5135SOL    HW116304   6.322   1.123   3.365
 5135SOL    HW216305   6.293   1.245   3.260
 5136SOL     OW16306   3.588   2.034   6.652
 5136SOL    HW116307   3.583   1.948   6.703
 5136SOL    HW216308   3.569   2.110   6.714
 5137SOL     OW16309   4.475   3.207   6.996
 5137SOL    HW116310   4.387   3.162   6.978
 5137SOL    HW216311   4.476   3.296   6.950
 5138SOL     OW16312   2.371   3.270   5.592
 5138SOL    HW116313   2.338   3.363   5.577
 5138SOL    HW216314   2.430   3.268   5.672
 5139SOL     OW16315   0.876   6.688   4.532
 5139SOL    HW116316   0.906   6.747   4.607
 5139SOL    HW216317   0.951   6.627   4.505
 5140SOL     OW16318   3.443   2.844   2.349
 5140SOL    HW116319   3.440   2.747   2.326
 5140SOL    HW216320   3.505   2.891   2.287
 5141SOL     OW16321   1.237   3.392   5.368
 5141SOL    HW116322   1.251   3.298   5.400
 5141SOL    HW216323   1.146   3.400   5.328
 5142SOL     OW16324   5.450   3.470   1.778
 5142SOL    HW116325   5.501   3.385   1.766
 5142SOL    HW216326   5.353   3.453   1.760
 5143SOL     OW16327   0.130   5.232   5.994
 5143SOL    HW116328   0.181   5.299   5.940
 5143SOL    HW216329   0.184   5.148   6.002
 5144SOL     OW16330   2.376   1.146   4.969
 5144SOL    HW116331   2.375   1.056   5.014
 5144SOL    HW216332   2.331   1.213   5.028
 5145SOL     OW16333   3.562   5.192   6.705
 5145SOL    HW116334   3.602   5.251   6.776
 5145SOL    HW216335   3.490   5.136   6.745
 5146SOL     OW16336   3.834   5.413   1.390
 5146SOL    HW116337   3.857   5.510   1.398
 5146SOL    HW216338   3.916   5.362   1.365
 5147SOL     OW16339   0.822   5.126   5.906
 5147SOL    HW116340   0.805   5.123   6.005
 5147SOL    HW216341   0.901   5.070   5.884
 5148SOL     OW16342   6.886   0.327   1.634
 5148SOL    HW116343   6.846   0.265   1.566
 5148SOL    HW216344   6.829   0.329   1.715
 5149SOL     OW16345   6.532   0.665   5.286
 5149SOL    HW116346   6.563   0.582   5.238
 5149SOL    HW216347   6.599   0.689   5.356
 5150SOL     OW16348   2.814   5.277   5.607
 5150SOL    HW116349   2.753   5.356   5.595
 5150SOL    HW216350   2.759   5.194   5.611
 5151SOL     OW16351   4.926   0.569   5.968
 5151SOL    HW116352   4.856   0.639   5.959
 5151SOL    HW216353   4.933   0.540   6.063
 5152SOL     OW16354   0.049   4.591   6.283
 5152SOL    HW116355   0.070   4.551   6.194
 5152SOL    HW216356   0.089   4.534   6.356
 5153SOL     OW16357   3.088   3.479   1.032
 5153SOL    HW116358   3.176   3.453   1.073
 5153SOL    HW216359   3.026   3.509   1.104
 5154SOL     OW16360   0.775   4.057   5.489
 5154SOL    HW116361   0.826   4.140   5.509
 5154SOL    HW216362   0.750   4.012   5.575
 5155SOL     OW16363   4.291   0.840   2.700
 5155SOL    HW116364   4.369   0.887   2.741
 5155SOL    HW216365   4.256   0.894   2.623
 5156SOL     OW16366   5.533   3.594   5.461
 5156SOL    HW116367   5.497   3.557   5.375
 5156SOL    HW216368   5.539   3.693   5.455
 5157SOL     OW16369   6.527   2.378   3.746
 5157SOL    HW116370   6.557   2.473   3.733
 5157SOL    HW216371   6.492   2.367   3.839
 5158SOL     OW16372   4.238   0.559   1.961
 5158SOL    HW116373   4.289   0.553   1.875
 5158SOL    HW216374   4.292   0.608   2.029
 5159SOL     OW16375   1.634   3.905   4.966
 5159SOL    HW116376   1.673   3.988   4.927
 5159SOL    HW216377   1.654   3.827   4.906
 5160SOL     OW16378   2.508   2.429   3.618
 5160SOL    HW116379   2.503   2.490   3.698
 5160SOL    HW216380   2.554   2.344   3.644
 5161SOL     OW16381   1.831   3.029   6.754
 5161SOL    HW116382   1.850   2.947   6.808
 5161SOL    HW216383   1.773   3.005   6.676
 5162SOL     OW16384   6.607   6.004   4.944
 5162SOL    HW116385   6.672   5.995   5.019
 5162SOL    HW216386   6.514   5.990   4.978
 5163SOL     OW16387   6.383   4.177   0.679
 5163SOL    HW116388   6.413   4.082   0.692
 5163SOL    HW216389   6.291   4.188   0.715
 5164SOL     OW16390   6.757   6.845   4.756
 5164SOL    HW116391   6.761   6.926   4.814
 5164SOL    HW216392   6.810   6.861   4.672
 5165SOL     OW16393   5.170   4.442   5.623
 5165SOL    HW116394   5.075   4.465   5.645
 5165SOL    HW216395   5.209   4.512   5.563
 5166SOL     OW16396   0.275   0.064   3.170
 5166SOL    HW116397   0.339   7.015   3.208
 5166SOL    HW216398   0.277   0.059   3.070
 5167SOL     OW16399   2.066   0.103   5.091
 5167SOL    HW116400   2.072   0.166   5.013
 5167SOL    HW216401   1.971   0.094   5.119
 5168SOL     OW16402   3.232   2.121   2.277
 5168SOL    HW116403   3.211   2.113   2.180
 5168SOL    HW216404   3.173   2.190   2.319
 5169SOL     OW16405   3.812   5.375   6.612
 5169SOL    HW116406   3.897   5.323   6.608
 5169SOL    HW216407   3.753   5.348   6.536
 5170SOL     OW16408   4.397   5.188   4.075
 5170SOL    HW116409   4.355   5.235   3.997
 5170SOL    HW216410   4.492   5.167   4.053
 5171SOL     OW16411   2.631   4.422   5.230
 5171SOL    HW116412   2.713   4.466   5.194
 5171SOL    HW216413   2.554   4.436   5.167
 5172SOL     OW16414   1.573   3.751   6.250
 5172SOL    HW116415   1.592   3.808   6.170
 5172SOL    HW216416   1.502   3.684   6.227
 5173SOL     OW16417   0.505   2.168   4.543
 5173SOL    HW116418   0.480   2.080   4.584
 5173SOL    HW216419   0.594   2.159   4.498
 5174SOL     OW16420   3.056   5.211   6.710
 5174SOL    HW116421   3.004   5.183   6.629
 5174SOL    HW216422   2.993   5.240   6.782
 5175SOL     OW16423   0.948   5.929   0.347
 5175SOL    HW116424   0.968   5.869   0.270
 5175SOL    HW216425   0.865   5.898   0.393
 5176SOL     OW16426   5.836   3.151   6.677
 5176SOL    HW116427   5.898   3.073   6.685
 5176SOL    HW216428   5.831   3.180   6.581
 5177SOL     OW16429   4.741   5.137   6.904
 5177SOL    HW116430   4.733   5.120   7.002
 5177SOL    HW216431   4.803   5.069   6.864
 5178SOL     OW16432   3.890   4.624   0.384
 5178SOL    HW116433   3.934   4.691   0.324
 5178SOL    HW216434   3.880   4.664   0.476
 5179SOL     OW16435   2.749   6.001   5.507
 5179SOL    HW116436   2.686   6.052   5.566
 5179SOL    HW216437   2.841   6.004   5.546
 5180SOL     OW16438   5.015   1.504   6.751
 5180SOL    HW116439   5.004   1.591   6.703
 5180SOL    HW216440   5.048   1.434   6.688
 5181SOL     OW16441   3.251   6.216   2.702
 5181SOL    HW116442   3.281   6.124   2.677
 5181SOL    HW216443   3.243   6.272   2.620
 5182SOL     OW16444   4.934   4.354   0.638
 5182SOL    HW116445   4.975   4.354   0.547
 5182SOL    HW216446   4.980   4.286   0.696
 5183SOL     OW16447   3.307   0.970   3.583
 5183SOL    HW116448   3.318   1.056   3.532
 5183SOL    HW216449   3.295   0.990   3.680
 5184SOL     OW16450   1.222   1.741   2.934
 5184SOL    HW116451   1.173   1.784   2.859
 5184SOL    HW216452   1.315   1.779   2.940
 5185SOL     OW16453   4.174   0.330   2.053
 5185SOL    HW116454   4.179   0.421   2.012
 5185SOL    HW216455   4.135   0.337   2.145
 5186SOL     OW16456   5.731   3.714   6.942
 5186SOL    HW116457   5.760   3.640   7.003
 5186SOL    HW216458   5.758   3.802   6.980
 5187SOL     OW16459   4.682   4.239   4.146
 5187SOL    HW116460   4.780   4.258   4.150
 5187SOL    HW216461   4.641   4.261   4.235
 5188SOL     OW16462   0.808   0.960   3.605
 5188SOL    HW116463   0.723   0.917   3.636
 5188SOL    HW216464   0.787   1.042   3.552
 5189SOL     OW16465   4.670   4.998   5.961
 5189SOL    HW116466   4.627   5.083   5.928
 5189SOL    HW216467   4.769   5.010   5.964
 5190SOL     OW16468   1.896   2.203   2.864
 5190SOL    HW116469   1.959   2.256   2.920
 5190SOL    HW216470   1.947   2.134   2.812
 5191SOL     OW16471   4.969   1.281   2.311
 5191SOL    HW116472   5.027   1.328   2.378
 5191SOL    HW216473   4.927   1.348   2.251
 5192SOL     OW16474   6.936   4.223   1.557
 5192SOL    HW116475   7.013   4.207   1.619
 5192SOL    HW216476   6.970   4.254   1.468
 5193SOL     OW16477   3.762   5.153   3.137
 5193SOL    HW116478   3.837   5.212   3.169
 5193SOL    HW216479   3.687   5.156   3.203
 5194SOL     OW16480   5.166   0.965   0.404
 5194SOL    HW116481   5.126   0.979   0.313
 5194SOL    HW216482   5.118   0.890   0.450
 5195SOL     OW16483   0.529   4.976   5.382
 5195SOL    HW116484   0.608   5.037   5.390
 5195SOL    HW216485   0.500   4.971   5.287
 5196SOL     OW16486   1.119   3.280   3.228
 5196SOL    HW116487   1.050   3.270   3.300
 5196SOL    HW216488   1.172   3.195   3.221
 5197SOL     OW16489   3.855   5.881   5.077
 5197SOL    HW116490   3.798   5.842   5.149
 5197SOL    HW216491   3.951   5.861   5.096
 5198SOL     OW16492   4.353   0.999   6.147
 5198SOL    HW116493   4.407   1.081   6.126
 5198SOL    HW216494   4.293   0.978   6.071
 5199SOL     OW16495   0.457   6.216   2.627
 5199SOL    HW116496   0.456   6.316   2.619
 5199SOL    HW216497   0.376   6.178   2.582
 5200SOL     OW16498   5.979   6.470   5.542
 5200SOL    HW116499   5.942   6.458   5.450
 5200SOL    HW216500   6.079   6.466   5.538
 5201SOL     OW16501   6.697   3.683   5.377
 5201SOL    HW116502   6.683   3.586   5.396
 5201SOL    HW216503   6.615   3.734   5.403
 5202SOL     OW16504   3.823   2.398   5.892
 5202SOL    HW116505   3.749   2.430   5.951
 5202SOL    HW216506   3.833   2.299   5.903
 5203SOL     OW16507   0.334   0.507   5.942
 5203SOL    HW116508   0.402   0.444   5.904
 5203SOL    HW216509   0.248   0.459   5.957
 5204SOL     OW16510   2.260   0.340   2.177
 5204SOL    HW116511   2.344   0.323   2.126
 5204SOL    HW216512   2.204   0.257   2.177
 5205SOL     OW16513   6.047   0.126   2.058
 5205SOL    HW116514   6.056   0.215   2.014
 5205SOL    HW216515   6.138   0.088   2.074
 5206SOL     OW16516   0.746   5.132   5.378
 5206SOL    HW116517   0.814   5.181   5.324
 5206SOL    HW216518   0.792   5.083   5.453
 5207SOL     OW16519   4.832   1.767   4.729
 5207SOL    HW116520   4.815   1.760   4.630
 5207SOL    HW216521   4.798   1.684   4.774
 5208SOL     OW16522   6.983   1.864   0.258
 5208SOL    HW116523   6.940   1.780   0.227
 5208SOL    HW216524   0.062   1.846   0.279
 5209SOL     OW16525   5.092   5.844   2.649
 5209SOL    HW116526   5.019   5.775   2.641
 5209SOL    HW216527   5.069   5.922   2.591
 5210SOL     OW16528   6.651   4.200   1.534
 5210SOL    HW116529   6.748   4.217   1.546
 5210SOL    HW216530   6.633   4.102   1.538
 5211SOL     OW16531   4.850   3.187   4.642
 5211SOL    HW116532   4.808   3.265   4.687
 5211SOL    HW216533   4.853   3.202   4.543
 5212SOL     OW16534   6.723   3.728   6.765
 5212SOL    HW116535   6.628   3.704   6.785
 5212SOL    HW216536   6.741   3.822   6.795
 5213SOL     OW16537   3.649   3.230   4.358
 5213SOL    HW116538   3.627   3.271   4.269
 5213SOL    HW216539   3.710   3.152   4.345
 5214SOL     OW16540   6.033   2.814   5.429
 5214SOL    HW116541   6.111   2.799   5.368
 5214SOL    HW216542   6.023   2.734   5.488
 5215SOL     OW16543   0.757   4.826   4.946
 5215SOL    HW116544   0.758   4.908   5.002
 5215SOL    HW216545   0.851   4.795   4.931
 5216SOL     OW16546   6.932   4.134   0.141
 5216SOL    HW116547   6.922   4.035   0.148
 5216SOL    HW216548   6.959   4.171   0.229
 5217SOL     OW16549   3.318   0.777   2.269
 5217SOL    HW116550   3.415   0.798   2.262
 5217SOL    HW216551   3.266   0.863   2.264
 5218SOL     OW16552   6.278   7.014   0.781
 5218SOL    HW116553   6.226   0.061   0.725
 5218SOL    HW216554   6.360   0.042   0.815
 5219SOL     OW16555   4.081   1.866   4.586
 5219SOL    HW116556   4.047   1.812   4.663
 5219SOL    HW216557   4.166   1.826   4.553
 5220SOL     OW16558   2.074   4.384   4.423
 5220SOL    HW116559   2.024   4.372   4.509
 5220SOL    HW216560   2.163   4.339   4.430
 5221SOL     OW16561   4.022   6.505   0.607
 5221SOL    HW116562   4.042   6.602   0.589
 5221SOL    HW216563   3.928   6.486   0.581
 5222SOL     OW16564   5.644   2.859   2.283
 5222SOL    HW116565   5.704   2.798   2.336
 5222SOL    HW216566   5.549   2.846   2.312
 5223SOL     OW16567   6.881   1.810   0.874
 5223SOL    HW116568   6.830   1.770   0.798
 5223SOL    HW216569   6.974   1.774   0.876
 5224SOL     OW16570   1.744   1.642   4.753
 5224SOL    HW116571   1.670   1.674   4.812
 5224SOL    HW216572   1.813   1.713   4.744
 5225SOL     OW16573   6.808   2.744   5.994
 5225SOL    HW116574   6.804   2.697   6.082
 5225SOL    HW216575   6.832   2.678   5.922
 5226SOL     OW16576   0.097   6.868   4.257
 5226SOL    HW116577   0.084   6.814   4.340
 5226SOL    HW216578   0.020   6.854   4.195
 5227SOL     OW16579   2.409   2.398   6.532
 5227SOL    HW116580   2.333   2.463   6.526
 5227SOL    HW216581   2.387   2.316   6.480
 5228SOL     OW16582   0.658   2.042   5.850
 5228SOL    HW116583   0.734   2.100   5.881
 5228SOL    HW216584   0.612   2.085   5.773
 5229SOL     OW16585   3.742   1.595   1.098
 5229SOL    HW116586   3.700   1.526   1.157
 5229SOL    HW216587   3.714   1.687   1.128
 5230SOL     OW16588   6.117   0.789   2.375
 5230SOL    HW116589   6.052   0.727   2.418
 5230SOL    HW216590   6.069   0.872   2.345
 5231SOL     OW16591   0.083   4.010   1.990
 5231SOL    HW116592   0.155   3.941   1.989
 5231SOL    HW216593   7.011   3.966   1.986
 5232SOL     OW16594   1.742   1.656   6.249
 5232SOL    HW116595   1.716   1.739   6.298
 5232SOL    HW216596   1.763   1.584   6.315
 5233SOL     OW16597   2.226   6.670   3.465
 5233SOL    HW116598   2.210   6.741   3.533
 5233SOL    HW216599   2.179   6.586   3.493
 5234SOL     OW16600   3.774   2.214   6.260
 5234SOL    HW116601   3.783   2.219   6.161
 5234SOL    HW216602   3.863   2.193   6.300
 5235SOL     OW16603   2.623   3.149   1.686
 5235SOL    HW116604   2.674   3.137   1.601
 5235SOL    HW216605   2.686   3.150   1.763
 5236SOL     OW16606   2.984   5.242   1.820
 5236SOL    HW116607   2.988   5.203   1.728
 5236SOL    HW216608   2.945   5.175   1.883
 5237SOL     OW16609   1.569   1.459   1.446
 5237SOL    HW116610   1.501   1.452   1.519
 5237SOL    HW216611   1.546   1.534   1.385
 5238SOL     OW16612   6.212   1.073   3.600
 5238SOL    HW116613   6.281   1.122   3.547
 5238SOL    HW216614   6.124   1.077   3.552
 5239SOL     OW16615   2.777   4.083   0.002
 5239SOL    HW116616   2.684   4.114   7.000
 5239SOL    HW216617   2.775   4.007   0.067
 5240SOL     OW16618   1.244   3.811   4.865
 5240SOL    HW116619   1.245   3.902   4.825
 5240SOL    HW216620   1.150   3.782   4.880
 5241SOL     OW16621   2.383   5.057   3.194
 5241SOL    HW116622   2.436   5.033   3.112
 5241SOL    HW216623   2.384   5.156   3.206
 5242SOL     OW16624   4.267   6.323   5.893
 5242SOL    HW116625   4.191   6.378   5.858
 5242SOL    HW216626   4.234   6.232   5.917
 5243SOL     OW16627   2.136   5.515   3.715
 5243SOL    HW116628   2.165   5.432   3.668
 5243SOL    HW216629   2.214   5.577   3.723
 5244SOL     OW16630   5.389   0.087   6.925
 5244SOL    HW116631   5.344   0.070   7.013
 5244SOL    HW216632   5.370   0.012   6.862
 5245SOL     OW16633   3.441   3.496   1.278
 5245SOL    HW116634   3.540   3.491   1.266
 5245SOL    HW216635   3.413   3.435   1.352
 5246SOL     OW16636   6.460   2.320   5.792
 5246SOL    HW116637   6.397   2.245   5.816
 5246SOL    HW216638   6.535   2.322   5.858
 5247SOL     OW16639   4.825   1.120   5.111
 5247SOL    HW116640   4.832   1.097   5.014
 5247SOL    HW216641   4.899   1.075   5.161
 5248SOL     OW16642   4.218   1.093   2.571
 5248SOL    HW116643   4.176   1.108   2.482
 5248SOL    HW216644   4.151   1.113   2.643
 5249SOL     OW16645   0.333   5.828   2.069
 5249SOL    HW116646   0.424   5.834   2.111
 5249SOL    HW216647   0.336   5.871   1.978
 5250SOL     OW16648   1.443   5.371   0.063
 5250SOL    HW116649   1.456   5.325   0.151
 5250SOL    HW216650   1.493   5.322   7.009
 5251SOL     OW16651   1.836   4.052   6.319
 5251SOL    HW116652   1.752   4.004   6.295
 5251SOL    HW216653   1.866   4.108   6.242
 5252SOL     OW16654   4.080   6.102   3.774
 5252SOL    HW116655   4.077   6.171   3.846
 5252SOL    HW216656   4.083   6.148   3.685
 5253SOL     OW16657   0.345   6.366   5.035
 5253SOL    HW116658   0.394   6.449   5.061
 5253SOL    HW216659   0.353   6.352   4.936
 5254SOL     OW16660   4.856   6.347   1.792
 5254SOL    HW116661   4.878   6.391   1.879
 5254SOL    HW216662   4.802   6.264   1.809
 5255SOL     OW16663   0.190   1.362   6.242
 5255SOL    HW116664   0.109   1.415   6.218
 5255SOL    HW216665   0.267   1.424   6.260
 5256SOL     OW16666   4.549   1.891   2.881
 5256SOL    HW116667   4.635   1.907   2.832
 5256SOL    HW216668   4.569   1.844   2.967
 5257SOL     OW16669   6.032   0.822   0.291
 5257SOL    HW116670   5.946   0.786   0.254
 5257SOL    HW216671   6.026   0.922   0.297
 5258SOL     OW16672   6.068   2.027   5.051
 5258SOL    HW116673   6.055   1.983   4.962
 5258SOL    HW216674   6.035   1.966   5.123
 5259SOL     OW16675   3.918   6.332   4.606
 5259SOL    HW116676   3.947   6.331   4.510
 5259SOL    HW216677   3.878   6.422   4.627
 5260SOL     OW16678   1.278   6.608   2.081
 5260SOL    HW116679   1.253   6.660   1.999
 5260SOL    HW216680   1.354   6.548   2.060
 5261SOL     OW16681   6.616   4.500   6.707
 5261SOL    HW116682   6.592   4.433   6.777
 5261SOL    HW216683   6.709   4.533   6.721
 5262SOL     OW16684   1.991   2.466   1.949
 5262SOL    HW116685   1.952   2.475   1.857
 5262SOL    HW216686   1.922   2.426   2.010
 5263SOL     OW16687   0.412   6.100   2.239
 5263SOL    HW116688   0.374   6.064   2.154
 5263SOL    HW216689   0.510   6.117   2.227
 5264SOL     OW16690   6.056   2.475   2.162
 5264SOL    HW116691   6.066   2.376   2.172
 5264SOL    HW216692   6.137   2.513   2.118
 5265SOL     OW16693   1.369   6.054   5.949
 5265SOL    HW116694   1.371   5.988   6.024
 5265SOL    HW216695   1.402   6.011   5.865
 5266SOL     OW16696   0.673   0.201   6.519
 5266SOL    HW116697   0.729   0.268   6.469
 5266SOL    HW216698   0.578   0.208   6.488
 5267SOL     OW16699   6.468   1.722   4.675
 5267SOL    HW116700   6.414   1.792   4.628
 5267SOL    HW216701   6.527   1.675   4.609
 5268SOL     OW16702   5.195   0.669   5.887
 5268SOL    HW116703   5.205   0.768   5.892
 5268SOL    HW216704   5.101   0.644   5.907
 5269SOL     OW16705   1.053   0.544   4.377
 5269SOL    HW116706   0.998   0.466   4.348
 5269SOL    HW216707   1.102   0.581   4.298
 5270SOL     OW16708   1.572   1.835   6.612
 5270SOL    HW116709   1.557   1.742   6.644
 5270SOL    HW216710   1.670   1.853   6.604
 5271SOL     OW16711   1.752   6.391   6.635
 5271SOL    HW116712   1.806   6.471   6.661
 5271SOL    HW216713   1.726   6.340   6.717
 5272SOL     OW16714   4.306   0.034   6.319
 5272SOL    HW116715   4.343   6.996   6.393
 5272SOL    HW216716   4.317   7.002   6.232
 5273SOL     OW16717   1.904   1.699   3.540
 5273SOL    HW116718   1.900   1.766   3.467
 5273SOL    HW216719   1.932   1.744   3.625
 5274SOL     OW16720   6.210   5.018   0.832
 5274SOL    HW116721   6.197   4.930   0.877
 5274SOL    HW216722   6.275   5.073   0.885
 5275SOL     OW16723   5.597   0.451   6.811
 5275SOL    HW116724   5.502   0.426   6.830
 5275SOL    HW216725   5.658   0.383   6.851
 5276SOL     OW16726   2.948   6.042   1.352
 5276SOL    HW116727   2.868   6.035   1.293
 5276SOL    HW216728   2.989   6.133   1.343
 5277SOL     OW16729   1.554   3.365   1.375
 5277SOL    HW116730   1.630   3.378   1.440
 5277SOL    HW216731   1.498   3.447   1.373
 5278SOL     OW16732   4.069   3.894   4.578
 5278SOL    HW116733   4.131   3.905   4.501
 5278SOL    HW216734   4.007   3.972   4.582
 5279SOL     OW16735   1.384   0.101   3.065
 5279SOL    HW116736   1.452   0.133   2.999
 5279SOL    HW216737   1.422   0.105   3.157
 5280SOL     OW16738   3.597   0.567   3.799
 5280SOL    HW116739   3.631   0.575   3.892
 5280SOL    HW216740   3.668   0.529   3.740
 5281SOL     OW16741   6.824   2.806   3.439
 5281SOL    HW116742   6.732   2.846   3.437
 5281SOL    HW216743   6.816   2.707   3.426
 5282SOL     OW16744   5.085   2.539   1.288
 5282SOL    HW116745   5.076   2.446   1.253
 5282SOL    HW216746   5.004   2.562   1.342
 5283SOL     OW16747   4.979   5.155   5.087
 5283SOL    HW116748   5.024   5.193   5.007
 5283SOL    HW216749   4.912   5.220   5.123
 5284SOL     OW16750   5.473   2.725   4.097
 5284SOL    HW116751   5.553   2.692   4.146
 5284SOL    HW216752   5.499   2.752   4.004
 5285SOL     OW16753   4.270   5.285   2.455
 5285SOL    HW116754   4.234   5.245   2.539
 5285SOL    HW216755   4.203   5.348   2.417
 5286SOL     OW16756   1.518   4.851   2.240
 5286SOL    HW116757   1.547   4.857   2.144
 5286SOL    HW216758   1.598   4.835   2.298
 5287SOL     OW16759   0.408   0.651   3.151
 5287SOL    HW116760   0.473   0.683   3.220
 5287SOL    HW216761   0.393   0.723   3.083
 5288SOL     OW16762   3.822   0.539   0.820
 5288SOL    HW116763   3.842   0.441   0.819
 5288SOL    HW216764   3.739   0.555   0.873
 5289SOL     OW16765   1.773   6.947   1.678
 5289SOL    HW116766   1.726   6.864   1.708
 5289SOL    HW216767   1.862   6.923   1.639
 5290SOL     OW16768   5.246   6.883   6.781
 5290SOL    HW116769   5.257   6.784   6.777
 5290SOL    HW216770   5.148   6.905   6.790
 5291SOL     OW16771   1.212   5.491   0.177
 5291SOL    HW116772   1.276   5.524   0.246
 5291SOL    HW216773   1.263   5.448   0.102
 5292SOL     OW16774   5.547   1.191   1.944
 5292SOL    HW116775   5.494   1.123   1.894
 5292SOL    HW216776   5.541   1.172   2.042
 5293SOL     OW16777   2.065   1.622   4.329
 5293SOL    HW116778   2.000   1.696   4.317
 5293SOL    HW216779   2.156   1.660   4.344
 5294SOL     OW16780   3.615   1.892   6.903
 5294SOL    HW116781   3.579   1.849   6.986
 5294SOL    HW216782   3.665   1.975   6.927
 5295SOL     OW16783   0.030   2.003   3.262
 5295SOL    HW116784   7.001   1.991   3.349
 5295SOL    HW216785   7.010   2.083   3.215
 5296SOL     OW16786   0.311   3.620   6.378
 5296SOL    HW116787   0.264   3.532   6.366
 5296SOL    HW216788   0.321   3.665   6.289
 5297SOL     OW16789   1.284   2.167   2.146
 5297SOL    HW116790   1.253   2.181   2.240
 5297SOL    HW216791   1.211   2.123   2.093
 5298SOL     OW16792   0.791   3.747   2.168
 5298SOL    HW116793   0.842   3.682   2.225
 5298SOL    HW216794   0.703   3.707   2.143
 5299SOL     OW16795   3.899   0.603   0.243
 5299SOL    HW116796   3.976   0.577   0.302
 5299SOL    HW216797   3.857   0.521   0.205
 5300SOL     OW16798   6.587   5.133   4.590
 5300SOL    HW116799   6.683   5.161   4.587
 5300SOL    HW216800   6.533   5.196   4.534
 5301SOL     OW16801   5.613   6.961   6.469
 5301SOL    HW116802   5.565   6.969   6.382
 5301SOL    HW216803   5.673   6.881   6.467
 5302SOL     OW16804   0.207   3.340   2.693
 5302SOL    HW116805   0.156   3.375   2.772
 5302SOL    HW216806   0.297   3.383   2.690
 5303SOL     OW16807   2.257   4.859   2.253
 5303SOL    HW116808   2.254   4.824   2.347
 5303SOL    HW216809   2.352   4.878   2.227
 5304SOL     OW16810   5.343   1.877   6.201
 5304SOL    HW116811   5.264   1.816   6.207
 5304SOL    HW216812   5.427   1.826   6.223
 5305SOL     OW16813   3.922   1.490   4.778
 5305SOL    HW116814   3.870   1.527   4.701
 5305SOL    HW216815   3.858   1.463   4.851
 5306SOL     OW16816   2.526   6.777   3.713
 5306SOL    HW116817   2.430   6.757   3.735
 5306SOL    HW216818   2.542   6.875   3.720
 5307SOL     OW16819   5.019   6.206   6.452
 5307SOL    HW116820   4.925   6.213   6.483
 5307SOL    HW216821   5.033   6.265   6.373
 5308SOL     OW16822   6.351   1.687   1.164
 5308SOL    HW116823   6.396   1.770   1.196
 5308SOL    HW216824   6.313   1.638   1.242
 5309SOL     OW16825   3.308   4.383   6.416
 5309SOL    HW116826   3.360   4.386   6.501
 5309SOL    HW216827   3.295   4.476   6.381
 5310SOL     OW16828   5.507   2.444   0.436
 5310SOL    HW116829   5.526   2.520   0.498
 5310SOL    HW216830   5.570   2.369   0.455
 5311SOL     OW16831   6.773   5.470   6.989
 5311SOL    HW116832   6.771   5.442   0.068
 5311SOL    HW216833   6.858   5.438   6.947
 5312SOL     OW16834   0.464   4.010   2.139
 5312SOL    HW116835   0.481   3.984   2.044
 5312SOL    HW216836   0.378   3.971   2.169
 5313SOL     OW16837   0.490   5.865   6.202
 5313SOL    HW116838   0.548   5.784   6.193
 5313SOL    HW216839   0.539   5.934   6.255
 5314SOL     OW16840   4.475   4.427   1.051
 5314SOL    HW116841   4.439   4.361   0.985
 5314SOL    HW216842   4.439   4.405   1.142
 5315SOL     OW16843   5.351   0.725   2.545
 5315SOL    HW116844   5.266   0.754   2.590
 5315SOL    HW216845   5.333   0.645   2.488
 5316SOL     OW16846   5.075   5.238   4.837
 5316SOL    HW116847   5.073   5.162   4.772
 5316SOL    HW216848   4.999   5.300   4.818
 5317SOL     OW16849   0.478   5.242   1.000
 5317SOL    HW116850   0.409   5.254   1.072
 5317SOL    HW216851   0.452   5.297   0.921
 5318SOL     OW16852   6.644   2.616   3.694
 5318SOL    HW116853   6.716   2.582   3.634
 5318SOL    HW216854   6.594   2.690   3.648
 5319SOL     OW16855   2.721   6.163   2.681
 5319SOL    HW116856   2.697   6.129   2.772
 5319SOL    HW216857   2.674   6.109   2.612
 5320SOL     OW16858   6.655   1.924   0.120
 5320SOL    HW116859   6.609   2.008   0.148
 5320SOL    HW216860   6.746   1.920   0.160
 5321SOL     OW16861   2.903   5.268   6.928
 5321SOL    HW116862   2.958   5.343   6.966
 5321SOL    HW216863   2.905   5.190   6.990
 5322SOL     OW16864   3.246   6.414   0.074
 5322SOL    HW116865   3.197   6.383   0.155
 5322SOL    HW216866   3.315   6.347   0.048
 5323SOL     OW16867   6.860   3.424   0.300
 5323SOL    HW116868   6.943   3.466   0.337
 5323SOL    HW216869   6.798   3.400   0.374
 5324SOL     OW16870   3.854   3.374   2.241
 5324SOL    HW116871   3.888   3.442   2.307
 5324SOL    HW216872   3.927   3.353   2.176
 5325SOL     OW16873   2.768   0.053   5.721
 5325SOL    HW116874   2.753   0.053   5.820
 5325SOL    HW216875   2.738   0.140   5.683
 5326SOL     OW16876   6.171   1.195   4.269
 5326SOL    HW116877   6.252   1.177   4.213
 5326SOL    HW216878   6.112   1.114   4.271
 5327SOL     OW16879   6.433   6.891   4.148
 5327SOL    HW116880   6.495   6.968   4.166
 5327SOL    HW216881   6.360   6.920   4.087
 5328SOL     OW16882   2.410   5.043   5.683
 5328SOL    HW116883   2.400   5.092   5.596
 5328SOL    HW216884   2.430   4.947   5.665
 5329SOL     OW16885   0.621   6.877   6.120
 5329SOL    HW116886   0.684   6.920   6.185
 5329SOL    HW216887   0.651   6.783   6.103
 5330SOL     OW16888   4.859   3.871   0.120
 5330SOL    HW116889   4.817   3.956   0.090
 5330SOL    HW216890   4.851   3.802   0.048
 5331SOL     OW16891   6.187   0.664   0.078
 5331SOL    HW116892   6.167   0.750   0.125
 5331SOL    HW216893   6.138   0.589   0.121
 5332SOL     OW16894   0.476   3.306   0.207
 5332SOL    HW116895   0.506   3.374   0.273
 5332SOL    HW216896   0.490   3.340   0.114
 5333SOL     OW16897   0.399   6.761   4.432
 5333SOL    HW116898   0.486   6.720   4.462
 5333SOL    HW216899   0.346   6.787   4.513
 5334SOL     OW16900   2.872   5.959   0.996
 5334SOL    HW116901   2.864   5.876   0.940
 5334SOL    HW216902   2.846   6.038   0.941
 5335SOL     OW16903   6.452   5.288   2.050
 5335SOL    HW116904   6.450   5.189   2.033
 5335SOL    HW216905   6.543   5.323   2.028
 5336SOL     OW16906   1.461   3.022   5.355
 5336SOL    HW116907   1.380   3.075   5.380
 5336SOL    HW216908   1.520   3.077   5.295
 5337SOL     OW16909   6.453   2.483   0.884
 5337SOL    HW116910   6.501   2.548   0.943
 5337SOL    HW216911   6.363   2.462   0.923
 5338SOL     OW16912   6.516   2.459   1.672
 5338SOL    HW116913   6.561   2.543   1.643
 5338SOL    HW216914   6.417   2.472   1.674
 5339SOL     OW16915   4.834   3.955   2.329
 5339SOL    HW116916   4.795   4.023   2.392
 5339SOL    HW216917   4.795   3.968   2.238
 5340SOL     OW16918   5.697   3.637   1.020
 5340SOL    HW116919   5.738   3.704   0.958
 5340SOL    HW216920   5.708   3.668   1.114
 5341SOL     OW16921   4.894   5.282   3.230
 5341SOL    HW116922   4.797   5.258   3.223
 5341SOL    HW216923   4.903   5.370   3.276
 5342SOL     OW16924   5.653   5.091   4.619
 5342SOL    HW116925   5.634   5.135   4.707
 5342SOL    HW216926   5.712   5.151   4.564
 5343SOL     OW16927   3.537   3.653   0.169
 5343SOL    HW116928   3.526   3.617   0.076
 5343SOL    HW216929   3.634   3.660   0.190
 5344SOL     OW16930   6.543   1.842   6.849
 5344SOL    HW116931   6.605   1.919   6.864
 5344SOL    HW216932   6.448   1.875   6.846
 5345SOL     OW16933   3.531   0.800   6.528
 5345SOL    HW116934   3.591   0.878   6.545
 5345SOL    HW216935   3.446   0.811   6.580
 5346SOL     OW16936   2.512   5.750   3.181
 5346SOL    HW116937   2.434   5.709   3.134
 5346SOL    HW216938   2.547   5.687   3.250
 5347SOL     OW16939   5.858   2.573   5.380
 5347SOL    HW116940   5.855   2.670   5.359
 5347SOL    HW216941   5.796   2.553   5.456
 5348SOL     OW16942   5.369   2.830   5.272
 5348SOL    HW116943   5.311   2.796   5.347
 5348SOL    HW216944   5.447   2.879   5.311
 5349SOL     OW16945   1.185   4.103   0.348
 5349SOL    HW116946   1.199   4.163   0.428
 5349SOL    HW216947   1.169   4.160   0.267
 5350SOL     OW16948   1.455   0.416   6.353
 5350SOL    HW116949   1.497   0.336   6.396
 5350SOL    HW216950   1.472   0.497   6.408
 5351SOL     OW16951   0.666   5.984   3.216
 5351SOL    HW116952   0.710   6.052   3.276
 5351SOL    HW216953   0.725   5.966   3.137
 5352SOL     OW16954   0.287   2.449   6.099
 5352SOL    HW116955   0.350   2.416   6.028
 5352SOL    HW216956   0.262   2.373   6.159
 5353SOL     OW16957   2.005   6.597   2.901
 5353SOL    HW116958   1.952   6.666   2.950
 5353SOL    HW216959   1.977   6.506   2.931
 5354SOL     OW16960   2.645   6.224   1.461
 5354SOL    HW116961   2.676   6.263   1.547
 5354SOL    HW216962   2.689   6.135   1.446
 5355SOL     OW16963   4.804   4.026   5.712
 5355SOL    HW116964   4.829   3.971   5.632
 5355SOL    HW216965   4.741   3.974   5.769
 5356SOL     OW16966   0.013   6.853   1.756
 5356SOL    HW116967   7.009   6.756   1.757
 5356SOL    HW216968   0.107   6.866   1.787
 5357SOL     OW16969   6.306   3.383   2.301
 5357SOL    HW116970   6.371   3.381   2.225
 5357SOL    HW216971   6.249   3.464   2.295
 5358SOL     OW16972   5.414   6.801   5.868
 5358SOL    HW116973   5.323   6.789   5.908
 5358SOL    HW216974   5.421   6.892   5.828
 5359SOL     OW16975   3.282   1.909   6.634
 5359SOL    HW116976   3.342   1.851   6.578
 5359SOL    HW216977   3.273   1.869   6.725
 5360SOL     OW16978   5.301   5.887   3.050
 5360SOL    HW116979   5.375   5.860   3.111
 5360SOL    HW216980   5.280   5.984   3.063
 5361SOL     OW16981   1.157   4.456   2.395
 5361SOL    HW116982   1.223   4.389   2.361
 5361SOL    HW216983   1.101   4.414   2.467
 5362SOL     OW16984   5.621   1.618   3.953
 5362SOL    HW116985   5.524   1.597   3.956
 5362SOL    HW216986   5.671   1.550   4.007
 5363SOL     OW16987   5.947   4.369   6.167
 5363SOL    HW116988   5.939   4.297   6.098
 5363SOL    HW216989   6.040   4.369   6.203
 5364SOL     OW16990   5.100   2.784   1.673
 5364SOL    HW116991   5.183   2.730   1.684
 5364SOL    HW216992   5.066   2.814   1.762
 5365SOL     OW16993   3.290   3.230   6.074
 5365SOL    HW116994   3.308   3.153   6.134
 5365SOL    HW216995   3.253   3.306   6.127
 5366SOL     OW16996   6.889   4.161   3.838
 5366SOL    HW116997   6.860   4.227   3.907
 5366SOL    HW216998   6.983   4.182   3.810
 5367SOL     OW16999   6.236   5.374   0.788
 5367SOL    HW117000   6.198   5.459   0.824
 5367SOL    HW217001   6.228   5.302   0.857
 5368SOL     OW17002   0.268   5.430   5.010
 5368SOL    HW117003   0.231   5.515   4.971
 5368SOL    HW217004   0.222   5.352   4.968
 5369SOL     OW17005   3.558   0.572   2.304
 5369SOL    HW117006   3.600   0.640   2.364
 5369SOL    HW217007   3.608   0.568   2.218
 5370SOL     OW17008   2.516   2.121   0.272
 5370SOL    HW117009   2.506   2.161   0.180
 5370SOL    HW217010   2.426   2.115   0.315
 5371SOL     OW17011   6.362   5.246   3.237
 5371SOL    HW117012   6.352   5.231   3.138
 5371SOL    HW217013   6.390   5.161   3.281
 5372SOL     OW17014   0.824   1.149   4.253
 5372SOL    HW117015   0.756   1.085   4.219
 5372SOL    HW217016   0.816   1.236   4.203
 5373SOL     OW17017   3.995   0.004   0.863
 5373SOL    HW117018   3.951   6.933   0.849
 5373SOL    HW217019   3.995   0.056   0.778
 5374SOL     OW17020   1.685   3.567   1.103
 5374SOL    HW117021   1.745   3.570   1.023
 5374SOL    HW217022   1.739   3.563   1.186
 5375SOL     OW17023   3.086   4.954   4.898
 5375SOL    HW117024   3.028   4.876   4.922
 5375SOL    HW217025   3.098   4.957   4.799
 5376SOL     OW17026   6.679   6.567   2.280
 5376SOL    HW117027   6.653   6.471   2.284
 5376SOL    HW217028   6.763   6.577   2.226
 5377SOL     OW17029   0.707   2.717   1.317
 5377SOL    HW117030   0.649   2.796   1.303
 5377SOL    HW217031   0.692   2.681   1.409
 5378SOL     OW17032   4.425   0.143   4.575
 5378SOL    HW117033   4.477   0.123   4.492
 5378SOL    HW217034   4.488   0.152   4.652
 5379SOL     OW17035   3.359   2.150   4.421
 5379SOL    HW117036   3.410   2.125   4.339
 5379SOL    HW217037   3.418   2.140   4.501
 5380SOL     OW17038   4.565   6.839   1.674
 5380SOL    HW117039   4.656   6.880   1.682
 5380SOL    HW217040   4.566   6.746   1.708
 5381SOL     OW17041   2.556   2.062   2.735
 5381SOL    HW117042   2.604   2.148   2.719
 5381SOL    HW217043   2.536   2.019   2.647
 5382SOL     OW17044   4.142   0.062   2.876
 5382SOL    HW117045   4.162   7.006   2.941
 5382SOL    HW217046   4.047   0.092   2.888
 5383SOL     OW17047   2.124   4.371   5.493
 5383SOL    HW117048   2.168   4.379   5.403
 5383SOL    HW217049   2.025   4.363   5.481
 5384SOL     OW17050   5.393   6.435   5.840
 5384SOL    HW117051   5.407   6.524   5.796
 5384SOL    HW217052   5.447   6.430   5.924
 5385SOL     OW17053   3.576   4.084   0.923
 5385SOL    HW117054   3.658   4.030   0.906
 5385SOL    HW217055   3.566   4.101   1.021
 5386SOL     OW17056   3.846   5.272   2.477
 5386SOL    HW117057   3.804   5.252   2.565
 5386SOL    HW217058   3.843   5.190   2.419
 5387SOL     OW17059   0.882   2.361   5.337
 5387SOL    HW117060   0.825   2.307   5.399
 5387SOL    HW217061   0.841   2.451   5.323
 5388SOL     OW17062   6.653   6.455   3.358
 5388SOL    HW117063   6.712   6.387   3.402
 5388SOL    HW217064   6.623   6.522   3.425
 5389SOL     OW17065   6.791   1.793   4.703
 5389SOL    HW117066   6.844   1.792   4.788
 5389SOL    HW217067   6.769   1.699   4.677
 5390SOL     OW17068   5.678   2.555   3.301
 5390SOL    HW117069   5.690   2.465   3.345
 5390SOL    HW217070   5.721   2.554   3.211
 5391SOL     OW17071   4.676   3.369   0.869
 5391SOL    HW117072   4.728   3.317   0.937
 5391SOL    HW217073   4.682   3.467   0.891
 5392SOL     OW17074   5.222   1.106   3.836
 5392SOL    HW117075   5.265   1.166   3.903
 5392SOL    HW217076   5.144   1.153   3.795
 5393SOL     OW17077   4.866   2.943   2.459
 5393SOL    HW117078   4.954   2.911   2.495
 5393SOL    HW217079   4.868   3.042   2.449
 5394SOL     OW17080   0.502   3.025   3.442
 5394SOL    HW117081   0.470   3.010   3.536
 5394SOL    HW217082   0.601   3.019   3.439
 5395SOL     OW17083   0.548   0.634   1.496
 5395SOL    HW117084   0.472   0.606   1.555
 5395SOL    HW217085   0.513   0.662   1.407
 5396SOL     OW17086   3.645   2.360   6.900
 5396SOL    HW117087   3.549   2.362   6.873
 5396SOL    HW217088   3.671   2.267   6.925
 5397SOL     OW17089   0.692   6.758   2.956
 5397SOL    HW117090   0.738   6.703   3.025
 5397SOL    HW217091   0.691   6.854   2.985
 5398SOL     OW17092   5.773   2.688   3.504
 5398SOL    HW117093   5.742   2.644   3.420
 5398SOL    HW217094   5.872   2.697   3.503
 5399SOL     OW17095   2.810   2.505   0.043
 5399SOL    HW117096   2.789   2.408   0.057
 5399SOL    HW217097   2.772   2.558   0.119
 5400SOL     OW17098   4.723   3.200   1.102
 5400SOL    HW117099   4.737   3.102   1.087
 5400SOL    HW217100   4.731   3.220   1.200
 5401SOL     OW17101   4.967   3.959   1.625
 5401SOL    HW117102   4.958   4.029   1.554
 5401SOL    HW217103   4.965   3.868   1.583
 5402SOL     OW17104   2.120   5.479   1.430
 5402SOL    HW117105   2.194   5.422   1.392
 5402SOL    HW217106   2.049   5.419   1.468
 5403SOL     OW17107   6.335   2.615   4.926
 5403SOL    HW117108   6.247   2.610   4.879
 5403SOL    HW217109   6.409   2.618   4.858
 5404SOL     OW17110   4.475   6.402   0.111
 5404SOL    HW117111   4.510   6.438   0.197
 5404SOL    HW217112   4.449   6.306   0.124
 5405SOL     OW17113   6.156   5.373   6.053
 5405SOL    HW117114   6.091   5.437   6.012
 5405SOL    HW217115   6.198   5.318   5.980
 5406SOL     OW17116   2.221   1.344   5.181
 5406SOL    HW117117   2.209   1.444   5.184
 5406SOL    HW217118   2.200   1.306   5.271
 5407SOL     OW17119   1.950   1.871   2.316
 5407SOL    HW117120   1.956   1.971   2.323
 5407SOL    HW217121   1.906   1.846   2.230
 5408SOL     OW17122   2.278   2.532   4.353
 5408SOL    HW117123   2.361   2.537   4.297
 5408SOL    HW217124   2.201   2.502   4.295
 5409SOL     OW17125   0.196   4.691   3.906
 5409SOL    HW117126   0.231   4.771   3.956
 5409SOL    HW217127   0.229   4.694   3.811
 5410SOL     OW17128   6.102   1.257   0.115
 5410SOL    HW117129   6.184   1.200   0.110
 5410SOL    HW217130   6.023   1.199   0.137
 5411SOL     OW17131   2.878   6.391   2.043
 5411SOL    HW117132   2.868   6.491   2.050
 5411SOL    HW217133   2.939   6.369   1.967
 5412SOL     OW17134   2.387   2.560   5.714
 5412SOL    HW117135   2.410   2.475   5.666
 5412SOL    HW217136   2.402   2.548   5.812
 5413SOL     OW17137   6.887   5.221   5.475
 5413SOL    HW117138   6.972   5.273   5.485
 5413SOL    HW217139   6.902   5.145   5.411
 5414SOL     OW17140   6.237   6.002   5.727
 5414SOL    HW117141   6.302   5.960   5.664
 5414SOL    HW217142   6.171   5.933   5.758
 5415SOL     OW17143   2.432   0.267   0.184
 5415SOL    HW117144   2.490   0.345   0.208
 5415SOL    HW217145   2.488   0.185   0.176
 5416SOL     OW17146   4.265   4.832   5.980
 5416SOL    HW117147   4.192   4.763   5.979
 5416SOL    HW217148   4.353   4.787   5.998
 5417SOL     OW17149   5.306   0.538   2.358
 5417SOL    HW117150   5.303   0.441   2.333
 5417SOL    HW217151   5.273   0.593   2.281
 5418SOL     OW17152   0.114   2.645   6.023
 5418SOL    HW117153   0.178   2.578   6.060
 5418SOL    HW217154   0.097   2.717   6.090
 5419SOL     OW17155   4.211   2.417   5.847
 5419SOL    HW117156   4.143   2.453   5.911
 5419SOL    HW217157   4.164   2.366   5.774
 5420SOL     OW17158   1.590   1.833   1.546
 5420SOL    HW117159   1.613   1.813   1.451
 5420SOL    HW217160   1.500   1.875   1.550
 5421SOL     OW17161   3.667   5.760   0.974
 5421SOL    HW117162   3.609   5.732   1.050
 5421SOL    HW217163   3.734   5.827   1.006
 5422SOL     OW17164   2.281   6.604   3.156
 5422SOL    HW117165   2.335   6.605   3.240
 5422SOL    HW217166   2.200   6.547   3.169
 5423SOL     OW17167   4.205   6.519   2.656
 5423SOL    HW117168   4.301   6.529   2.683
 5423SOL    HW217169   4.147   6.571   2.719
 5424SOL     OW17170   4.173   3.413   5.819
 5424SOL    HW117171   4.174   3.313   5.828
 5424SOL    HW217172   4.100   3.451   5.875
 5425SOL     OW17173   1.991   5.709   4.346
 5425SOL    HW117174   2.079   5.678   4.380
 5425SOL    HW217175   1.920   5.643   4.371
 5426SOL     OW17176   1.862   4.061   6.863
 5426SOL    HW117177   1.821   4.095   6.778
 5426SOL    HW217178   1.803   3.990   6.903
 5427SOL     OW17179   4.716   1.574   6.889
 5427SOL    HW117180   4.809   1.598   6.917
 5427SOL    HW217181   4.692   1.484   6.925
 5428SOL     OW17182   4.993   5.490   2.436
 5428SOL    HW117183   4.922   5.514   2.501
 5428SOL    HW217184   5.051   5.569   2.417
 5429SOL     OW17185   2.856   6.072   3.323
 5429SOL    HW117186   2.768   6.025   3.316
 5429SOL    HW217187   2.873   6.123   3.239
 5430SOL     OW17188   0.807   3.653   5.498
 5430SOL    HW117189   0.728   3.657   5.437
 5430SOL    HW217190   0.875   3.719   5.469
 5431SOL     OW17191   5.342   4.443   0.960
 5431SOL    HW117192   5.248   4.414   0.979
 5431SOL    HW217193   5.396   4.364   0.933
 5432SOL     OW17194   1.809   5.448   5.779
 5432SOL    HW117195   1.715   5.438   5.811
 5432SOL    HW217196   1.859   5.364   5.797
 5433SOL     OW17197   3.341   0.158   2.087
 5433SOL    HW117198   3.325   0.173   1.990
 5433SOL    HW217199   3.430   0.113   2.100
 5434SOL     OW17200   5.476   6.281   4.096
 5434SOL    HW117201   5.454   6.375   4.070
 5434SOL    HW217202   5.575   6.272   4.106
 5435SOL     OW17203   0.864   3.049   0.368
 5435SOL    HW117204   0.856   2.953   0.342
 5435SOL    HW217205   0.774   3.093   0.360
 5436SOL     OW17206   1.444   4.422   0.995
 5436SOL    HW117207   1.358   4.371   1.001
 5436SOL    HW217208   1.499   4.384   0.921
 5437SOL     OW17209   2.954   6.861   5.749
 5437SOL    HW117210   2.968   6.825   5.841
 5437SOL    HW217211   2.871   6.918   5.748
 5438SOL     OW17212   4.815   6.679   3.814
 5438SOL    HW117213   4.816   6.589   3.771
 5438SOL    HW217214   4.894   6.731   3.782
 5439SOL     OW17215   1.345   3.441   1.912
 5439SOL    HW117216   1.353   3.379   1.834
 5439SOL    HW217217   1.254   3.433   1.952
 5440SOL     OW17218   5.096   6.505   3.119
 5440SOL    HW117219   5.190   6.489   3.089
 5440SOL    HW217220   5.096   6.547   3.210
 5441SOL     OW17221   5.948   0.059   5.000
 5441SOL    HW117222   6.031   0.107   4.971
 5441SOL    HW217223   5.932   6.998   4.940
 5442SOL     OW17224   2.696   5.691   6.922
 5442SOL    HW117225   2.661   5.776   6.960
 5442SOL    HW217226   2.710   5.701   6.824
 5443SOL     OW17227   6.010   1.223   3.146
 5443SOL    HW117228   5.949   1.295   3.179
 5443SOL    HW217229   5.989   1.137   3.192
 5444SOL     OW17230   2.055   1.769   6.268
 5444SOL    HW117231   2.013   1.694   6.217
 5444SOL    HW217232   2.061   1.850   6.209
 5445SOL     OW17233   6.726   6.520   5.450
 5445SOL    HW117234   6.747   6.553   5.542
 5445SOL    HW217235   6.633   6.483   5.448
 5446SOL     OW17236   2.299   4.155   0.153
 5446SOL    HW117237   2.324   4.218   0.226
 5446SOL    HW217238   2.253   4.205   0.080
 5447SOL     OW17239   5.393   2.723   1.823
 5447SOL    HW117240   5.349   2.775   1.897
 5447SOL    HW217241   5.487   2.754   1.813
 5448SOL     OW17242   6.323   5.718   0.967
 5448SOL    HW117243   6.298   5.815   0.972
 5448SOL    HW217244   6.353   5.697   0.874
 5449SOL     OW17245   1.973   6.865   2.557
 5449SOL    HW117246   2.047   6.864   2.623
 5449SOL    HW217247   2.010   6.882   2.465
 5450SOL     OW17248   4.530   4.697   1.943
 5450SOL    HW117249   4.548   4.763   1.869
 5450SOL    HW217250   4.608   4.635   1.951
 5451SOL     OW17251   0.520   5.682   3.283
 5451SOL    HW117252   0.529   5.605   3.220
 5451SOL    HW217253   0.504   5.766   3.231
 5452SOL     OW17254   2.141   3.833   3.452
 5452SOL    HW117255   2.133   3.831   3.352
 5452SOL    HW217256   2.148   3.739   3.486
 5453SOL     OW17257   5.813   5.302   4.540
 5453SOL    HW117258   5.896   5.321   4.486
 5453SOL    HW217259   5.823   5.342   4.631
 5454SOL     OW17260   6.604   3.780   1.833
 5454SOL    HW117261   6.567   3.695   1.871
 5454SOL    HW217262   6.566   3.858   1.883
 5455SOL     OW17263   1.767   2.055   3.081
 5455SOL    HW117264   1.817   2.109   3.012
 5455SOL    HW217265   1.787   1.958   3.068
 5456SOL     OW17266   5.844   3.129   6.971
 5456SOL    HW117267   5.858   3.197   6.899
 5456SOL    HW217268   5.753   3.088   6.961
 5457SOL     OW17269   6.126   0.657   0.745
 5457SOL    HW117270   6.221   0.634   0.766
 5457SOL    HW217271   6.099   0.613   0.659
 5458SOL     OW17272   5.832   4.637   6.143
 5458SOL    HW117273   5.876   4.550   6.166
 5458SOL    HW217274   5.898   4.711   6.155
 5459SOL     OW17275   1.573   3.634   5.537
 5459SOL    HW117276   1.561   3.590   5.448
 5459SOL    HW217277   1.658   3.687   5.536
 5460SOL     OW17278   6.853   1.558   1.102
 5460SOL    HW117279   6.766   1.521   1.072
 5460SOL    HW217280   6.841   1.606   1.189
 5461SOL     OW17281   5.467   0.586   5.935
 5461SOL    HW117282   5.379   0.625   5.905
 5461SOL    HW217283   5.514   0.547   5.856
 5462SOL     OW17284   5.841   4.802   0.737
 5462SOL    HW117285   5.765   4.769   0.682
 5462SOL    HW217286   5.910   4.843   0.678
 5463SOL     OW17287   3.346   4.983   0.057
 5463SOL    HW117288   3.400   4.902   0.082
 5463SOL    HW217289   3.335   5.041   0.138
 5464SOL     OW17290   2.412   5.739   4.097
 5464SOL    HW117291   2.394   5.812   4.030
 5464SOL    HW217292   2.408   5.777   4.189
 5465SOL     OW17293   0.724   1.594   4.702
 5465SOL    HW117294   0.708   1.692   4.714
 5465SOL    HW217295   0.639   1.544   4.715
 5466SOL     OW17296   5.236   1.953   5.019
 5466SOL    HW117297   5.154   2.007   5.001
 5466SOL    HW217298   5.209   1.858   5.036
 5467SOL     OW17299   4.822   4.740   3.119
 5467SOL    HW117300   4.788   4.835   3.121
 5467SOL    HW217301   4.899   4.734   3.056
 5468SOL     OW17302   0.266   2.602   1.464
 5468SOL    HW117303   0.292   2.568   1.373
 5468SOL    HW217304   0.171   2.577   1.483
 5469SOL     OW17305   4.726   0.776   3.047
 5469SOL    HW117306   4.698   0.687   3.081
 5469SOL    HW217307   4.652   0.817   2.995
 5470SOL     OW17308   2.351   4.618   3.508
 5470SOL    HW117309   2.305   4.579   3.428
 5470SOL    HW217310   2.440   4.656   3.480
 5471SOL     OW17311   5.687   0.512   4.103
 5471SOL    HW117312   5.717   0.526   4.009
 5471SOL    HW217313   5.588   0.524   4.108
 5472SOL     OW17314   2.540   4.610   0.669
 5472SOL    HW117315   2.466   4.662   0.628
 5472SOL    HW217316   2.531   4.513   0.645
 5473SOL     OW17317   3.018   4.807   1.947
 5473SOL    HW117318   2.956   4.730   1.962
 5473SOL    HW217319   3.048   4.808   1.852
 5474SOL     OW17320   0.666   5.687   1.913
 5474SOL    HW117321   0.706   5.754   1.850
 5474SOL    HW217322   0.736   5.622   1.940
 5475SOL     OW17323   0.381   1.159   5.664
 5475SOL    HW117324   0.409   1.071   5.625
 5475SOL    HW217325   0.442   1.231   5.631
 5476SOL     OW17326   3.212   1.087   4.167
 5476SOL    HW117327   3.229   1.184   4.151
 5476SOL    HW217328   3.293   1.045   4.207
 5477SOL     OW17329   1.972   4.135   2.792
 5477SOL    HW117330   2.045   4.078   2.755
 5477SOL    HW217331   1.902   4.077   2.833
 5478SOL     OW17332   6.438   2.925   5.543
 5478SOL    HW117333   6.430   2.904   5.446
 5478SOL    HW217334   6.349   2.910   5.587
 5479SOL     OW17335   5.149   4.147   4.823
 5479SOL    HW117336   5.059   4.109   4.843
 5479SOL    HW217337   5.196   4.169   4.909
 5480SOL     OW17338   2.014   2.397   6.221
 5480SOL    HW117339   2.100   2.351   6.245
 5480SOL    HW217340   1.977   2.357   6.137
 5481SOL     OW17341   3.571   0.823   0.722
 5481SOL    HW117342   3.552   0.915   0.755
 5481SOL    HW217343   3.661   0.821   0.678
 5482SOL     OW17344   5.261   4.626   2.184
 5482SOL    HW117345   5.306   4.594   2.266
 5482SOL    HW217346   5.302   4.583   2.104
 5483SOL     OW17347   5.931   1.544   0.748
 5483SOL    HW117348   5.941   1.643   0.744
 5483SOL    HW217349   6.012   1.504   0.792
 5484SOL     OW17350   5.959   0.296   5.828
 5484SOL    HW117351   5.948   0.358   5.750
 5484SOL    HW217352   6.038   0.236   5.812
 5485SOL     OW17353   2.637   1.554   3.699
 5485SOL    HW117354   2.669   1.577   3.791
 5485SOL    HW217355   2.715   1.529   3.642
 5486SOL     OW17356   0.140   1.304   3.817
 5486SOL    HW117357   0.212   1.265   3.874
 5486SOL    HW217358   0.053   1.259   3.837
 5487SOL     OW17359   4.423   5.862   1.241
 5487SOL    HW117360   4.443   5.818   1.328
 5487SOL    HW217361   4.480   5.823   1.169
 5488SOL     OW17362   4.717   0.135   6.273
 5488SOL    HW117363   4.788   0.204   6.281
 5488SOL    HW217364   4.699   0.094   6.362
 5489SOL     OW17365   6.674   3.475   3.030
 5489SOL    HW117366   6.642   3.480   2.936
 5489SOL    HW217367   6.741   3.547   3.047
 5490SOL     OW17368   2.948   1.396   6.592
 5490SOL    HW117369   3.038   1.355   6.578
 5490SOL    HW217370   2.877   1.330   6.567
 5491SOL     OW17371   5.970   6.624   1.722
 5491SOL    HW117372   6.051   6.578   1.758
 5491SOL    HW217373   5.969   6.719   1.753
 5492SOL     OW17374   1.542   1.360   5.101
 5492SOL    HW117375   1.637   1.380   5.125
 5492SOL    HW217376   1.540   1.301   5.019
 5493SOL     OW17377   4.029   1.353   7.015
 5493SOL    HW117378   4.047   1.373   6.918
 5493SOL    HW217379   3.980   1.430   0.038
 5494SOL     OW17380   5.291   3.212   2.131
 5494SOL    HW117381   5.238   3.277   2.078
 5494SOL    HW217382   5.367   3.259   2.175
 5495SOL     OW17383   3.623   3.205   4.945
 5495SOL    HW117384   3.555   3.277   4.961
 5495SOL    HW217385   3.580   3.116   4.960
 5496SOL     OW17386   4.532   5.069   1.991
 5496SOL    HW117387   4.439   5.106   1.987
 5496SOL    HW217388   4.590   5.131   2.044
 5497SOL     OW17389   5.579   6.830   0.124
 5497SOL    HW117390   5.627   6.818   0.037
 5497SOL    HW217391   5.505   6.897   0.113
 5498SOL     OW17392   3.825   1.033   3.997
 5498SOL    HW117393   3.794   1.119   4.036
 5498SOL    HW217394   3.758   1.000   3.930
 5499SOL     OW17395   0.572   0.339   5.232
 5499SOL    HW117396   0.526   0.271   5.289
 5499SOL    HW217397   0.663   0.358   5.269
 5500SOL     OW17398   1.728   6.369   0.924
 5500SOL    HW117399   1.722   6.358   0.825
 5500SOL    HW217400   1.782   6.294   0.962
 5501SOL     OW17401   2.133   1.452   2.296
 5501SOL    HW117402   2.124   1.474   2.393
 5501SOL    HW217403   2.046   1.471   2.250
 5502SOL     OW17404   5.399   4.807   0.870
 5502SOL    HW117405   5.416   4.732   0.934
 5502SOL    HW217406   5.481   4.863   0.860
 5503SOL     OW17407   0.042   0.914   3.973
 5503SOL    HW117408   0.111   0.948   4.038
 5503SOL    HW217409   7.011   0.991   3.932
 5504SOL     OW17410   2.508   2.027   4.836
 5504SOL    HW117411   2.455   2.110   4.821
 5504SOL    HW217412   2.592   2.050   4.886
 5505SOL     OW17413   3.574   5.474   0.567
 5505SOL    HW117414   3.550   5.500   0.473
 5505SOL    HW217415   3.625   5.549   0.609
 5506SOL     OW17416   1.284   6.609   4.965
 5506SOL    HW117417   1.194   6.640   4.936
 5506SOL    HW217418   1.277   6.517   5.003
 5507SOL     OW17419   2.496   5.296   4.835
 5507SOL    HW117420   2.518   5.289   4.932
 5507SOL    HW217421   2.420   5.234   4.814
 5508SOL     OW17422   2.478   1.179   5.852
 5508SOL    HW117423   2.448   1.256   5.795
 5508SOL    HW217424   2.400   1.146   5.906
 5509SOL     OW17425   6.863   0.242   5.929
 5509SOL    HW117426   6.852   0.243   6.029
 5509SOL    HW217427   6.913   0.160   5.903
 5510SOL     OW17428   1.182   0.593   5.482
 5510SOL    HW117429   1.117   0.517   5.491
 5510SOL    HW217430   1.267   0.568   5.527
 5511SOL     OW17431   0.463   2.295   0.871
 5511SOL    HW117432   0.530   2.231   0.832
 5511SOL    HW217433   0.371   2.272   0.837
 5512SOL     OW17434   6.703   6.489   0.146
 5512SOL    HW117435   6.731   6.522   0.236
 5512SOL    HW217436   6.783   6.484   0.086
 5513SOL     OW17437   2.344   6.240   4.409
 5513SOL    HW117438   2.273   6.304   4.440
 5513SOL    HW217439   2.328   6.218   4.312
 5514SOL     OW17440   5.415   5.959   3.530
 5514SOL    HW117441   5.342   5.901   3.494
 5514SOL    HW217442   5.376   6.032   3.585
 5515SOL     OW17443   0.983   4.241   3.811
 5515SOL    HW117444   1.070   4.272   3.850
 5515SOL    HW217445   0.983   4.255   3.712
 5516SOL     OW17446   2.066   2.857   0.151
 5516SOL    HW117447   2.107   2.946   0.133
 5516SOL    HW217448   1.967   2.868   0.163
 5517SOL     OW17449   3.003   0.622   2.555
 5517SOL    HW117450   2.945   0.546   2.526
 5517SOL    HW217451   3.084   0.625   2.496
 5518SOL     OW17452   5.843   3.857   6.102
 5518SOL    HW117453   5.902   3.917   6.156
 5518SOL    HW217454   5.807   3.907   6.024
 5519SOL     OW17455   5.397   3.970   2.241
 5519SOL    HW117456   5.409   4.022   2.326
 5519SOL    HW217457   5.301   3.945   2.230
 5520SOL     OW17458   1.341   2.866   0.968
 5520SOL    HW117459   1.312   2.908   1.054
 5520SOL    HW217460   1.312   2.770   0.967
 5521SOL     OW17461   5.185   4.532   6.442
 5521SOL    HW117462   5.202   4.470   6.519
 5521SOL    HW217463   5.090   4.564   6.445
 5522SOL     OW17464   1.608   2.962   1.386
 5522SOL    HW117465   1.655   2.879   1.357
 5522SOL    HW217466   1.554   2.943   1.468
 5523SOL     OW17467   2.426   6.615   1.822
 5523SOL    HW117468   2.436   6.531   1.877
 5523SOL    HW217469   2.477   6.605   1.737
 5524SOL     OW17470   5.948   6.821   5.754
 5524SOL    HW117471   5.849   6.820   5.740
 5524SOL    HW217472   5.974   6.745   5.813
 5525SOL     OW17473   6.828   6.421   3.135
 5525SOL    HW117474   6.743   6.398   3.183
 5525SOL    HW217475   6.899   6.355   3.159
 5526SOL     OW17476   5.633   3.682   4.718
 5526SOL    HW117477   5.633   3.739   4.636
 5526SOL    HW217478   5.714   3.622   4.717
 5527SOL     OW17479   3.002   3.078   0.333
 5527SOL    HW117480   3.089   3.128   0.336
 5527SOL    HW217481   2.928   3.139   0.360
 5528SOL     OW17482   6.208   3.041   2.677
 5528SOL    HW117483   6.206   3.082   2.585
 5528SOL    HW217484   6.146   3.091   2.737
 5529SOL     OW17485   1.523   0.577   4.316
 5529SOL    HW117486   1.581   0.577   4.235
 5529SOL    HW217487   1.579   0.564   4.398
 5530SOL     OW17488   0.219   3.338   6.743
 5530SOL    HW117489   0.183   3.341   6.836
 5530SOL    HW217490   0.153   3.379   6.680
 5531SOL     OW17491   2.809   3.023   0.915
 5531SOL    HW117492   2.752   2.942   0.906
 5531SOL    HW217493   2.905   2.998   0.902
 5532SOL     OW17494   2.453   2.568   1.979
 5532SOL    HW117495   2.372   2.552   1.923
 5532SOL    HW217496   2.426   2.613   2.064
 5533SOL     OW17497   3.076   0.423   0.646
 5533SOL    HW117498   3.117   0.410   0.556
 5533SOL    HW217499   3.099   0.346   0.705
 5534SOL     OW17500   0.518   3.358   5.393
 5534SOL    HW117501   0.607   3.352   5.348
 5534SOL    HW217502   0.528   3.410   5.479
 5535SOL     OW17503   4.989   4.767   3.579
 5535SOL    HW117504   4.964   4.863   3.563
 5535SOL    HW217505   5.017   4.725   3.493
 5536SOL     OW17506   2.422   1.435   4.568
 5536SOL    HW117507   2.461   1.406   4.481
 5536SOL    HW217508   2.392   1.354   4.619
 5537SOL     OW17509   4.073   1.659   3.671
 5537SOL    HW117510   4.040   1.753   3.677
 5537SOL    HW217511   4.020   1.601   3.733
 5538SOL     OW17512   4.870   2.289   2.420
 5538SOL    HW117513   4.870   2.349   2.340
 5538SOL    HW217514   4.832   2.200   2.394
 5539SOL     OW17515   1.175   0.756   6.325
 5539SOL    HW117516   1.252   0.798   6.277
 5539SOL    HW217517   1.152   0.669   6.282
 5540SOL     OW17518   4.824   6.940   5.255
 5540SOL    HW117519   4.791   6.990   5.336
 5540SOL    HW217520   4.813   6.842   5.270
 5541SOL     OW17521   4.788   2.858   5.490
 5541SOL    HW117522   4.845   2.867   5.572
 5541SOL    HW217523   4.692   2.845   5.517
 5542SOL     OW17524   4.581   4.432   6.590
 5542SOL    HW117525   4.573   4.364   6.662
 5542SOL    HW217526   4.574   4.388   6.501
 5543SOL     OW17527   0.556   0.369   6.214
 5543SOL    HW117528   0.526   0.288   6.164
 5543SOL    HW217529   0.609   0.428   6.153
 5544SOL     OW17530   3.897   4.899   0.251
 5544SOL    HW117531   3.852   4.988   0.249
 5544SOL    HW217532   3.969   4.901   0.321
 5545SOL     OW17533   5.449   1.878   3.151
 5545SOL    HW117534   5.505   1.940   3.206
 5545SOL    HW217535   5.489   1.870   3.059
 5546SOL     OW17536   0.789   6.129   4.546
 5546SOL    HW117537   0.858   6.200   4.558
 5546SOL    HW217538   0.725   6.131   4.622
 5547SOL     OW17539   4.934   1.421   4.650
 5547SOL    HW117540   5.008   1.480   4.619
 5547SOL    HW217541   4.890   1.461   4.731
 5548SOL     OW17542   1.025   3.698   4.710
 5548SOL    HW117543   1.035   3.671   4.614
 5548SOL    HW217544   1.029   3.797   4.717
 5549SOL     OW17545   4.344   3.337   0.349
 5549SOL    HW117546   4.345   3.240   0.321
 5549SOL    HW217547   4.265   3.382   0.308
 5550SOL     OW17548   3.141   3.819   1.664
 5550SOL    HW117549   3.070   3.884   1.691
 5550SOL    HW217550   3.168   3.763   1.743
 5551SOL     OW17551   1.086   4.714   2.375
 5551SOL    HW117552   1.094   4.615   2.380
 5551SOL    HW217553   1.064   4.741   2.282
 5552SOL     OW17554   0.736   0.641   0.672
 5552SOL    HW117555   0.752   0.594   0.585
 5552SOL    HW217556   0.734   0.575   0.746
 5553SOL     OW17557   5.961   5.566   0.854
 5553SOL    HW117558   5.914   5.605   0.775
 5553SOL    HW217559   6.014   5.637   0.901
 5554SOL     OW17560   0.032   2.501   1.562
 5554SOL    HW117561   0.026   2.594   1.599
 5554SOL    HW217562   0.071   2.440   1.630
 5555SOL     OW17563   1.061   4.653   1.820
 5555SOL    HW117564   1.073   4.719   1.894
 5555SOL    HW217565   0.966   4.653   1.789
 5556SOL     OW17566   6.657   1.833   5.094
 5556SOL    HW117567   6.618   1.811   5.183
 5556SOL    HW217568   6.584   1.847   5.028
 5557SOL     OW17569   3.521   0.059   3.212
 5557SOL    HW117570   3.541   6.983   3.181
 5557SOL    HW217571   3.473   0.108   3.140
 5558SOL     OW17572   3.730   3.478   6.249
 5558SOL    HW117573   3.742   3.570   6.211
 5558SOL    HW217574   3.813   3.425   6.236
 5559SOL     OW17575   3.535   0.684   2.854
 5559SOL    HW117576   3.449   0.635   2.859
 5559SOL    HW217577   3.578   0.687   2.944
 5560SOL     OW17578   6.944   5.552   3.363
 5560SOL    HW117579   6.990   5.603   3.436
 5560SOL    HW217580   6.863   5.506   3.401
 5561SOL     OW17581   3.112   0.745   3.524
 5561SOL    HW117582   3.041   0.778   3.462
 5561SOL    HW217583   3.173   0.821   3.547
 5562SOL     OW17584   5.053   3.179   0.977
 5562SOL    HW117585   4.992   3.156   0.901
 5562SOL    HW217586   5.064   3.100   1.037
 5563SOL     OW17587   1.922   3.985   2.084
 5563SOL    HW117588   1.947   4.082   2.087
 5563SOL    HW217589   1.849   3.971   2.017
 5564SOL     OW17590   4.418   0.392   6.765
 5564SOL    HW117591   4.499   0.450   6.758
 5564SOL    HW217592   4.337   0.446   6.743
 5565SOL     OW17593   3.029   2.051   6.366
 5565SOL    HW117594   2.990   2.070   6.276
 5565SOL    HW217595   3.127   2.033   6.356
 5566SOL     OW17596   1.259   5.445   5.376
 5566SOL    HW117597   1.267   5.542   5.352
 5566SOL    HW217598   1.162   5.423   5.390
 5567SOL     OW17599   1.180   5.120   6.912
 5567SOL    HW117600   1.169   5.214   6.880
 5567SOL    HW217601   1.109   5.062   6.870
 5568SOL     OW17602   5.411   5.326   1.938
 5568SOL    HW117603   5.484   5.260   1.955
 5568SOL    HW217604   5.376   5.359   2.026
 5569SOL     OW17605   1.587   2.215   2.911
 5569SOL    HW117606   1.670   2.172   2.946
 5569SOL    HW217607   1.554   2.166   2.831
 5570SOL     OW17608   6.976   3.389   1.333
 5570SOL    HW117609   0.036   3.339   1.294
 5570SOL    HW217610   6.944   3.458   1.268
 5571SOL     OW17611   0.084   4.390   6.464
 5571SOL    HW117612   7.013   4.344   6.452
 5571SOL    HW217613   0.157   4.322   6.469
 5572SOL     OW17614   1.151   4.485   5.522
 5572SOL    HW117615   1.210   4.562   5.547
 5572SOL    HW217616   1.107   4.504   5.434
 5573SOL     OW17617   3.172   4.892   3.318
 5573SOL    HW117618   3.181   4.833   3.398
 5573SOL    HW217619   3.246   4.872   3.253
 5574SOL     OW17620   1.307   1.151   5.922
 5574SOL    HW117621   1.274   1.230   5.870
 5574SOL    HW217622   1.230   1.109   5.971
 5575SOL     OW17623   0.053   0.542   1.642
 5575SOL    HW117624   7.014   0.466   1.608
 5575SOL    HW217625   0.002   0.628   1.632
 5576SOL     OW17626   1.960   4.766   3.426
 5576SOL    HW117627   2.013   4.750   3.510
 5576SOL    HW217628   2.022   4.787   3.351
 5577SOL     OW17629   3.388   2.282   6.308
 5577SOL    HW117630   3.452   2.317   6.376
 5577SOL    HW217631   3.341   2.202   6.344
 5578SOL     OW17632   3.650   4.096   3.805
 5578SOL    HW117633   3.676   3.999   3.804
 5578SOL    HW217634   3.575   4.110   3.869
 5579SOL     OW17635   5.885   2.794   1.518
 5579SOL    HW117636   5.805   2.770   1.573
 5579SOL    HW217637   5.892   2.732   1.439
 5580SOL     OW17638   5.574   2.251   6.447
 5580SOL    HW117639   5.573   2.327   6.512
 5580SOL    HW217640   5.605   2.283   6.358
 5581SOL     OW17641   1.579   1.026   5.676
 5581SOL    HW117642   1.590   1.124   5.689
 5581SOL    HW217643   1.494   1.007   5.628
 5582SOL     OW17644   2.596   2.749   5.914
 5582SOL    HW117645   2.531   2.786   5.847
 5582SOL    HW217646   2.547   2.693   5.981
 5583SOL     OW17647   5.681   6.550   1.310
 5583SOL    HW117648   5.706   6.604   1.230
 5583SOL    HW217649   5.582   6.555   1.325
 5584SOL     OW17650   0.562   3.683   4.832
 5584SOL    HW117651   0.600   3.773   4.808
 5584SOL    HW217652   0.629   3.612   4.809
 5585SOL     OW17653   6.395   5.111   1.459
 5585SOL    HW117654   6.311   5.078   1.501
 5585SOL    HW217655   6.450   5.158   1.528
 5586SOL     OW17656   1.298   6.248   1.584
 5586SOL    HW117657   1.327   6.290   1.670
 5586SOL    HW217658   1.378   6.230   1.528
 5587SOL     OW17659   5.868   1.050   5.221
 5587SOL    HW117660   5.834   1.123   5.161
 5587SOL    HW217661   5.959   1.022   5.191
 5588SOL     OW17662   3.059   6.725   1.094
 5588SOL    HW117663   3.069   6.786   1.174
 5588SOL    HW217664   3.039   6.780   1.013
 5589SOL     OW17665   0.567   4.568   5.729
 5589SOL    HW117666   0.574   4.568   5.829
 5589SOL    HW217667   0.598   4.655   5.693
 5590SOL     OW17668   5.860   5.216   3.311
 5590SOL    HW117669   5.799   5.139   3.325
 5590SOL    HW217670   5.809   5.291   3.269
 5591SOL     OW17671   5.016   1.355   2.818
 5591SOL    HW117672   5.007   1.346   2.917
 5591SOL    HW217673   4.927   1.342   2.775
 5592SOL     OW17674   0.015   5.434   4.404
 5592SOL    HW117675   6.958   5.382   4.446
 5592SOL    HW217676   0.077   5.371   4.356
 5593SOL     OW17677   2.038   3.958   1.029
 5593SOL    HW117678   2.060   4.056   1.030
 5593SOL    HW217679   2.116   3.906   0.994
 5594SOL     OW17680   6.268   0.544   5.583
 5594SOL    HW117681   6.298   0.488   5.660
 5594SOL    HW217682   6.300   0.505   5.498
 5595SOL     OW17683   0.131   1.735   0.866
 5595SOL    HW117684   0.185   1.794   0.926
 5595SOL    HW217685   0.190   1.668   0.823
 5596SOL     OW17686   4.162   6.292   3.255
 5596SOL    HW117687   4.120   6.203   3.277
 5596SOL    HW217688   4.109   6.365   3.298
 5597SOL     OW17689   5.100   3.434   2.111
 5597SOL    HW117690   5.031   3.364   2.129
 5597SOL    HW217691   5.075   3.485   2.029
 5598SOL     OW17692   3.306   0.500   4.013
 5598SOL    HW117693   3.311   0.488   4.113
 5598SOL    HW217694   3.326   0.595   3.990
 5599SOL     OW17695   1.099   1.626   3.490
 5599SOL    HW117696   1.141   1.539   3.466
 5599SOL    HW217697   1.029   1.612   3.561
 5600SOL     OW17698   2.572   2.815   5.364
 5600SOL    HW117699   2.521   2.876   5.303
 5600SOL    HW217700   2.531   2.724   5.363
 5601SOL     OW17701   2.058   0.811   6.296
 5601SOL    HW117702   1.972   0.860   6.285
 5601SOL    HW217703   2.072   0.750   6.218
 5602SOL     OW17704   2.069   1.232   0.214
 5602SOL    HW117705   1.993   1.235   0.280
 5602SOL    HW217706   2.034   1.202   0.125
 5603SOL     OW17707   6.698   3.272   5.146
 5603SOL    HW117708   6.733   3.300   5.057
 5603SOL    HW217709   6.770   3.284   5.215
 5604SOL     OW17710   5.479   0.771   6.492
 5604SOL    HW117711   5.540   0.700   6.526
 5604SOL    HW217712   5.429   0.737   6.413
 5605SOL     OW17713   1.306   1.561   6.596
 5605SOL    HW117714   1.225   1.563   6.538
 5605SOL    HW217715   1.284   1.600   6.685
 5606SOL     OW17716   5.855   6.912   2.808
 5606SOL    HW117717   5.804   6.969   2.744
 5606SOL    HW217718   5.953   6.922   2.791
 5607SOL     OW17719   4.899   0.361   1.370
 5607SOL    HW117720   4.839   0.397   1.441
 5607SOL    HW217721   4.994   0.365   1.402
 5608SOL     OW17722   3.637   6.493   5.289
 5608SOL    HW117723   3.597   6.414   5.242
 5608SOL    HW217724   3.596   6.502   5.380
 5609SOL     OW17725   1.414   5.960   4.812
 5609SOL    HW117726   1.501   5.928   4.774
 5609SOL    HW217727   1.423   6.056   4.838
 5610SOL     OW17728   5.080   0.220   6.747
 5610SOL    HW117729   5.161   0.186   6.699
 5610SOL    HW217730   5.084   0.319   6.753
 5611SOL     OW17731   2.044   4.234   4.023
 5611SOL    HW117732   2.001   4.315   4.064
 5611SOL    HW217733   2.126   4.210   4.075
 5612SOL     OW17734   3.554   6.372   4.421
 5612SOL    HW117735   3.532   6.448   4.483
 5612SOL    HW217736   3.485   6.301   4.428
 5613SOL     OW17737   2.651   5.271   2.497
 5613SOL    HW117738   2.698   5.260   2.409
 5613SOL    HW217739   2.712   5.244   2.571
 5614SOL     OW17740   4.909   2.364   4.603
 5614SOL    HW117741   4.864   2.332   4.686
 5614SOL    HW217742   4.890   2.461   4.590
 5615SOL     OW17743   0.935   1.473   1.962
 5615SOL    HW117744   0.837   1.492   1.960
 5615SOL    HW217745   0.966   1.461   2.056
 5616SOL     OW17746   2.377   6.826   4.757
 5616SOL    HW117747   2.293   6.810   4.705
 5616SOL    HW217748   2.453   6.778   4.713
 5617SOL     OW17749   0.399   1.078   5.923
 5617SOL    HW117750   0.372   1.096   5.829
 5617SOL    HW217751   0.319   1.088   5.983
 5618SOL     OW17752   6.366   5.028   3.693
 5618SOL    HW117753   6.274   5.064   3.683
 5618SOL    HW217754   6.402   5.053   3.783
 5619SOL     OW17755   2.155   3.295   4.715
 5619SOL    HW117756   2.097   3.279   4.794
 5619SOL    HW217757   2.108   3.262   4.632
 5620SOL     OW17758   5.455   1.998   6.469
 5620SOL    HW117759   5.512   2.080   6.465
 5620SOL    HW217760   5.381   2.005   6.402
 5621SOL     OW17761   2.643   1.365   5.980
 5621SOL    HW117762   2.602   1.297   5.919
 5621SOL    HW217763   2.576   1.392   6.049
 5622SOL     OW17764   5.377   1.211   5.259
 5622SOL    HW117765   5.462   1.263   5.248
 5622SOL    HW217766   5.380   1.159   5.345
 5623SOL     OW17767   6.989   6.262   6.511
 5623SOL    HW117768   6.914   6.221   6.563
 5623SOL    HW217769   6.953   6.332   6.450
 5624SOL     OW17770   1.071   4.272   2.569
 5624SOL    HW117771   1.024   4.275   2.657
 5624SOL    HW217772   1.160   4.227   2.580
 5625SOL     OW17773   6.701   1.600   5.723
 5625SOL    HW117774   6.735   1.511   5.691
 5625SOL    HW217775   6.748   1.673   5.674
 5626SOL     OW17776   5.689   6.761   5.296
 5626SOL    HW117777   5.621   6.815   5.247
 5626SOL    HW217778   5.645   6.709   5.368
 5627SOL     OW17779   1.309   0.521   1.731
 5627SOL    HW117780   1.345   0.612   1.714
 5627SOL    HW217781   1.254   0.521   1.814
 5628SOL     OW17782   1.892   1.407   4.124
 5628SOL    HW117783   1.853   1.316   4.134
 5628SOL    HW217784   1.971   1.403   4.063
 5629SOL     OW17785   3.579   3.635   3.755
 5629SOL    HW117786   3.602   3.726   3.789
 5629SOL    HW217787   3.662   3.586   3.728
 5630SOL     OW17788   6.731   4.005   0.784
 5630SOL    HW117789   6.814   4.000   0.838
 5630SOL    HW217790   6.702   3.913   0.758
 5631SOL     OW17791   5.977   1.444   6.197
 5631SOL    HW117792   5.893   1.401   6.163
 5631SOL    HW217793   6.033   1.375   6.243
 5632SOL     OW17794   3.313   2.474   0.686
 5632SOL    HW117795   3.366   2.539   0.631
 5632SOL    HW217796   3.370   2.441   0.761
 5633SOL     OW17797   0.086   2.588   5.570
 5633SOL    HW117798   0.119   2.560   5.661
 5633SOL    HW217799   0.006   2.647   5.580
 5634SOL     OW17800   4.790   5.962   5.272
 5634SOL    HW117801   4.881   5.972   5.232
 5634SOL    HW217802   4.729   5.916   5.206
 5635SOL     OW17803   2.926   1.782   6.370
 5635SOL    HW117804   2.984   1.701   6.370
 5635SOL    HW217805   2.975   1.858   6.415
 5636SOL     OW17806   4.713   0.569   4.261
 5636SOL    HW117807   4.670   0.660   4.256
 5636SOL    HW217808   4.707   0.525   4.171
 5637SOL     OW17809   6.111   6.656   2.685
 5637SOL    HW117810   6.180   6.640   2.755
 5637SOL    HW217811   6.023   6.622   2.716
 5638SOL     OW17812   0.343   3.685   6.979
 5638SOL    HW117813   0.281   3.745   6.928
 5638SOL    HW217814   0.419   3.739   7.015
 5639SOL     OW17815   4.048   0.041   6.457
 5639SOL    HW117816   4.046   6.967   6.496
 5639SOL    HW217817   4.102   0.040   6.372
 5640SOL     OW17818   1.473   0.166   3.389
 5640SOL    HW117819   1.494   0.262   3.408
 5640SOL    HW217820   1.376   0.148   3.406
 5641SOL     OW17821   0.002   6.001   4.907
 5641SOL    HW117822   6.971   5.949   4.977
 5641SOL    HW217823   7.004   5.959   4.817
 5642SOL     OW17824   1.726   0.981   0.215
 5642SOL    HW117825   1.669   1.043   0.161
 5642SOL    HW217826   1.689   0.974   0.308
 5643SOL     OW17827   5.345   2.234   0.083
 5643SOL    HW117828   5.287   2.214   0.163
 5643SOL    HW217829   5.366   2.148   0.036
 5644SOL     OW17830   2.692   0.339   5.703
 5644SOL    HW117831   2.625   0.382   5.764
 5644SOL    HW217832   2.784   0.370   5.729
 5645SOL     OW17833   5.245   3.829   4.313
 5645SOL    HW117834   5.168   3.841   4.251
 5645SOL    HW217835   5.215   3.848   4.407
 5646SOL     OW17836   0.638   4.364   2.516
 5646SOL    HW117837   0.726   4.406   2.497
 5646SOL    HW217838   0.620   4.367   2.615
 5647SOL     OW17839   4.414   5.588   2.594
 5647SOL    HW117840   4.446   5.645   2.670
 5647SOL    HW217841   4.454   5.497   2.602
 5648SOL     OW17842   5.490   6.335   3.434
 5648SOL    HW117843   5.555   6.405   3.403
 5648SOL    HW217844   5.504   6.250   3.384
 5649SOL     OW17845   0.428   0.377   5.021
 5649SOL    HW117846   0.451   0.304   4.957
 5649SOL    HW217847   0.502   0.387   5.088
 5650SOL     OW17848   0.238   3.614   6.088
 5650SOL    HW117849   0.139   3.618   6.075
 5650SOL    HW217850   0.276   3.538   6.036
 5651SOL     OW17851   2.636   1.072   1.529
 5651SOL    HW117852   2.664   0.977   1.540
 5651SOL    HW217853   2.637   1.118   1.618
 5652SOL     OW17854   0.570   6.037   2.783
 5652SOL    HW117855   0.513   6.090   2.720
 5652SOL    HW217856   0.587   6.090   2.866
 5653SOL     OW17857   6.779   0.456   2.943
 5653SOL    HW117858   6.707   0.523   2.924
 5653SOL    HW217859   6.737   0.366   2.957
 5654SOL     OW17860   3.022   6.119   5.477
 5654SOL    HW117861   3.032   6.069   5.391
 5654SOL    HW217862   3.058   6.063   5.552
 5655SOL     OW17863   6.274   3.369   4.377
 5655SOL    HW117864   6.235   3.460   4.373
 5655SOL    HW217865   6.285   3.333   4.284
 5656SOL     OW17866   0.629   4.603   1.316
 5656SOL    HW117867   0.616   4.559   1.226
 5656SOL    HW217868   0.554   4.667   1.332
 5657SOL     OW17869   6.299   6.412   5.641
 5657SOL    HW117870   6.358   6.438   5.717
 5657SOL    HW217871   6.230   6.347   5.673
 5658SOL     OW17872   3.010   2.503   5.547
 5658SOL    HW117873   3.073   2.566   5.502
 5658SOL    HW217874   2.945   2.554   5.602
 5659SOL     OW17875   2.547   4.063   6.081
 5659SOL    HW117876   2.596   4.087   6.165
 5659SOL    HW217877   2.458   4.109   6.080
 5660SOL     OW17878   4.200   0.668   4.386
 5660SOL    HW117879   4.207   0.626   4.476
 5660SOL    HW217880   4.118   0.635   4.339
 5661SOL     OW17881   0.383   5.985   5.719
 5661SOL    HW117882   0.386   5.903   5.776
 5661SOL    HW217883   0.477   6.015   5.700
 5662SOL     OW17884   2.421   6.084   1.208
 5662SOL    HW117885   2.347   6.151   1.216
 5662SOL    HW217886   2.393   6.012   1.144
 5663SOL     OW17887   3.298   2.028   6.389
 5663SOL    HW117888   3.390   2.020   6.351
 5663SOL    HW217889   3.288   1.966   6.467
 5664SOL     OW17890   5.102   5.767   4.918
 5664SOL    HW117891   5.151   5.854   4.912
 5664SOL    HW217892   5.015   5.774   4.870
 5665SOL     OW17893   2.355   0.730   0.811
 5665SOL    HW117894   2.398   0.771   0.892
 5665SOL    HW217895   2.328   0.803   0.748
 5666SOL     OW17896   5.954   3.178   4.649
 5666SOL    HW117897   6.039   3.225   4.672
 5666SOL    HW217898   5.972   3.080   4.636
 5667SOL     OW17899   2.685   4.656   4.083
 5667SOL    HW117900   2.665   4.565   4.047
 5667SOL    HW217901   2.748   4.704   4.021
 5668SOL     OW17902   4.386   4.627   3.850
 5668SOL    HW117903   4.444   4.709   3.848
 5668SOL    HW217904   4.382   4.587   3.759
 5669SOL     OW17905   5.739   3.821   5.735
 5669SOL    HW117906   5.735   3.725   5.763
 5669SOL    HW217907   5.670   3.838   5.664
 5670SOL     OW17908   0.914   3.281   4.107
 5670SOL    HW117909   0.885   3.310   4.016
 5670SOL    HW217910   0.976   3.203   4.098
 5671SOL     OW17911   6.153   5.883   2.933
 5671SOL    HW117912   6.078   5.820   2.953
 5671SOL    HW217913   6.197   5.911   3.018
 5672SOL     OW17914   5.720   3.223   4.830
 5672SOL    HW117915   5.650   3.152   4.816
 5672SOL    HW217916   5.806   3.194   4.787
 5673SOL     OW17917   1.048   1.994   0.505
 5673SOL    HW117918   0.986   2.049   0.562
 5673SOL    HW217919   1.013   1.991   0.411
 5674SOL     OW17920   2.860   5.762   4.915
 5674SOL    HW117921   2.818   5.683   4.959
 5674SOL    HW217922   2.941   5.791   4.967
 5675SOL     OW17923   3.708   2.207   0.759
 5675SOL    HW117924   3.629   2.245   0.711
 5675SOL    HW217925   3.772   2.167   0.694
 5676SOL     OW17926   3.865   1.129   1.760
 5676SOL    HW117927   3.902   1.053   1.814
 5676SOL    HW217928   3.793   1.095   1.700
 5677SOL     OW17929   1.376   1.227   6.202
 5677SOL    HW117930   1.301   1.242   6.137
 5677SOL    HW217931   1.440   1.303   6.197
 5678SOL     OW17932   3.918   1.633   1.973
 5678SOL    HW117933   3.914   1.552   1.915
 5678SOL    HW217934   3.954   1.609   2.063
 5679SOL     OW17935   0.904   3.670   5.865
 5679SOL    HW117936   0.903   3.762   5.826
 5679SOL    HW217937   0.823   3.657   5.921
 5680SOL     OW17938   0.768   5.575   4.680
 5680SOL    HW117939   0.669   5.587   4.680
 5680SOL    HW217940   0.794   5.511   4.607
 5681SOL     OW17941   1.325   3.447   3.204
 5681SOL    HW117942   1.358   3.451   3.110
 5681SOL    HW217943   1.253   3.379   3.212
 5682SOL     OW17944   1.652   4.651   0.391
 5682SOL    HW117945   1.691   4.599   0.467
 5682SOL    HW217946   1.712   4.728   0.369
 5683SOL     OW17947   0.041   6.695   5.780
 5683SOL    HW117948   0.113   6.757   5.809
 5683SOL    HW217949   0.028   6.624   5.850
 5684SOL     OW17950   1.827   3.375   4.827
 5684SOL    HW117951   1.752   3.416   4.879
 5684SOL    HW217952   1.829   3.414   4.735
 5685SOL     OW17953   1.685   2.087   1.754
 5685SOL    HW117954   1.706   1.989   1.749
 5685SOL    HW217955   1.769   2.140   1.741
 5686SOL     OW17956   6.111   5.536   5.494
 5686SOL    HW117957   6.033   5.570   5.547
 5686SOL    HW217958   6.195   5.549   5.546
 5687SOL     OW17959   1.151   0.449   6.726
 5687SOL    HW117960   1.097   0.512   6.671
 5687SOL    HW217961   1.204   0.501   6.793
 5688SOL     OW17962   1.381   2.643   2.542
 5688SOL    HW117963   1.444   2.720   2.530
 5688SOL    HW217964   1.362   2.601   2.454
 5689SOL     OW17965   0.081   1.667   1.239
 5689SOL    HW117966   0.123   1.745   1.192
 5689SOL    HW217967   0.015   1.623   1.178
 5690SOL     OW17968   2.845   5.354   0.205
 5690SOL    HW117969   2.913   5.398   0.264
 5690SOL    HW217970   2.828   5.260   0.237
 5691SOL     OW17971   5.021   3.127   3.422
 5691SOL    HW117972   5.080   3.189   3.475
 5691SOL    HW217973   4.970   3.069   3.485
 5692SOL     OW17974   6.668   5.102   1.840
 5692SOL    HW117975   6.702   5.173   1.902
 5692SOL    HW217976   6.606   5.041   1.889
 5693SOL     OW17977   3.156   1.007   2.258
 5693SOL    HW117978   3.205   1.077   2.311
 5693SOL    HW217979   3.071   0.983   2.304
 5694SOL     OW17980   0.165   6.653   1.006
 5694SOL    HW117981   0.180   6.554   1.006
 5694SOL    HW217982   0.202   6.693   1.089
 5695SOL     OW17983   1.927   1.069   2.240
 5695SOL    HW117984   1.937   1.069   2.339
 5695SOL    HW217985   1.834   1.038   2.216
 5696SOL     OW17986   0.175   0.752   3.657
 5696SOL    HW117987   0.078   0.744   3.634
 5696SOL    HW217988   0.211   0.838   3.623
 5697SOL     OW17989   6.099   1.975   0.599
 5697SOL    HW117990   6.091   2.062   0.550
 5697SOL    HW217991   6.147   1.909   0.542
 5698SOL     OW17992   2.989   2.137   3.260
 5698SOL    HW117993   3.060   2.164   3.326
 5698SOL    HW217994   3.029   2.132   3.169
 5699SOL     OW17995   2.164   2.783   2.676
 5699SOL    HW117996   2.263   2.799   2.685
 5699SOL    HW217997   2.148   2.687   2.653
 5700SOL     OW17998   5.681   0.339   2.155
 5700SOL    HW117999   5.767   0.387   2.175
 5700SOL    HW218000   5.616   0.403   2.114
 5701SOL     OW18001   1.679   0.587   0.669
 5701SOL    HW118002   1.734   0.504   0.665
 5701SOL    HW218003   1.710   0.645   0.745
 5702SOL     OW18004   1.316   6.353   5.062
 5702SOL    HW118005   1.249   6.279   5.069
 5702SOL    HW218006   1.394   6.321   5.008
 5703SOL     OW18007   1.026   3.010   6.387
 5703SOL    HW118008   1.102   2.975   6.333
 5703SOL    HW218009   0.943   2.959   6.366
 5704SOL     OW18010   4.171   5.758   4.670
 5704SOL    HW118011   4.163   5.699   4.589
 5704SOL    HW218012   4.210   5.704   4.745
 5705SOL     OW18013   5.697   1.244   5.035
 5705SOL    HW118014   5.694   1.154   4.994
 5705SOL    HW218015   5.747   1.307   4.975
 5706SOL     OW18016   5.477   0.753   1.189
 5706SOL    HW118017   5.456   0.850   1.196
 5706SOL    HW218018   5.413   0.701   1.246
 5707SOL     OW18019   6.031   5.964   1.658
 5707SOL    HW118020   5.986   5.878   1.635
 5707SOL    HW218021   6.051   5.965   1.756
 5708SOL     OW18022   5.113   6.547   2.311
 5708SOL    HW118023   5.121   6.630   2.255
 5708SOL    HW218024   5.202   6.524   2.349
 5709SOL     OW18025   7.015   2.296   2.443
 5709SOL    HW118026   6.948   2.316   2.515
 5709SOL    HW218027   0.089   2.297   2.482
 5710SOL     OW18028   5.670   1.178   0.634
 5710SOL    HW118029   5.574   1.199   0.655
 5710SOL    HW218030   5.715   1.261   0.601
 5711SOL     OW18031   4.133   1.583   2.481
 5711SOL    HW118032   4.188   1.656   2.438
 5711SOL    HW218033   4.103   1.613   2.572
 5712SOL     OW18034   6.624   6.076   6.352
 5712SOL    HW118035   6.635   6.109   6.446
 5712SOL    HW218036   6.547   6.012   6.348
 5713SOL     OW18037   1.290   1.462   0.317
 5713SOL    HW118038   1.311   1.420   0.229
 5713SOL    HW218039   1.309   1.560   0.314
 5714SOL     OW18040   5.760   6.886   1.531
 5714SOL    HW118041   5.687   6.861   1.594
 5714SOL    HW218042   5.813   6.805   1.507
 5715SOL     OW18043   0.367   5.826   0.991
 5715SOL    HW118044   0.311   5.851   1.070
 5715SOL    HW218045   0.336   5.876   0.911
 5716SOL     OW18046   0.079   4.860   5.888
 5716SOL    HW118047   0.018   4.919   5.940
 5716SOL    HW218048   0.037   4.770   5.877
 5717SOL     OW18049   0.169   5.910   2.988
 5717SOL    HW118050   0.076   5.894   3.023
 5717SOL    HW218051   0.178   6.005   2.961
 5718SOL     OW18052   1.533   4.634   6.586
 5718SOL    HW118053   1.479   4.606   6.665
 5718SOL    HW218054   1.580   4.555   6.547
 5719SOL     OW18055   3.721   3.679   1.091
 5719SOL    HW118056   3.787   3.752   1.072
 5719SOL    HW218057   3.734   3.647   1.185
 5720SOL     OW18058   2.755   4.208   6.613
 5720SOL    HW118059   2.794   4.116   6.618
 5720SOL    HW218060   2.785   4.261   6.693
 5721SOL     OW18061   0.682   3.004   0.648
 5721SOL    HW118062   0.688   2.904   0.658
 5721SOL    HW218063   0.720   3.031   0.559
 5722SOL     OW18064   1.810   0.918   6.201
 5722SOL    HW118065   1.871   0.960   6.134
 5722SOL    HW218066   1.723   0.966   6.201
 5723SOL     OW18067   4.152   3.755   0.448
 5723SOL    HW118068   4.249   3.746   0.425
 5723SOL    HW218069   4.122   3.848   0.428
 5724SOL     OW18070   6.494   1.589   6.145
 5724SOL    HW118071   6.433   1.513   6.124
 5724SOL    HW218072   6.573   1.587   6.083
 5725SOL     OW18073   6.771   4.173   4.346
 5725SOL    HW118074   6.802   4.265   4.366
 5725SOL    HW218075   6.672   4.168   4.355
 5726SOL     OW18076   3.895   4.869   2.077
 5726SOL    HW118077   3.805   4.844   2.042
 5726SOL    HW218078   3.965   4.819   2.025
 5727SOL     OW18079   1.208   3.073   6.591
 5727SOL    HW118080   1.145   3.046   6.518
 5727SOL    HW218081   1.156   3.103   6.671
 5728SOL     OW18082   2.283   6.221   4.163
 5728SOL    HW118083   2.332   6.147   4.114
 5728SOL    HW218084   2.310   6.309   4.124
 5729SOL     OW18085   2.817   1.894   4.937
 5729SOL    HW118086   2.889   1.914   5.003
 5729SOL    HW218087   2.766   1.977   4.916
 5730SOL     OW18088   6.261   4.832   4.478
 5730SOL    HW118089   6.170   4.848   4.515
 5730SOL    HW218090   6.306   4.760   4.531
 5731SOL     OW18091   0.214   6.208   2.437
 5731SOL    HW118092   0.185   6.304   2.431
 5731SOL    HW218093   0.299   6.195   2.386
 5732SOL     OW18094   5.211   0.664   3.788
 5732SOL    HW118095   5.176   0.694   3.699
 5732SOL    HW218096   5.185   0.730   3.859
 5733SOL     OW18097   2.694   1.013   5.145
 5733SOL    HW118098   2.674   1.106   5.113
 5733SOL    HW218099   2.754   1.018   5.224
 5734SOL     OW18100   1.783   6.428   3.990
 5734SOL    HW118101   1.837   6.347   4.013
 5734SOL    HW218102   1.688   6.401   3.974
 5735SOL     OW18103   2.127   0.792   1.497
 5735SOL    HW118104   2.218   0.832   1.497
 5735SOL    HW218105   2.058   0.863   1.484
 5736SOL     OW18106   1.868   4.517   1.084
 5736SOL    HW118107   1.859   4.427   1.127
 5736SOL    HW218108   1.807   4.582   1.130
 5737SOL     OW18109   6.016   4.046   6.757
 5737SOL    HW118110   5.953   4.036   6.680
 5737SOL    HW218111   6.041   4.142   6.767
 5738SOL     OW18112   0.924   5.559   4.287
 5738SOL    HW118113   0.870   5.643   4.276
 5738SOL    HW218114   0.879   5.499   4.353
 5739SOL     OW18115   1.019   2.559   0.990
 5739SOL    HW118116   1.018   2.657   0.972
 5739SOL    HW218117   0.944   2.535   1.051
 5740SOL     OW18118   4.630   4.947   0.704
 5740SOL    HW118119   4.571   5.026   0.694
 5740SOL    HW218120   4.636   4.898   0.616
 5741SOL     OW18121   0.055   2.482   2.256
 5741SOL    HW118122   0.035   2.415   2.328
 5741SOL    HW218123   0.021   2.448   2.168
 5742SOL     OW18124   0.259   5.039   3.443
 5742SOL    HW118125   0.309   5.124   3.426
 5742SOL    HW218126   0.314   4.961   3.413
 5743SOL     OW18127   0.685   0.600   5.126
 5743SOL    HW118128   0.680   0.521   5.066
 5743SOL    HW218129   0.780   0.632   5.132
 5744SOL     OW18130   6.129   0.329   2.436
 5744SOL    HW118131   6.110   0.236   2.469
 5744SOL    HW218132   6.227   0.340   2.422
 5745SOL     OW18133   6.848   3.600   2.110
 5745SOL    HW118134   6.790   3.679   2.132
 5745SOL    HW218135   6.817   3.560   2.023
 5746SOL     OW18136   0.450   3.474   5.937
 5746SOL    HW118137   0.433   3.383   5.973
 5746SOL    HW218138   0.434   3.475   5.839
 5747SOL     OW18139   0.022   5.886   4.229
 5747SOL    HW118140   7.007   5.890   4.135
 5747SOL    HW218141   6.998   5.808   4.275
 5748SOL     OW18142   1.750   1.132   3.819
 5748SOL    HW118143   1.694   1.194   3.875
 5748SOL    HW218144   1.692   1.058   3.784
 5749SOL     OW18145   0.566   1.425   2.997
 5749SOL    HW118146   0.623   1.480   3.058
 5749SOL    HW218147   0.612   1.339   2.976
 5750SOL     OW18148   4.535   6.240   2.622
 5750SOL    HW118149   4.610   6.193   2.668
 5750SOL    HW218150   4.523   6.331   2.664
 5751SOL     OW18151   1.231   1.720   6.818
 5751SOL    HW118152   1.250   1.682   6.908
 5751SOL    HW218153   1.278   1.808   6.809
 5752SOL     OW18154   1.750   1.003   6.826
 5752SOL    HW118155   1.782   1.077   6.885
 5752SOL    HW218156   1.748   1.034   6.731
 5753SOL     OW18157   3.976   1.423   6.409
 5753SOL    HW118158   3.919   1.504   6.426
 5753SOL    HW218159   3.928   1.361   6.348
 5754SOL     OW18160   6.381   5.631   0.697
 5754SOL    HW118161   6.370   5.548   0.751
 5754SOL    HW218162   6.291   5.663   0.667
 5755SOL     OW18163   3.018   3.685   2.112
 5755SOL    HW118164   2.950   3.699   2.184
 5755SOL    HW218165   3.109   3.702   2.149
 5756SOL     OW18166   6.432   0.143   3.948
 5756SOL    HW118167   6.359   0.134   4.016
 5756SOL    HW218168   6.428   0.067   3.884
 5757SOL     OW18169   6.491   6.551   1.990
 5757SOL    HW118170   6.525   6.478   1.931
 5757SOL    HW218171   6.565   6.583   2.050
 5758SOL     OW18172   3.459   0.766   5.900
 5758SOL    HW118173   3.451   0.852   5.950
 5758SOL    HW218174   3.524   0.706   5.947
 5759SOL     OW18175   0.875   1.204   5.714
 5759SOL    HW118176   0.882   1.268   5.638
 5759SOL    HW218177   0.940   1.130   5.702
 5760SOL     OW18178   6.376   5.687   1.712
 5760SOL    HW118179   6.287   5.652   1.741
 5760SOL    HW218180   6.414   5.745   1.784
 5761SOL     OW18181   3.746   0.313   4.901
 5761SOL    HW118182   3.684   0.390   4.885
 5761SOL    HW218183   3.835   0.332   4.861
 5762SOL     OW18184   4.930   0.002   1.412
 5762SOL    HW118185   4.996   0.062   1.456
 5762SOL    HW218186   4.961   6.997   1.320
 5763SOL     OW18187   3.778   0.988   0.616
 5763SOL    HW118188   3.831   0.992   0.700
 5763SOL    HW218189   3.717   1.067   0.611
 5764SOL     OW18190   3.424   2.887   6.640
 5764SOL    HW118191   3.414   2.977   6.598
 5764SOL    HW218192   3.345   2.868   6.698
 5765SOL     OW18193   6.666   4.488   5.923
 5765SOL    HW118194   6.679   4.565   5.985
 5765SOL    HW218195   6.720   4.410   5.954
 5766SOL     OW18196   2.267   1.706   3.244
 5766SOL    HW118197   2.311   1.759   3.171
 5766SOL    HW218198   2.255   1.611   3.214
 5767SOL     OW18199   5.185   6.521   0.254
 5767SOL    HW118200   5.112   6.542   0.188
 5767SOL    HW218201   5.263   6.582   0.238
 5768SOL     OW18202   5.640   6.947   2.278
 5768SOL    HW118203   5.592   0.011   2.313
 5768SOL    HW218204   5.716   6.975   2.220
 5769SOL     OW18205   6.678   4.634   3.104
 5769SOL    HW118206   6.774   4.639   3.077
 5769SOL    HW218207   6.670   4.636   3.203
 5770SOL     OW18208   4.732   2.288   1.113
 5770SOL    HW118209   4.734   2.250   1.020
 5770SOL    HW218210   4.787   2.371   1.116
 5771SOL     OW18211   0.812   0.550   1.595
 5771SOL    HW118212   0.803   0.464   1.647
 5771SOL    HW218213   0.726   0.571   1.549
 5772SOL     OW18214   6.243   5.072   5.537
 5772SOL    HW118215   6.209   5.060   5.444
 5772SOL    HW218216   6.210   4.997   5.594
 5773SOL     OW18217   5.063   6.356   5.090
 5773SOL    HW118218   5.063   6.447   5.132
 5773SOL    HW218219   5.066   6.287   5.162
 5774SOL     OW18220   1.742   4.845   1.559
 5774SOL    HW118221   1.705   4.929   1.599
 5774SOL    HW218222   1.671   4.775   1.556
 5775SOL     OW18223   0.995   1.097   1.009
 5775SOL    HW118224   1.046   1.156   1.071
 5775SOL    HW218225   1.054   1.023   0.977
 5776SOL     OW18226   4.833   0.771   5.757
 5776SOL    HW118227   4.834   0.863   5.797
 5776SOL    HW218228   4.847   0.778   5.658
 5777SOL     OW18229   5.271   6.739   4.830
 5777SOL    HW118230   5.369   6.743   4.853
 5777SOL    HW218231   5.254   6.663   4.768
 5778SOL     OW18232   2.505   6.643   3.357
 5778SOL    HW118233   2.416   6.670   3.393
 5778SOL    HW218234   2.544   6.718   3.304
 5779SOL     OW18235   3.697   6.777   2.449
 5779SOL    HW118236   3.632   6.719   2.498
 5779SOL    HW218237   3.708   6.864   2.498
 5780SOL     OW18238   6.892   4.530   6.730
 5780SOL    HW118239   6.949   4.612   6.727
 5780SOL    HW218240   6.945   4.454   6.768
 5781SOL     OW18241   4.625   4.256   5.725
 5781SOL    HW118242   4.527   4.239   5.711
 5781SOL    HW218243   4.678   4.194   5.668
 5782SOL     OW18244   4.831   1.868   2.801
 5782SOL    HW118245   4.924   1.834   2.817
 5782SOL    HW218246   4.770   1.790   2.786
 5783SOL     OW18247   3.043   5.896   3.394
 5783SOL    HW118248   2.974   5.968   3.392
 5783SOL    HW218249   3.117   5.922   3.456
 5784SOL     OW18250   0.124   6.724   2.147
 5784SOL    HW118251   0.193   6.663   2.108
 5784SOL    HW218252   0.151   6.749   2.240
 5785SOL     OW18253   2.641   1.046   6.152
 5785SOL    HW118254   2.733   1.067   6.117
 5785SOL    HW218255   2.648   1.023   6.249
 5786SOL     OW18256   2.239   1.510   6.308
 5786SOL    HW118257   2.226   1.603   6.273
 5786SOL    HW218258   2.198   1.444   6.245
 5787SOL     OW18259   0.341   1.968   6.296
 5787SOL    HW118260   0.362   1.967   6.198
 5787SOL    HW218261   0.421   2.000   6.347
 5788SOL     OW18262   0.055   2.481   1.964
 5788SOL    HW118263   0.126   2.550   1.946
 5788SOL    HW218264   0.068   2.403   1.903
 5789SOL     OW18265   3.115   1.354   0.057
 5789SOL    HW118266   3.189   1.419   0.046
 5789SOL    HW218267   3.043   1.373   7.007
 5790SOL     OW18268   6.321   5.950   2.481
 5790SOL    HW118269   6.266   5.995   2.552
 5790SOL    HW218270   6.317   6.005   2.397
 5791SOL     OW18271   3.866   1.042   1.402
 5791SOL    HW118272   3.776   1.003   1.426
 5791SOL    HW218273   3.869   1.138   1.428
 5792SOL     OW18274   4.609   2.037   2.290
 5792SOL    HW118275   4.676   1.990   2.347
 5792SOL    HW218276   4.654   2.109   2.238
 5793SOL     OW18277   4.457   2.564   0.738
 5793SOL    HW118278   4.548   2.607   0.738
 5793SOL    HW218279   4.388   2.633   0.761
 5794SOL     OW18280   3.457   6.015   6.870
 5794SOL    HW118281   3.387   5.953   6.905
 5794SOL    HW218282   3.454   6.101   6.922
 5795SOL     OW18283   0.656   0.378   1.388
 5795SOL    HW118284   0.676   0.335   1.475
 5795SOL    HW218285   0.557   0.391   1.379
 5796SOL     OW18286   4.773   0.781   6.081
 5796SOL    HW118287   4.725   0.823   6.004
 5796SOL    HW218288   4.708   0.733   6.139
 5797SOL     OW18289   6.013   1.379   6.907
 5797SOL    HW118290   6.030   1.355   7.002
 5797SOL    HW218291   5.974   1.471   6.903
 5798SOL     OW18292   2.266   2.740   4.978
 5798SOL    HW118293   2.166   2.751   4.973
 5798SOL    HW218294   2.305   2.816   5.028
 5799SOL     OW18295   2.781   0.689   3.879
 5799SOL    HW118296   2.713   0.704   3.807
 5799SOL    HW218297   2.868   0.663   3.839
 5800SOL     OW18298   1.559   6.137   1.641
 5800SOL    HW118299   1.644   6.107   1.684
 5800SOL    HW218300   1.524   6.064   1.583
 5801SOL     OW18301   1.451   2.120   3.124
 5801SOL    HW118302   1.482   2.171   3.043
 5801SOL    HW218303   1.425   2.184   3.196
 5802SOL     OW18304   0.042   6.580   2.714
 5802SOL    HW118305   0.090   6.646   2.771
 5802SOL    HW218306   0.028   6.618   2.623
 5803SOL     OW18307   0.073   6.701   4.468
 5803SOL    HW118308   0.104   6.678   4.560
 5803SOL    HW218309   0.019   6.625   4.431
 5804SOL     OW18310   6.064   2.453   3.290
 5804SOL    HW118311   5.999   2.529   3.291
 5804SOL    HW218312   6.015   2.366   3.297
 5805SOL     OW18313   0.820   2.019   1.624
 5805SOL    HW118314   0.731   2.058   1.647
 5805SOL    HW218315   0.844   1.949   1.690
 5806SOL     OW18316   6.773   4.147   1.159
 5806SOL    HW118317   6.733   4.154   1.251
 5806SOL    HW218318   6.825   4.230   1.139
 5807SOL     OW18319   1.093   0.751   3.009
 5807SOL    HW118320   1.149   0.737   3.091
 5807SOL    HW218321   1.116   0.682   2.940
 5808SOL     OW18322   6.141   5.731   5.815
 5808SOL    HW118323   6.215   5.749   5.880
 5808SOL    HW218324   6.061   5.699   5.865
 5809SOL     OW18325   6.406   3.305   5.135
 5809SOL    HW118326   6.369   3.357   5.212
 5809SOL    HW218327   6.505   3.319   5.131
 5810SOL     OW18328   0.876   6.053   5.091
 5810SOL    HW118329   0.781   6.085   5.083
 5810SOL    HW218330   0.937   6.131   5.094
 5811SOL     OW18331   3.306   5.115   0.294
 5811SOL    HW118332   3.392   5.097   0.342
 5811SOL    HW218333   3.234   5.056   0.331
 5812SOL     OW18334   6.326   1.851   5.950
 5812SOL    HW118335   6.379   1.783   5.901
 5812SOL    HW218336   6.296   1.813   6.038
 5813SOL     OW18337   6.659   5.772   0.810
 5813SOL    HW118338   6.665   5.742   0.905
 5813SOL    HW218339   6.623   5.697   0.754
 5814SOL     OW18340   4.876   2.015   2.360
 5814SOL    HW118341   4.932   1.980   2.285
 5814SOL    HW218342   4.867   1.945   2.431
 5815SOL     OW18343   0.288   4.434   4.765
 5815SOL    HW118344   0.374   4.483   4.748
 5815SOL    HW218345   0.270   4.434   4.864
 5816SOL     OW18346   6.955   3.926   1.334
 5816SOL    HW118347   6.924   4.015   1.300
 5816SOL    HW218348   6.882   3.859   1.322
 5817SOL     OW18349   6.813   2.534   3.520
 5817SOL    HW118350   6.814   2.440   3.554
 5817SOL    HW218351   6.810   2.533   3.420
 5818SOL     OW18352   2.843   0.984   3.869
 5818SOL    HW118353   2.861   0.898   3.821
 5818SOL    HW218354   2.753   0.979   3.914
 5819SOL     OW18355   4.149   4.573   1.678
 5819SOL    HW118356   4.202   4.566   1.763
 5819SOL    HW218357   4.051   4.576   1.700
 5820SOL     OW18358   0.698   6.150   2.236
 5820SOL    HW118359   0.754   6.233   2.238
 5820SOL    HW218360   0.692   6.111   2.328
 5821SOL     OW18361   4.606   6.075   1.709
 5821SOL    HW118362   4.562   6.046   1.795
 5821SOL    HW218363   4.665   6.001   1.676
 5822SOL     OW18364   1.128   3.918   3.232
 5822SOL    HW118365   1.193   3.843   3.244
 5822SOL    HW218366   1.158   3.977   3.158
 5823SOL     OW18367   1.858   6.480   4.889
 5823SOL    HW118368   1.837   6.575   4.867
 5823SOL    HW218369   1.887   6.432   4.806
 5824SOL     OW18370   1.797   5.661   2.209
 5824SOL    HW118371   1.719   5.665   2.272
 5824SOL    HW218372   1.846   5.748   2.213
 5825SOL     OW18373   3.457   2.031   4.659
 5825SOL    HW118374   3.556   2.042   4.654
 5825SOL    HW218375   3.424   2.063   4.748
 5826SOL     OW18376   1.613   6.311   5.997
 5826SOL    HW118377   1.562   6.226   5.982
 5826SOL    HW218378   1.595   6.375   5.922
 5827SOL     OW18379   1.465   4.865   4.146
 5827SOL    HW118380   1.387   4.875   4.208
 5827SOL    HW218381   1.499   4.771   4.150
 5828SOL     OW18382   4.605   0.239   5.144
 5828SOL    HW118383   4.586   0.198   5.055
 5828SOL    HW218384   4.526   0.228   5.205
 5829SOL     OW18385   2.050   1.290   2.725
 5829SOL    HW118386   2.033   1.306   2.823
 5829SOL    HW218387   2.044   1.193   2.706
 5830SOL     OW18388   5.034   5.092   4.211
 5830SOL    HW118389   5.050   5.178   4.261
 5830SOL    HW218390   4.945   5.055   4.237
 5831SOL     OW18391   2.443   1.938   3.645
 5831SOL    HW118392   2.496   1.886   3.579
 5831SOL    HW218393   2.499   1.955   3.727
 5832SOL     OW18394   3.057   5.463   3.206
 5832SOL    HW118395   3.061   5.376   3.157
 5832SOL    HW218396   3.088   5.450   3.300
 5833SOL     OW18397   2.315   4.616   1.611
 5833SOL    HW118398   2.391   4.661   1.659
 5833SOL    HW218399   2.229   4.641   1.655
 5834SOL     OW18400   6.249   1.350   6.743
 5834SOL    HW118401   6.265   1.415   6.670
 5834SOL    HW218402   6.166   1.376   6.793
 5835SOL     OW18403   3.783   0.884   3.520
 5835SOL    HW118404   3.775   0.971   3.471
 5835SOL    HW218405   3.717   0.819   3.483
 5836SOL     OW18406   6.143   4.550   1.326
 5836SOL    HW118407   6.182   4.493   1.398
 5836SOL    HW218408   6.057   4.591   1.358
 5837SOL     OW18409   2.058   4.197   7.000
 5837SOL    HW118410   1.994   4.274   7.001
 5837SOL    HW218411   2.019   4.121   6.949
 5838SOL     OW18412   3.033   3.270   0.699
 5838SOL    HW118413   3.089   3.262   0.781
 5838SOL    HW218414   2.981   3.186   0.685
 5839SOL     OW18415   2.802   1.892   0.983
 5839SOL    HW118416   2.704   1.888   1.006
 5839SOL    HW218417   2.820   1.833   0.905
 5840SOL     OW18418   6.136   3.623   2.238
 5840SOL    HW118419   6.076   3.619   2.318
 5840SOL    HW218420   6.086   3.658   2.159
 5841SOL     OW18421   5.123   1.217   0.148
 5841SOL    HW118422   5.212   1.263   0.148
 5841SOL    HW218423   5.065   1.258   0.218
 5842SOL     OW18424   3.755   2.002   2.254
 5842SOL    HW118425   3.687   1.929   2.264
 5842SOL    HW218426   3.744   2.046   2.164
 5843SOL     OW18427   2.978   2.388   1.405
 5843SOL    HW118428   3.002   2.410   1.500
 5843SOL    HW218429   2.983   2.289   1.391
 5844SOL     OW18430   6.310   5.339   5.028
 5844SOL    HW118431   6.403   5.353   5.063
 5844SOL    HW218432   6.309   5.352   4.929
 5845SOL     OW18433   2.061   6.211   3.034
 5845SOL    HW118434   2.012   6.130   3.063
 5845SOL    HW218435   1.996   6.283   3.009
 5846SOL     OW18436   0.475   4.045   5.403
 5846SOL    HW118437   0.443   3.976   5.339
 5846SOL    HW218438   0.565   4.017   5.439
 5847SOL     OW18439   1.792   3.776   5.497
 5847SOL    HW118440   1.831   3.849   5.554
 5847SOL    HW218441   1.858   3.750   5.427
 5848SOL     OW18442   3.211   6.723   2.044
 5848SOL    HW118443   3.264   6.781   1.982
 5848SOL    HW218444   3.156   6.781   2.105
 5849SOL     OW18445   2.924   6.225   6.459
 5849SOL    HW118446   2.907   6.210   6.361
 5849SOL    HW218447   2.846   6.191   6.512
 5850SOL     OW18448   5.409   2.304   1.157
 5850SOL    HW118449   5.317   2.304   1.120
 5850SOL    HW218450   5.405   2.327   1.255
 5851SOL     OW18451   1.223   2.685   6.110
 5851SOL    HW118452   1.231   2.762   6.046
 5851SOL    HW218453   1.312   2.641   6.121
 5852SOL     OW18454   4.399   4.959   3.225
 5852SOL    HW118455   4.319   4.905   3.200
 5852SOL    HW218456   4.432   4.931   3.315
 5853SOL     OW18457   4.262   4.824   7.001
 5853SOL    HW118458   4.361   4.823   7.013
 5853SOL    HW218459   4.237   4.893   6.933
 5854SOL     OW18460   2.477   4.213   5.342
 5854SOL    HW118461   2.463   4.133   5.285
 5854SOL    HW218462   2.545   4.273   5.300
 5855SOL     OW18463   1.407   2.295   4.573
 5855SOL    HW118464   1.501   2.307   4.541
 5855SOL    HW218465   1.344   2.331   4.504
 5856SOL     OW18466   0.278   0.817   2.245
 5856SOL    HW118467   0.324   0.809   2.333
 5856SOL    HW218468   0.282   0.729   2.197
 5857SOL     OW18469   6.507   5.961   6.886
 5857SOL    HW118470   6.547   6.053   6.886
 5857SOL    HW218471   6.519   5.919   6.796
 5858SOL     OW18472   2.510   1.554   1.301
 5858SOL    HW118473   2.411   1.563   1.309
 5858SOL    HW218474   2.544   1.491   1.370
 5859SOL     OW18475   6.332   4.808   1.305
 5859SOL    HW118476   6.422   4.835   1.338
 5859SOL    HW218477   6.297   4.880   1.244
 5860SOL     OW18478   1.696   2.626   1.554
 5860SOL    HW118479   1.728   2.548   1.500
 5860SOL    HW218480   1.597   2.623   1.562
 5861SOL     OW18481   5.040   6.286   4.669
 5861SOL    HW118482   4.977   6.255   4.741
 5861SOL    HW218483   4.988   6.309   4.587
 5862SOL     OW18484   0.308   5.290   1.296
 5862SOL    HW118485   0.391   5.238   1.315
 5862SOL    HW218486   0.231   5.250   1.347
 5863SOL     OW18487   4.176   6.823   5.838
 5863SOL    HW118488   4.220   6.906   5.871
 5863SOL    HW218489   4.208   6.802   5.746
 5864SOL     OW18490   3.716   3.879   3.458
 5864SOL    HW118491   3.693   3.960   3.513
 5864SOL    HW218492   3.642   3.812   3.465
 5865SOL     OW18493   6.769   6.467   1.290
 5865SOL    HW118494   6.796   6.462   1.193
 5865SOL    HW218495   6.674   6.440   1.300
 5866SOL     OW18496   2.905   3.468   3.635
 5866SOL    HW118497   2.980   3.466   3.701
 5866SOL    HW218498   2.843   3.391   3.652
 5867SOL     OW18499   4.744   1.307   0.579
 5867SOL    HW118500   4.700   1.223   0.544
 5867SOL    HW218501   4.823   1.329   0.522
 5868SOL     OW18502   1.351   0.944   0.498
 5868SOL    HW118503   1.348   1.022   0.560
 5868SOL    HW218504   1.278   0.953   0.430
 5869SOL     OW18505   2.266   5.303   3.613
 5869SOL    HW118506   2.353   5.350   3.602
 5869SOL    HW218507   2.270   5.242   3.692
 5870SOL     OW18508   3.985   6.230   3.519
 5870SOL    HW118509   3.984   6.330   3.516
 5870SOL    HW218510   3.893   6.195   3.502
 5871SOL     OW18511   3.851   3.711   3.282
 5871SOL    HW118512   3.876   3.639   3.347
 5871SOL    HW218513   3.788   3.775   3.327
 5872SOL     OW18514   3.915   5.164   1.562
 5872SOL    HW118515   3.930   5.253   1.605
 5872SOL    HW218516   3.825   5.162   1.520
 5873SOL     OW18517   3.955   6.936   2.561
 5873SOL    HW118518   4.048   6.910   2.534
 5873SOL    HW218519   3.932   0.007   2.520
 5874SOL     OW18520   0.469   3.513   4.451
 5874SOL    HW118521   0.514   3.569   4.382
 5874SOL    HW218522   0.396   3.459   4.408
 5875SOL     OW18523   4.266   2.675   1.294
 5875SOL    HW118524   4.279   2.662   1.195
 5875SOL    HW218525   4.286   2.770   1.317
 5876SOL     OW18526   3.581   3.802   2.634
 5876SOL    HW118527   3.567   3.866   2.558
 5876SOL    HW218528   3.546   3.844   2.718
 5877SOL     OW18529   4.549   4.852   1.670
 5877SOL    HW118530   4.555   4.950   1.689
 5877SOL    HW218531   4.517   4.838   1.577
 5878SOL     OW18532   0.531   3.612   2.065
 5878SOL    HW118533   0.529   3.513   2.050
 5878SOL    HW218534   0.473   3.656   1.996
 5879SOL     OW18535   2.026   4.390   4.962
 5879SOL    HW118536   2.079   4.307   4.946
 5879SOL    HW218537   1.967   4.377   5.041
 5880SOL     OW18538   2.554   5.255   0.283
 5880SOL    HW118539   2.587   5.321   0.216
 5880SOL    HW218540   2.626   5.190   0.304
 5881SOL     OW18541   1.495   6.058   4.316
 5881SOL    HW118542   1.551   6.012   4.385
 5881SOL    HW218543   1.552   6.084   4.238
 5882SOL     OW18544   5.171   0.392   3.517
 5882SOL    HW118545   5.141   0.298   3.500
 5882SOL    HW218546   5.259   0.407   3.473
 5883SOL     OW18547   0.713   3.172   5.614
 5883SOL    HW118548   0.811   3.195   5.615
 5883SOL    HW218549   0.692   3.117   5.695
 5884SOL     OW18550   0.372   1.290   3.550
 5884SOL    HW118551   0.439   1.272   3.478
 5884SOL    HW218552   0.371   1.387   3.571
 5885SOL     OW18553   6.111   5.721   0.299
 5885SOL    HW118554   6.097   5.731   0.200
 5885SOL    HW218555   6.175   5.790   0.331
 5886SOL     OW18556   5.776   1.798   5.346
 5886SOL    HW118557   5.766   1.892   5.314
 5886SOL    HW218558   5.846   1.752   5.291
 5887SOL     OW18559   3.648   0.074   2.564
 5887SOL    HW118560   3.645   0.092   2.662
 5887SOL    HW218561   3.559   0.095   2.523
 5888SOL     OW18562   6.972   6.014   1.625
 5888SOL    HW118563   7.016   6.007   1.714
 5888SOL    HW218564   6.918   6.098   1.620
 5889SOL     OW18565   2.973   0.133   1.241
 5889SOL    HW118566   3.018   0.066   1.300
 5889SOL    HW218567   2.915   0.086   1.174
 5890SOL     OW18568   4.113   5.247   5.800
 5890SOL    HW118569   4.167   5.163   5.790
 5890SOL    HW218570   4.069   5.248   5.890
 5891SOL     OW18571   2.232   2.789   6.725
 5891SOL    HW118572   2.254   2.779   6.822
 5891SOL    HW218573   2.313   2.822   6.676
 5892SOL     OW18574   3.000   5.433   1.435
 5892SOL    HW118575   3.036   5.436   1.342
 5892SOL    HW218576   2.938   5.355   1.444
 5893SOL     OW18577   0.341   2.817   2.112
 5893SOL    HW118578   0.383   2.790   2.199
 5893SOL    HW218579   0.411   2.859   2.054
 5894SOL     OW18580   1.890   3.989   3.537
 5894SOL    HW118581   1.913   4.086   3.530
 5894SOL    HW218582   1.939   3.937   3.466
 5895SOL     OW18583   4.935   5.209   2.768
 5895SOL    HW118584   4.962   5.192   2.863
 5895SOL    HW218585   4.863   5.279   2.766
 5896SOL     OW18586   5.857   2.159   5.653
 5896SOL    HW118587   5.791   2.089   5.680
 5896SOL    HW218588   5.824   2.207   5.572
 5897SOL     OW18589   4.394   4.131   0.472
 5897SOL    HW118590   4.384   4.114   0.374
 5897SOL    HW218591   4.488   4.108   0.500
 5898SOL     OW18592   1.393   5.589   2.617
 5898SOL    HW118593   1.308   5.632   2.648
 5898SOL    HW218594   1.467   5.656   2.621
 5899SOL     OW18595   5.200   0.875   3.936
 5899SOL    HW118596   5.197   0.961   3.884
 5899SOL    HW218597   5.294   0.855   3.962
 5900SOL     OW18598   3.458   5.139   1.705
 5900SOL    HW118599   3.431   5.120   1.610
 5900SOL    HW218600   3.382   5.182   1.753
 5901SOL     OW18601   2.966   6.511   3.382
 5901SOL    HW118602   2.956   6.535   3.286
 5901SOL    HW218603   3.018   6.426   3.390
 5902SOL     OW18604   6.596   1.918   0.464
 5902SOL    HW118605   6.552   1.866   0.391
 5902SOL    HW218606   6.543   2.000   0.483
 5903SOL     OW18607   0.540   1.686   6.511
 5903SOL    HW118608   0.581   1.776   6.494
 5903SOL    HW218609   0.531   1.671   6.609
 5904SOL     OW18610   0.301   2.985   1.683
 5904SOL    HW118611   0.320   3.015   1.776
 5904SOL    HW218612   0.324   2.888   1.674
 5905SOL     OW18613   6.638   3.741   2.201
 5905SOL    HW118614   6.589   3.775   2.281
 5905SOL    HW218615   6.575   3.688   2.144
 5906SOL     OW18616   6.451   1.477   3.370
 5906SOL    HW118617   6.470   1.389   3.328
 5906SOL    HW218618   6.430   1.465   3.467
 5907SOL     OW18619   1.683   1.015   2.114
 5907SOL    HW118620   1.620   0.937   2.117
 5907SOL    HW218621   1.631   1.100   2.111
 5908SOL     OW18622   0.511   2.709   5.358
 5908SOL    HW118623   0.569   2.727   5.437
 5908SOL    HW218624   0.488   2.796   5.314
 5909SOL     OW18625   6.847   4.295   6.412
 5909SOL    HW118626   6.844   4.212   6.356
 5909SOL    HW218627   6.782   4.361   6.375
 5910SOL     OW18628   1.555   1.555   3.341
 5910SOL    HW118629   1.508   1.565   3.429
 5910SOL    HW218630   1.642   1.509   3.355
 5911SOL     OW18631   5.856   4.868   6.512
 5911SOL    HW118632   5.895   4.936   6.451
 5911SOL    HW218633   5.796   4.807   6.461
 5912SOL     OW18634   0.746   1.947   2.503
 5912SOL    HW118635   0.656   1.971   2.466
 5912SOL    HW218636   0.734   1.891   2.586
 5913SOL     OW18637   0.057   3.685   1.210
 5913SOL    HW118638   0.156   3.681   1.226
 5913SOL    HW218639   0.020   3.766   1.256
 5914SOL     OW18640   1.480   6.767   0.686
 5914SOL    HW118641   1.447   6.673   0.694
 5914SOL    HW218642   1.510   6.784   0.592
 5915SOL     OW18643   4.809   0.479   5.556
 5915SOL    HW118644   4.833   0.406   5.620
 5915SOL    HW218645   4.752   0.546   5.603
 5916SOL     OW18646   0.836   0.738   3.129
 5916SOL    HW118647   0.928   0.698   3.134
 5916SOL    HW218648   0.841   0.829   3.089
 5917SOL     OW18649   3.770   3.281   0.445
 5917SOL    HW118650   3.757   3.341   0.525
 5917SOL    HW218651   3.800   3.191   0.476
 5918SOL     OW18652   3.308   6.471   5.212
 5918SOL    HW118653   3.334   6.375   5.196
 5918SOL    HW218654   3.249   6.502   5.138
 5919SOL     OW18655   2.928   3.792   4.732
 5919SOL    HW118656   2.859   3.744   4.677
 5919SOL    HW218657   2.933   3.750   4.823
 5920SOL     OW18658   1.579   0.380   5.477
 5920SOL    HW118659   1.542   0.473   5.472
 5920SOL    HW218660   1.590   0.354   5.573
 5921SOL     OW18661   2.918   4.401   1.200
 5921SOL    HW118662   2.955   4.395   1.108
 5921SOL    HW218663   2.890   4.310   1.230
 5922SOL     OW18664   5.026   2.570   1.994
 5922SOL    HW118665   4.958   2.521   1.938
 5922SOL    HW218666   5.112   2.520   1.992
 5923SOL     OW18667   5.660   0.877   2.337
 5923SOL    HW118668   5.575   0.921   2.364
 5923SOL    HW218669   5.649   0.778   2.339
 5924SOL     OW18670   0.406   5.934   3.211
 5924SOL    HW118671   0.342   5.959   3.138
 5924SOL    HW218672   0.496   5.972   3.190
 5925SOL     OW18673   4.234   0.724   1.018
 5925SOL    HW118674   4.275   0.810   1.050
 5925SOL    HW218675   4.145   0.712   1.062
 5926SOL     OW18676   5.010   3.345   3.227
 5926SOL    HW118677   4.975   3.423   3.279
 5926SOL    HW218678   4.984   3.260   3.273
 5927SOL     OW18679   1.333   0.223   1.647
 5927SOL    HW118680   1.303   0.318   1.653
 5927SOL    HW218681   1.420   0.218   1.598
 5928SOL     OW18682   3.214   0.028   6.830
 5928SOL    HW118683   3.283   0.037   6.902
 5928SOL    HW218684   3.207   6.950   6.802
 5929SOL     OW18685   1.298   0.876   1.362
 5929SOL    HW118686   1.327   0.861   1.457
 5929SOL    HW218687   1.308   0.791   1.310
 5930SOL     OW18688   0.237   4.950   1.501
 5930SOL    HW118689   0.284   4.882   1.444
 5930SOL    HW218690   0.149   4.912   1.530
 5931SOL     OW18691   4.565   0.717   4.887
 5931SOL    HW118692   4.558   0.812   4.917
 5931SOL    HW218693   4.611   0.663   4.957
 5932SOL     OW18694   2.635   5.426   0.846
 5932SOL    HW118695   2.705   5.365   0.883
 5932SOL    HW218696   2.583   5.378   0.776
 5933SOL     OW18697   6.906   5.614   4.243
 5933SOL    HW118698   6.834   5.661   4.295
 5933SOL    HW218699   6.954   5.551   4.303
 5934SOL     OW18700   2.972   4.599   6.971
 5934SOL    HW118701   3.050   4.662   6.975
 5934SOL    HW218702   2.950   4.569   0.047
 5935SOL     OW18703   1.410   0.864   5.503
 5935SOL    HW118704   1.344   0.909   5.444
 5935SOL    HW218705   1.364   0.830   5.585
 5936SOL     OW18706   4.116   3.141   2.154
 5936SOL    HW118707   4.202   3.095   2.132
 5936SOL    HW218708   4.049   3.121   2.082
 5937SOL     OW18709   0.691   2.709   0.623
 5937SOL    HW118710   0.717   2.649   0.699
 5937SOL    HW218711   0.598   2.688   0.594
 5938SOL     OW18712   0.345   3.292   4.270
 5938SOL    HW118713   0.359   3.311   4.172
 5938SOL    HW218714   0.253   3.257   4.284
 5939SOL     OW18715   4.854   1.744   5.782
 5939SOL    HW118716   4.809   1.834   5.784
 5939SOL    HW218717   4.937   1.749   5.725
 5940SOL     OW18718   4.742   4.983   1.151
 5940SOL    HW118719   4.691   4.940   1.076
 5940SOL    HW218720   4.808   4.917   1.187
 5941SOL     OW18721   1.702   1.908   3.596
 5941SOL    HW118722   1.740   1.816   3.588
 5941SOL    HW218723   1.603   1.904   3.589
 5942SOL     OW18724   4.807   2.251   6.476
 5942SOL    HW118725   4.772   2.323   6.535
 5942SOL    HW218726   4.791   2.275   6.380
 5943SOL     OW18727   1.915   4.422   2.187
 5943SOL    HW118728   1.832   4.472   2.209
 5943SOL    HW218729   1.995   4.476   2.213
 5944SOL     OW18730   6.724   3.194   5.715
 5944SOL    HW118731   6.780   3.128   5.765
 5944SOL    HW218732   6.721   3.169   5.619
 5945SOL     OW18733   0.618   6.607   4.545
 5945SOL    HW118734   0.629   6.518   4.500
 5945SOL    HW218735   0.705   6.656   4.544
 5946SOL     OW18736   3.184   2.740   6.774
 5946SOL    HW118737   3.111   2.784   6.826
 5946SOL    HW218738   3.158   2.735   6.678
 5947SOL     OW18739   3.314   3.753   5.593
 5947SOL    HW118740   3.324   3.848   5.563
 5947SOL    HW218741   3.228   3.716   5.557
 5948SOL     OW18742   4.699   3.531   1.236
 5948SOL    HW118743   4.638   3.582   1.296
 5948SOL    HW218744   4.711   3.439   1.271
 5949SOL     OW18745   1.419   4.985   4.500
 5949SOL    HW118746   1.505   4.935   4.488
 5949SOL    HW218747   1.435   5.067   4.554
 5950SOL     OW18748   1.608   6.466   5.065
 5950SOL    HW118749   1.592   6.563   5.049
 5950SOL    HW218750   1.603   6.446   5.162
 5951SOL     OW18751   0.161   2.946   6.289
 5951SOL    HW118752   0.081   2.968   6.233
 5951SOL    HW218753   0.239   2.928   6.228
 5952SOL     OW18754   3.634   4.103   2.009
 5952SOL    HW118755   3.563   4.039   1.980
 5952SOL    HW218756   3.695   4.057   2.074
 5953SOL     OW18757   0.098   2.833   6.699
 5953SOL    HW118758   0.078   2.742   6.734
 5953SOL    HW218759   0.177   2.871   6.748
 5954SOL     OW18760   2.601   5.155   3.582
 5954SOL    HW118761   2.527   5.094   3.553
 5954SOL    HW218762   2.687   5.103   3.587
 5955SOL     OW18763   4.745   3.164   0.330
 5955SOL    HW118764   4.786   3.172   0.421
 5955SOL    HW218765   4.687   3.243   0.313
 5956SOL     OW18766   4.231   2.117   6.767
 5956SOL    HW118767   4.312   2.175   6.771
 5956SOL    HW218768   4.259   2.021   6.759
 5957SOL     OW18769   6.940   2.826   3.697
 5957SOL    HW118770   6.907   2.852   3.606
 5957SOL    HW218771   6.958   2.728   3.699
 5958SOL     OW18772   2.491   6.361   1.924
 5958SOL    HW118773   2.570   6.336   1.980
 5958SOL    HW218774   2.411   6.307   1.953
 5959SOL     OW18775   4.961   4.412   3.050
 5959SOL    HW118776   4.902   4.392   2.972
 5959SOL    HW218777   4.954   4.339   3.118
 5960SOL     OW18778   6.568   6.784   6.495
 5960SOL    HW118779   6.626   6.814   6.570
 5960SOL    HW218780   6.586   6.687   6.476
 5961SOL     OW18781   1.567   2.132   3.421
 5961SOL    HW118782   1.659   2.159   3.395
 5961SOL    HW218783   1.536   2.056   3.363
 5962SOL     OW18784   5.456   5.325   0.474
 5962SOL    HW118785   5.368   5.319   0.520
 5962SOL    HW218786   5.459   5.260   0.398
 5963SOL     OW18787   2.347   4.182   1.239
 5963SOL    HW118788   2.298   4.130   1.309
 5963SOL    HW218789   2.288   4.254   1.203
 5964SOL     OW18790   1.384   6.410   4.078
 5964SOL    HW118791   1.405   6.500   4.116
 5964SOL    HW218792   1.292   6.412   4.039
 5965SOL     OW18793   1.986   0.251   1.582
 5965SOL    HW118794   1.893   0.287   1.588
 5965SOL    HW218795   1.988   0.158   1.619
 5966SOL     OW18796   2.822   1.803   5.309
 5966SOL    HW118797   2.801   1.778   5.403
 5966SOL    HW218798   2.753   1.763   5.248
 5967SOL     OW18799   4.689   1.996   5.737
 5967SOL    HW118800   4.590   1.984   5.746
 5967SOL    HW218801   4.713   2.092   5.754
 5968SOL     OW18802   6.308   1.603   2.997
 5968SOL    HW118803   6.351   1.567   2.914
 5968SOL    HW218804   6.249   1.680   2.972
 5969SOL     OW18805   5.420   6.385   1.658
 5969SOL    HW118806   5.401   6.447   1.582
 5969SOL    HW218807   5.466   6.303   1.624
 5970SOL     OW18808   6.466   1.471   0.382
 5970SOL    HW118809   6.436   1.435   0.470
 5970SOL    HW218810   6.388   1.479   0.320
 5971SOL     OW18811   6.654   5.204   3.970
 5971SOL    HW118812   6.700   5.184   3.883
 5971SOL    HW218813   6.680   5.296   4.001
 5972SOL     OW18814   6.457   5.271   0.109
 5972SOL    HW118815   6.405   5.220   0.178
 5972SOL    HW218816   6.545   5.299   0.148
 5973SOL     OW18817   3.537   0.725   1.978
 5973SOL    HW118818   3.537   0.629   2.006
 5973SOL    HW218819   3.564   0.783   2.055
 5974SOL     OW18820   5.630   0.680   4.790
 5974SOL    HW118821   5.537   0.643   4.780
 5974SOL    HW218822   5.638   0.764   4.737
 5975SOL     OW18823   4.067   4.437   0.573
 5975SOL    HW118824   4.025   4.519   0.533
 5975SOL    HW218825   4.117   4.462   0.655
 5976SOL     OW18826   0.685   1.890   6.419
 5976SOL    HW118827   0.777   1.858   6.437
 5976SOL    HW218828   0.689   1.966   6.353
 5977SOL     OW18829   0.645   5.702   1.539
 5977SOL    HW118830   0.736   5.661   1.528
 5977SOL    HW218831   0.590   5.681   1.458
 5978SOL     OW18832   2.913   3.703   6.126
 5978SOL    HW118833   2.975   3.648   6.069
 5978SOL    HW218834   2.940   3.694   6.222
 5979SOL     OW18835   6.072   0.838   1.715
 5979SOL    HW118836   6.133   0.761   1.699
 5979SOL    HW218837   5.981   0.804   1.739
 5980SOL     OW18838   3.963   2.558   0.412
 5980SOL    HW118839   3.983   2.547   0.314
 5980SOL    HW218840   4.048   2.581   0.460
 5981SOL     OW18841   4.208   2.362   0.772
 5981SOL    HW118842   4.176   2.300   0.844
 5981SOL    HW218843   4.308   2.361   0.769
 5982SOL     OW18844   5.867   2.911   1.200
 5982SOL    HW118845   5.824   3.000   1.215
 5982SOL    HW218846   5.806   2.839   1.234
 5983SOL     OW18847   0.335   1.890   3.573
 5983SOL    HW118848   0.286   1.840   3.501
 5983SOL    HW218849   0.422   1.845   3.591
 5984SOL     OW18850   6.119   5.615   1.802
 5984SOL    HW118851   6.128   5.530   1.856
 5984SOL    HW218852   6.114   5.693   1.864
 5985SOL     OW18853   0.206   4.289   2.533
 5985SOL    HW118854   0.140   4.334   2.593
 5985SOL    HW218855   0.258   4.359   2.483
 5986SOL     OW18856   3.823   3.521   3.039
 5986SOL    HW118857   3.816   3.481   3.131
 5986SOL    HW218858   3.799   3.452   2.971
 5987SOL     OW18859   0.230   5.931   4.455
 5987SOL    HW118860   0.228   5.832   4.474
 5987SOL    HW218861   0.155   5.955   4.395
 5988SOL     OW18862   1.914   1.975   0.706
 5988SOL    HW118863   1.865   1.972   0.619
 5988SOL    HW218864   1.938   2.069   0.729
 5989SOL     OW18865   2.501   6.378   5.827
 5989SOL    HW118866   2.413   6.331   5.824
 5989SOL    HW218867   2.505   6.446   5.754
 5990SOL     OW18868   2.420   4.090   1.553
 5990SOL    HW118869   2.440   4.024   1.480
 5990SOL    HW218870   2.324   4.118   1.547
 5991SOL     OW18871   5.350   1.245   0.683
 5991SOL    HW118872   5.354   1.180   0.759
 5991SOL    HW218873   5.258   1.246   0.644
 5992SOL     OW18874   2.644   4.669   2.627
 5992SOL    HW118875   2.559   4.621   2.650
 5992SOL    HW218876   2.656   4.668   2.528
 5993SOL     OW18877   5.742   1.004   0.095
 5993SOL    HW118878   5.833   1.023   0.057
 5993SOL    HW218879   5.727   1.059   0.177
 5994SOL     OW18880   0.850   4.753   1.176
 5994SOL    HW118881   0.776   4.709   1.228
 5994SOL    HW218882   0.859   4.848   1.206
 5995SOL     OW18883   5.460   4.643   1.096
 5995SOL    HW118884   5.397   4.648   1.173
 5995SOL    HW218885   5.437   4.564   1.039
 5996SOL     OW18886   2.456   1.088   1.924
 5996SOL    HW118887   2.543   1.056   1.888
 5996SOL    HW218888   2.469   1.119   2.019
 5997SOL     OW18889   6.665   0.784   4.662
 5997SOL    HW118890   6.653   0.733   4.577
 5997SOL    HW218891   6.599   0.860   4.665
 5998SOL     OW18892   5.875   6.278   0.309
 5998SOL    HW118893   5.857   6.333   0.391
 5998SOL    HW218894   5.806   6.299   0.239
 5999SOL     OW18895   5.813   3.013   0.528
 5999SOL    HW118896   5.896   3.005   0.584
 5999SOL    HW218897   5.771   3.103   0.544
 6000SOL     OW18898   0.300   5.266   1.975
 6000SOL    HW118899   0.355   5.349   1.984
 6000SOL    HW218900   0.302   5.235   1.880
 6001SOL     OW18901   0.290   6.521   6.036
 6001SOL    HW118902   0.279   6.453   5.962
 6001SOL    HW218903   0.331   6.477   6.115
 6002SOL     OW18904   5.408   4.952   4.604
 6002SOL    HW118905   5.475   5.019   4.637
 6002SOL    HW218906   5.392   4.883   4.675
 6003SOL     OW18907   2.332   0.930   4.788
 6003SOL    HW118908   2.351   1.022   4.824
 6003SOL    HW218909   2.381   0.918   4.701
 6004SOL     OW18910   5.323   2.898   5.010
 6004SOL    HW118911   5.340   2.882   5.107
 6004SOL    HW218912   5.346   2.992   4.987
 6005SOL     OW18913   3.825   3.771   0.349
 6005SOL    HW118914   3.841   3.705   0.275
 6005SOL    HW218915   3.807   3.722   0.434
 6006SOL     OW18916   2.801   6.256   5.819
 6006SOL    HW118917   2.703   6.276   5.812
 6006SOL    HW218918   2.845   6.276   5.731
 6007SOL     OW18919   3.157   6.705   4.231
 6007SOL    HW118920   3.060   6.683   4.223
 6007SOL    HW218921   3.208   6.662   4.156
 6008SOL     OW18922   2.293   3.970   6.753
 6008SOL    HW118923   2.206   3.938   6.715
 6008SOL    HW218924   2.290   3.963   6.852
 6009SOL     OW18925   2.243   5.663   2.248
 6009SOL    HW118926   2.180   5.720   2.300
 6009SOL    HW218927   2.273   5.587   2.305
 6010SOL     OW18928   0.252   5.412   5.835
 6010SOL    HW118929   0.340   5.426   5.881
 6010SOL    HW218930   0.188   5.483   5.864
 6011SOL     OW18931   5.891   1.850   3.512
 6011SOL    HW118932   5.844   1.838   3.599
 6011SOL    HW218933   5.973   1.793   3.511
 6012SOL     OW18934   6.615   0.987   5.688
 6012SOL    HW118935   6.695   1.008   5.744
 6012SOL    HW218936   6.533   0.991   5.745
 6013SOL     OW18937   5.880   1.588   2.598
 6013SOL    HW118938   5.979   1.580   2.607
 6013SOL    HW218939   5.836   1.501   2.620
 6014SOL     OW18940   4.007   3.800   4.309
 6014SOL    HW118941   3.946   3.862   4.358
 6014SOL    HW218942   4.027   3.839   4.219
 6015SOL     OW18943   6.952   0.327   3.517
 6015SOL    HW118944   6.960   0.351   3.614
 6015SOL    HW218945   6.957   0.228   3.506
 6016SOL     OW18946   4.180   2.009   3.906
 6016SOL    HW118947   4.263   2.022   3.851
 6016SOL    HW218948   4.140   2.098   3.926
 6017SOL     OW18949   1.282   2.440   5.113
 6017SOL    HW118950   1.297   2.424   5.015
 6017SOL    HW218951   1.295   2.537   5.133
 6018SOL     OW18952   2.345   0.974   3.901
 6018SOL    HW118953   2.299   1.046   3.952
 6018SOL    HW218954   2.324   0.982   3.804
 6019SOL     OW18955   6.821   2.854   6.380
 6019SOL    HW118956   6.728   2.830   6.353
 6019SOL    HW218957   6.825   2.862   6.480
 6020SOL     OW18958   0.497   5.615   4.742
 6020SOL    HW118959   0.522   5.581   4.833
 6020SOL    HW218960   0.400   5.642   4.742
 6021SOL     OW18961   5.208   0.198   4.033
 6021SOL    HW118962   5.307   0.207   4.016
 6021SOL    HW218963   5.166   0.289   4.033
 6022SOL     OW18964   6.510   3.681   1.414
 6022SOL    HW118965   6.422   3.716   1.446
 6022SOL    HW218966   6.558   3.637   1.490
 6023SOL     OW18967   4.026   0.741   3.217
 6023SOL    HW118968   4.104   0.686   3.187
 6023SOL    HW218969   4.059   0.825   3.260
 6024SOL     OW18970   0.485   6.587   6.737
 6024SOL    HW118971   0.474   6.682   6.768
 6024SOL    HW218972   0.427   6.527   6.792
 6025SOL     OW18973   3.436   0.127   5.807
 6025SOL    HW118974   3.465   0.210   5.759
 6025SOL    HW218975   3.352   0.145   5.857
 6026SOL     OW18976   5.119   6.274   3.618
 6026SOL    HW118977   5.208   6.241   3.649
 6026SOL    HW218978   5.071   6.318   3.695
 6027SOL     OW18979   6.082   4.027   5.740
 6027SOL    HW118980   6.002   4.062   5.787
 6027SOL    HW218981   6.122   4.099   5.682
 6028SOL     OW18982   6.086   5.412   6.525
 6028SOL    HW118983   6.056   5.366   6.441
 6028SOL    HW218984   6.094   5.345   6.599
 6029SOL     OW18985   2.592   1.528   2.371
 6029SOL    HW118986   2.671   1.512   2.430
 6029SOL    HW218987   2.622   1.533   2.276
 6030SOL     OW18988   5.905   3.037   5.117
 6030SOL    HW118989   5.812   3.027   5.082
 6030SOL    HW218990   5.970   3.031   5.042
 6031SOL     OW18991   6.998   0.432   3.785
 6031SOL    HW118992   0.063   0.388   3.819
 6031SOL    HW218993   6.994   0.526   3.818
 6032SOL     OW18994   3.121   0.139   2.910
 6032SOL    HW118995   3.060   0.204   2.864
 6032SOL    HW218996   3.078   0.049   2.915
 6033SOL     OW18997   0.743   1.791   2.730
 6033SOL    HW118998   0.822   1.731   2.722
 6033SOL    HW218999   0.738   1.828   2.823
 6034SOL     OW19000   0.833   0.449   0.863
 6034SOL    HW119001   0.735   0.453   0.887
 6034SOL    HW219002   0.887   0.487   0.938
 6035SOL     OW19003   2.302   1.379   2.646
 6035SOL    HW119004   2.210   1.349   2.672
 6035SOL    HW219005   2.303   1.479   2.636
 6036SOL     OW19006   0.165   3.670   0.179
 6036SOL    HW119007   0.248   3.664   0.124
 6036SOL    HW219008   0.159   3.591   0.239
 6037SOL     OW19009   4.874   0.441   6.640
 6037SOL    HW119010   4.813   0.484   6.707
 6037SOL    HW219011   4.865   0.342   6.645
 6038SOL     OW19012   2.700   1.383   0.175
 6038SOL    HW119013   2.735   1.454   0.115
 6038SOL    HW219014   2.724   1.293   0.139
 6039SOL     OW19015   3.511   2.828   4.398
 6039SOL    HW119016   3.487   2.731   4.390
 6039SOL    HW219017   3.518   2.852   4.494
 6040SOL     OW19018   6.743   0.811   0.727
 6040SOL    HW119019   6.766   0.731   0.672
 6040SOL    HW219020   6.816   0.879   0.720
 6041SOL     OW19021   0.662   3.316   4.521
 6041SOL    HW119022   0.580   3.371   4.538
 6041SOL    HW219023   0.682   3.316   4.424
 6042SOL     OW19024   2.910   5.728   2.850
 6042SOL    HW119025   2.837   5.771   2.904
 6042SOL    HW219026   2.975   5.683   2.911
 6043SOL     OW19027   2.203   4.800   1.028
 6043SOL    HW119028   2.199   4.883   1.084
 6043SOL    HW219029   2.162   4.724   1.078
 6044SOL     OW19030   6.565   4.061   6.854
 6044SOL    HW119031   6.510   3.979   6.838
 6044SOL    HW219032   6.662   4.038   6.852
 6045SOL     OW19033   4.811   1.395   4.224
 6045SOL    HW119034   4.791   1.328   4.153
 6045SOL    HW219035   4.779   1.361   4.313
 6046SOL     OW19036   3.204   3.646   2.690
 6046SOL    HW119037   3.129   3.623   2.751
 6046SOL    HW219038   3.276   3.692   2.741
 6047SOL     OW19039   0.299   1.550   0.787
 6047SOL    HW119040   0.284   1.463   0.834
 6047SOL    HW219041   0.383   1.543   0.732
 6048SOL     OW19042   6.427   5.768   3.999
 6048SOL    HW119043   6.430   5.697   3.929
 6048SOL    HW219044   6.430   5.858   3.956
 6049SOL     OW19045   5.289   4.934   6.783
 6049SOL    HW119046   5.357   4.873   6.824
 6049SOL    HW219047   5.328   5.025   6.772
 6050SOL     OW19048   1.981   5.554   3.210
 6050SOL    HW119049   1.981   5.646   3.172
 6050SOL    HW219050   1.937   5.555   3.299
 6051SOL     OW19051   0.533   1.561   2.757
 6051SOL    HW119052   0.615   1.607   2.789
 6051SOL    HW219053   0.501   1.497   2.826
 6052SOL     OW19054   5.046   6.058   6.696
 6052SOL    HW119055   5.071   6.106   6.612
 6052SOL    HW219056   5.007   6.123   6.761
 6053SOL     OW19057   3.881   1.763   5.662
 6053SOL    HW119058   3.959   1.760   5.599
 6053SOL    HW219059   3.806   1.706   5.625
 6054SOL     OW19060   4.146   3.624   6.603
 6054SOL    HW119061   4.208   3.643   6.679
 6054SOL    HW219062   4.071   3.690   6.604
 6055SOL     OW19063   2.961   4.672   1.466
 6055SOL    HW119064   2.914   4.584   1.471
 6055SOL    HW219065   2.987   4.690   1.371
 6056SOL     OW19066   5.505   6.191   3.211
 6056SOL    HW119067   5.436   6.199   3.139
 6056SOL    HW219068   5.596   6.202   3.171
 6057SOL     OW19069   5.539   1.115   4.263
 6057SOL    HW119070   5.621   1.165   4.293
 6057SOL    HW219071   5.545   1.097   4.165
 6058SOL     OW19072   6.960   2.967   6.159
 6058SOL    HW119073   6.924   2.914   6.236
 6058SOL    HW219074   6.928   2.926   6.073
 6059SOL     OW19075   4.444   2.144   6.353
 6059SOL    HW119076   4.517   2.086   6.387
 6059SOL    HW219077   4.449   2.150   6.253
 6060SOL     OW19078   2.591   2.189   1.135
 6060SOL    HW119079   2.667   2.150   1.188
 6060SOL    HW219080   2.601   2.164   1.039
 6061SOL     OW19081   2.215   4.802   6.560
 6061SOL    HW119082   2.180   4.728   6.618
 6061SOL    HW219083   2.237   4.766   6.469
 6062SOL     OW19084   2.000   2.461   5.171
 6062SOL    HW119085   1.979   2.551   5.132
 6062SOL    HW219086   1.918   2.423   5.213
 6063SOL     OW19087   4.550   3.595   6.270
 6063SOL    HW119088   4.638   3.547   6.274
 6063SOL    HW219089   4.519   3.600   6.175
 6064SOL     OW19090   5.924   6.007   7.007
 6064SOL    HW119091   5.898   6.094   6.966
 6064SOL    HW219092   5.953   6.022   0.085
 6065SOL     OW19093   1.799   5.621   1.506
 6065SOL    HW119094   1.807   5.558   1.583
 6065SOL    HW219095   1.704   5.625   1.476
 6066SOL     OW19096   5.387   5.655   2.755
 6066SOL    HW119097   5.385   5.755   2.746
 6066SOL    HW219098   5.294   5.619   2.747
 6067SOL     OW19099   6.601   4.667   5.375
 6067SOL    HW119100   6.606   4.732   5.451
 6067SOL    HW219101   6.532   4.597   5.395
 6068SOL     OW19102   4.881   1.931   3.500
 6068SOL    HW119103   4.919   1.845   3.466
 6068SOL    HW219104   4.866   1.994   3.424
 6069SOL     OW19105   1.028   5.017   5.679
 6069SOL    HW119106   1.081   5.019   5.764
 6069SOL    HW219107   1.035   5.105   5.633
 6070SOL     OW19108   2.401   0.768   1.440
 6070SOL    HW119109   2.434   0.844   1.384
 6070SOL    HW219110   2.387   0.687   1.383
 6071SOL     OW19111   6.390   6.981   6.539
 6071SOL    HW119112   6.455   6.906   6.521
 6071SOL    HW219113   6.328   6.990   6.462
 6072SOL     OW19114   0.342   2.876   6.840
 6072SOL    HW119115   0.350   2.972   6.868
 6072SOL    HW219116   0.425   2.827   6.867
 6073SOL     OW19117   4.558   4.274   0.071
 6073SOL    HW119118   4.510   4.361   0.059
 6073SOL    HW219119   4.562   4.226   7.000
 6074SOL     OW19120   1.400   6.085   2.324
 6074SOL    HW119121   1.310   6.095   2.368
 6074SOL    HW219122   1.468   6.139   2.373
 6075SOL     OW19123   6.703   6.808   6.797
 6075SOL    HW119124   6.683   6.785   6.892
 6075SOL    HW219125   6.716   6.907   6.788
 6076SOL     OW19126   0.113   6.466   3.187
 6076SOL    HW119127   0.201   6.486   3.231
 6076SOL    HW219128   0.101   6.367   3.180
 6077SOL     OW19129   5.176   6.415   2.721
 6077SOL    HW119130   5.239   6.459   2.785
 6077SOL    HW219131   5.143   6.482   2.655
 6078SOL     OW19132   5.619   4.232   0.635
 6078SOL    HW119133   5.569   4.149   0.658
 6078SOL    HW219134   5.575   4.311   0.679
 6079SOL     OW19135   3.518   1.718   0.084
 6079SOL    HW119136   3.483   1.772   0.161
 6079SOL    HW219137   3.584   1.651   0.119
 6080SOL     OW19138   5.991   3.456   5.670
 6080SOL    HW119139   6.040   3.369   5.669
 6080SOL    HW219140   5.995   3.498   5.580
 6081SOL     OW19141   2.266   4.137   4.148
 6081SOL    HW119142   2.323   4.194   4.208
 6081SOL    HW219143   2.301   4.142   4.055
 6082SOL     OW19144   4.149   1.148   1.000
 6082SOL    HW119145   4.132   1.066   1.054
 6082SOL    HW219146   4.114   1.228   1.048
 6083SOL     OW19147   4.846   0.807   5.502
 6083SOL    HW119148   4.865   0.750   5.422
 6083SOL    HW219149   4.826   0.900   5.473
 6084SOL     OW19150   6.421   4.720   3.381
 6084SOL    HW119151   6.411   4.677   3.291
 6084SOL    HW219152   6.347   4.688   3.441
 6085SOL     OW19153   0.606   6.310   0.962
 6085SOL    HW119154   0.594   6.410   0.959
 6085SOL    HW219155   0.589   6.272   0.871
 6086SOL     OW19156   5.048   3.320   0.258
 6086SOL    HW119157   5.038   3.283   0.351
 6086SOL    HW219158   5.075   3.246   0.196
 6087SOL     OW19159   4.202   0.820   0.034
 6087SOL    HW119160   4.302   0.813   0.026
 6087SOL    HW219161   4.168   0.881   6.980
 6088SOL     OW19162   4.090   6.226   2.373
 6088SOL    HW119163   4.121   6.149   2.317
 6088SOL    HW219164   3.991   6.221   2.384
 6089SOL     OW19165   6.274   5.322   2.911
 6089SOL    HW119166   6.322   5.235   2.903
 6089SOL    HW219167   6.181   5.306   2.944
 6090SOL     OW19168   3.893   5.690   4.475
 6090SOL    HW119169   3.962   5.618   4.471
 6090SOL    HW219170   3.865   5.714   4.382
 6091SOL     OW19171   0.242   2.680   1.890
 6091SOL    HW119172   0.312   2.684   1.818
 6091SOL    HW219173   0.278   2.722   1.973
 6092SOL     OW19174   1.930   6.835   1.068
 6092SOL    HW119175   1.939   6.894   0.987
 6092SOL    HW219176   1.870   6.758   1.047
 6093SOL     OW19177   3.729   3.192   2.436
 6093SOL    HW119178   3.634   3.161   2.430
 6093SOL    HW219179   3.741   3.275   2.382
 6094SOL     OW19180   0.244   0.172   5.777
 6094SOL    HW119181   0.328   0.117   5.782
 6094SOL    HW219182   0.260   0.253   5.721
 6095SOL     OW19183   5.468   4.962   2.256
 6095SOL    HW119184   5.427   5.018   2.184
 6095SOL    HW219185   5.401   4.945   2.328
 6096SOL     OW19186   4.965   6.295   2.850
 6096SOL    HW119187   5.041   6.326   2.793
 6096SOL    HW219188   4.926   6.373   2.898
 6097SOL     OW19189   2.121   5.303   1.106
 6097SOL    HW119190   2.170   5.352   1.177
 6097SOL    HW219191   2.185   5.272   1.036
 6098SOL     OW19192   6.038   1.430   5.380
 6098SOL    HW119193   5.991   1.500   5.326
 6098SOL    HW219194   5.972   1.359   5.407
 6099SOL     OW19195   3.478   6.952   5.631
 6099SOL    HW119196   3.451   6.989   5.542
 6099SOL    HW219197   3.483   0.009   5.698
 6100SOL     OW19198   7.010   5.498   6.087
 6100SOL    HW119199   0.000   5.512   5.988
 6100SOL    HW219200   6.951   5.420   6.105
 6101SOL     OW19201   0.973   2.736   0.607
 6101SOL    HW119202   0.988   2.808   0.674
 6101SOL    HW219203   0.877   2.710   0.606
 6102SOL     OW19204   2.748   0.337   3.012
 6102SOL    HW119205   2.784   0.340   3.106
 6102SOL    HW219206   2.648   0.344   3.015
 6103SOL     OW19207   5.813   0.362   2.822
 6103SOL    HW119208   5.911   0.348   2.836
 6103SOL    HW219209   5.788   0.455   2.849
 6104SOL     OW19210   6.879   0.848   5.044
 6104SOL    HW119211   6.911   0.754   5.030
 6104SOL    HW219212   6.917   0.907   4.973
 6105SOL     OW19213   3.860   4.830   6.630
 6105SOL    HW119214   3.882   4.734   6.648
 6105SOL    HW219215   3.874   4.884   6.713
 6106SOL     OW19216   6.412   3.838   5.175
 6106SOL    HW119217   6.432   3.836   5.273
 6106SOL    HW219218   6.441   3.752   5.133
 6107SOL     OW19219   6.269   4.594   4.857
 6107SOL    HW119220   6.253   4.625   4.763
 6107SOL    HW219221   6.252   4.670   4.920
 6108SOL     OW19222   3.058   0.067   6.185
 6108SOL    HW119223   3.103   0.157   6.186
 6108SOL    HW219224   2.972   0.072   6.235
 6109SOL     OW19225   6.728   6.330   4.013
 6109SOL    HW119226   6.756   6.380   4.095
 6109SOL    HW219227   6.767   6.374   3.932
 6110SOL     OW19228   0.907   1.904   4.220
 6110SOL    HW119229   0.901   1.901   4.320
 6110SOL    HW219230   0.830   1.957   4.184
 6111SOL     OW19231   2.997   3.030   1.203
 6111SOL    HW119232   2.948   3.114   1.178
 6111SOL    HW219233   3.037   2.990   1.121
 6112SOL     OW19234   4.824   6.443   4.017
 6112SOL    HW119235   4.765   6.385   4.073
 6112SOL    HW219236   4.767   6.506   3.964
 6113SOL     OW19237   3.411   5.402   1.183
 6113SOL    HW119238   3.452   5.336   1.121
 6113SOL    HW219239   3.457   5.490   1.174
 6114SOL     OW19240   4.972   3.720   1.480
 6114SOL    HW119241   4.965   3.620   1.482
 6114SOL    HW219242   4.988   3.750   1.386
 6115SOL     OW19243   6.296   1.161   4.551
 6115SOL    HW119244   6.364   1.156   4.478
 6115SOL    HW219245   6.267   1.256   4.563
 6116SOL     OW19246   6.186   2.553   0.408
 6116SOL    HW119247   6.273   2.505   0.408
 6116SOL    HW219248   6.184   2.619   0.333
 6117SOL     OW19249   3.190   2.429   0.997
 6117SOL    HW119250   3.123   2.389   0.934
 6117SOL    HW219251   3.148   2.507   1.044
 6118SOL     OW19252   5.964   0.270   1.427
 6118SOL    HW119253   6.041   0.237   1.372
 6118SOL    HW219254   5.982   0.364   1.457
 6119SOL     OW19255   0.544   1.121   6.177
 6119SOL    HW119256   0.497   1.141   6.262
 6119SOL    HW219257   0.477   1.089   6.109
 6120SOL     OW19258   3.172   1.465   3.502
 6120SOL    HW119259   3.080   1.457   3.464
 6120SOL    HW219260   3.166   1.478   3.601
 6121SOL     OW19261   3.352   0.574   5.501
 6121SOL    HW119262   3.387   0.580   5.408
 6121SOL    HW219263   3.260   0.534   5.500
 6122SOL     OW19264   4.479   4.529   4.787
 6122SOL    HW119265   4.528   4.447   4.758
 6122SOL    HW219266   4.441   4.515   4.878
 6123SOL     OW19267   6.556   1.402   5.156
 6123SOL    HW119268   6.460   1.426   5.174
 6123SOL    HW219269   6.588   1.452   5.076
 6124SOL     OW19270   2.141   6.205   3.604
 6124SOL    HW119271   2.174   6.139   3.672
 6124SOL    HW219272   2.106   6.287   3.651
 6125SOL     OW19273   2.836   0.993   5.792
 6125SOL    HW119274   2.826   1.074   5.850
 6125SOL    HW219275   2.923   0.998   5.743
 6126SOL     OW19276   6.098   3.003   6.619
 6126SOL    HW119277   6.147   3.020   6.534
 6126SOL    HW219278   6.015   2.951   6.599
 6127SOL     OW19279   5.234   1.850   2.626
 6127SOL    HW119280   5.166   1.833   2.554
 6127SOL    HW219281   5.189   1.893   2.704
 6128SOL     OW19282   5.848   5.362   4.799
 6128SOL    HW119283   5.763   5.345   4.851
 6128SOL    HW219284   5.906   5.426   4.850
 6129SOL     OW19285   2.234   5.779   2.881
 6129SOL    HW119286   2.279   5.691   2.896
 6129SOL    HW219287   2.298   5.842   2.837
 6130SOL     OW19288   6.447   2.163   6.684
 6130SOL    HW119289   6.385   2.095   6.644
 6130SOL    HW219290   6.394   2.229   6.737
 6131SOL     OW19291   5.853   2.978   2.595
 6131SOL    HW119292   5.760   2.989   2.630
 6131SOL    HW219293   5.900   3.066   2.595
 6132SOL     OW19294   4.572   5.999   6.513
 6132SOL    HW119295   4.517   5.921   6.545
 6132SOL    HW219296   4.563   6.007   6.413
 6133SOL     OW19297   0.010   2.569   3.767
 6133SOL    HW119298   0.078   2.584   3.694
 6133SOL    HW219299   0.014   2.474   3.796
 6134SOL     OW19300   0.691   0.003   5.223
 6134SOL    HW119301   0.611   0.040   5.269
 6134SOL    HW219302   0.703   0.049   5.135
 6135SOL     OW19303   6.342   6.255   0.117
 6135SOL    HW119304   6.434   6.283   0.144
 6135SOL    HW219305   6.281   6.262   0.197
 6136SOL     OW19306   0.773   2.277   3.070
 6136SOL    HW119307   0.842   2.350   3.079
 6136SOL    HW219308   0.698   2.310   3.013
 6137SOL     OW19309   0.059   5.014   0.774
 6137SOL    HW119310   0.007   4.945   0.824
 6137SOL    HW219311   7.015   5.089   0.747
 6138SOL     OW19312   5.131   0.717   2.703
 6138SOL    HW119313   5.047   0.735   2.754
 6138SOL    HW219314   5.210   0.725   2.764
 6139SOL     OW19315   1.751   2.348   5.254
 6139SOL    HW119316   1.707   2.321   5.339
 6139SOL    HW219317   1.705   2.305   5.177
 6140SOL     OW19318   2.052   0.318   3.746
 6140SOL    HW119319   2.049   0.236   3.689
 6140SOL    HW219320   2.083   0.294   3.837
 6141SOL     OW19321   1.129   6.986   0.506
 6141SOL    HW119322   1.049   7.013   0.559
 6141SOL    HW219323   1.099   6.934   0.425
 6142SOL     OW19324   0.168   0.195   1.686
 6142SOL    HW119325   0.071   0.219   1.686
 6142SOL    HW219326   0.189   0.140   1.604
 6143SOL     OW19327   1.262   3.163   5.492
 6143SOL    HW119328   1.309   3.147   5.579
 6143SOL    HW219329   1.167   3.132   5.500
 6144SOL     OW19330   3.320   5.967   2.604
 6144SOL    HW119331   3.241   5.928   2.556
 6144SOL    HW219332   3.394   5.900   2.606
 6145SOL     OW19333   5.380   3.595   4.308
 6145SOL    HW119334   5.365   3.537   4.387
 6145SOL    HW219335   5.325   3.678   4.315
 6146SOL     OW19336   5.884   1.718   5.601
 6146SOL    HW119337   5.855   1.746   5.509
 6146SOL    HW219338   5.983   1.728   5.609
 6147SOL     OW19339   1.482   1.641   5.639
 6147SOL    HW119340   1.558   1.669   5.698
 6147SOL    HW219341   1.424   1.720   5.620
 6148SOL     OW19342   3.913   5.026   6.810
 6148SOL    HW119343   3.845   5.087   6.850
 6148SOL    HW219344   4.004   5.052   6.844
 6149SOL     OW19345   4.247   1.538   1.483
 6149SOL    HW119346   4.222   1.445   1.511
 6149SOL    HW219347   4.334   1.536   1.434
 6150SOL     OW19348   0.669   4.841   4.004
 6150SOL    HW119349   0.648   4.825   4.101
 6150SOL    HW219350   0.648   4.936   3.981
 6151SOL     OW19351   3.818   5.273   2.109
 6151SOL    HW119352   3.772   5.329   2.178
 6151SOL    HW219353   3.814   5.320   2.021
 6152SOL     OW19354   0.289   3.529   3.100
 6152SOL    HW119355   0.296   3.471   3.181
 6152SOL    HW219356   0.215   3.496   3.042
 6153SOL     OW19357   5.990   6.245   0.855
 6153SOL    HW119358   5.923   6.237   0.929
 6153SOL    HW219359   5.944   6.236   0.767
 6154SOL     OW19360   4.150   5.100   2.616
 6154SOL    HW119361   4.182   5.034   2.684
 6154SOL    HW219362   4.111   5.051   2.538
 6155SOL     OW19363   1.746   1.561   4.300
 6155SOL    HW119364   1.783   1.653   4.312
 6155SOL    HW219365   1.803   1.511   4.235
 6156SOL     OW19366   4.320   4.690   2.604
 6156SOL    HW119367   4.368   4.620   2.551
 6156SOL    HW219368   4.373   4.711   2.686
 6157SOL     OW19369   0.346   2.491   1.217
 6157SOL    HW119370   0.277   2.494   1.144
 6157SOL    HW219371   0.433   2.460   1.179
 6158SOL     OW19372   3.272   0.560   6.194
 6158SOL    HW119373   3.325   0.510   6.125
 6158SOL    HW219374   3.266   0.656   6.167
 6159SOL     OW19375   6.577   1.800   0.965
 6159SOL    HW119376   6.570   1.702   0.987
 6159SOL    HW219377   6.666   1.835   0.994
 6160SOL     OW19378   1.228   0.146   0.963
 6160SOL    HW119379   1.187   0.056   0.953
 6160SOL    HW219380   1.232   0.192   0.874
 6161SOL     OW19381   6.309   4.401   0.040
 6161SOL    HW119382   6.214   4.384   0.065
 6161SOL    HW219383   6.368   4.334   0.084
 6162SOL     OW19384   6.341   6.005   1.232
 6162SOL    HW119385   6.338   5.910   1.263
 6162SOL    HW219386   6.343   6.008   1.132
 6163SOL     OW19387   5.631   5.803   3.037
 6163SOL    HW119388   5.604   5.709   3.017
 6163SOL    HW219389   5.604   5.826   3.131
 6164SOL     OW19390   3.477   4.116   4.457
 6164SOL    HW119391   3.531   4.142   4.537
 6164SOL    HW219392   3.539   4.102   4.379
 6165SOL     OW19393   3.306   0.621   0.036
 6165SOL    HW119394   3.270   0.542   0.087
 6165SOL    HW219395   3.397   0.643   0.071
 6166SOL     OW19396   3.026   1.364   5.747
 6166SOL    HW119397   3.082   1.415   5.812
 6166SOL    HW219398   2.999   1.277   5.788
 6167SOL     OW19399   1.276   3.042   2.582
 6167SOL    HW119400   1.369   3.049   2.548
 6167SOL    HW219401   1.214   3.019   2.506
 6168SOL     OW19402   0.841   3.989   3.797
 6168SOL    HW119403   0.895   3.933   3.860
 6168SOL    HW219404   0.871   4.084   3.802
 6169SOL     OW19405   2.352   1.164   0.949
 6169SOL    HW119406   2.438   1.150   0.899
 6169SOL    HW219407   2.278   1.178   0.884
 6170SOL     OW19408   2.903   4.754   0.806
 6170SOL    HW119409   2.840   4.830   0.794
 6170SOL    HW219410   2.854   4.677   0.847
 6171SOL     OW19411   2.197   4.126   2.047
 6171SOL    HW119412   2.265   4.199   2.060
 6171SOL    HW219413   2.146   4.113   2.133
 6172SOL     OW19414   2.494   4.971   1.578
 6172SOL    HW119415   2.456   4.923   1.500
 6172SOL    HW219416   2.481   5.070   1.567
 6173SOL     OW19417   1.080   5.591   2.704
 6173SOL    HW119418   1.043   5.523   2.766
 6173SOL    HW219419   1.108   5.672   2.756
 6174SOL     OW19420   6.349   4.903   1.788
 6174SOL    HW119421   6.253   4.931   1.789
 6174SOL    HW219422   6.373   4.866   1.698
 6175SOL     OW19423   5.620   6.985   4.155
 6175SOL    HW119424   5.609   6.940   4.066
 6175SOL    HW219425   5.673   0.052   4.143
 6176SOL     OW19426   6.907   3.167   0.391
 6176SOL    HW119427   6.904   3.261   0.355
 6176SOL    HW219428   6.873   3.104   0.321
 6177SOL     OW19429   5.816   2.184   2.385
 6177SOL    HW119430   5.834   2.099   2.336
 6177SOL    HW219431   5.724   2.179   2.426
 6178SOL     OW19432   6.897   3.230   0.942
 6178SOL    HW119433   6.939   3.314   0.975
 6178SOL    HW219434   6.922   3.215   0.847
 6179SOL     OW19435   0.887   1.397   5.486
 6179SOL    HW119436   0.878   1.332   5.411
 6179SOL    HW219437   0.969   1.453   5.472
 6180SOL     OW19438   3.111   0.741   6.485
 6180SOL    HW119439   3.151   0.735   6.577
 6180SOL    HW219440   3.061   0.657   6.466
 6181SOL     OW19441   4.397   6.555   6.396
 6181SOL    HW119442   4.449   6.510   6.323
 6181SOL    HW219443   4.424   6.516   6.484
 6182SOL     OW19444   4.968   6.928   5.535
 6182SOL    HW119445   4.988   0.009   5.536
 6182SOL    HW219446   4.947   6.899   5.441
 6183SOL     OW19447   2.606   0.194   2.370
 6183SOL    HW119448   2.609   0.161   2.275
 6183SOL    HW219449   2.512   0.216   2.395
 6184SOL     OW19450   6.548   0.691   5.727
 6184SOL    HW119451   6.602   0.628   5.783
 6184SOL    HW219452   6.597   0.710   5.642
 6185SOL     OW19453   2.561   2.809   0.101
 6185SOL    HW119454   2.535   2.771   0.190
 6185SOL    HW219455   2.646   2.861   0.110
 6186SOL     OW19456   4.231   1.332   4.006
 6186SOL    HW119457   4.230   1.358   4.103
 6186SOL    HW219458   4.176   1.249   3.994
 6187SOL     OW19459   3.202   4.887   4.341
 6187SOL    HW119460   3.179   4.849   4.252
 6187SOL    HW219461   3.284   4.945   4.334
 6188SOL     OW19462   2.756   0.192   2.594
 6188SOL    HW119463   2.724   0.190   2.500
 6188SOL    HW219464   2.836   0.133   2.604
 6189SOL     OW19465   5.341   4.831   2.941
 6189SOL    HW119466   5.267   4.788   2.888
 6189SOL    HW219467   5.333   4.804   3.037
 6190SOL     OW19468   5.242   3.174   5.734
 6190SOL    HW119469   5.268   3.080   5.715
 6190SOL    HW219470   5.175   3.205   5.666
 6191SOL     OW19471   6.977   1.498   6.532
 6191SOL    HW119472   7.006   1.476   6.439
 6191SOL    HW219473   6.877   1.491   6.539
 6192SOL     OW19474   3.436   1.941   0.524
 6192SOL    HW119475   3.385   1.857   0.506
 6192SOL    HW219476   3.496   1.960   0.446
 6193SOL     OW19477   0.011   0.198   1.906
 6193SOL    HW119478   0.017   0.167   2.001
 6193SOL    HW219479   0.101   0.189   1.862
 6194SOL     OW19480   3.153   0.337   0.896
 6194SOL    HW119481   3.145   0.304   0.990
 6194SOL    HW219482   3.189   0.430   0.896
 6195SOL     OW19483   2.296   0.741   5.456
 6195SOL    HW119484   2.233   0.784   5.392
 6195SOL    HW219485   2.257   0.655   5.488
 6196SOL     OW19486   1.190   1.825   5.659
 6196SOL    HW119487   1.225   1.861   5.572
 6196SOL    HW219488   1.104   1.871   5.682
 6197SOL     OW19489   2.897   2.896   1.731
 6197SOL    HW119490   2.849   2.821   1.687
 6197SOL    HW219491   2.830   2.963   1.764
 6198SOL     OW19492   3.293   5.305   2.430
 6198SOL    HW119493   3.301   5.262   2.340
 6198SOL    HW219494   3.340   5.393   2.429
 6199SOL     OW19495   0.378   0.417   6.869
 6199SOL    HW119496   0.463   0.428   6.920
 6199SOL    HW219497   0.382   0.332   6.816
 6200SOL     OW19498   3.795   0.443   5.899
 6200SOL    HW119499   3.780   0.344   5.896
 6200SOL    HW219500   3.892   0.462   5.915
 6201SOL     OW19501   2.412   5.121   4.540
 6201SOL    HW119502   2.506   5.155   4.548
 6201SOL    HW219503   2.372   5.156   4.456
 6202SOL     OW19504   2.252   2.568   1.416
 6202SOL    HW119505   2.204   2.558   1.328
 6202SOL    HW219506   2.314   2.490   1.429
 6203SOL     OW19507   5.765   2.329   4.107
 6203SOL    HW119508   5.848   2.371   4.072
 6203SOL    HW219509   5.686   2.384   4.080
 6204SOL     OW19510   1.091   6.904   5.651
 6204SOL    HW119511   1.142   6.830   5.694
 6204SOL    HW219512   1.019   6.936   5.712
 6205SOL     OW19513   4.271   6.552   6.972
 6205SOL    HW119514   4.343   6.523   0.018
 6205SOL    HW219515   4.310   6.612   6.903
 6206SOL     OW19516   4.983   0.049   3.749
 6206SOL    HW119517   4.891   0.038   3.785
 6206SOL    HW219518   5.049   0.047   3.824
 6207SOL     OW19519   2.301   4.185   4.538
 6207SOL    HW119520   2.249   4.117   4.486
 6207SOL    HW219521   2.333   4.144   4.624
 6208SOL     OW19522   5.066   4.719   5.622
 6208SOL    HW119523   5.003   4.719   5.700
 6208SOL    HW219524   5.049   4.799   5.565
 6209SOL     OW19525   1.995   5.837   0.724
 6209SOL    HW119526   1.913   5.828   0.666
 6209SOL    HW219527   1.979   5.790   0.810
 6210SOL     OW19528   0.024   4.052   2.838
 6210SOL    HW119529   0.094   4.123   2.839
 6210SOL    HW219530   0.044   3.985   2.767
 6211SOL     OW19531   2.598   0.487   5.076
 6211SOL    HW119532   2.552   0.484   4.987
 6211SOL    HW219533   2.620   0.582   5.098
 6212SOL     OW19534   6.983   0.724   4.207
 6212SOL    HW119535   6.953   0.633   4.181
 6212SOL    HW219536   6.986   0.783   4.126
 6213SOL     OW19537   6.937   6.780   6.985
 6213SOL    HW119538   6.991   6.765   0.051
 6213SOL    HW219539   6.914   6.877   6.977
 6214SOL     OW19540   4.952   4.443   1.607
 6214SOL    HW119541   4.996   4.420   1.694
 6214SOL    HW219542   4.887   4.517   1.622
 6215SOL     OW19543   3.360   4.771   1.374
 6215SOL    HW119544   3.367   4.726   1.463
 6215SOL    HW219545   3.433   4.840   1.366
 6216SOL     OW19546   6.497   2.152   2.665
 6216SOL    HW119547   6.406   2.133   2.628
 6216SOL    HW219548   6.497   2.244   2.705
 6217SOL     OW19549   4.409   1.854   1.499
 6217SOL    HW119550   4.475   1.841   1.425
 6217SOL    HW219551   4.400   1.769   1.551
 6218SOL     OW19552   4.470   6.480   4.510
 6218SOL    HW119553   4.477   6.539   4.590
 6218SOL    HW219554   4.375   6.475   4.480
 6219SOL     OW19555   0.013   0.960   4.652
 6219SOL    HW119556   6.951   0.970   4.711
 6219SOL    HW219557   0.095   0.948   4.707
 6220SOL     OW19558   0.890   3.270   4.905
 6220SOL    HW119559   0.979   3.301   4.871
 6220SOL    HW219560   0.855   3.197   4.846
 6221SOL     OW19561   4.527   4.579   4.091
 6221SOL    HW119562   4.460   4.566   4.018
 6221SOL    HW219563   4.619   4.578   4.052
 6222SOL     OW19564   6.641   2.125   1.164
 6222SOL    HW119565   6.620   2.176   1.080
 6222SOL    HW219566   6.728   2.077   1.152
 6223SOL     OW19567   5.152   4.373   3.539
 6223SOL    HW119568   5.232   4.416   3.580
 6223SOL    HW219569   5.171   4.277   3.519
 6224SOL     OW19570   2.398   0.002   4.480
 6224SOL    HW119571   2.311   0.051   4.491
 6224SOL    HW219572   2.449   0.006   4.566
 6225SOL     OW19573   3.853   1.659   6.457
 6225SOL    HW119574   3.868   1.676   6.555
 6225SOL    HW219575   3.875   1.742   6.406
 6226SOL     OW19576   0.270   6.375   4.495
 6226SOL    HW119577   0.220   6.431   4.429
 6226SOL    HW219578   0.259   6.278   4.472
 6227SOL     OW19579   2.561   4.166   6.365
 6227SOL    HW119580   2.514   4.168   6.454
 6227SOL    HW219581   2.659   4.175   6.379
 6228SOL     OW19582   0.142   2.666   2.811
 6228SOL    HW119583   0.078   2.602   2.852
 6228SOL    HW219584   0.109   2.694   2.721
 6229SOL     OW19585   1.337   2.589   2.280
 6229SOL    HW119586   1.410   2.532   2.244
 6229SOL    HW219587   1.306   2.653   2.209
 6230SOL     OW19588   2.027   2.542   3.949
 6230SOL    HW119589   1.940   2.501   3.923
 6230SOL    HW219590   2.048   2.618   3.887
 6231SOL     OW19591   6.485   4.358   2.049
 6231SOL    HW119592   6.500   4.295   1.973
 6231SOL    HW219593   6.560   4.348   2.115
 6232SOL     OW19594   0.963   0.522   0.162
 6232SOL    HW119595   1.057   0.523   0.130
 6232SOL    HW219596   0.933   0.427   0.173
 6233SOL     OW19597   4.271   1.166   6.604
 6233SOL    HW119598   4.347   1.143   6.665
 6233SOL    HW219599   4.275   1.109   6.522
 6234SOL     OW19600   2.754   2.348   3.260
 6234SOL    HW119601   2.717   2.265   3.301
 6234SOL    HW219602   2.845   2.330   3.223
 6235SOL     OW19603   2.019   5.573   1.848
 6235SOL    HW119604   2.107   5.575   1.895
 6235SOL    HW219605   1.995   5.478   1.827
 6236SOL     OW19606   0.206   4.037   0.084
 6236SOL    HW119607   0.145   4.037   0.163
 6236SOL    HW219608   0.287   3.983   0.104
 6237SOL     OW19609   3.403   5.875   5.792
 6237SOL    HW119610   3.502   5.886   5.802
 6237SOL    HW219611   3.356   5.937   5.855
 6238SOL     OW19612   5.178   3.405   0.986
 6238SOL    HW119613   5.250   3.406   1.055
 6238SOL    HW219614   5.121   3.324   0.998
 6239SOL     OW19615   3.625   6.062   3.762
 6239SOL    HW119616   3.650   5.972   3.797
 6239SOL    HW219617   3.655   6.071   3.667
 6240SOL     OW19618   2.591   4.461   0.294
 6240SOL    HW119619   2.672   4.407   0.270
 6240SOL    HW219620   2.516   4.400   0.317
 6241SOL     OW19621   4.659   6.890   2.907
 6241SOL    HW119622   4.681   6.812   2.966
 6241SOL    HW219623   4.739   6.950   2.899
 6242SOL     OW19624   3.425   2.087   2.652
 6242SOL    HW119625   3.438   2.117   2.558
 6242SOL    HW219626   3.502   2.119   2.708
 6243SOL     OW19627   6.065   5.422   3.081
 6243SOL    HW119628   6.102   5.428   3.174
 6243SOL    HW219629   6.018   5.507   3.058
 6244SOL     OW19630   1.393   1.901   2.020
 6244SOL    HW119631   1.345   1.983   1.990
 6244SOL    HW219632   1.339   1.854   2.089
 6245SOL     OW19633   2.272   3.904   0.042
 6245SOL    HW119634   2.323   3.842   0.102
 6245SOL    HW219635   2.276   3.997   0.078
 6246SOL     OW19636   4.370   6.470   0.483
 6246SOL    HW119637   4.429   6.519   0.419
 6246SOL    HW219638   4.302   6.417   0.432
 6247SOL     OW19639   6.706   6.817   3.046
 6247SOL    HW119640   6.636   6.759   3.087
 6247SOL    HW219641   6.795   6.771   3.051
 6248SOL     OW19642   0.916   5.740   0.725
 6248SOL    HW119643   0.942   5.734   0.821
 6248SOL    HW219644   0.996   5.767   0.670
 6249SOL     OW19645   6.266   2.557   6.015
 6249SOL    HW119646   6.264   2.457   6.018
 6249SOL    HW219647   6.173   2.593   6.019
 6250SOL     OW19648   6.783   4.210   6.029
 6250SOL    HW119649   6.768   4.120   6.071
 6250SOL    HW219650   6.851   4.201   5.956
 6251SOL     OW19651   4.292   1.026   0.801
 6251SOL    HW119652   4.366   1.085   0.767
 6251SOL    HW219653   4.228   1.080   0.855
 6252SOL     OW19654   1.580   6.462   5.505
 6252SOL    HW119655   1.619   6.552   5.522
 6252SOL    HW219656   1.490   6.455   5.548
 6253SOL     OW19657   2.317   3.453   1.402
 6253SOL    HW119658   2.378   3.381   1.370
 6253SOL    HW219659   2.358   3.499   1.481
 6254SOL     OW19660   5.438   0.423   0.345
 6254SOL    HW119661   5.522   0.378   0.316
 6254SOL    HW219662   5.458   0.518   0.371
 6255SOL     OW19663   0.702   3.362   2.732
 6255SOL    HW119664   0.793   3.359   2.774
 6255SOL    HW219665   0.668   3.268   2.720
 6256SOL     OW19666   3.999   5.178   4.335
 6256SOL    HW119667   4.096   5.177   4.360
 6256SOL    HW219668   3.959   5.089   4.358
 6257SOL     OW19669   4.180   2.903   6.659
 6257SOL    HW119670   4.121   2.924   6.581
 6257SOL    HW219671   4.128   2.914   6.744
 6258SOL     OW19672   4.613   1.769   3.133
 6258SOL    HW119673   4.643   1.814   3.217
 6258SOL    HW219674   4.537   1.707   3.154
 6259SOL     OW19675   3.554   2.228   1.613
 6259SOL    HW119676   3.565   2.128   1.617
 6259SOL    HW219677   3.612   2.270   1.682
 6260SOL     OW19678   3.520   4.469   1.441
 6260SOL    HW119679   3.443   4.433   1.387
 6260SOL    HW219680   3.484   4.530   1.512
 6261SOL     OW19681   4.847   6.454   6.257
 6261SOL    HW119682   4.809   6.478   6.168
 6261SOL    HW219683   4.865   6.538   6.309
 6262SOL     OW19684   7.005   5.842   5.478
 6262SOL    HW119685   7.003   5.752   5.435
 6262SOL    HW219686   0.079   5.881   5.469
 6263SOL     OW19687   6.477   0.341   1.491
 6263SOL    HW119688   6.457   0.426   1.441
 6263SOL    HW219689   6.458   0.355   1.589
 6264SOL     OW19690   2.673   1.406   0.681
 6264SOL    HW119691   2.692   1.445   0.591
 6264SOL    HW219692   2.759   1.386   0.728
 6265SOL     OW19693   6.436   3.499   0.535
 6265SOL    HW119694   6.509   3.564   0.513
 6265SOL    HW219695   6.357   3.517   0.477
 6266SOL     OW19696   2.470   6.764   2.673
 6266SOL    HW119697   2.523   6.848   2.662
 6266SOL    HW219698   2.512   6.691   2.619
 6267SOL     OW19699   3.060   6.560   6.971
 6267SOL    HW119700   3.024   6.486   6.915
 6267SOL    HW219701   3.147   6.532   7.012
 6268SOL     OW19702   2.276   6.222   2.027
 6268SOL    HW119703   2.193   6.247   2.075
 6268SOL    HW219704   2.319   6.144   2.073
 6269SOL     OW19705   6.704   4.171   6.608
 6269SOL    HW119706   6.606   4.187   6.612
 6269SOL    HW219707   6.745   4.236   6.544
 6270SOL     OW19708   0.826   1.340   4.029
 6270SOL    HW119709   0.831   1.434   4.062
 6270SOL    HW219710   0.918   1.305   4.010
 6271SOL     OW19711   5.744   1.721   1.095
 6271SOL    HW119712   5.722   1.635   1.048
 6271SOL    HW219713   5.802   1.700   1.175
 6272SOL     OW19714   2.519   2.534   3.914
 6272SOL    HW119715   2.463   2.604   3.870
 6272SOL    HW219716   2.464   2.453   3.931
 6273SOL     OW19717   3.641   1.411   2.699
 6273SOL    HW119718   3.660   1.484   2.632
 6273SOL    HW219719   3.718   1.404   2.762
 6274SOL     OW19720   2.761   5.408   6.729
 6274SOL    HW119721   2.806   5.363   6.806
 6274SOL    HW219722   2.802   5.377   6.644
 6275SOL     OW19723   3.291   0.887   4.703
 6275SOL    HW119724   3.344   0.809   4.670
 6275SOL    HW219725   3.249   0.864   4.791
 6276SOL     OW19726   0.982   5.156   3.460
 6276SOL    HW119727   1.077   5.127   3.457
 6276SOL    HW219728   0.924   5.082   3.426
 6277SOL     OW19729   6.229   3.480   3.945
 6277SOL    HW119730   6.284   3.400   3.970
 6277SOL    HW219731   6.153   3.452   3.886
 6278SOL     OW19732   5.097   1.031   3.493
 6278SOL    HW119733   5.186   1.056   3.530
 6278SOL    HW219734   5.056   0.960   3.551
 6279SOL     OW19735   3.757   1.558   5.862
 6279SOL    HW119736   3.825   1.616   5.818
 6279SOL    HW219737   3.683   1.539   5.797
 6280SOL     OW19738   1.349   5.135   5.710
 6280SOL    HW119739   1.278   5.181   5.764
 6280SOL    HW219740   1.437   5.144   5.757
 6281SOL     OW19741   3.456   6.218   4.936
 6281SOL    HW119742   3.533   6.266   4.895
 6281SOL    HW219743   3.371   6.265   4.912
 6282SOL     OW19744   0.853   6.437   4.800
 6282SOL    HW119745   0.865   6.397   4.709
 6282SOL    HW219746   0.891   6.375   4.868
 6283SOL     OW19747   1.067   3.019   5.011
 6283SOL    HW119748   1.129   2.971   4.949
 6283SOL    HW219749   0.980   3.034   4.965
 6284SOL     OW19750   2.319   5.071   0.212
 6284SOL    HW119751   2.404   5.119   0.230
 6284SOL    HW219752   2.260   5.128   0.155
 6285SOL     OW19753   2.106   3.768   2.169
 6285SOL    HW119754   2.036   3.818   2.117
 6285SOL    HW219755   2.148   3.699   2.111
 6286SOL     OW19756   0.069   6.212   4.398
 6286SOL    HW119757   0.120   6.261   4.327
 6286SOL    HW219758   6.996   6.189   4.364
 6287SOL     OW19759   3.420   4.900   3.162
 6287SOL    HW119760   3.440   4.884   3.065
 6287SOL    HW219761   3.409   4.998   3.178
 6288SOL     OW19762   6.895   3.641   0.862
 6288SOL    HW119763   6.919   3.719   0.919
 6288SOL    HW219764   6.930   3.557   0.903
 6289SOL     OW19765   0.364   6.776   2.695
 6289SOL    HW119766   0.318   6.802   2.780
 6289SOL    HW219767   0.445   6.721   2.717
 6290SOL     OW19768   5.391   3.898   3.941
 6290SOL    HW119769   5.392   3.914   3.842
 6290SOL    HW219770   5.466   3.947   3.984
 6291SOL     OW19771   3.274   4.123   3.332
 6291SOL    HW119772   3.305   4.029   3.314
 6291SOL    HW219773   3.245   4.130   3.427
 6292SOL     OW19774   6.981   0.816   1.603
 6292SOL    HW119775   6.898   0.785   1.650
 6292SOL    HW219776   6.978   0.785   1.508
 6293SOL     OW19777   5.542   4.520   5.772
 6293SOL    HW119778   5.446   4.503   5.797
 6293SOL    HW219779   5.583   4.582   5.840
 6294SOL     OW19780   3.030   6.373   1.413
 6294SOL    HW119781   3.024   6.419   1.325
 6294SOL    HW219782   3.123   6.340   1.427
 6295SOL     OW19783   6.370   5.767   5.950
 6295SOL    HW119784   6.404   5.742   6.040
 6295SOL    HW219785   6.434   5.831   5.907
 6296SOL     OW19786   6.309   1.908   3.442
 6296SOL    HW119787   6.387   1.879   3.498
 6296SOL    HW219788   6.330   1.891   3.346
 6297SOL     OW19789   5.193   1.719   5.716
 6297SOL    HW119790   5.182   1.647   5.785
 6297SOL    HW219791   5.151   1.690   5.631
 6298SOL     OW19792   6.221   2.465   4.228
 6298SOL    HW119793   6.292   2.513   4.177
 6298SOL    HW219794   6.157   2.531   4.267
 6299SOL     OW19795   0.407   2.349   0.244
 6299SOL    HW119796   0.335   2.282   0.231
 6299SOL    HW219797   0.494   2.303   0.259
 6300SOL     OW19798   5.219   1.406   3.695
 6300SOL    HW119799   5.229   1.395   3.596
 6300SOL    HW219800   5.164   1.331   3.731
 6301SOL     OW19801   3.275   0.371   1.557
 6301SOL    HW119802   3.230   0.422   1.631
 6301SOL    HW219803   3.356   0.421   1.528
 6302SOL     OW19804   6.612   0.224   2.984
 6302SOL    HW119805   6.554   0.286   2.931
 6302SOL    HW219806   6.595   0.130   2.954
 6303SOL     OW19807   2.657   5.225   4.534
 6303SOL    HW119808   2.713   5.144   4.550
 6303SOL    HW219809   2.716   5.306   4.533
 6304SOL     OW19810   4.289   0.713   4.795
 6304SOL    HW119811   4.274   0.770   4.875
 6304SOL    HW219812   4.387   0.694   4.786
 6305SOL     OW19813   5.120   0.122   3.032
 6305SOL    HW119814   5.167   0.115   3.120
 6305SOL    HW219815   5.171   0.069   2.963
 6306SOL     OW19816   6.047   3.085   4.165
 6306SOL    HW119817   5.966   3.047   4.119
 6306SOL    HW219818   6.126   3.026   4.149
 6307SOL     OW19819   2.244   4.786   0.272
 6307SOL    HW119820   2.234   4.718   0.199
 6307SOL    HW219821   2.274   4.873   0.234
 6308SOL     OW19822   3.927   2.486   6.272
 6308SOL    HW119823   3.982   2.404   6.251
 6308SOL    HW219824   3.830   2.461   6.274
 6309SOL     OW19825   6.182   2.529   5.328
 6309SOL    HW119826   6.161   2.563   5.420
 6309SOL    HW219827   6.127   2.578   5.261
 6310SOL     OW19828   6.782   5.817   4.781
 6310SOL    HW119829   6.733   5.897   4.815
 6310SOL    HW219830   6.845   5.845   4.708
 6311SOL     OW19831   6.370   0.224   4.705
 6311SOL    HW119832   6.333   0.317   4.704
 6311SOL    HW219833   6.465   0.227   4.737
 6312SOL     OW19834   5.976   3.839   5.578
 6312SOL    HW119835   5.884   3.822   5.613
 6312SOL    HW219836   6.020   3.909   5.634
 6313SOL     OW19837   2.540   5.803   3.813
 6313SOL    HW119838   2.564   5.714   3.850
 6313SOL    HW219839   2.610   5.870   3.838
 6314SOL     OW19840   1.168   0.311   2.982
 6314SOL    HW119841   1.255   0.270   3.008
 6314SOL    HW219842   1.118   0.338   3.065
 6315SOL     OW19843   1.730   3.738   0.528
 6315SOL    HW119844   1.631   3.746   0.542
 6315SOL    HW219845   1.760   3.810   0.465
 6316SOL     OW19846   4.287   1.068   4.913
 6316SOL    HW119847   4.284   0.980   4.961
 6316SOL    HW219848   4.217   1.069   4.841
 6317SOL     OW19849   6.715   5.800   4.370
 6317SOL    HW119850   6.657   5.767   4.444
 6317SOL    HW219851   6.732   5.898   4.381
 6318SOL     OW19852   1.621   2.893   3.738
 6318SOL    HW119853   1.630   2.795   3.719
 6318SOL    HW219854   1.564   2.906   3.819
 6319SOL     OW19855   1.221   1.947   3.189
 6319SOL    HW119856   1.164   1.971   3.110
 6319SOL    HW219857   1.316   1.974   3.171
 6320SOL     OW19858   0.394   2.741   2.867
 6320SOL    HW119859   0.297   2.722   2.853
 6320SOL    HW219860   0.447   2.708   2.789
 6321SOL     OW19861   2.186   3.931   5.659
 6321SOL    HW119862   2.226   4.021   5.647
 6321SOL    HW219863   2.258   3.862   5.660
 6322SOL     OW19864   2.572   6.764   6.942
 6322SOL    HW119865   2.492   6.729   6.991
 6322SOL    HW219866   2.651   6.706   6.960
 6323SOL     OW19867   4.479   1.510   1.929
 6323SOL    HW119868   4.475   1.477   2.023
 6323SOL    HW219869   4.390   1.545   1.902
 6324SOL     OW19870   3.147   1.755   1.037
 6324SOL    HW119871   3.115   1.776   0.944
 6324SOL    HW219872   3.069   1.755   1.099
 6325SOL     OW19873   1.690   3.158   3.275
 6325SOL    HW119874   1.724   3.155   3.369
 6325SOL    HW219875   1.726   3.239   3.229
 6326SOL     OW19876   4.639   6.557   1.648
 6326SOL    HW119877   4.736   6.564   1.625
 6326SOL    HW219878   4.627   6.496   1.727
 6327SOL     OW19879   3.844   5.530   5.202
 6327SOL    HW119880   3.857   5.467   5.278
 6327SOL    HW219881   3.921   5.523   5.138
 6328SOL     OW19882   3.503   4.240   0.342
 6328SOL    HW119883   3.450   4.318   0.374
 6328SOL    HW219884   3.502   4.168   0.411
 6329SOL     OW19885   0.566   2.376   3.440
 6329SOL    HW119886   0.497   2.413   3.378
 6329SOL    HW219887   0.523   2.311   3.502
 6330SOL     OW19888   3.694   0.536   6.932
 6330SOL    HW119889   3.740   0.470   6.992
 6330SOL    HW219890   3.602   0.504   6.912
 6331SOL     OW19891   5.223   2.793   1.352
 6331SOL    HW119892   5.186   2.737   1.277
 6331SOL    HW219893   5.147   2.836   1.401
 6332SOL     OW19894   4.512   6.338   1.888
 6332SOL    HW119895   4.492   6.273   1.815
 6332SOL    HW219896   4.452   6.320   1.966
 6333SOL     OW19897   2.344   5.422   2.375
 6333SOL    HW119898   2.356   5.342   2.316
 6333SOL    HW219899   2.337   5.393   2.470
 6334SOL     OW19900   2.019   0.719   1.891
 6334SOL    HW119901   2.017   0.667   1.805
 6334SOL    HW219902   1.935   0.772   1.899
 6335SOL     OW19903   6.322   1.025   0.065
 6335SOL    HW119904   6.326   0.999   0.161
 6335SOL    HW219905   6.249   0.974   0.019
 6336SOL     OW19906   1.671   2.661   5.273
 6336SOL    HW119907   1.688   2.565   5.295
 6336SOL    HW219908   1.748   2.697   5.221
 6337SOL     OW19909   0.747   4.550   5.066
 6337SOL    HW119910   0.666   4.525   5.012
 6337SOL    HW219911   0.815   4.592   5.006
 6338SOL     OW19912   3.630   0.833   4.389
 6338SOL    HW119913   3.705   0.812   4.327
 6338SOL    HW219914   3.544   0.832   4.339
 6339SOL     OW19915   6.387   2.891   4.334
 6339SOL    HW119916   6.378   2.865   4.430
 6339SOL    HW219917   6.474   2.938   4.320
 6340SOL     OW19918   3.131   5.376   3.461
 6340SOL    HW119919   3.120   5.468   3.499
 6340SOL    HW219920   3.068   5.313   3.507
 6341SOL     OW19921   6.071   4.954   2.131
 6341SOL    HW119922   6.031   4.868   2.163
 6341SOL    HW219923   6.025   5.031   2.176
 6342SOL     OW19924   0.975   3.564   0.394
 6342SOL    HW119925   0.976   3.623   0.313
 6342SOL    HW219926   0.889   3.577   0.443
 6343SOL     OW19927   3.909   1.802   6.975
 6343SOL    HW119928   3.823   1.837   6.937
 6343SOL    HW219929   3.924   1.844   0.048
 6344SOL     OW19930   5.972   5.011   4.297
 6344SOL    HW119931   5.952   4.982   4.391
 6344SOL    HW219932   5.954   4.935   4.235
 6345SOL     OW19933   2.219   1.989   1.159
 6345SOL    HW119934   2.145   1.992   1.227
 6345SOL    HW219935   2.181   2.011   1.069
 6346SOL     OW19936   0.560   5.098   3.979
 6346SOL    HW119937   0.487   5.165   3.967
 6346SOL    HW219938   0.640   5.142   4.018
 6347SOL     OW19939   2.845   0.347   0.522
 6347SOL    HW119940   2.912   0.390   0.582
 6347SOL    HW219941   2.754   0.385   0.541
 6348SOL     OW19942   0.261   2.246   4.404
 6348SOL    HW119943   0.219   2.329   4.441
 6348SOL    HW219944   0.338   2.219   4.462
 6349SOL     OW19945   0.652   0.856   0.457
 6349SOL    HW119946   0.642   0.907   0.542
 6349SOL    HW219947   0.636   0.917   0.379
 6350SOL     OW19948   6.974   5.610   3.084
 6350SOL    HW119949   6.881   5.592   3.053
 6350SOL    HW219950   6.978   5.600   3.184
 6351SOL     OW19951   0.250   2.359   2.852
 6351SOL    HW119952   0.323   2.358   2.920
 6351SOL    HW219953   0.247   2.448   2.806
 6352SOL     OW19954   6.310   4.028   2.862
 6352SOL    HW119955   6.253   4.035   2.780
 6352SOL    HW219956   6.373   3.950   2.851
 6353SOL     OW19957   6.691   6.995   2.111
 6353SOL    HW119958   6.734   6.959   2.028
 6353SOL    HW219959   6.761   0.017   2.170
 6354SOL     OW19960   6.843   0.352   5.074
 6354SOL    HW119961   6.824   0.255   5.088
 6354SOL    HW219962   6.927   0.363   5.021
 6355SOL     OW19963   1.234   1.464   1.183
 6355SOL    HW119964   1.172   1.479   1.260
 6355SOL    HW219965   1.206   1.521   1.106
 6356SOL     OW19966   3.559   3.938   1.434
 6356SOL    HW119967   3.560   4.022   1.489
 6356SOL    HW219968   3.644   3.888   1.447
 6357SOL     OW19969   5.065   1.457   1.168
 6357SOL    HW119970   5.146   1.477   1.114
 6357SOL    HW219971   5.052   1.358   1.173
 6358SOL     OW19972   0.940   2.812   5.393
 6358SOL    HW119973   0.898   2.739   5.338
 6358SOL    HW219974   1.039   2.802   5.392
 6359SOL     OW19975   6.764   0.510   6.353
 6359SOL    HW119976   6.707   0.560   6.418
 6359SOL    HW219977   6.828   0.573   6.309
 6360SOL     OW19978   1.816   4.718   3.990
 6360SOL    HW119979   1.846   4.795   4.046
 6360SOL    HW219980   1.749   4.750   3.922
 6361SOL     OW19981   3.058   5.956   5.224
 6361SOL    HW119982   3.071   5.912   5.134
 6361SOL    HW219983   2.973   5.923   5.264
 6362SOL     OW19984   6.889   4.597   5.436
 6362SOL    HW119985   6.817   4.659   5.406
 6362SOL    HW219986   6.968   4.607   5.376
 6363SOL     OW19987   0.895   5.598   3.519
 6363SOL    HW119988   0.826   5.668   3.538
 6363SOL    HW219989   0.904   5.587   3.420
 6364SOL     OW19990   2.836   1.649   6.605
 6364SOL    HW119991   2.888   1.564   6.598
 6364SOL    HW219992   2.827   1.690   6.514
 6365SOL     OW19993   4.028   5.645   2.148
 6365SOL    HW119994   3.933   5.655   2.118
 6365SOL    HW219995   4.060   5.552   2.128
 6366SOL     OW19996   0.763   3.902   5.266
 6366SOL    HW119997   0.790   3.944   5.353
 6366SOL    HW219998   0.746   3.974   5.199
 6367SOL     OW19999   5.505   5.409   2.293
 6367SOL    HW120000   5.497   5.427   2.392
 6367SOL    HW220001   5.466   5.486   2.243
 6368SOL     OW20002   3.014   1.412   2.306
 6368SOL    HW120003   3.022   1.460   2.219
 6368SOL    HW220004   3.069   1.328   2.302
 6369SOL     OW20005   2.156   5.916   4.938
 6369SOL    HW120006   2.174   5.834   4.992
 6369SOL    HW220007   2.136   5.993   5.000
 6370SOL     OW20008   5.456   2.242   2.175
 6370SOL    HW120009   5.496   2.212   2.088
 6370SOL    HW220010   5.501   2.326   2.205
 6371SOL     OW20011   4.515   1.303   3.373
 6371SOL    HW120012   4.537   1.217   3.419
 6371SOL    HW220013   4.494   1.373   3.441
 6372SOL     OW20014   2.930   0.298   2.810
 6372SOL    HW120015   2.882   0.308   2.897
 6372SOL    HW220016   2.864   0.294   2.736
 6373SOL     OW20017   3.545   4.524   0.234
 6373SOL    HW120018   3.461   4.502   0.284
 6373SOL    HW220019   3.563   4.453   0.166
 6374SOL     OW20020   2.999   3.511   4.876
 6374SOL    HW120021   3.094   3.543   4.872
 6374SOL    HW220022   2.981   3.469   4.965
 6375SOL     OW20023   1.980   5.859   2.247
 6375SOL    HW120024   2.051   5.925   2.266
 6375SOL    HW220025   1.973   5.845   2.148
 6376SOL     OW20026   1.291   1.420   5.363
 6376SOL    HW120027   1.246   1.504   5.394
 6376SOL    HW220028   1.262   1.398   5.270
 6377SOL     OW20029   0.451   2.718   3.716
 6377SOL    HW120030   0.536   2.699   3.668
 6377SOL    HW220031   0.438   2.817   3.723
 6378SOL     OW20032   3.731   5.092   3.734
 6378SOL    HW120033   3.756   5.101   3.638
 6378SOL    HW220034   3.781   5.016   3.775
 6379SOL     OW20035   2.267   4.443   1.837
 6379SOL    HW120036   2.307   4.479   1.753
 6379SOL    HW220037   2.226   4.518   1.889
 6380SOL     OW20038   1.072   0.503   6.249
 6380SOL    HW120039   1.006   0.441   6.207
 6380SOL    HW220040   1.121   0.454   6.322
 6381SOL     OW20041   3.521   3.478   3.133
 6381SOL    HW120042   3.584   3.417   3.085
 6381SOL    HW220043   3.443   3.426   3.168
 6382SOL     OW20044   1.091   4.539   5.188
 6382SOL    HW120045   1.010   4.536   5.130
 6382SOL    HW220046   1.111   4.448   5.223
 6383SOL     OW20047   3.767   1.871   3.971
 6383SOL    HW120048   3.831   1.946   3.988
 6383SOL    HW220049   3.728   1.880   3.880
 6384SOL     OW20050   6.606   4.595   1.962
 6384SOL    HW120051   6.702   4.567   1.962
 6384SOL    HW220052   6.548   4.513   1.966
 6385SOL     OW20053   1.022   5.708   5.464
 6385SOL    HW120054   1.118   5.696   5.437
 6385SOL    HW220055   0.998   5.805   5.457
 6386SOL     OW20056   1.966   5.684   2.930
 6386SOL    HW120057   2.046   5.736   2.902
 6386SOL    HW220058   1.991   5.587   2.940
 6387SOL     OW20059   6.061   0.846   4.898
 6387SOL    HW120060   6.045   0.748   4.901
 6387SOL    HW220061   6.028   0.883   4.811
 6388SOL     OW20062   1.958   4.920   2.216
 6388SOL    HW120063   2.050   4.881   2.218
 6388SOL    HW220064   1.956   5.006   2.266
 6389SOL     OW20065   1.430   3.598   1.032
 6389SOL    HW120066   1.528   3.583   1.045
 6389SOL    HW220067   1.380   3.514   1.058
 6390SOL     OW20068   0.502   3.272   4.866
 6390SOL    HW120069   0.583   3.296   4.920
 6390SOL    HW220070   0.522   3.287   4.769
 6391SOL     OW20071   3.946   0.296   0.501
 6391SOL    HW120072   4.012   0.336   0.564
 6391SOL    HW220073   3.945   0.349   0.416
 6392SOL     OW20074   1.240   5.944   4.417
 6392SOL    HW120075   1.306   5.991   4.358
 6392SOL    HW220076   1.166   5.907   4.361
 6393SOL     OW20077   4.818   1.007   6.827
 6393SOL    HW120078   4.900   1.064   6.821
 6393SOL    HW220079   4.813   0.947   6.748
 6394SOL     OW20080   3.772   5.654   2.010
 6394SOL    HW120081   3.798   5.655   1.914
 6394SOL    HW220082   3.695   5.592   2.023
 6395SOL     OW20083   5.821   1.558   0.348
 6395SOL    HW120084   5.806   1.655   0.368
 6395SOL    HW220085   5.914   1.545   0.314
 6396SOL     OW20086   6.699   2.094   6.599
 6396SOL    HW120087   6.664   2.001   6.586
 6396SOL    HW220088   6.625   2.153   6.631
 6397SOL     OW20089   6.770   0.137   0.445
 6397SOL    HW120090   6.751   0.123   0.348
 6397SOL    HW220091   6.869   0.143   0.460
 6398SOL     OW20092   4.490   1.415   1.656
 6398SOL    HW120093   4.498   1.432   1.755
 6398SOL    HW220094   4.517   1.497   1.606
 6399SOL     OW20095   1.330   6.567   6.435
 6399SOL    HW120096   1.425   6.541   6.455
 6399SOL    HW220097   1.319   6.665   6.445
 6400SOL     OW20098   3.427   4.975   4.699
 6400SOL    HW120099   3.337   4.950   4.665
 6400SOL    HW220100   3.424   4.986   4.798
 6401SOL     OW20101   6.766   4.994   5.694
 6401SOL    HW120102   6.776   5.076   5.638
 6401SOL    HW220103   6.847   4.983   5.752
 6402SOL     OW20104   1.952   3.535   2.825
 6402SOL    HW120105   2.017   3.459   2.827
 6402SOL    HW220106   1.860   3.500   2.842
 6403SOL     OW20107   0.167   6.309   1.755
 6403SOL    HW120108   0.216   6.394   1.733
 6403SOL    HW220109   0.192   6.239   1.689
 6404SOL     OW20110   4.787   0.620   2.463
 6404SOL    HW120111   4.810   0.697   2.404
 6404SOL    HW220112   4.688   0.608   2.464
 6405SOL     OW20113   3.749   7.012   1.878
 6405SOL    HW120114   3.744   6.942   1.807
 6405SOL    HW220115   3.775   0.081   1.837
 6406SOL     OW20116   2.303   2.133   3.420
 6406SOL    HW120117   2.385   2.106   3.472
 6406SOL    HW220118   2.237   2.175   3.482
 6407SOL     OW20119   4.951   6.259   6.877
 6407SOL    HW120120   4.956   6.350   6.836
 6407SOL    HW220121   5.024   6.248   6.944
 6408SOL     OW20122   6.206   2.438   1.034
 6408SOL    HW120123   6.247   2.419   1.123
 6408SOL    HW220124   6.112   2.470   1.046
 6409SOL     OW20125   1.229   4.973   1.670
 6409SOL    HW120126   1.155   4.946   1.608
 6409SOL    HW220127   1.314   4.928   1.644
 6410SOL     OW20128   6.939   0.047   1.094
 6410SOL    HW120129   6.937   6.965   1.091
 6410SOL    HW220130   6.990   0.077   1.175
 6411SOL     OW20131   1.858   1.795   3.086
 6411SOL    HW120132   1.909   1.730   3.031
 6411SOL    HW220133   1.767   1.759   3.106
 6412SOL     OW20134   5.761   2.239   4.987
 6412SOL    HW120135   5.814   2.223   5.070
 6412SOL    HW220136   5.740   2.337   4.979
 6413SOL     OW20137   0.570   5.340   0.576
 6413SOL    HW120138   0.535   5.428   0.610
 6413SOL    HW220139   0.508   5.267   0.602
 6414SOL     OW20140   6.418   0.410   3.783
 6414SOL    HW120141   6.438   0.338   3.849
 6414SOL    HW220142   6.504   0.455   3.757
 6415SOL     OW20143   1.259   1.838   2.250
 6415SOL    HW120144   1.203   1.839   2.333
 6415SOL    HW220145   1.326   1.763   2.256
 6416SOL     OW20146   3.080   6.181   6.804
 6416SOL    HW120147   3.159   6.213   6.752
 6416SOL    HW220148   3.012   6.255   6.810
 6417SOL     OW20149   6.944   6.145   4.656
 6417SOL    HW120150   6.993   6.219   4.611
 6417SOL    HW220151   6.870   6.113   4.597
 6418SOL     OW20152   6.654   5.113   2.270
 6418SOL    HW120153   6.601   5.052   2.329
 6418SOL    HW220154   6.664   5.071   2.180
 6419SOL     OW20155   2.949   2.268   0.410
 6419SOL    HW120156   3.018   2.217   0.357
 6419SOL    HW220157   2.985   2.288   0.501
 6420SOL     OW20158   0.778   2.078   0.313
 6420SOL    HW120159   0.783   1.983   0.343
 6420SOL    HW220160   0.809   2.085   0.219
 6421SOL     OW20161   5.747   1.421   0.601
 6421SOL    HW120162   5.783   1.444   0.511
 6421SOL    HW220163   5.801   1.468   0.671
 6422SOL     OW20164   5.327   2.377   3.016
 6422SOL    HW120165   5.316   2.294   3.069
 6422SOL    HW220166   5.253   2.384   2.949
 6423SOL     OW20167   5.419   3.731   0.627
 6423SOL    HW120168   5.448   3.637   0.645
 6423SOL    HW220169   5.319   3.734   0.621
 6424SOL     OW20170   6.197   3.624   5.183
 6424SOL    HW120171   6.207   3.693   5.112
 6424SOL    HW220172   6.198   3.533   5.142
 6425SOL     OW20173   1.162   5.471   0.695
 6425SOL    HW120174   1.068   5.451   0.723
 6425SOL    HW220175   1.163   5.499   0.600
 6426SOL     OW20176   6.478   3.580   3.422
 6426SOL    HW120177   6.419   3.639   3.478
 6426SOL    HW220178   6.446   3.580   3.328
 6427SOL     OW20179   1.127   3.578   6.026
 6427SOL    HW120180   1.051   3.614   5.971
 6427SOL    HW220181   1.200   3.548   5.965
 6428SOL     OW20182   6.045   3.896   5.328
 6428SOL    HW120183   6.007   3.858   5.413
 6428SOL    HW220184   6.131   3.849   5.307
 6429SOL     OW20185   1.100   0.813   5.357
 6429SOL    HW120186   1.176   0.836   5.296
 6429SOL    HW220187   1.121   0.728   5.406
 6430SOL     OW20188   6.457   3.262   6.883
 6430SOL    HW120189   6.521   3.206   6.935
 6430SOL    HW220190   6.370   3.268   6.932
 6431SOL     OW20191   5.634   1.512   2.335
 6431SOL    HW120192   5.642   1.510   2.235
 6431SOL    HW220193   5.652   1.421   2.372
 6432SOL     OW20194   6.466   3.898   0.631
 6432SOL    HW120195   6.533   3.847   0.684
 6432SOL    HW220196   6.495   3.903   0.535
 6433SOL     OW20197   2.108   3.308   1.575
 6433SOL    HW120198   2.109   3.230   1.514
 6433SOL    HW220199   2.164   3.382   1.537
 6434SOL     OW20200   1.950   6.089   0.822
 6434SOL    HW120201   1.980   6.106   0.916
 6434SOL    HW220202   1.964   5.993   0.799
 6435SOL     OW20203   6.167   3.292   0.638
 6435SOL    HW120204   6.195   3.362   0.704
 6435SOL    HW220205   6.248   3.240   0.609
 6436SOL     OW20206   2.862   2.321   0.909
 6436SOL    HW120207   2.812   2.402   0.939
 6436SOL    HW220208   2.934   2.348   0.845
 6437SOL     OW20209   0.012   1.261   1.810
 6437SOL    HW120210   0.001   1.162   1.809
 6437SOL    HW220211   0.107   1.284   1.831
 6438SOL     OW20212   0.559   3.703   4.240
 6438SOL    HW120213   0.517   3.755   4.315
 6438SOL    HW220214   0.656   3.724   4.235
 6439SOL     OW20215   0.061   6.135   2.687
 6439SOL    HW120216   0.065   6.048   2.736
 6439SOL    HW220217   0.113   6.128   2.602
 6440SOL     OW20218   0.616   0.533   2.338
 6440SOL    HW120219   0.597   0.578   2.251
 6440SOL    HW220220   0.537   0.479   2.366
 6441SOL     OW20221   5.280   2.111   3.111
 6441SOL    HW120222   5.304   2.014   3.118
 6441SOL    HW220223   5.183   2.124   3.130
 6442SOL     OW20224   1.424   1.845   3.651
 6442SOL    HW120225   1.378   1.881   3.733
 6442SOL    HW220226   1.363   1.853   3.573
 6443SOL     OW20227   2.447   0.781   1.077
 6443SOL    HW120228   2.463   0.690   1.115
 6443SOL    HW220229   2.425   0.844   1.152
 6444SOL     OW20230   0.791   1.276   2.667
 6444SOL    HW120231   0.705   1.313   2.632
 6444SOL    HW220232   0.776   1.237   2.758
 6445SOL     OW20233   3.504   4.454   6.194
 6445SOL    HW120234   3.443   4.382   6.162
 6445SOL    HW220235   3.453   4.520   6.249
 6446SOL     OW20236   0.399   1.274   1.347
 6446SOL    HW120237   0.412   1.252   1.444
 6446SOL    HW220238   0.301   1.281   1.328
 6447SOL     OW20239   2.068   1.220   3.289
 6447SOL    HW120240   2.052   1.194   3.384
 6447SOL    HW220241   2.054   1.141   3.230
 6448SOL     OW20242   6.374   2.225   2.095
 6448SOL    HW120243   6.304   2.272   2.150
 6448SOL    HW220244   6.345   2.225   1.999
 6449SOL     OW20245   4.859   2.448   0.511
 6449SOL    HW120246   4.760   2.457   0.525
 6449SOL    HW220247   4.905   2.444   0.600
 6450SOL     OW20248   6.578   2.516   0.212
 6450SOL    HW120249   6.519   2.592   0.186
 6450SOL    HW220250   6.613   2.471   0.130
 6451SOL     OW20251   2.717   6.238   4.846
 6451SOL    HW120252   2.741   6.146   4.876
 6451SOL    HW220253   2.645   6.233   4.777
 6452SOL     OW20254   3.831   5.955   4.450
 6452SOL    HW120255   3.857   5.859   4.456
 6452SOL    HW220256   3.755   5.965   4.385
 6453SOL     OW20257   2.376   5.220   6.613
 6453SOL    HW120258   2.425   5.299   6.578
 6453SOL    HW220259   2.378   5.221   6.713
 6454SOL     OW20260   3.645   0.787   5.011
 6454SOL    HW120261   3.685   0.707   5.056
 6454SOL    HW220262   3.695   0.869   5.038
 6455SOL     OW20263   6.292   3.588   6.945
 6455SOL    HW120264   6.223   3.515   6.943
 6455SOL    HW220265   6.267   3.659   6.879
 6456SOL     OW20266   6.514   1.921   4.141
 6456SOL    HW120267   6.548   2.014   4.156
 6456SOL    HW220268   6.417   1.924   4.119
 6457SOL     OW20269   5.646   3.003   1.712
 6457SOL    HW120270   5.632   2.922   1.654
 6457SOL    HW220271   5.643   2.976   1.808
 6458SOL     OW20272   1.573   5.721   3.785
 6458SOL    HW120273   1.638   5.646   3.802
 6458SOL    HW220274   1.480   5.687   3.793
 6459SOL     OW20275   5.820   3.968   6.956
 6459SOL    HW120276   5.830   3.998   0.034
 6459SOL    HW220277   5.887   4.015   6.900
 6460SOL     OW20278   3.806   5.056   1.811
 6460SOL    HW120279   3.821   5.142   1.861
 6460SOL    HW220280   3.853   5.060   1.723
 6461SOL     OW20281   2.957   5.733   4.320
 6461SOL    HW120282   2.976   5.783   4.405
 6461SOL    HW220283   3.025   5.661   4.308
 6462SOL     OW20284   1.844   4.036   2.483
 6462SOL    HW120285   1.755   4.005   2.449
 6462SOL    HW220286   1.856   4.005   2.578
 6463SOL     OW20287   2.038   3.023   5.905
 6463SOL    HW120288   1.982   3.099   5.939
 6463SOL    HW220289   2.043   3.027   5.805
 6464SOL     OW20290   0.722   5.216   1.908
 6464SOL    HW120291   0.739   5.130   1.860
 6464SOL    HW220292   0.656   5.201   1.982
 6465SOL     OW20293   6.737   0.273   3.231
 6465SOL    HW120294   6.691   0.281   3.142
 6465SOL    HW220295   6.815   0.335   3.234
 6466SOL     OW20296   6.260   2.837   4.578
 6466SOL    HW120297   6.346   2.888   4.582
 6466SOL    HW220298   6.193   2.888   4.525
 6467SOL     OW20299   3.868   0.071   6.149
 6467SOL    HW120300   3.833   0.026   6.232
 6467SOL    HW220301   3.915   0.155   6.174
 6468SOL     OW20302   6.381   4.614   2.325
 6468SOL    HW120303   6.354   4.625   2.229
 6468SOL    HW220304   6.476   4.582   2.330
 6469SOL     OW20305   5.832   2.310   6.055
 6469SOL    HW120306   5.812   2.391   6.109
 6469SOL    HW220307   5.775   2.309   5.973
 6470SOL     OW20308   6.539   6.588   4.768
 6470SOL    HW120309   6.499   6.529   4.838
 6470SOL    HW220310   6.505   6.561   4.678
 6471SOL     OW20311   6.787   0.100   4.841
 6471SOL    HW120312   6.790   0.095   4.941
 6471SOL    HW220313   6.749   0.188   4.813
 6472SOL     OW20314   1.636   6.777   2.054
 6472SOL    HW120315   1.548   6.792   2.098
 6472SOL    HW220316   1.621   6.753   1.957
 6473SOL     OW20317   2.329   1.645   5.580
 6473SOL    HW120318   2.361   1.708   5.510
 6473SOL    HW220319   2.255   1.588   5.544
 6474SOL     OW20320   2.106   3.072   6.718
 6474SOL    HW120321   2.121   2.974   6.707
 6474SOL    HW220322   2.015   3.088   6.756
 6475SOL     OW20323   4.071   5.347   3.709
 6475SOL    HW120324   4.052   5.284   3.784
 6475SOL    HW220325   4.128   5.302   3.641
 6476SOL     OW20326   4.831   6.048   2.978
 6476SOL    HW120327   4.826   6.139   2.937
 6476SOL    HW220328   4.908   5.998   2.939
 6477SOL     OW20329   6.439   5.789   0.469
 6477SOL    HW120330   6.439   5.746   0.560
 6477SOL    HW220331   6.513   5.750   0.414
 6478SOL     OW20332   4.157   5.909   1.262
 6478SOL    HW120333   4.257   5.901   1.267
 6478SOL    HW220334   4.125   5.966   1.338
 6479SOL     OW20335   3.285   5.692   2.733
 6479SOL    HW120336   3.215   5.700   2.663
 6479SOL    HW220337   3.331   5.603   2.725
 6480SOL     OW20338   2.211   0.932   0.677
 6480SOL    HW120339   2.279   0.951   0.606
 6480SOL    HW220340   2.183   1.018   0.719
 6481SOL     OW20341   4.673   0.698   0.985
 6481SOL    HW120342   4.643   0.790   1.011
 6481SOL    HW220343   4.595   0.646   0.952
 6482SOL     OW20344   6.943   0.558   5.566
 6482SOL    HW120345   6.979   0.577   5.657
 6482SOL    HW220346   6.930   0.459   5.556
 6483SOL     OW20347   1.309   5.531   1.465
 6483SOL    HW120348   1.286   5.627   1.482
 6483SOL    HW220349   1.272   5.475   1.539
 6484SOL     OW20350   4.606   0.236   3.156
 6484SOL    HW120351   4.562   0.175   3.222
 6484SOL    HW220352   4.572   0.215   3.064
 6485SOL     OW20353   6.800   2.821   1.995
 6485SOL    HW120354   6.883   2.838   2.049
 6485SOL    HW220355   6.781   2.723   1.994
 6486SOL     OW20356   1.387   3.061   3.028
 6486SOL    HW120357   1.413   2.976   2.983
 6486SOL    HW220358   1.405   3.054   3.126
 6487SOL     OW20359   6.085   5.723   3.279
 6487SOL    HW120360   6.068   5.653   3.348
 6487SOL    HW220361   6.035   5.700   3.195
 6488SOL     OW20362   3.357   5.122   4.302
 6488SOL    HW120363   3.385   5.192   4.238
 6488SOL    HW220364   3.394   5.142   4.393
 6489SOL     OW20365   2.909   0.871   6.355
 6489SOL    HW120366   2.917   0.837   6.261
 6489SOL    HW220367   2.964   0.812   6.415
 6490SOL     OW20368   4.597   0.802   0.204
 6490SOL    HW120369   4.655   0.812   0.285
 6490SOL    HW220370   4.501   0.795   0.232
 6491SOL     OW20371   4.967   1.274   5.960
 6491SOL    HW120372   4.968   1.343   5.887
 6491SOL    HW220373   4.966   1.320   6.049
 6492SOL     OW20374   5.799   5.272   5.990
 6492SOL    HW120375   5.885   5.221   5.986
 6492SOL    HW220376   5.791   5.330   5.909
 6493SOL     OW20377   6.833   0.011   5.414
 6493SOL    HW120378   6.861   6.999   5.505
 6493SOL    HW220379   6.734   0.028   5.413
 6494SOL     OW20380   0.362   2.822   3.392
 6494SOL    HW120381   0.423   2.886   3.440
 6494SOL    HW220382   0.333   2.863   3.305
 6495SOL     OW20383   5.648   4.526   2.186
 6495SOL    HW120384   5.628   4.605   2.243
 6495SOL    HW220385   5.583   4.522   2.110
 6496SOL     OW20386   0.242   6.556   3.547
 6496SOL    HW120387   0.158   6.577   3.498
 6496SOL    HW220388   0.246   6.457   3.564
 6497SOL     OW20389   1.139   0.100   1.375
 6497SOL    HW120390   1.159   0.008   1.408
 6497SOL    HW220391   1.184   0.114   1.287
 6498SOL     OW20392   1.255   3.679   4.170
 6498SOL    HW120393   1.258   3.689   4.270
 6498SOL    HW220394   1.202   3.598   4.146
 6499SOL     OW20395   6.287   1.312   3.084
 6499SOL    HW120396   6.189   1.300   3.098
 6499SOL    HW220397   6.304   1.401   3.042
 6500SOL     OW20398   5.696   4.843   2.054
 6500SOL    HW120399   5.629   4.917   2.051
 6500SOL    HW220400   5.672   4.781   2.129
 6501SOL     OW20401   6.505   4.484   0.761
 6501SOL    HW120402   6.497   4.395   0.806
 6501SOL    HW220403   6.500   4.556   0.829
 6502SOL     OW20404   0.507   5.524   1.745
 6502SOL    HW120405   0.552   5.594   1.690
 6502SOL    HW220406   0.496   5.557   1.839
 6503SOL     OW20407   3.875   0.465   3.950
 6503SOL    HW120408   3.961   0.514   3.938
 6503SOL    HW220409   3.841   0.434   3.862
 6504SOL     OW20410   2.311   2.464   0.214
 6504SOL    HW120411   2.229   2.452   0.159
 6504SOL    HW220412   2.290   2.522   0.293
 6505SOL     OW20413   5.531   5.001   0.674
 6505SOL    HW120414   5.544   5.074   0.741
 6505SOL    HW220415   5.590   4.924   0.697
 6506SOL     OW20416   2.228   1.289   1.802
 6506SOL    HW120417   2.181   1.371   1.835
 6506SOL    HW220418   2.274   1.243   1.879
 6507SOL     OW20419   2.846   0.859   1.550
 6507SOL    HW120420   2.918   0.911   1.596
 6507SOL    HW220421   2.869   0.845   1.454
 6508SOL     OW20422   1.057   2.965   1.680
 6508SOL    HW120423   1.061   2.897   1.607
 6508SOL    HW220424   1.143   2.964   1.732
 6509SOL     OW20425   1.476   2.975   3.965
 6509SOL    HW120426   1.532   3.047   4.005
 6509SOL    HW220427   1.428   2.926   4.037
 6510SOL     OW20428   6.176   4.291   6.495
 6510SOL    HW120429   6.202   4.317   6.402
 6510SOL    HW220430   6.076   4.288   6.502
 6511SOL     OW20431   6.509   6.785   6.049
 6511SOL    HW120432   6.575   6.719   6.084
 6511SOL    HW220433   6.501   6.776   5.950
 6512SOL     OW20434   5.367   6.489   4.490
 6512SOL    HW120435   5.304   6.529   4.555
 6512SOL    HW220436   5.461   6.511   4.516
 6513SOL     OW20437   1.195   7.010   3.399
 6513SOL    HW120438   1.108   0.014   3.356
 6513SOL    HW220439   1.222   6.917   3.376
 6514SOL     OW20440   2.586   0.677   4.065
 6514SOL    HW120441   2.653   0.666   3.991
 6514SOL    HW220442   2.559   0.587   4.099
 6515SOL     OW20443   1.436   0.899   3.384
 6515SOL    HW120444   1.407   0.942   3.298
 6515SOL    HW220445   1.500   0.961   3.431
 6516SOL     OW20446   2.391   1.386   5.707
 6516SOL    HW120447   2.419   1.471   5.751
 6516SOL    HW220448   2.293   1.386   5.691
 6517SOL     OW20449   2.874   2.106   1.117
 6517SOL    HW120450   2.839   2.024   1.073
 6517SOL    HW220451   2.886   2.178   1.049
 6518SOL     OW20452   5.585   6.209   1.265
 6518SOL    HW120453   5.497   6.164   1.280
 6518SOL    HW220454   5.657   6.140   1.264
 6519SOL     OW20455   0.228   2.098   3.818
 6519SOL    HW120456   0.317   2.103   3.863
 6519SOL    HW220457   0.233   2.034   3.741
 6520SOL     OW20458   5.773   5.364   0.936
 6520SOL    HW120459   5.841   5.432   0.910
 6520SOL    HW220460   5.714   5.344   0.857
 6521SOL     OW20461   1.327   2.230   5.942
 6521SOL    HW120462   1.323   2.132   5.926
 6521SOL    HW220463   1.253   2.275   5.893
 6522SOL     OW20464   2.497   4.587   4.283
 6522SOL    HW120465   2.556   4.603   4.204
 6522SOL    HW220466   2.403   4.614   4.261
 6523SOL     OW20467   2.488   2.348   0.820
 6523SOL    HW120468   2.518   2.406   0.744
 6523SOL    HW220469   2.524   2.383   0.906
 6524SOL     OW20470   4.042   2.291   5.482
 6524SOL    HW120471   3.969   2.354   5.510
 6524SOL    HW220472   4.004   2.200   5.469
 6525SOL     OW20473   0.580   2.467   4.394
 6525SOL    HW120474   0.624   2.436   4.310
 6525SOL    HW220475   0.613   2.412   4.471
 6526SOL     OW20476   1.519   5.894   3.201
 6526SOL    HW120477   1.458   5.925   3.274
 6526SOL    HW220478   1.606   5.863   3.241
 6527SOL     OW20479   2.100   1.142   4.802
 6527SOL    HW120480   2.012   1.120   4.759
 6527SOL    HW220481   2.106   1.096   4.891
 6528SOL     OW20482   6.969   0.824   2.988
 6528SOL    HW120483   0.030   0.784   3.036
 6528SOL    HW220484   6.925   0.754   2.932
 6529SOL     OW20485   5.917   3.321   2.479
 6529SOL    HW120486   6.011   3.288   2.468
 6529SOL    HW220487   5.881   3.346   2.389
 6530SOL     OW20488   0.191   1.034   0.475
 6530SOL    HW120489   0.157   0.983   0.554
 6530SOL    HW220490   0.171   1.131   0.488
 6531SOL     OW20491   5.068   2.097   5.773
 6531SOL    HW120492   5.016   2.105   5.688
 6531SOL    HW220493   5.148   2.038   5.758
 6532SOL     OW20494   1.558   1.581   6.687
 6532SOL    HW120495   1.468   1.561   6.648
 6532SOL    HW220496   1.607   1.496   6.705
 6533SOL     OW20497   5.133   0.473   0.363
 6533SOL    HW120498   5.086   0.416   0.295
 6533SOL    HW220499   5.231   0.453   0.361
 6534SOL     OW20500   3.975   2.621   6.785
 6534SOL    HW120501   4.070   2.600   6.764
 6534SOL    HW220502   3.921   2.617   6.701
 6535SOL     OW20503   1.933   3.076   5.291
 6535SOL    HW120504   2.020   3.028   5.284
 6535SOL    HW220505   1.875   3.052   5.213
 6536SOL     OW20506   0.534   1.531   0.630
 6536SOL    HW120507   0.537   1.462   0.557
 6536SOL    HW220508   0.627   1.557   0.655
 6537SOL     OW20509   0.385   0.697   6.518
 6537SOL    HW120510   0.394   0.795   6.498
 6537SOL    HW220511   0.292   0.667   6.498
 6538SOL     OW20512   3.069   2.683   5.901
 6538SOL    HW120513   2.971   2.664   5.897
 6538SOL    HW220514   3.085   2.758   5.965
 6539SOL     OW20515   3.307   1.772   6.903
 6539SOL    HW120516   3.276   1.678   6.915
 6539SOL    HW220517   3.398   1.783   6.944
 6540SOL     OW20518   3.956   2.171   3.095
 6540SOL    HW120519   4.038   2.219   3.127
 6540SOL    HW220520   3.970   2.072   3.103
 6541SOL     OW20521   3.018   2.047   5.114
 6541SOL    HW120522   3.084   2.122   5.114
 6541SOL    HW220523   2.936   2.074   5.163
 6542SOL     OW20524   4.523   4.750   3.057
 6542SOL    HW120525   4.539   4.651   3.062
 6542SOL    HW220526   4.576   4.796   3.128
 6543SOL     OW20527   1.603   6.472   6.411
 6543SOL    HW120528   1.651   6.445   6.494
 6543SOL    HW220529   1.618   6.403   6.340
 6544SOL     OW20530   0.563   5.008   2.716
 6544SOL    HW120531   0.532   5.038   2.626
 6544SOL    HW220532   0.663   5.012   2.720
 6545SOL     OW20533   6.169   2.496   6.546
 6545SOL    HW120534   6.127   2.434   6.612
 6545SOL    HW220535   6.176   2.451   6.457
 6546SOL     OW20536   3.139   4.692   6.473
 6546SOL    HW120537   3.136   4.667   6.377
 6546SOL    HW220538   3.225   4.738   6.493
 6547SOL     OW20539   4.025   1.208   6.010
 6547SOL    HW120540   4.104   1.270   6.019
 6547SOL    HW220541   4.058   1.116   5.990
 6548SOL     OW20542   4.962   3.745   5.663
 6548SOL    HW120543   4.918   3.733   5.752
 6548SOL    HW220544   5.013   3.832   5.663
 6549SOL     OW20545   2.563   2.350   2.137
 6549SOL    HW120546   2.560   2.444   2.101
 6549SOL    HW220547   2.602   2.289   2.069
 6550SOL     OW20548   1.139   6.083   2.122
 6550SOL    HW120549   1.227   6.091   2.076
 6550SOL    HW220550   1.125   5.989   2.153
 6551SOL     OW20551   3.249   5.381   1.821
 6551SOL    HW120552   3.226   5.416   1.730
 6551SOL    HW220553   3.165   5.369   1.874
 6552SOL     OW20554   4.361   4.848   5.537
 6552SOL    HW120555   4.410   4.812   5.458
 6552SOL    HW220556   4.423   4.850   5.616
 6553SOL     OW20557   6.676   3.376   3.273
 6553SOL    HW120558   6.668   3.421   3.184
 6553SOL    HW220559   6.613   3.419   3.338
 6554SOL     OW20560   6.497   2.975   4.580
 6554SOL    HW120561   6.587   2.953   4.618
 6554SOL    HW220562   6.498   3.068   4.544
 6555SOL     OW20563   0.510   1.683   1.690
 6555SOL    HW120564   0.462   1.766   1.718
 6555SOL    HW220565   0.446   1.605   1.696
 6556SOL     OW20566   3.314   0.094   3.418
 6556SOL    HW120567   3.367   0.151   3.480
 6556SOL    HW220568   3.375   0.046   3.355
 6557SOL     OW20569   5.306   6.281   0.374
 6557SOL    HW120570   5.239   6.267   0.448
 6557SOL    HW220571   5.265   6.339   0.304
 6558SOL     OW20572   6.254   6.876   6.096
 6558SOL    HW120573   6.225   6.884   6.191
 6558SOL    HW220574   6.346   6.836   6.093
 6559SOL     OW20575   3.017   3.859   1.151
 6559SOL    HW120576   2.957   3.919   1.100
 6559SOL    HW220577   3.107   3.902   1.161
 6560SOL     OW20578   4.655   1.725   0.640
 6560SOL    HW120579   4.722   1.738   0.567
 6560SOL    HW220580   4.702   1.689   0.721
 6561SOL     OW20581   3.772   3.274   4.583
 6561SOL    HW120582   3.709   3.257   4.507
 6561SOL    HW220583   3.861   3.302   4.547
 6562SOL     OW20584   0.195   4.371   5.029
 6562SOL    HW120585   0.109   4.419   5.011
 6562SOL    HW220586   0.176   4.273   5.040
 6563SOL     OW20587   0.931   6.321   2.252
 6563SOL    HW120588   1.019   6.282   2.226
 6563SOL    HW220589   0.888   6.363   2.172
 6564SOL     OW20590   1.903   5.353   2.986
 6564SOL    HW120591   1.825   5.301   3.022
 6564SOL    HW220592   1.920   5.432   3.044
 6565SOL     OW20593   6.934   3.273   5.316
 6565SOL    HW120594   6.975   3.267   5.407
 6565SOL    HW220595   6.942   3.366   5.282
 6566SOL     OW20596   3.841   1.273   0.783
 6566SOL    HW120597   3.865   1.310   0.873
 6566SOL    HW220598   3.871   1.178   0.777
 6567SOL     OW20599   6.898   2.588   0.631
 6567SOL    HW120600   6.941   2.677   0.645
 6567SOL    HW220601   6.874   2.578   0.534
 6568SOL     OW20602   5.379   3.584   1.434
 6568SOL    HW120603   5.387   3.681   1.456
 6568SOL    HW220604   5.453   3.534   1.478
 6569SOL     OW20605   1.333   4.009   5.456
 6569SOL    HW120606   1.344   3.931   5.518
 6569SOL    HW220607   1.318   4.092   5.509
 6570SOL     OW20608   0.250   3.887   2.234
 6570SOL    HW120609   0.242   3.920   2.328
 6570SOL    HW220610   0.195   3.804   2.223
 6571SOL     OW20611   2.140   5.042   4.150
 6571SOL    HW120612   2.205   5.100   4.199
 6571SOL    HW220613   2.049   5.050   4.191
 6572SOL     OW20614   1.452   3.667   5.288
 6572SOL    HW120615   1.399   3.694   5.368
 6572SOL    HW220616   1.432   3.729   5.212
 6573SOL     OW20617   1.537   2.110   1.288
 6573SOL    HW120618   1.583   2.163   1.217
 6573SOL    HW220619   1.544   2.013   1.267
 6574SOL     OW20620   2.152   4.749   4.423
 6574SOL    HW120621   2.185   4.691   4.349
 6574SOL    HW220622   2.230   4.781   4.477
 6575SOL     OW20623   1.429   1.571   2.695
 6575SOL    HW120624   1.355   1.542   2.756
 6575SOL    HW220625   1.505   1.606   2.750
 6576SOL     OW20626   0.529   5.467   4.140
 6576SOL    HW120627   0.497   5.398   4.076
 6576SOL    HW220628   0.549   5.552   4.091
 6577SOL     OW20629   0.635   3.972   5.755
 6577SOL    HW120630   0.590   3.883   5.743
 6577SOL    HW220631   0.666   3.980   5.850
 6578SOL     OW20632   6.091   6.052   4.080
 6578SOL    HW120633   6.148   6.007   4.149
 6578SOL    HW220634   6.149   6.084   4.005
 6579SOL     OW20635   0.134   3.750   3.652
 6579SOL    HW120636   0.102   3.798   3.734
 6579SOL    HW220637   0.220   3.703   3.672
 6580SOL     OW20638   6.089   2.509   0.767
 6580SOL    HW120639   6.120   2.566   0.691
 6580SOL    HW220640   6.168   2.475   0.819
 6581SOL     OW20641   2.576   2.122   5.350
 6581SOL    HW120642   2.643   2.092   5.417
 6581SOL    HW220643   2.484   2.110   5.387
 6582SOL     OW20644   6.219   0.585   2.772
 6582SOL    HW120645   6.200   0.676   2.808
 6582SOL    HW220646   6.258   0.593   2.680
 6583SOL     OW20647   6.225   0.876   6.193
 6583SOL    HW120648   6.159   0.859   6.120
 6583SOL    HW220649   6.301   0.811   6.185
 6584SOL     OW20650   6.077   2.254   0.539
 6584SOL    HW120651   6.102   2.231   0.633
 6584SOL    HW220652   6.030   2.342   0.536
 6585SOL     OW20653   2.365   0.551   2.728
 6585SOL    HW120654   2.437   0.484   2.742
 6585SOL    HW220655   2.390   0.611   2.652
 6586SOL     OW20656   5.692   0.950   6.826
 6586SOL    HW120657   5.753   0.899   6.765
 6586SOL    HW220658   5.735   0.958   6.916
 6587SOL     OW20659   1.412   5.621   1.877
 6587SOL    HW120660   1.321   5.580   1.881
 6587SOL    HW220661   1.476   5.566   1.930
 6588SOL     OW20662   3.510   3.322   0.392
 6588SOL    HW120663   3.605   3.299   0.413
 6588SOL    HW220664   3.483   3.278   0.307
 6589SOL     OW20665   4.859   1.854   6.061
 6589SOL    HW120666   4.877   1.768   6.110
 6589SOL    HW220667   4.899   1.848   5.969
 6590SOL     OW20668   6.621   1.737   5.352
 6590SOL    HW120669   6.525   1.715   5.337
 6590SOL    HW220670   6.677   1.656   5.334
 6591SOL     OW20671   4.932   0.421   2.583
 6591SOL    HW120672   4.898   0.350   2.522
 6591SOL    HW220673   4.871   0.501   2.579
 6592SOL     OW20674   5.525   4.990   5.450
 6592SOL    HW120675   5.550   4.967   5.545
 6592SOL    HW220676   5.427   5.005   5.444
 6593SOL     OW20677   5.637   1.041   2.860
 6593SOL    HW120678   5.653   1.082   2.950
 6593SOL    HW220679   5.590   1.107   2.802
 6594SOL     OW20680   5.487   0.701   6.870
 6594SOL    HW120681   5.527   0.611   6.852
 6594SOL    HW220682   5.560   0.770   6.869
 6595SOL     OW20683   3.832   2.967   6.146
 6595SOL    HW120684   3.759   2.936   6.207
 6595SOL    HW220685   3.799   3.043   6.090
 6596SOL     OW20686   2.321   5.431   4.655
 6596SOL    HW120687   2.408   5.406   4.696
 6596SOL    HW220688   2.294   5.522   4.686
 6597SOL     OW20689   0.124   4.429   0.287
 6597SOL    HW120690   0.077   4.473   0.211
 6597SOL    HW220691   0.073   4.349   0.317
 6598SOL     OW20692   3.087   6.231   4.166
 6598SOL    HW120693   3.072   6.247   4.263
 6598SOL    HW220694   3.161   6.165   4.154
 6599SOL     OW20695   4.077   3.700   6.304
 6599SOL    HW120696   4.141   3.667   6.235
 6599SOL    HW220697   4.074   3.634   6.380
 6600SOL     OW20698   4.441   4.772   4.979
 6600SOL    HW120699   4.424   4.674   4.989
 6600SOL    HW220700   4.472   4.791   4.886
 6601SOL     OW20701   1.116   1.082   2.419
 6601SOL    HW120702   1.084   1.101   2.511
 6601SOL    HW220703   1.215   1.069   2.420
 6602SOL     OW20704   5.472   1.353   1.221
 6602SOL    HW120705   5.476   1.255   1.240
 6602SOL    HW220706   5.458   1.402   1.307
 6603SOL     OW20707   3.000   2.134   1.355
 6603SOL    HW120708   2.950   2.128   1.269
 6603SOL    HW220709   3.087   2.086   1.347
 6604SOL     OW20710   4.248   5.322   5.174
 6604SOL    HW120711   4.154   5.298   5.200
 6604SOL    HW220712   4.295   5.361   5.252
 6605SOL     OW20713   4.834   5.712   1.063
 6605SOL    HW120714   4.842   5.732   0.965
 6605SOL    HW220715   4.868   5.790   1.115
 6606SOL     OW20716   0.530   3.000   3.068
 6606SOL    HW120717   0.453   2.944   3.098
 6606SOL    HW220718   0.537   3.081   3.126
 6607SOL     OW20719   2.105   3.660   2.649
 6607SOL    HW120720   2.130   3.744   2.698
 6607SOL    HW220721   2.058   3.598   2.712
 6608SOL     OW20722   5.279   4.467   4.768
 6608SOL    HW120723   5.275   4.426   4.676
 6608SOL    HW220724   5.349   4.420   4.822
 6609SOL     OW20725   5.537   2.261   6.810
 6609SOL    HW120726   5.438   2.265   6.800
 6609SOL    HW220727   5.575   2.194   6.746
 6610SOL     OW20728   4.042   1.363   0.612
 6610SOL    HW120729   3.984   1.331   0.688
 6610SOL    HW220730   4.045   1.462   0.612
 6611SOL     OW20731   5.579   3.341   2.357
 6611SOL    HW120732   5.572   3.339   2.257
 6611SOL    HW220733   5.583   3.436   2.388
 6612SOL     OW20734   0.637   5.577   6.478
 6612SOL    HW120735   0.735   5.566   6.493
 6612SOL    HW220736   0.587   5.524   6.546
 6613SOL     OW20737   6.059   4.951   0.616
 6613SOL    HW120738   6.115   4.972   0.696
 6613SOL    HW220739   6.061   5.028   0.552
 6614SOL     OW20740   5.903   4.287   6.464
 6614SOL    HW120741   5.943   4.240   6.385
 6614SOL    HW220742   5.803   4.282   6.459
 6615SOL     OW20743   0.081   3.738   4.726
 6615SOL    HW120744   0.179   3.747   4.709
 6615SOL    HW220745   0.065   3.653   4.776
 6616SOL     OW20746   4.899   1.649   4.199
 6616SOL    HW120747   4.873   1.553   4.194
 6616SOL    HW220748   4.871   1.695   4.115
 6617SOL     OW20749   3.997   0.619   4.199
 6617SOL    HW120750   4.025   0.607   4.104
 6617SOL    HW220751   3.935   0.697   4.206
 6618SOL     OW20752   0.495   4.491   1.097
 6618SOL    HW120753   0.417   4.540   1.136
 6618SOL    HW220754   0.461   4.418   1.038
 6619SOL     OW20755   6.169   6.045   2.721
 6619SOL    HW120756   6.167   6.142   2.742
 6619SOL    HW220757   6.169   5.992   2.806
 6620SOL     OW20758   5.037   3.159   5.395
 6620SOL    HW120759   5.111   3.189   5.335
 6620SOL    HW220760   4.950   3.162   5.345
 6621SOL     OW20761   3.912   3.294   1.337
 6621SOL    HW120762   3.813   3.286   1.353
 6621SOL    HW220763   3.931   3.288   1.239
 6622SOL     OW20764   6.013   5.369   0.016
 6622SOL    HW120765   6.098   5.421   0.021
 6622SOL    HW220766   5.938   5.429   7.006
 6623SOL     OW20767   2.983   3.891   2.590
 6623SOL    HW120768   2.903   3.854   2.638
 6623SOL    HW220769   3.025   3.819   2.535
 6624SOL     OW20770   4.651   5.110   4.128
 6624SOL    HW120771   4.678   5.028   4.078
 6624SOL    HW220772   4.691   5.107   4.220
 6625SOL     OW20773   5.367   6.708   0.241
 6625SOL    HW120774   5.449   6.761   0.221
 6625SOL    HW220775   5.302   6.765   0.293
 6626SOL     OW20776   2.572   5.368   4.124
 6626SOL    HW120777   2.646   5.304   4.143
 6626SOL    HW220778   2.536   5.351   4.032
 6627SOL     OW20779   0.252   0.917   1.455
 6627SOL    HW120780   0.276   0.994   1.397
 6627SOL    HW220781   0.180   0.863   1.411
 6628SOL     OW20782   4.054   6.307   3.971
 6628SOL    HW120783   3.956   6.322   3.952
 6628SOL    HW220784   4.067   6.214   4.006
 6629SOL     OW20785   2.894   4.544   0.208
 6629SOL    HW120786   2.833   4.466   0.196
 6629SOL    HW220787   2.848   4.614   0.263
 6630SOL     OW20788   3.212   1.192   6.098
 6630SOL    HW120789   3.278   1.201   6.173
 6630SOL    HW220790   3.121   1.175   6.135
 6631SOL     OW20791   3.571   7.013   2.072
 6631SOL    HW120792   3.626   7.016   1.989
 6631SOL    HW220793   3.630   6.996   2.151
 6632SOL     OW20794   5.893   3.152   1.713
 6632SOL    HW120795   5.809   3.099   1.723
 6632SOL    HW220796   5.943   3.122   1.632
 6633SOL     OW20797   1.162   6.081   3.315
 6633SOL    HW120798   1.113   6.144   3.374
 6633SOL    HW220799   1.257   6.074   3.345
 6634SOL     OW20800   6.180   2.310   5.096
 6634SOL    HW120801   6.195   2.377   5.024
 6634SOL    HW220802   6.181   2.218   5.058
 6635SOL     OW20803   4.253   5.001   3.627
 6635SOL    HW120804   4.162   4.960   3.623
 6635SOL    HW220805   4.255   5.084   3.572
 6636SOL     OW20806   1.876   3.283   2.507
 6636SOL    HW120807   1.832   3.260   2.594
 6636SOL    HW220808   1.973   3.304   2.524
 6637SOL     OW20809   0.007   2.840   0.072
 6637SOL    HW120810   7.010   2.799   6.999
 6637SOL    HW220811   0.099   2.819   0.103
 6638SOL     OW20812   1.840   0.564   6.852
 6638SOL    HW120813   1.883   0.493   6.907
 6638SOL    HW220814   1.888   0.574   6.765
 6639SOL     OW20815   3.823   5.340   5.951
 6639SOL    HW120816   3.831   5.398   5.870
 6639SOL    HW220817   3.914   5.325   5.990
 6640SOL     OW20818   5.333   3.589   3.117
 6640SOL    HW120819   5.308   3.581   3.213
 6640SOL    HW220820   5.279   3.662   3.075
 6641SOL     OW20821   2.525   5.370   6.364
 6641SOL    HW120822   2.443   5.415   6.328
 6641SOL    HW220823   2.554   5.415   6.448
 6642SOL     OW20824   6.511   6.476   5.823
 6642SOL    HW120825   6.550   6.539   5.755
 6642SOL    HW220826   6.557   6.387   5.816
 6643SOL     OW20827   4.187   5.783   0.484
 6643SOL    HW120828   4.211   5.872   0.522
 6643SOL    HW220829   4.264   5.720   0.493
 6644SOL     OW20830   1.087   3.509   1.969
 6644SOL    HW120831   0.993   3.476   1.982
 6644SOL    HW220832   1.089   3.574   1.894
 6645SOL     OW20833   0.167   5.012   5.413
 6645SOL    HW120834   0.208   4.928   5.449
 6645SOL    HW220835   0.198   5.090   5.468
 6646SOL     OW20836   2.141   5.145   3.877
 6646SOL    HW120837   2.236   5.175   3.889
 6646SOL    HW220838   2.113   5.088   3.954
 6647SOL     OW20839   4.226   1.576   1.814
 6647SOL    HW120840   4.133   1.573   1.849
 6647SOL    HW220841   4.228   1.546   1.719
 6648SOL     OW20842   3.384   5.617   1.816
 6648SOL    HW120843   3.333   5.531   1.820
 6648SOL    HW220844   3.405   5.647   1.909
 6649SOL     OW20845   4.097   1.984   5.416
 6649SOL    HW120846   4.138   1.916   5.476
 6649SOL    HW220847   3.998   1.972   5.414
 6650SOL     OW20848   3.441   1.497   4.279
 6650SOL    HW120849   3.441   1.444   4.195
 6650SOL    HW220850   3.408   1.590   4.260
 6651SOL     OW20851   0.835   1.490   1.117
 6651SOL    HW120852   0.896   1.498   1.037
 6651SOL    HW220853   0.879   1.431   1.185
 6652SOL     OW20854   0.517   5.145   3.720
 6652SOL    HW120855   0.558   5.111   3.805
 6652SOL    HW220856   0.566   5.107   3.642
 6653SOL     OW20857   3.617   4.168   3.529
 6653SOL    HW120858   3.533   4.221   3.534
 6653SOL    HW220859   3.651   4.150   3.621
 6654SOL     OW20860   1.349   3.322   1.656
 6654SOL    HW120861   1.411   3.309   1.580
 6654SOL    HW220862   1.285   3.397   1.635
 6655SOL     OW20863   1.319   1.298   6.840
 6655SOL    HW120864   1.273   1.283   6.752
 6655SOL    HW220865   1.410   1.258   6.837
 6656SOL     OW20866   6.402   2.033   1.648
 6656SOL    HW120867   6.494   1.994   1.645
 6656SOL    HW220868   6.348   2.000   1.571
 6657SOL     OW20869   3.653   4.849   5.270
 6657SOL    HW120870   3.747   4.818   5.286
 6657SOL    HW220871   3.589   4.780   5.303
 6658SOL     OW20872   6.276   0.154   5.505
 6658SOL    HW120873   6.301   0.231   5.563
 6658SOL    HW220874   6.223   0.088   5.558
 6659SOL     OW20875   2.233   3.082   0.390
 6659SOL    HW120876   2.209   3.101   0.295
 6659SOL    HW220877   2.302   3.148   0.421
 6660SOL     OW20878   0.102   6.785   2.894
 6660SOL    HW120879   0.068   6.875   2.919
 6660SOL    HW220880   0.060   6.716   2.953
 6661SOL     OW20881   6.851   0.273   3.980
 6661SOL    HW120882   6.878   0.178   3.996
 6661SOL    HW220883   6.889   0.304   3.893
 6662SOL     OW20884   1.284   3.231   6.120
 6662SOL    HW120885   1.188   3.228   6.093
 6662SOL    HW220886   1.294   3.193   6.211
 6663SOL     OW20887   0.534   5.352   2.327
 6663SOL    HW120888   0.612   5.366   2.387
 6663SOL    HW220889   0.450   5.379   2.374
 6664SOL     OW20890   6.803   1.892   1.717
 6664SOL    HW120891   6.806   1.967   1.650
 6664SOL    HW220892   6.825   1.928   1.808
 6665SOL     OW20893   1.882   6.549   3.461
 6665SOL    HW120894   1.837   6.524   3.375
 6665SOL    HW220895   1.920   6.641   3.454
 6666SOL     OW20896   6.021   0.614   0.488
 6666SOL    HW120897   5.963   0.543   0.447
 6666SOL    HW220898   6.018   0.696   0.432
 6667SOL     OW20899   5.482   5.268   5.160
 6667SOL    HW120900   5.445   5.285   5.068
 6667SOL    HW220901   5.488   5.169   5.175
 6668SOL     OW20902   6.400   6.007   0.962
 6668SOL    HW120903   6.359   6.095   0.940
 6668SOL    HW220904   6.470   5.985   0.894
 6669SOL     OW20905   0.650   4.685   3.446
 6669SOL    HW120906   0.659   4.678   3.545
 6669SOL    HW220907   0.740   4.705   3.406
 6670SOL     OW20908   5.454   5.049   0.376
 6670SOL    HW120909   5.405   5.042   0.463
 6670SOL    HW220910   5.551   5.029   0.390
 6671SOL     OW20911   1.025   2.291   5.107
 6671SOL    HW120912   1.107   2.349   5.104
 6671SOL    HW220913   0.990   2.287   5.200
 6672SOL     OW20914   6.976   1.237   5.040
 6672SOL    HW120915   0.042   1.186   5.059
 6672SOL    HW220916   6.931   1.260   5.127
 6673SOL     OW20917   3.449   6.115   1.631
 6673SOL    HW120918   3.410   6.037   1.680
 6673SOL    HW220919   3.426   6.199   1.681
 6674SOL     OW20920   0.713   5.836   4.932
 6674SOL    HW120921   0.736   5.876   4.843
 6674SOL    HW220922   0.775   5.872   5.002
 6675SOL     OW20923   6.329   6.376   6.261
 6675SOL    HW120924   6.296   6.380   6.167
 6675SOL    HW220925   6.285   6.300   6.309
 6676SOL     OW20926   0.579   1.532   0.974
 6676SOL    HW120927   0.646   1.493   1.037
 6676SOL    HW220928   0.626   1.581   0.901
 6677SOL     OW20929   0.776   4.856   0.486
 6677SOL    HW120930   0.726   4.883   0.404
 6677SOL    HW220931   0.728   4.889   0.567
 6678SOL     OW20932   0.598   3.704   3.933
 6678SOL    HW120933   0.516   3.749   3.968
 6678SOL    HW220934   0.679   3.742   3.980
 6679SOL     OW20935   2.338   1.167   4.629
 6679SOL    HW120936   2.252   1.173   4.680
 6679SOL    HW220937   2.332   1.091   4.564
 6680SOL     OW20938   3.011   0.682   6.771
 6680SOL    HW120939   3.107   0.654   6.772
 6680SOL    HW220940   2.958   0.615   6.718
 6681SOL     OW20941   6.033   5.290   6.281
 6681SOL    HW120942   6.031   5.192   6.303
 6681SOL    HW220943   6.087   5.304   6.198
 6682SOL     OW20944   6.196   4.764   2.457
 6682SOL    HW120945   6.255   4.710   2.397
 6682SOL    HW220946   6.252   4.822   2.516
 6683SOL     OW20947   5.419   3.241   4.152
 6683SOL    HW120948   5.487   3.307   4.185
 6683SOL    HW220949   5.444   3.149   4.185
 6684SOL     OW20950   1.701   0.863   1.876
 6684SOL    HW120951   1.731   0.945   1.924
 6684SOL    HW220952   1.634   0.887   1.806
 6685SOL     OW20953   6.165   2.823   6.828
 6685SOL    HW120954   6.103   2.749   6.851
 6685SOL    HW220955   6.113   2.900   6.789
 6686SOL     OW20956   5.032   4.540   3.755
 6686SOL    HW120957   5.036   4.615   3.690
 6686SOL    HW220958   5.094   4.559   3.832
 6687SOL     OW20959   0.344   0.012   6.858
 6687SOL    HW120960   0.271   0.080   6.866
 6687SOL    HW220961   0.331   6.977   6.774
 6688SOL     OW20962   0.217   4.600   2.908
 6688SOL    HW120963   0.237   4.679   2.967
 6688SOL    HW220964   0.278   4.601   2.829
 6689SOL     OW20965   5.867   4.045   0.206
 6689SOL    HW120966   5.957   4.006   0.187
 6689SOL    HW220967   5.855   4.056   0.304
 6690SOL     OW20968   0.158   1.317   0.526
 6690SOL    HW120969   0.131   1.309   0.622
 6690SOL    HW220970   0.114   1.397   0.485
 6691SOL     OW20971   1.094   5.384   1.095
 6691SOL    HW120972   1.038   5.465   1.111
 6691SOL    HW220973   1.098   5.329   1.178
 6692SOL     OW20974   4.950   3.498   6.524
 6692SOL    HW120975   5.028   3.518   6.465
 6692SOL    HW220976   4.983   3.463   6.612
 6693SOL     OW20977   3.912   3.291   6.318
 6693SOL    HW120978   3.885   3.221   6.251
 6693SOL    HW220979   3.926   3.248   6.407
 6694SOL     OW20980   2.961   5.732   0.003
 6694SOL    HW120981   2.864   5.716   7.000
 6694SOL    HW220982   3.017   5.674   6.962
 6695SOL     OW20983   1.926   1.550   0.149
 6695SOL    HW120984   1.984   1.530   0.228
 6695SOL    HW220985   1.875   1.467   0.123
 6696SOL     OW20986   1.674   2.108   0.922
 6696SOL    HW120987   1.588   2.101   0.870
 6696SOL    HW220988   1.660   2.171   0.998
 6697SOL     OW20989   5.350   3.680   4.874
 6697SOL    HW120990   5.259   3.686   4.833
 6697SOL    HW220991   5.417   3.726   4.815
 6698SOL     OW20992   2.532   4.624   6.025
 6698SOL    HW120993   2.558   4.656   6.116
 6698SOL    HW220994   2.614   4.594   5.975
 6699SOL     OW20995   2.116   3.360   6.690
 6699SOL    HW120996   2.075   3.426   6.628
 6699SOL    HW220997   2.135   3.275   6.641
 6700SOL     OW20998   0.178   6.113   5.993
 6700SOL    HW120999   0.152   6.023   5.958
 6700SOL    HW221000   0.142   6.125   6.085
 6701SOL     OW21001   1.809   2.341   6.822
 6701SOL    HW121002   1.730   2.401   6.831
 6701SOL    HW221003   1.892   2.396   6.809
 6702SOL     OW21004   3.238   3.102   0.910
 6702SOL    HW121005   3.270   3.102   0.816
 6702SOL    HW221006   3.313   3.126   0.971
 6703SOL     OW21007   0.604   1.980   0.547
 6703SOL    HW121008   0.650   2.058   0.590
 6703SOL    HW221009   0.612   1.986   0.448
 6704SOL     OW21010   5.211   3.362   2.462
 6704SOL    HW121011   5.288   3.356   2.397
 6704SOL    HW221012   5.164   3.449   2.449
 6705SOL     OW21013   5.152   2.309   1.061
 6705SOL    HW121014   5.122   2.265   1.146
 6705SOL    HW221015   5.147   2.243   0.986
 6706SOL     OW21016   1.627   6.710   6.875
 6706SOL    HW121017   1.640   6.752   6.785
 6706SOL    HW221018   1.553   6.644   6.871
 6707SOL     OW21019   1.267   5.225   3.436
 6707SOL    HW121020   1.336   5.197   3.503
 6707SOL    HW221021   1.255   5.324   3.439
 6708SOL     OW21022   2.119   5.954   1.297
 6708SOL    HW121023   2.120   6.027   1.366
 6708SOL    HW221024   2.093   5.868   1.340
 6709SOL     OW21025   5.126   1.779   3.667
 6709SOL    HW121026   5.074   1.694   3.663
 6709SOL    HW221027   5.070   1.850   3.710
 6710SOL     OW21028   2.581   2.473   0.616
 6710SOL    HW121029   2.662   2.531   0.628
 6710SOL    HW221030   2.576   2.441   0.522
 6711SOL     OW21031   5.873   3.392   6.463
 6711SOL    HW121032   5.779   3.427   6.472
 6711SOL    HW221033   5.920   3.442   6.390
 6712SOL     OW21034   2.981   6.393   0.406
 6712SOL    HW121035   2.914   6.353   0.469
 6712SOL    HW221036   3.053   6.327   0.387
 6713SOL     OW21037   0.514   2.613   3.102
 6713SOL    HW121038   0.451   2.659   3.040
 6713SOL    HW221039   0.462   2.573   3.178
 6714SOL     OW21040   6.872   1.063   4.850
 6714SOL    HW121041   6.777   1.073   4.881
 6714SOL    HW221042   6.930   1.125   4.902
 6715SOL     OW21043   5.075   2.755   0.921
 6715SOL    HW121044   4.979   2.735   0.942
 6715SOL    HW221045   5.118   2.675   0.880
 6716SOL     OW21046   3.479   6.046   0.897
 6716SOL    HW121047   3.453   5.981   0.968
 6716SOL    HW221048   3.506   5.996   0.815
 6717SOL     OW21049   3.885   1.145   0.092
 6717SOL    HW121050   3.883   1.142   0.192
 6717SOL    HW221051   3.947   1.218   0.063
 6718SOL     OW21052   4.401   0.736   6.489
 6718SOL    HW121053   4.416   0.729   6.588
 6718SOL    HW221054   4.384   0.832   6.465
 6719SOL     OW21055   0.931   1.847   5.049
 6719SOL    HW121056   1.003   1.809   4.991
 6719SOL    HW221057   0.928   1.946   5.037
 6720SOL     OW21058   1.410   4.532   0.404
 6720SOL    HW121059   1.329   4.591   0.394
 6720SOL    HW221060   1.492   4.589   0.404
 6721SOL     OW21061   6.455   6.325   2.919
 6721SOL    HW121062   6.427   6.285   2.832
 6721SOL    HW221063   6.552   6.307   2.935
 6722SOL     OW21064   3.903   4.592   6.721
 6722SOL    HW121065   3.885   4.495   6.709
 6722SOL    HW221066   3.975   4.605   6.789
 6723SOL     OW21067   3.775   1.863   2.589
 6723SOL    HW121068   3.745   1.927   2.660
 6723SOL    HW221069   3.726   1.882   2.504
 6724SOL     OW21070   3.305   4.486   5.913
 6724SOL    HW121071   3.360   4.516   5.834
 6724SOL    HW221072   3.234   4.554   5.932
 6725SOL     OW21073   0.720   6.109   1.402
 6725SOL    HW121074   0.732   6.194   1.352
 6725SOL    HW221075   0.701   6.129   1.499
 6726SOL     OW21076   2.163   2.720   1.640
 6726SOL    HW121077   2.212   2.807   1.643
 6726SOL    HW221078   2.207   2.658   1.576
 6727SOL     OW21079   2.998   3.709   1.441
 6727SOL    HW121080   2.969   3.705   1.536
 6727SOL    HW221081   3.098   3.706   1.436
 6728SOL     OW21082   3.990   1.475   3.867
 6728SOL    HW121083   4.083   1.463   3.899
 6728SOL    HW221084   3.954   1.387   3.835
 6729SOL     OW21085   4.199   5.895   3.588
 6729SOL    HW121086   4.208   5.980   3.640
 6729SOL    HW221087   4.181   5.820   3.651
 6730SOL     OW21088   1.040   6.691   2.690
 6730SOL    HW121089   1.050   6.726   2.596
 6730SOL    HW221090   0.951   6.648   2.700
 6731SOL     OW21091   1.792   3.871   1.154
 6731SOL    HW121092   1.871   3.903   1.101
 6731SOL    HW221093   1.824   3.819   1.233
 6732SOL     OW21094   3.354   5.948   0.446
 6732SOL    HW121095   3.422   6.010   0.487
 6732SOL    HW221096   3.304   5.901   0.519
 6733SOL     OW21097   6.441   6.132   4.371
 6733SOL    HW121098   6.367   6.139   4.438
 6733SOL    HW221099   6.463   6.223   4.335
 6734SOL     OW21100   2.641   3.546   6.820
 6734SOL    HW121101   2.727   3.555   6.871
 6734SOL    HW221102   2.581   3.623   6.843
 6735SOL     OW21103   0.472   6.729   5.877
 6735SOL    HW121104   0.452   6.679   5.792
 6735SOL    HW221105   0.530   6.672   5.936
 6736SOL     OW21106   1.853   4.231   1.672
 6736SOL    HW121107   1.937   4.242   1.725
 6736SOL    HW221108   1.803   4.151   1.705
 6737SOL     OW21109   1.708   0.216   1.361
 6737SOL    HW121110   1.612   0.233   1.337
 6737SOL    HW221111   1.764   0.294   1.332
 6738SOL     OW21112   5.048   1.516   0.612
 6738SOL    HW121113   5.080   1.422   0.608
 6738SOL    HW221114   5.119   1.574   0.651
 6739SOL     OW21115   3.836   5.509   5.725
 6739SOL    HW121116   3.788   5.586   5.768
 6739SOL    HW221117   3.806   5.502   5.629
 6740SOL     OW21118   5.610   2.299   5.588
 6740SOL    HW121119   5.680   2.295   5.517
 6740SOL    HW221120   5.549   2.376   5.570
 6741SOL     OW21121   0.551   0.930   5.705
 6741SOL    HW121122   0.642   0.932   5.747
 6741SOL    HW221123   0.486   0.888   5.769
 6742SOL     OW21124   6.121   6.074   5.294
 6742SOL    HW121125   6.096   6.043   5.386
 6742SOL    HW221126   6.117   5.997   5.230
 6743SOL     OW21127   5.918   1.839   0.760
 6743SOL    HW121128   5.997   1.881   0.715
 6743SOL    HW221129   5.877   1.904   0.822
 6744SOL     OW21130   4.349   0.697   4.018
 6744SOL    HW121131   4.376   0.793   4.009
 6744SOL    HW221132   4.273   0.678   3.957
 6745SOL     OW21133   1.076   3.609   3.045
 6745SOL    HW121134   1.109   3.642   3.134
 6745SOL    HW221135   0.987   3.650   3.026
 6746SOL     OW21136   6.090   0.447   0.239
 6746SOL    HW121137   6.043   0.402   0.315
 6746SOL    HW221138   6.188   0.449   0.256
 6747SOL     OW21139   5.218   5.652   6.351
 6747SOL    HW121140   5.185   5.562   6.383
 6747SOL    HW221141   5.218   5.716   6.428
 6748SOL     OW21142   6.430   6.573   2.576
 6748SOL    HW121143   6.384   6.604   2.659
 6748SOL    HW221144   6.527   6.596   2.581
 6749SOL     OW21145   2.804   5.229   0.915
 6749SOL    HW121146   2.900   5.248   0.897
 6749SOL    HW221147   2.770   5.163   0.847
 6750SOL     OW21148   2.219   3.398   5.301
 6750SOL    HW121149   2.298   3.339   5.315
 6750SOL    HW221150   2.227   3.444   5.212
 6751SOL     OW21151   4.729   2.485   5.617
 6751SOL    HW121152   4.796   2.519   5.683
 6751SOL    HW221153   4.670   2.560   5.588
 6752SOL     OW21154   6.303   1.013   0.326
 6752SOL    HW121155   6.333   1.076   0.397
 6752SOL    HW221156   6.271   0.928   0.367
 6753SOL     OW21157   5.704   0.523   6.103
 6753SOL    HW121158   5.753   0.610   6.112
 6753SOL    HW221159   5.609   0.541   6.076
 6754SOL     OW21160   4.109   1.481   6.784
 6754SOL    HW121161   4.175   1.538   6.735
 6754SOL    HW221162   4.079   1.406   6.725
 6755SOL     OW21163   5.242   1.510   2.805
 6755SOL    HW121164   5.178   1.433   2.807
 6755SOL    HW221165   5.194   1.595   2.827
 6756SOL     OW21166   4.528   5.125   2.821
 6756SOL    HW121167   4.473   5.153   2.899
 6756SOL    HW221168   4.620   5.101   2.852
 6757SOL     OW21169   6.256   3.759   1.447
 6757SOL    HW121170   6.210   3.675   1.418
 6757SOL    HW221171   6.187   3.831   1.458
 6758SOL     OW21172   6.842   2.050   2.734
 6758SOL    HW121173   6.935   2.015   2.724
 6758SOL    HW221174   6.825   2.119   2.664
 6759SOL     OW21175   0.134   5.414   4.094
 6759SOL    HW121176   0.118   5.367   4.181
 6759SOL    HW221177   0.157   5.509   4.111
 6760SOL     OW21178   0.596   3.696   5.338
 6760SOL    HW121179   0.645   3.767   5.287
 6760SOL    HW221180   0.531   3.650   5.277
 6761SOL     OW21181   6.417   2.921   6.728
 6761SOL    HW121182   6.324   2.885   6.730
 6761SOL    HW221183   6.453   2.926   6.821
 6762SOL     OW21184   0.082   2.028   4.388
 6762SOL    HW121185   0.141   2.108   4.374
 6762SOL    HW221186   0.010   2.028   4.318
 6763SOL     OW21187   5.655   6.377   5.455
 6763SOL    HW121188   5.626   6.320   5.531
 6763SOL    HW221189   5.751   6.360   5.435
 6764SOL     OW21190   2.085   3.743   6.962
 6764SOL    HW121191   2.156   3.813   6.976
 6764SOL    HW221192   2.069   3.695   0.031
 6765SOL     OW21193   4.733   5.523   1.700
 6765SOL    HW121194   4.732   5.565   1.791
 6765SOL    HW221195   4.818   5.472   1.687
 6766SOL     OW21196   2.771   2.173   5.185
 6766SOL    HW121197   2.685   2.141   5.222
 6766SOL    HW221198   2.806   2.249   5.240
 6767SOL     OW21199   0.546   2.633   6.140
 6767SOL    HW121200   0.631   2.676   6.169
 6767SOL    HW221201   0.493   2.606   6.220
 6768SOL     OW21202   6.370   0.638   5.943
 6768SOL    HW121203   6.281   0.644   5.897
 6768SOL    HW221204   6.442   0.667   5.879
 6769SOL     OW21205   1.091   1.993   6.500
 6769SOL    HW121206   1.017   2.058   6.519
 6769SOL    HW221207   1.159   1.997   6.573
 6770SOL     OW21208   0.450   2.172   3.580
 6770SOL    HW121209   0.529   2.174   3.641
 6770SOL    HW221210   0.415   2.079   3.573
 6771SOL     OW21211   5.453   2.081   1.929
 6771SOL    HW121212   5.359   2.078   1.896
 6771SOL    HW221213   5.504   2.152   1.881
 6772SOL     OW21214   1.665   6.707   1.767
 6772SOL    HW121215   1.595   6.661   1.713
 6772SOL    HW221216   1.730   6.640   1.803
 6773SOL     OW21217   1.669   1.390   3.063
 6773SOL    HW121218   1.641   1.318   3.127
 6773SOL    HW221219   1.646   1.479   3.102
 6774SOL     OW21220   3.572   1.089   5.508
 6774SOL    HW121221   3.577   0.996   5.545
 6774SOL    HW221222   3.609   1.090   5.415
 6775SOL     OW21223   1.479   2.898   4.970
 6775SOL    HW121224   1.503   2.972   5.032
 6775SOL    HW221225   1.553   2.884   4.904
 6776SOL     OW21226   3.437   3.424   4.129
 6776SOL    HW121227   3.387   3.492   4.076
 6776SOL    HW221228   3.392   3.412   4.218
 6777SOL     OW21229   7.006   0.326   5.410
 6777SOL    HW121230   0.032   0.315   5.321
 6777SOL    HW221231   7.010   0.239   5.460
 6778SOL     OW21232   6.070   6.023   1.942
 6778SOL    HW121233   5.976   6.050   1.962
 6778SOL    HW221234   6.093   5.941   1.995
 6779SOL     OW21235   6.073   3.195   5.639
 6779SOL    HW121236   6.159   3.187   5.587
 6779SOL    HW221237   5.999   3.151   5.588
 6780SOL     OW21238   4.760   0.834   2.277
 6780SOL    HW121239   4.731   0.796   2.189
 6780SOL    HW221240   4.844   0.887   2.264
 6781SOL     OW21241   5.338   4.001   3.171
 6781SOL    HW121242   5.436   3.979   3.168
 6781SOL    HW221243   5.286   3.917   3.187
 6782SOL     OW21244   6.613   2.037   2.886
 6782SOL    HW121245   6.701   2.046   2.839
 6782SOL    HW221246   6.538   2.050   2.821
 6783SOL     OW21247   0.703   6.822   6.752
 6783SOL    HW121248   0.669   6.882   6.823
 6783SOL    HW221249   0.785   6.862   6.710
 6784SOL     OW21250   1.633   4.851   6.404
 6784SOL    HW121251   1.650   4.779   6.471
 6784SOL    HW221252   1.716   4.866   6.350
 6785SOL     OW21253   5.635   4.331   1.311
 6785SOL    HW121254   5.654   4.310   1.215
 6785SOL    HW221255   5.719   4.326   1.364
 6786SOL     OW21256   6.515   1.299   6.400
 6786SOL    HW121257   6.442   1.363   6.424
 6786SOL    HW221258   6.476   1.211   6.375
 6787SOL     OW21259   4.249   2.265   1.568
 6787SOL    HW121260   4.153   2.291   1.578
 6787SOL    HW221261   4.303   2.346   1.546
 6788SOL     OW21262   1.584   4.442   1.265
 6788SOL    HW121263   1.623   4.515   1.322
 6788SOL    HW221264   1.552   4.481   1.178
 6789SOL     OW21265   5.644   2.615   2.668
 6789SOL    HW121266   5.552   2.587   2.696
 6789SOL    HW221267   5.682   2.678   2.736
 6790SOL     OW21268   0.903   6.018   6.952
 6790SOL    HW121269   0.998   6.040   6.975
 6790SOL    HW221270   0.894   5.920   6.936
 6791SOL     OW21271   2.062   6.415   3.752
 6791SOL    HW121272   2.109   6.489   3.800
 6791SOL    HW221273   1.973   6.399   3.794
 6792SOL     OW21274   3.073   5.998   0.376
 6792SOL    HW121275   3.173   5.988   0.378
 6792SOL    HW221276   3.034   5.931   0.313
 6793SOL     OW21277   1.499   3.084   5.983
 6793SOL    HW121278   1.421   3.144   6.002
 6793SOL    HW221279   1.572   3.102   6.049
 6794SOL     OW21280   4.459   2.433   3.989
 6794SOL    HW121281   4.387   2.442   4.059
 6794SOL    HW221282   4.531   2.373   4.024
 6795SOL     OW21283   0.778   0.268   2.417
 6795SOL    HW121284   0.713   0.194   2.433
 6795SOL    HW221285   0.745   0.325   2.341
 6796SOL     OW21286   6.085   2.203   2.165
 6796SOL    HW121287   6.053   2.128   2.223
 6796SOL    HW221288   6.023   2.215   2.088
 6797SOL     OW21289   1.838   4.154   0.497
 6797SOL    HW121290   1.857   4.089   0.424
 6797SOL    HW221291   1.897   4.135   0.575
 6798SOL     OW21292   5.359   2.079   1.563
 6798SOL    HW121293   5.265   2.050   1.583
 6798SOL    HW221294   5.382   2.158   1.620
 6799SOL     OW21295   4.085   6.514   2.420
 6799SOL    HW121296   4.095   6.416   2.402
 6799SOL    HW221297   4.136   6.538   2.503
 6800SOL     OW21298   6.672   2.681   2.457
 6800SOL    HW121299   6.697   2.683   2.360
 6800SOL    HW221300   6.749   2.715   2.511
 6801SOL     OW21301   2.121   5.074   5.244
 6801SOL    HW121302   2.081   5.155   5.286
 6801SOL    HW221303   2.131   5.003   5.313
 6802SOL     OW21304   2.385   4.332   2.094
 6802SOL    HW121305   2.366   4.356   1.999
 6802SOL    HW221306   2.404   4.414   2.147
 6803SOL     OW21307   6.412   5.307   6.299
 6803SOL    HW121308   6.317   5.297   6.328
 6803SOL    HW221309   6.433   5.403   6.284
 6804SOL     OW21310   2.976   5.772   1.320
 6804SOL    HW121311   2.928   5.708   1.380
 6804SOL    HW221312   2.958   5.866   1.350
 6805SOL     OW21313   0.110   4.031   4.257
 6805SOL    HW121314   0.061   3.980   4.187
 6805SOL    HW221315   0.178   4.091   4.214
 6806SOL     OW21316   5.747   3.381   1.989
 6806SOL    HW121317   5.700   3.292   1.990
 6806SOL    HW221318   5.738   3.423   1.899
 6807SOL     OW21319   3.907   3.567   2.425
 6807SOL    HW121320   3.931   3.508   2.502
 6807SOL    HW221321   3.905   3.662   2.455
 6808SOL     OW21322   2.363   6.467   4.090
 6808SOL    HW121323   2.461   6.454   4.105
 6808SOL    HW221324   2.347   6.559   4.054
 6809SOL     OW21325   6.440   2.398   0.407
 6809SOL    HW121326   6.486   2.446   0.333
 6809SOL    HW221327   6.496   2.403   0.490
 6810SOL     OW21328   3.245   6.857   4.868
 6810SOL    HW121329   3.232   6.937   4.808
 6810SOL    HW221330   3.181   6.785   4.841
 6811SOL     OW21331   6.670   2.326   1.370
 6811SOL    HW121332   6.605   2.400   1.387
 6811SOL    HW221333   6.626   2.256   1.313
 6812SOL     OW21334   3.406   4.695   5.307
 6812SOL    HW121335   3.338   4.668   5.376
 6812SOL    HW221336   3.370   4.772   5.254
 6813SOL     OW21337   0.482   3.523   1.693
 6813SOL    HW121338   0.443   3.447   1.640
 6813SOL    HW221339   0.419   3.548   1.766
 6814SOL     OW21340   5.082   2.042   1.559
 6814SOL    HW121341   5.034   2.123   1.593
 6814SOL    HW221342   5.015   1.974   1.529
 6815SOL     OW21343   2.030   6.198   1.082
 6815SOL    HW121344   2.060   6.121   1.139
 6815SOL    HW221345   2.009   6.276   1.141
 6816SOL     OW21346   5.648   0.229   3.405
 6816SOL    HW121347   5.742   0.261   3.412
 6816SOL    HW221348   5.630   0.198   3.312
 6817SOL     OW21349   6.276   0.920   1.102
 6817SOL    HW121350   6.242   0.986   1.035
 6817SOL    HW221351   6.260   0.827   1.068
 6818SOL     OW21352   6.929   6.932   5.636
 6818SOL    HW121353   6.959   6.989   5.713
 6818SOL    HW221354   6.974   6.843   5.641
 6819SOL     OW21355   6.357   3.952   0.342
 6819SOL    HW121356   6.341   3.869   0.287
 6819SOL    HW221357   6.274   4.008   0.341
 6820SOL     OW21358   2.414   4.415   0.948
 6820SOL    HW121359   2.347   4.408   1.022
 6820SOL    HW221360   2.449   4.508   0.944
 6821SOL     OW21361   2.419   3.777   5.755
 6821SOL    HW121362   2.385   3.689   5.788
 6821SOL    HW221363   2.439   3.770   5.657
 6822SOL     OW21364   0.553   4.358   4.963
 6822SOL    HW121365   0.588   4.268   4.990
 6822SOL    HW221366   0.453   4.356   4.963
 6823SOL     OW21367   6.726   3.156   5.434
 6823SOL    HW121368   6.805   3.151   5.374
 6823SOL    HW221369   6.702   3.251   5.451
 6824SOL     OW21370   1.396   0.616   3.966
 6824SOL    HW121371   1.485   0.659   3.982
 6824SOL    HW221372   1.408   0.535   3.908
 6825SOL     OW21373   4.808   5.197   1.443
 6825SOL    HW121374   4.788   5.262   1.517
 6825SOL    HW221375   4.888   5.229   1.392
 6826SOL     OW21376   5.678   0.735   4.309
 6826SOL    HW121377   5.711   0.650   4.268
 6826SOL    HW221378   5.602   0.716   4.371
 6827SOL     OW21379   5.263   5.071   5.479
 6827SOL    HW121380   5.186   5.023   5.519
 6827SOL    HW221381   5.257   5.068   5.379
 6828SOL     OW21382   2.537   2.247   2.426
 6828SOL    HW121383   2.504   2.155   2.442
 6828SOL    HW221384   2.523   2.272   2.330
 6829SOL     OW21385   5.961   6.390   4.820
 6829SOL    HW121386   5.880   6.346   4.858
 6829SOL    HW221387   6.038   6.326   4.823
 6830SOL     OW21388   4.061   6.537   3.460
 6830SOL    HW121389   4.107   6.626   3.463
 6830SOL    HW221390   3.979   6.543   3.404
 6831SOL     OW21391   1.993   0.367   0.008
 6831SOL    HW121392   1.918   0.301   0.015
 6831SOL    HW221393   2.080   0.319   0.000
 6832SOL     OW21394   3.782   3.643   0.579
 6832SOL    HW121395   3.691   3.682   0.587
 6832SOL    HW221396   3.782   3.549   0.615
 6833SOL     OW21397   4.022   5.347   0.609
 6833SOL    HW121398   4.067   5.400   0.682
 6833SOL    HW221399   4.046   5.387   0.520
 6834SOL     OW21400   6.652   5.695   5.116
 6834SOL    HW121401   6.723   5.642   5.070
 6834SOL    HW221402   6.607   5.638   5.185
 6835SOL     OW21403   3.797   0.378   2.932
 6835SOL    HW121404   3.872   0.445   2.926
 6835SOL    HW221405   3.737   0.403   3.008
 6836SOL     OW21406   0.691   4.554   6.707
 6836SOL    HW121407   0.600   4.512   6.708
 6836SOL    HW221408   0.755   4.496   6.757
 6837SOL     OW21409   5.857   2.318   1.496
 6837SOL    HW121410   5.807   2.235   1.473
 6837SOL    HW221411   5.951   2.295   1.521
 6838SOL     OW21412   1.974   4.885   6.914
 6838SOL    HW121413   1.941   4.872   6.820
 6838SOL    HW221414   2.052   4.947   6.914
 6839SOL     OW21415   6.470   2.380   5.478
 6839SOL    HW121416   6.555   2.433   5.471
 6839SOL    HW221417   6.457   2.352   5.574
 6840SOL     OW21418   3.177   0.361   4.487
 6840SOL    HW121419   3.175   0.460   4.501
 6840SOL    HW221420   3.262   0.323   4.522
 6841SOL     OW21421   4.809   5.995   0.613
 6841SOL    HW121422   4.831   6.091   0.592
 6841SOL    HW221423   4.878   5.958   0.676
 6842SOL     OW21424   0.104   3.113   3.084
 6842SOL    HW121425   0.188   3.147   3.041
 6842SOL    HW221426   0.026   3.164   3.048
 6843SOL     OW21427   4.368   3.109   1.666
 6843SOL    HW121428   4.423   3.069   1.740
 6843SOL    HW221429   4.321   3.036   1.617
 6844SOL     OW21430   3.076   6.400   3.977
 6844SOL    HW121431   2.988   6.392   3.931
 6844SOL    HW221432   3.080   6.336   4.053
 6845SOL     OW21433   4.122   4.242   0.141
 6845SOL    HW121434   4.105   4.340   0.144
 6845SOL    HW221435   4.050   4.193   0.190
 6846SOL     OW21436   3.750   3.511   4.108
 6846SOL    HW121437   3.848   3.497   4.125
 6846SOL    HW221438   3.710   3.426   4.073
 6847SOL     OW21439   5.049   3.584   0.844
 6847SOL    HW121440   5.093   3.510   0.895
 6847SOL    HW221441   5.094   3.670   0.866
 6848SOL     OW21442   1.185   6.227   4.783
 6848SOL    HW121443   1.165   6.158   4.714
 6848SOL    HW221444   1.227   6.307   4.739
 6849SOL     OW21445   2.495   0.480   4.440
 6849SOL    HW121446   2.425   0.449   4.504
 6849SOL    HW221447   2.508   0.579   4.451
 6850SOL     OW21448   6.786   2.042   1.955
 6850SOL    HW121449   6.776   2.012   2.049
 6850SOL    HW221450   6.731   2.125   1.940
 6851SOL     OW21451   2.362   5.623   0.971
 6851SOL    HW121452   2.450   5.643   1.014
 6851SOL    HW221453   2.293   5.686   1.005
 6852SOL     OW21454   4.705   4.582   2.784
 6852SOL    HW121455   4.708   4.569   2.883
 6852SOL    HW221456   4.653   4.664   2.762
 6853SOL     OW21457   5.732   4.414   4.164
 6853SOL    HW121458   5.694   4.505   4.181
 6853SOL    HW221459   5.712   4.354   4.241
 6854SOL     OW21460   6.346   0.699   6.650
 6854SOL    HW121461   6.349   0.604   6.680
 6854SOL    HW221462   6.278   0.710   6.578
 6855SOL     OW21463   2.730   6.558   2.907
 6855SOL    HW121464   2.703   6.493   2.836
 6855SOL    HW221465   2.651   6.615   2.932
 6856SOL     OW21466   1.072   5.001   5.969
 6856SOL    HW121467   1.027   4.924   6.015
 6856SOL    HW221468   1.170   4.997   5.987
 6857SOL     OW21469   4.717   1.091   6.473
 6857SOL    HW121470   4.712   0.998   6.511
 6857SOL    HW221471   4.682   1.157   6.539
 6858SOL     OW21472   3.318   3.118   6.530
 6858SOL    HW121473   3.281   3.205   6.499
 6858SOL    HW221474   3.246   3.048   6.527
 6859SOL     OW21475   4.396   6.816   1.449
 6859SOL    HW121476   4.416   6.879   1.373
 6859SOL    HW221477   4.438   6.851   1.533
 6860SOL     OW21478   4.766   3.423   0.129
 6860SOL    HW121479   4.687   3.427   0.190
 6860SOL    HW221480   4.815   3.337   0.143
 6861SOL     OW21481   6.370   3.891   6.825
 6861SOL    HW121482   6.292   3.883   6.888
 6861SOL    HW221483   6.362   3.822   6.753
 6862SOL     OW21484   2.799   4.758   4.568
 6862SOL    HW121485   2.820   4.746   4.664
 6862SOL    HW221486   2.717   4.706   4.545
 6863SOL     OW21487   0.937   3.821   4.003
 6863SOL    HW121488   0.930   3.772   4.091
 6863SOL    HW221489   1.020   3.878   4.004
 6864SOL     OW21490   3.111   5.504   6.076
 6864SOL    HW121491   3.188   5.441   6.093
 6864SOL    HW221492   3.107   5.527   5.979
 6865SOL     OW21493   0.979   2.501   5.565
 6865SOL    HW121494   1.007   2.440   5.490
 6865SOL    HW221495   0.882   2.487   5.585
 6866SOL     OW21496   0.252   4.246   2.847
 6866SOL    HW121497   0.261   4.258   2.749
 6866SOL    HW221498   0.204   4.324   2.887
 6867SOL     OW21499   2.502   5.401   3.516
 6867SOL    HW121500   2.556   5.444   3.444
 6867SOL    HW221501   2.537   5.308   3.532
 6868SOL     OW21502   1.846   5.434   5.159
 6868SOL    HW121503   1.840   5.363   5.089
 6868SOL    HW221504   1.756   5.473   5.175
 6869SOL     OW21505   0.175   2.697   4.006
 6869SOL    HW121506   0.112   2.650   3.945
 6869SOL    HW221507   0.249   2.635   4.032
 6870SOL     OW21508   4.818   4.008   3.092
 6870SOL    HW121509   4.768   4.022   3.006
 6870SOL    HW221510   4.846   3.912   3.098
 6871SOL     OW21511   4.202   6.070   2.169
 6871SOL    HW121512   4.258   6.007   2.222
 6871SOL    HW221513   4.156   6.021   2.096
 6872SOL     OW21514   3.197   4.094   0.913
 6872SOL    HW121515   3.104   4.119   0.941
 6872SOL    HW221516   3.262   4.152   0.962
 6873SOL     OW21517   4.682   4.481   5.223
 6873SOL    HW121518   4.731   4.515   5.143
 6873SOL    HW221519   4.739   4.493   5.305
 6874SOL     OW21520   1.452   1.524   6.348
 6874SOL    HW121521   1.458   1.624   6.351
 6874SOL    HW221522   1.381   1.493   6.411
 6875SOL     OW21523   3.576   6.678   5.049
 6875SOL    HW121524   3.527   6.707   5.131
 6875SOL    HW221525   3.658   6.627   5.075
 6876SOL     OW21526   2.786   6.720   4.874
 6876SOL    HW121527   2.755   6.809   4.908
 6876SOL    HW221528   2.712   6.654   4.881
 6877SOL     OW21529   2.154   4.193   0.659
 6877SOL    HW121530   2.070   4.144   0.681
 6877SOL    HW221531   2.195   4.155   0.576
 6878SOL     OW21532   2.240   1.582   4.985
 6878SOL    HW121533   2.173   1.588   5.059
 6878SOL    HW221534   2.288   1.670   4.977
 6879SOL     OW21535   6.244   1.496   5.891
 6879SOL    HW121536   6.252   1.427   5.963
 6879SOL    HW221537   6.209   1.453   5.807
 6880SOL     OW21538   1.006   5.017   4.565
 6880SOL    HW121539   0.931   4.952   4.556
 6880SOL    HW221540   1.055   5.024   4.478
 6881SOL     OW21541   4.900   6.222   1.489
 6881SOL    HW121542   4.833   6.218   1.415
 6881SOL    HW221543   4.866   6.282   1.562
 6882SOL     OW21544   2.599   5.720   5.178
 6882SOL    HW121545   2.531   5.682   5.241
 6882SOL    HW221546   2.661   5.780   5.228
 6883SOL     OW21547   2.555   6.804   2.222
 6883SOL    HW121548   2.533   6.707   2.226
 6883SOL    HW221549   2.472   6.855   2.199
 6884SOL     OW21550   1.789   5.127   3.118
 6884SOL    HW121551   1.829   5.095   3.203
 6884SOL    HW221552   1.705   5.179   3.137
 6885SOL     OW21553   4.283   4.684   4.670
 6885SOL    HW121554   4.210   4.692   4.738
 6885SOL    HW221555   4.356   4.626   4.705
 6886SOL     OW21556   5.197   6.787   0.896
 6886SOL    HW121557   5.112   6.778   0.947
 6886SOL    HW221558   5.246   6.869   0.926
 6887SOL     OW21559   6.708   1.113   4.593
 6887SOL    HW121560   6.804   1.104   4.621
 6887SOL    HW221561   6.682   1.034   4.538
 6888SOL     OW21562   6.972   6.708   3.792
 6888SOL    HW121563   6.880   6.716   3.830
 6888SOL    HW221564   0.003   6.633   3.838
 6889SOL     OW21565   1.897   4.172   6.567
 6889SOL    HW121566   1.942   4.262   6.573
 6889SOL    HW221567   1.922   4.128   6.481
 6890SOL     OW21568   1.264   0.463   1.471
 6890SOL    HW121569   1.181   0.408   1.476
 6890SOL    HW221570   1.279   0.508   1.559
 6891SOL     OW21571   5.181   5.416   5.599
 6891SOL    HW121572   5.157   5.440   5.505
 6891SOL    HW221573   5.131   5.474   5.663
 6892SOL     OW21574   3.080   1.998   4.025
 6892SOL    HW121575   3.055   2.086   4.065
 6892SOL    HW221576   3.042   1.924   4.081
 6893SOL     OW21577   4.949   0.062   1.125
 6893SOL    HW121578   4.905   7.002   1.079
 6893SOL    HW221579   4.883   0.136   1.138
 6894SOL     OW21580   5.519   4.327   5.576
 6894SOL    HW121581   5.522   4.402   5.642
 6894SOL    HW221582   5.612   4.302   5.550
 6895SOL     OW21583   4.771   5.002   4.349
 6895SOL    HW121584   4.757   4.910   4.385
 6895SOL    HW221585   4.721   5.068   4.405
 6896SOL     OW21586   4.963   1.921   2.115
 6896SOL    HW121587   5.056   1.945   2.086
 6896SOL    HW221588   4.901   1.997   2.093
 6897SOL     OW21589   4.164   1.358   1.198
 6897SOL    HW121590   4.213   1.441   1.223
 6897SOL    HW221591   4.189   1.284   1.261
 6898SOL     OW21592   4.160   1.309   1.603
 6898SOL    HW121593   4.187   1.227   1.553
 6898SOL    HW221594   4.150   1.288   1.700
 6899SOL     OW21595   5.292   4.452   5.903
 6899SOL    HW121596   5.271   4.495   5.991
 6899SOL    HW221597   5.218   4.470   5.838
 6900SOL     OW21598   4.044   0.444   6.039
 6900SOL    HW121599   4.083   0.372   6.096
 6900SOL    HW221600   4.033   0.527   6.094
 6901SOL     OW21601   1.326   0.729   6.857
 6901SOL    HW121602   1.300   0.811   6.806
 6901SOL    HW221603   1.415   0.743   6.900
 6902SOL     OW21604   6.261   4.805   2.749
 6902SOL    HW121605   6.185   4.762   2.798
 6902SOL    HW221606   6.335   4.738   2.739
 6903SOL     OW21607   6.267   4.497   6.710
 6903SOL    HW121608   6.297   4.435   6.782
 6903SOL    HW221609   6.286   4.455   6.621
 6904SOL     OW21610   0.592   1.314   2.416
 6904SOL    HW121611   0.498   1.299   2.445
 6904SOL    HW221612   0.635   1.227   2.392
 6905SOL     OW21613   3.582   5.334   0.833
 6905SOL    HW121614   3.572   5.410   0.768
 6905SOL    HW221615   3.513   5.265   0.814
 6906SOL     OW21616   5.902   6.380   2.369
 6906SOL    HW121617   5.891   6.463   2.423
 6906SOL    HW221618   5.995   6.376   2.332
 6907SOL     OW21619   3.771   0.928   1.921
 6907SOL    HW121620   3.677   0.962   1.930
 6907SOL    HW221621   3.768   0.832   1.893
 6908SOL     OW21622   5.326   6.978   0.148
 6908SOL    HW121623   5.315   0.019   0.229
 6908SOL    HW221624   5.243   6.923   0.136
 6909SOL     OW21625   2.347   2.242   0.061
 6909SOL    HW121626   2.374   2.255   6.982
 6909SOL    HW221627   2.350   2.330   0.108
 6910SOL     OW21628   4.226   0.771   0.748
 6910SOL    HW121629   4.232   0.726   0.837
 6910SOL    HW221630   4.254   0.867   0.757
 6911SOL     OW21631   3.828   6.289   5.602
 6911SOL    HW121632   3.729   6.299   5.607
 6911SOL    HW221633   3.851   6.201   5.559
 6912SOL     OW21634   3.326   5.861   1.706
 6912SOL    HW121635   3.226   5.856   1.718
 6912SOL    HW221636   3.367   5.775   1.736
 6913SOL     OW21637   3.724   5.726   5.853
 6913SOL    HW121638   3.627   5.710   5.872
 6913SOL    HW221639   3.771   5.748   5.938
 6914SOL     OW21640   0.006   5.447   6.879
 6914SOL    HW121641   0.029   5.377   6.947
 6914SOL    HW221642   0.056   5.531   6.900
 6915SOL     OW21643   0.957   6.820   6.643
 6915SOL    HW121644   1.052   6.827   6.673
 6915SOL    HW221645   0.924   6.910   6.615
 6916SOL     OW21646   6.045   0.628   6.475
 6916SOL    HW121647   6.123   0.600   6.419
 6916SOL    HW221648   6.018   0.553   6.535
 6917SOL     OW21649   4.191   5.888   6.157
 6917SOL    HW121650   4.112   5.906   6.216
 6917SOL    HW221651   4.255   5.965   6.165
 6918SOL     OW21652   1.477   2.399   3.771
 6918SOL    HW121653   1.472   2.467   3.698
 6918SOL    HW221654   1.457   2.442   3.859
 6919SOL     OW21655   2.118   5.812   3.506
 6919SOL    HW121656   2.133   5.853   3.596
 6919SOL    HW221657   2.193   5.749   3.485
 6920SOL     OW21658   5.838   5.796   4.156
 6920SOL    HW121659   5.806   5.860   4.226
 6920SOL    HW221660   5.765   5.781   4.089
 6921SOL     OW21661   1.891   4.869   2.669
 6921SOL    HW121662   1.838   4.898   2.589
 6921SOL    HW221663   1.834   4.876   2.751
 6922SOL     OW21664   1.687   6.375   1.577
 6922SOL    HW121665   1.645   6.295   1.620
 6922SOL    HW221666   1.779   6.389   1.614
 6923SOL     OW21667   5.098   5.710   4.626
 6923SOL    HW121668   5.180   5.667   4.662
 6923SOL    HW221669   5.087   5.801   4.667
 6924SOL     OW21670   5.643   5.914   2.545
 6924SOL    HW121671   5.694   5.854   2.607
 6924SOL    HW221672   5.685   6.004   2.544
 6925SOL     OW21673   4.304   5.640   2.097
 6925SOL    HW121674   4.273   5.554   2.058
 6925SOL    HW221675   4.256   5.658   2.182
 6926SOL     OW21676   2.719   4.149   5.565
 6926SOL    HW121677   2.763   4.085   5.628
 6926SOL    HW221678   2.683   4.100   5.486
 6927SOL     OW21679   4.028   3.687   0.665
 6927SOL    HW121680   3.938   3.670   0.625
 6927SOL    HW221681   4.089   3.724   0.595
 6928SOL     OW21682   6.601   0.488   6.690
 6928SOL    HW121683   6.625   0.536   6.774
 6928SOL    HW221684   6.574   0.394   6.711
 6929SOL     OW21685   3.769   6.052   0.960
 6929SOL    HW121686   3.769   6.135   1.015
 6929SOL    HW221687   3.696   6.056   0.893
 6930SOL     OW21688   0.163   0.961   3.296
 6930SOL    HW121689   0.105   0.972   3.377
 6930SOL    HW221690   0.128   0.887   3.239
 6931SOL     OW21691   2.519   0.025   1.333
 6931SOL    HW121692   2.438   7.013   1.282
 6931SOL    HW221693   2.601   0.001   1.281
 6932SOL     OW21694   3.092   2.844   0.475
 6932SOL    HW121695   3.063   2.935   0.443
 6932SOL    HW221696   3.037   2.774   0.430
 6933SOL     OW21697   2.765   6.374   5.101
 6933SOL    HW121698   2.732   6.303   5.164
 6933SOL    HW221699   2.776   6.335   5.010
 6934SOL     OW21700   5.093   4.829   6.651
 6934SOL    HW121701   5.175   4.868   6.693
 6934SOL    HW221702   5.062   4.750   6.704
 6935SOL     OW21703   4.527   5.545   3.261
 6935SOL    HW121704   4.582   5.598   3.325
 6935SOL    HW221705   4.539   5.448   3.279
 6936SOL     OW21706   1.129   4.564   0.830
 6936SOL    HW121707   1.099   4.489   0.771
 6936SOL    HW221708   1.229   4.565   0.834
 6937SOL     OW21709   4.336   5.854   6.607
 6937SOL    HW121710   4.312   5.847   6.510
 6937SOL    HW221711   4.259   5.825   6.663
 6938SOL     OW21712   6.325   2.077   5.275
 6938SOL    HW121713   6.231   2.047   5.258
 6938SOL    HW221714   6.346   2.069   5.372
 6939SOL     OW21715   6.577   4.707   1.700
 6939SOL    HW121716   6.484   4.688   1.668
 6939SOL    HW221717   6.588   4.673   1.793
 6940SOL     OW21718   4.118   0.624   3.868
 6940SOL    HW121719   4.161   0.549   3.818
 6940SOL    HW221720   4.068   0.682   3.805
 6941SOL     OW21721   3.510   2.946   5.005
 6941SOL    HW121722   3.430   2.902   4.964
 6941SOL    HW221723   3.496   2.955   5.103
 6942SOL     OW21724   6.314   1.319   6.090
 6942SOL    HW121725   6.270   1.303   6.178
 6942SOL    HW221726   6.343   1.231   6.052
 6943SOL     OW21727   6.092   4.284   0.145
 6943SOL    HW121728   6.011   4.329   0.181
 6943SOL    HW221729   6.103   4.194   0.188
 6944SOL     OW21730   2.153   0.206   0.249
 6944SOL    HW121731   2.095   0.272   0.297
 6944SOL    HW221732   2.243   0.247   0.232
 6945SOL     OW21733   3.888   1.661   6.749
 6945SOL    HW121734   3.914   1.718   6.827
 6945SOL    HW221735   3.946   1.580   6.746
 6946SOL     OW21736   6.105   3.871   2.452
 6946SOL    HW121737   6.073   3.958   2.415
 6946SOL    HW221738   6.053   3.797   2.410
 6947SOL     OW21739   3.701   6.611   0.952
 6947SOL    HW121740   3.783   6.668   0.938
 6947SOL    HW221741   3.620   6.666   0.933
 6948SOL     OW21742   3.263   1.823   5.786
 6948SOL    HW121743   3.320   1.871   5.720
 6948SOL    HW221744   3.277   1.861   5.878
 6949SOL     OW21745   5.208   0.080   2.665
 6949SOL    HW121746   5.135   0.060   2.600
 6949SOL    HW221747   5.223   0.179   2.669
 6950SOL     OW21748   3.310   1.672   3.340
 6950SOL    HW121749   3.267   1.759   3.361
 6950SOL    HW221750   3.245   1.598   3.356
 6951SOL     OW21751   4.330   3.614   5.790
 6951SOL    HW121752   4.263   3.541   5.798
 6951SOL    HW221753   4.363   3.620   5.696
 6952SOL     OW21754   0.535   3.524   6.504
 6952SOL    HW121755   0.447   3.549   6.463
 6952SOL    HW221756   0.602   3.509   6.432
 6953SOL     OW21757   5.721   2.532   4.915
 6953SOL    HW121758   5.727   2.593   4.994
 6953SOL    HW221759   5.625   2.513   4.895
 6954SOL     OW21760   0.093   4.785   1.668
 6954SOL    HW121761   0.003   4.742   1.677
 6954SOL    HW221762   0.164   4.714   1.664
 6955SOL     OW21763   0.403   0.616   3.732
 6955SOL    HW121764   0.428   0.532   3.684
 6955SOL    HW221765   0.322   0.656   3.688
 6956SOL     OW21766   3.553   4.169   1.557
 6956SOL    HW121767   3.583   4.189   1.651
 6956SOL    HW221768   3.526   4.254   1.512
 6957SOL     OW21769   1.620   4.350   0.822
 6957SOL    HW121770   1.655   4.267   0.864
 6957SOL    HW221771   1.695   4.415   0.809
 6958SOL     OW21772   1.876   3.249   5.941
 6958SOL    HW121773   1.828   3.335   5.959
 6958SOL    HW221774   1.883   3.235   5.842
 6959SOL     OW21775   3.985   0.946   5.012
 6959SOL    HW121776   3.964   1.030   4.961
 6959SOL    HW221777   3.938   0.948   5.100
 6960SOL     OW21778   1.105   5.802   6.548
 6960SOL    HW121779   1.026   5.858   6.572
 6960SOL    HW221780   1.189   5.847   6.578
 6961SOL     OW21781   6.021   0.748   3.752
 6961SOL    HW121782   6.048   0.683   3.823
 6961SOL    HW221783   5.935   0.718   3.710
 6962SOL     OW21784   3.353   3.518   1.018
 6962SOL    HW121785   3.361   3.514   1.117
 6962SOL    HW221786   3.392   3.604   0.985
 6963SOL     OW21787   6.290   6.180   1.816
 6963SOL    HW121788   6.336   6.130   1.743
 6963SOL    HW221789   6.212   6.127   1.849
 6964SOL     OW21790   3.745   5.051   5.706
 6964SOL    HW121791   3.744   5.084   5.800
 6964SOL    HW221792   3.776   5.124   5.646
 6965SOL     OW21793   6.032   1.087   5.790
 6965SOL    HW121794   6.036   1.024   5.868
 6965SOL    HW221795   5.936   1.100   5.763
 6966SOL     OW21796   4.550   2.287   3.736
 6966SOL    HW121797   4.457   2.313   3.759
 6966SOL    HW221798   4.600   2.265   3.820
 6967SOL     OW21799   2.963   2.990   6.617
 6967SOL    HW121800   2.945   2.940   6.702
 6967SOL    HW221801   2.882   3.043   6.591
 6968SOL     OW21802   3.621   0.687   3.136
 6968SOL    HW121803   3.586   0.776   3.167
 6968SOL    HW221804   3.584   0.615   3.195
 6969SOL     OW21805   3.659   3.276   1.465
 6969SOL    HW121806   3.624   3.346   1.527
 6969SOL    HW221807   3.588   3.253   1.398
 6970SOL     OW21808   5.153   4.522   0.168
 6970SOL    HW121809   5.216   4.562   0.101
 6970SOL    HW221810   5.078   4.586   0.185
 6971SOL     OW21811   5.889   1.396   2.111
 6971SOL    HW121812   5.790   1.404   2.108
 6971SOL    HW221813   5.926   1.391   2.018
 6972SOL     OW21814   5.022   5.984   4.655
 6972SOL    HW121815   5.087   5.970   4.580
 6972SOL    HW221816   4.930   5.991   4.618
 6973SOL     OW21817   1.516   4.037   2.957
 6973SOL    HW121818   1.591   3.978   2.928
 6973SOL    HW221819   1.534   4.131   2.925
 6974SOL     OW21820   3.040   3.827   5.081
 6974SOL    HW121821   3.075   3.891   5.013
 6974SOL    HW221822   3.106   3.819   5.156
 6975SOL     OW21823   1.959   6.646   6.585
 6975SOL    HW121824   1.935   6.663   6.489
 6975SOL    HW221825   2.020   6.568   6.590
 6976SOL     OW21826   1.175   6.126   1.196
 6976SOL    HW121827   1.261   6.081   1.221
 6976SOL    HW221828   1.154   6.108   1.100
 6977SOL     OW21829   5.588   2.450   1.017
 6977SOL    HW121830   5.555   2.544   1.010
 6977SOL    HW221831   5.529   2.397   1.077
 6978SOL     OW21832   4.754   2.553   3.366
 6978SOL    HW121833   4.734   2.606   3.448
 6978SOL    HW221834   4.728   2.458   3.380
 6979SOL     OW21835   6.948   3.741   4.485
 6979SOL    HW121836   6.959   3.841   4.484
 6979SOL    HW221837   6.986   3.704   4.570
 6980SOL     OW21838   4.733   1.910   4.941
 6980SOL    HW121839   4.758   1.859   5.024
 6980SOL    HW221840   4.778   1.868   4.862
 6981SOL     OW21841   3.177   3.487   6.169
 6981SOL    HW121842   3.132   3.516   6.084
 6981SOL    HW221843   3.271   3.522   6.170
 6982SOL     OW21844   1.029   0.217   4.990
 6982SOL    HW121845   1.018   0.271   4.906
 6982SOL    HW221846   1.043   0.121   4.966
 6983SOL     OW21847   6.243   1.120   2.730
 6983SOL    HW121848   6.309   1.165   2.669
 6983SOL    HW221849   6.183   1.189   2.771
 6984SOL     OW21850   2.107   1.172   6.461
 6984SOL    HW121851   2.143   1.079   6.454
 6984SOL    HW221852   2.126   1.222   6.377
 6985SOL     OW21853   4.741   6.970   3.810
 6985SOL    HW121854   4.697   6.882   3.797
 6985SOL    HW221855   4.705   7.014   3.892
 6986SOL     OW21856   2.040   6.073   5.132
 6986SOL    HW121857   1.961   6.103   5.079
 6986SOL    HW221858   2.023   6.088   5.230
 6987SOL     OW21859   6.902   3.235   6.148
 6987SOL    HW121860   6.805   3.223   6.167
 6987SOL    HW221861   6.941   3.147   6.121
 6988SOL     OW21862   5.657   1.870   6.883
 6988SOL    HW121863   5.564   1.838   6.867
 6988SOL    HW221864   5.678   1.865   6.980
 6989SOL     OW21865   1.875   3.593   4.562
 6989SOL    HW121866   1.957   3.576   4.615
 6989SOL    HW221867   1.891   3.670   4.500
 6990SOL     OW21868   4.188   3.546   1.866
 6990SOL    HW121869   4.235   3.609   1.804
 6990SOL    HW221870   4.219   3.453   1.849
 6991SOL     OW21871   4.543   4.577   5.482
 6991SOL    HW121872   4.482   4.597   5.559
 6991SOL    HW221873   4.637   4.603   5.506
 6992SOL     OW21874   6.584   6.765   5.048
 6992SOL    HW121875   6.590   6.846   5.107
 6992SOL    HW221876   6.494   6.722   5.060
 6993SOL     OW21877   0.589   0.248   3.105
 6993SOL    HW121878   0.641   0.172   3.067
 6993SOL    HW221879   0.612   0.332   3.056
 6994SOL     OW21880   1.959   2.216   0.439
 6994SOL    HW121881   1.946   2.136   0.381
 6994SOL    HW221882   1.876   2.272   0.437
 6995SOL     OW21883   1.353   5.482   3.687
 6995SOL    HW121884   1.442   5.473   3.642
 6995SOL    HW221885   1.348   5.420   3.765
 6996SOL     OW21886   1.788   6.953   5.120
 6996SOL    HW121887   1.791   0.024   5.074
 6996SOL    HW221888   1.699   6.940   5.162
 6997SOL     OW21889   4.265   5.233   4.317
 6997SOL    HW121890   4.339   5.209   4.253
 6997SOL    HW221891   4.208   5.305   4.276
 6998SOL     OW21892   2.827   1.998   2.039
 6998SOL    HW121893   2.793   2.081   1.995
 6998SOL    HW221894   2.913   2.017   2.086
 6999SOL     OW21895   5.696   2.126   0.009
 6999SOL    HW121896   5.628   2.183   6.980
 6999SOL    HW221897   5.779   2.181   0.025
 7000SOL     OW21898   6.836   0.011   1.853
 7000SOL    HW121899   6.912   6.973   1.821
 7000SOL    HW221900   6.870   0.097   1.892
 7001SOL     OW21901   2.759   1.604   0.032
 7001SOL    HW121902   2.731   1.699   0.018
 7001SOL    HW221903   2.809   1.571   6.970
 7002SOL     OW21904   2.690   5.383   1.591
 7002SOL    HW121905   2.748   5.432   1.655
 7002SOL    HW221906   2.701   5.284   1.605
 7003SOL     OW21907   1.836   6.229   5.839
 7003SOL    HW121908   1.880   6.143   5.868
 7003SOL    HW221909   1.779   6.264   5.914
 7004SOL     OW21910   2.051   3.890   6.644
 7004SOL    HW121911   1.952   3.879   6.652
 7004SOL    HW221912   2.074   3.928   6.554
 7005SOL     OW21913   6.045   0.690   5.646
 7005SOL    HW121914   6.006   0.777   5.616
 7005SOL    HW221915   6.114   0.660   5.580
 7006SOL     OW21916   5.124   5.496   3.959
 7006SOL    HW121917   5.223   5.488   3.947
 7006SOL    HW221918   5.102   5.510   4.055
 7007SOL     OW21919   5.551   4.909   1.525
 7007SOL    HW121920   5.557   4.985   1.460
 7007SOL    HW221921   5.604   4.931   1.607
 7008SOL     OW21922   0.833   6.220   3.894
 7008SOL    HW121923   0.790   6.292   3.840
 7008SOL    HW221924   0.774   6.197   3.972
 7009SOL     OW21925   0.142   4.278   1.057
 7009SOL    HW121926   0.227   4.262   1.108
 7009SOL    HW221927   0.146   4.368   1.013
 7010SOL     OW21928   4.838   4.127   6.031
 7010SOL    HW121929   4.887   4.124   6.117
 7010SOL    HW221930   4.896   4.168   5.961
 7011SOL     OW21931   1.081   0.209   5.819
 7011SOL    HW121932   0.990   0.168   5.831
 7011SOL    HW221933   1.089   0.290   5.878
 7012SOL     OW21934   0.616   0.686   1.837
 7012SOL    HW121935   0.559   0.686   1.755
 7012SOL    HW221936   0.681   0.762   1.833
 7013SOL     OW21937   6.190   2.138   1.184
 7013SOL    HW121938   6.222   2.225   1.222
 7013SOL    HW221939   6.092   2.144   1.165
 7014SOL     OW21940   2.317   5.227   0.944
 7014SOL    HW121941   2.294   5.305   0.886
 7014SOL    HW221942   2.299   5.142   0.894
 7015SOL     OW21943   4.735   2.303   2.150
 7015SOL    HW121944   4.643   2.304   2.112
 7015SOL    HW221945   4.769   2.396   2.160
 7016SOL     OW21946   5.168   4.819   0.420
 7016SOL    HW121947   5.083   4.768   0.434
 7016SOL    HW221948   5.158   4.912   0.457
 7017SOL     OW21949   5.301   2.194   5.284
 7017SOL    HW121950   5.351   2.171   5.367
 7017SOL    HW221951   5.242   2.116   5.258
 7018SOL     OW21952   0.675   4.016   2.917
 7018SOL    HW121953   0.700   4.067   3.000
 7018SOL    HW221954   0.576   4.005   2.913
 7019SOL     OW21955   6.791   6.206   2.506
 7019SOL    HW121956   6.857   6.142   2.466
 7019SOL    HW221957   6.719   6.226   2.439
 7020SOL     OW21958   6.781   5.644   6.793
 7020SOL    HW121959   6.769   5.578   6.867
 7020SOL    HW221960   6.830   5.601   6.717
 7021SOL     OW21961   3.089   6.641   5.674
 7021SOL    HW121962   3.026   6.718   5.684
 7021SOL    HW221963   3.077   6.600   5.584
 7022SOL     OW21964   3.648   4.744   5.775
 7022SOL    HW121965   3.634   4.651   5.743
 7022SOL    HW221966   3.676   4.802   5.699
 7023SOL     OW21967   4.666   5.305   2.011
 7023SOL    HW121968   4.752   5.342   2.048
 7023SOL    HW221969   4.594   5.374   2.017
 7024SOL     OW21970   6.293   0.005   2.093
 7024SOL    HW121971   6.380   0.022   2.141
 7024SOL    HW221972   6.284   6.925   2.073
 7025SOL     OW21973   2.862   0.268   1.471
 7025SOL    HW121974   2.890   0.206   1.398
 7025SOL    HW221975   2.789   0.328   1.438
 7026SOL     OW21976   4.739   2.527   0.795
 7026SOL    HW121977   4.764   2.603   0.735
 7026SOL    HW221978   4.789   2.534   0.881
 7027SOL     OW21979   5.772   5.641   4.949
 7027SOL    HW121980   5.764   5.678   5.042
 7027SOL    HW221981   5.858   5.592   4.940
 7028SOL     OW21982   3.232   1.070   4.499
 7028SOL    HW121983   3.257   1.000   4.566
 7028SOL    HW221984   3.162   1.035   4.437
 7029SOL     OW21985   3.634   0.113   3.985
 7029SOL    HW121986   3.651   0.104   4.083
 7029SOL    HW221987   3.544   0.077   3.963
 7030SOL     OW21988   1.207   3.901   3.997
 7030SOL    HW121989   1.228   3.811   4.035
 7030SOL    HW221990   1.284   3.931   3.940
 7031SOL     OW21991   1.995   0.826   4.166
 7031SOL    HW121992   2.010   0.811   4.068
 7031SOL    HW221993   2.074   0.792   4.217
 7032SOL     OW21994   6.002   2.290   3.512
 7032SOL    HW121995   6.087   2.341   3.528
 7032SOL    HW221996   5.936   2.312   3.584
 7033SOL     OW21997   0.167   1.031   5.071
 7033SOL    HW121998   0.164   0.975   4.988
 7033SOL    HW221999   0.176   0.972   5.151
 7034SOL     OW22000   0.206   5.098   3.789
 7034SOL    HW122001   0.242   5.183   3.749
 7034SOL    HW222002   0.118   5.076   3.747
 7035SOL     OW22003   0.077   4.768   1.250
 7035SOL    HW122004   0.018   4.713   1.308
 7035SOL    HW222005   0.041   4.862   1.245
 7036SOL     OW22006   6.560   5.409   0.577
 7036SOL    HW122007   6.489   5.339   0.580
 7036SOL    HW222008   6.581   5.438   0.671
 7037SOL     OW22009   1.185   0.364   6.458
 7037SOL    HW122010   1.208   0.389   6.552
 7037SOL    HW222011   1.236   0.282   6.432
 7038SOL     OW22012   2.243   2.760   4.492
 7038SOL    HW122013   2.300   2.758   4.575
 7038SOL    HW222014   2.256   2.674   4.441
 7039SOL     OW22015   3.864   1.967   6.472
 7039SOL    HW122016   3.936   2.017   6.519
 7039SOL    HW222017   3.786   1.957   6.534
 7040SOL     OW22018   6.306   1.934   6.547
 7040SOL    HW122019   6.239   1.860   6.542
 7040SOL    HW222020   6.348   1.947   6.457
 7041SOL     OW22021   2.005   1.417   3.573
 7041SOL    HW122022   1.922   1.362   3.562
 7041SOL    HW222023   1.980   1.513   3.579
 7042SOL     OW22024   1.970   1.115   6.986
 7042SOL    HW122025   2.008   1.024   7.003
 7042SOL    HW222026   2.003   1.148   6.897
 7043SOL     OW22027   1.695   2.734   1.238
 7043SOL    HW122028   1.735   2.783   1.161
 7043SOL    HW222029   1.764   2.677   1.282
 7044SOL     OW22030   0.251   5.964   0.793
 7044SOL    HW122031   0.280   5.926   0.705
 7044SOL    HW222032   0.152   5.955   0.802
 7045SOL     OW22033   0.348   4.837   0.228
 7045SOL    HW122034   0.366   4.781   0.147
 7045SOL    HW222035   0.254   4.873   0.223
 7046SOL     OW22036   2.630   2.187   3.668
 7046SOL    HW122037   2.666   2.161   3.578
 7046SOL    HW222038   2.575   2.111   3.704
 7047SOL     OW22039   1.224   6.723   3.290
 7047SOL    HW122040   1.233   6.770   3.202
 7047SOL    HW222041   1.269   6.634   3.286
 7048SOL     OW22042   0.133   5.678   6.923
 7048SOL    HW122043   0.187   5.709   7.001
 7048SOL    HW222044   0.098   5.758   6.873
 7049SOL     OW22045   2.562   1.436   6.670
 7049SOL    HW122046   2.564   1.372   6.747
 7049SOL    HW222047   2.656   1.454   6.640
 7050SOL     OW22048   3.486   3.536   5.945
 7050SOL    HW122049   3.537   3.474   5.885
 7050SOL    HW222050   3.501   3.630   5.915
 7051SOL     OW22051   5.939   6.024   2.555
 7051SOL    HW122052   5.869   6.093   2.540
 7051SOL    HW222053   6.013   6.062   2.611
 7052SOL     OW22054   6.353   0.622   5.044
 7052SOL    HW122055   6.262   0.591   5.073
 7052SOL    HW222056   6.374   0.710   5.085
 7053SOL     OW22057   6.436   3.197   6.415
 7053SOL    HW122058   6.454   3.101   6.392
 7053SOL    HW222059   6.339   3.216   6.406
 7054SOL     OW22060   5.941   2.275   2.612
 7054SOL    HW122061   5.896   2.235   2.532
 7054SOL    HW222062   5.981   2.363   2.588
 7055SOL     OW22063   4.302   1.743   3.429
 7055SOL    HW122064   4.397   1.769   3.447
 7055SOL    HW222065   4.244   1.825   3.434
 7056SOL     OW22066   4.831   5.678   4.718
 7056SOL    HW122067   4.742   5.692   4.676
 7056SOL    HW222068   4.902   5.678   4.648
 7057SOL     OW22069   5.871   6.222   2.866
 7057SOL    HW122070   5.890   6.125   2.875
 7057SOL    HW222071   5.775   6.236   2.845
 7058SOL     OW22072   6.886   3.805   4.899
 7058SOL    HW122073   6.971   3.798   4.846
 7058SOL    HW222074   6.856   3.900   4.902
 7059SOL     OW22075   1.454   0.359   1.947
 7059SOL    HW122076   1.390   0.291   1.912
 7059SOL    HW222077   1.509   0.395   1.871
 7060SOL     OW22078   3.902   0.055   1.148
 7060SOL    HW122079   3.938   0.001   1.225
 7060SOL    HW222080   3.972   0.061   1.077
 7061SOL     OW22081   0.929   1.386   2.941
 7061SOL    HW122082   0.895   1.292   2.941
 7061SOL    HW222083   0.883   1.439   3.012
 7062SOL     OW22084   6.542   1.326   5.803
 7062SOL    HW122085   6.623   1.354   5.855
 7062SOL    HW222086   6.478   1.280   5.864
 7063SOL     OW22087   1.965   6.355   1.689
 7063SOL    HW122088   2.017   6.441   1.684
 7063SOL    HW222089   2.018   6.282   1.648
 7064SOL     OW22090   3.274   2.893   0.666
 7064SOL    HW122091   3.323   2.979   0.650
 7064SOL    HW222092   3.237   2.859   0.580
 7065SOL     OW22093   3.364   3.446   2.550
 7065SOL    HW122094   3.313   3.530   2.566
 7065SOL    HW222095   3.445   3.467   2.495
 7066SOL     OW22096   2.526   4.741   1.730
 7066SOL    HW122097   2.531   4.808   1.656
 7066SOL    HW222098   2.610   4.688   1.732
 7067SOL     OW22099   1.002   3.981   4.822
 7067SOL    HW122100   1.013   3.941   4.913
 7067SOL    HW222101   1.004   4.081   4.830
 7068SOL     OW22102   0.999   0.987   2.898
 7068SOL    HW122103   0.899   0.982   2.901
 7068SOL    HW222104   1.038   0.908   2.946
 7069SOL     OW22105   1.422   4.338   5.419
 7069SOL    HW122106   1.331   4.364   5.387
 7069SOL    HW222107   1.466   4.281   5.349
 7070SOL     OW22108   5.813   5.472   2.897
 7070SOL    HW122109   5.795   5.450   2.801
 7070SOL    HW222110   5.825   5.388   2.949
 7071SOL     OW22111   1.665   6.702   5.576
 7071SOL    HW122112   1.761   6.690   5.601
 7071SOL    HW222113   1.643   6.799   5.571
 7072SOL     OW22114   0.094   0.133   6.527
 7072SOL    HW122115   0.032   0.211   6.542
 7072SOL    HW222116   0.039   0.052   6.504
 7073SOL     OW22117   2.078   2.460   7.006
 7073SOL    HW122118   2.087   2.364   6.978
 7073SOL    HW222119   2.078   2.519   6.925
 7074SOL     OW22120   3.661   1.214   6.474
 7074SOL    HW122121   3.580   1.207   6.416
 7074SOL    HW222122   3.743   1.196   6.419
 7075SOL     OW22123   1.005   6.308   3.419
 7075SOL    HW122124   1.003   6.388   3.479
 7075SOL    HW222125   1.051   6.332   3.333
 7076SOL     OW22126   2.958   1.137   6.219
 7076SOL    HW122127   2.919   1.047   6.240
 7076SOL    HW222128   2.898   1.208   6.254
 7077SOL     OW22129   1.029   5.548   6.237
 7077SOL    HW122130   1.125   5.552   6.266
 7077SOL    HW222131   1.012   5.460   6.193
 7078SOL     OW22132   0.309   0.500   1.626
 7078SOL    HW122133   0.338   0.523   1.719
 7078SOL    HW222134   0.212   0.520   1.615
 7079SOL     OW22135   4.914   6.692   4.420
 7079SOL    HW122136   4.829   6.644   4.440
 7079SOL    HW222137   4.903   6.747   4.337
 7080SOL     OW22138   6.025   0.631   4.035
 7080SOL    HW122139   5.995   0.551   4.086
 7080SOL    HW222140   6.110   0.609   3.986
 7081SOL     OW22141   4.668   0.902   4.531
 7081SOL    HW122142   4.697   0.959   4.454
 7081SOL    HW222143   4.568   0.892   4.529
 7082SOL     OW22144   5.962   1.119   0.345
 7082SOL    HW122145   5.864   1.132   0.331
 7082SOL    HW222146   5.988   1.152   0.436
 7083SOL     OW22147   4.015   0.570   5.044
 7083SOL    HW122148   4.042   0.486   5.091
 7083SOL    HW222149   4.097   0.620   5.016
 7084SOL     OW22150   5.989   5.713   0.024
 7084SOL    HW122151   5.920   5.641   0.030
 7084SOL    HW222152   5.945   5.800   0.000
 7085SOL     OW22153   5.184   1.633   1.358
 7085SOL    HW122154   5.130   1.598   1.282
 7085SOL    HW222155   5.194   1.732   1.349
 7086SOL     OW22156   1.642   0.902   5.914
 7086SOL    HW122157   1.639   0.956   5.830
 7086SOL    HW222158   1.643   0.964   5.993
 7087SOL     OW22159   2.368   2.724   4.730
 7087SOL    HW122160   2.439   2.791   4.749
 7087SOL    HW222161   2.309   2.714   4.810
 7088SOL     OW22162   6.995   1.588   4.373
 7088SOL    HW122163   7.006   1.551   4.281
 7088SOL    HW222164   6.947   1.522   4.431
 7089SOL     OW22165   2.983   1.797   1.876
 7089SOL    HW122166   2.929   1.854   1.938
 7089SOL    HW222167   2.922   1.746   1.816
 7090SOL     OW22168   3.313   0.543   5.203
 7090SOL    HW122169   3.227   0.496   5.225
 7090SOL    HW222170   3.370   0.482   5.148
 7091SOL     OW22171   6.525   5.484   6.857
 7091SOL    HW122172   6.606   5.486   6.915
 7091SOL    HW222173   6.469   5.565   6.873
 7092SOL     OW22174   3.628   2.270   0.340
 7092SOL    HW122175   3.707   2.272   0.400
 7092SOL    HW222176   3.574   2.353   0.351
 7093SOL     OW22177   3.822   3.165   5.945
 7093SOL    HW122178   3.726   3.193   5.946
 7093SOL    HW222179   3.858   3.171   5.851
 7094SOL     OW22180   6.058   0.961   6.636
 7094SOL    HW122181   6.085   0.923   6.547
 7094SOL    HW222182   5.959   0.968   6.641
 7095SOL     OW22183   0.997   3.977   1.043
 7095SOL    HW122184   1.059   3.976   0.965
 7095SOL    HW222185   1.005   4.065   1.090
 7096SOL     OW22186   3.791   0.037   3.315
 7096SOL    HW122187   3.696   0.032   3.283
 7096SOL    HW222188   3.819   6.966   3.352
 7097SOL     OW22189   1.636   1.289   1.799
 7097SOL    HW122190   1.665   1.262   1.891
 7097SOL    HW222191   1.710   1.337   1.753
 7098SOL     OW22192   1.468   0.638   6.508
 7098SOL    HW122193   1.543   0.693   6.546
 7098SOL    HW222194   1.382   0.669   6.546
 7099SOL     OW22195   6.998   1.639   5.158
 7099SOL    HW122196   0.052   1.570   5.168
 7099SOL    HW222197   6.922   1.619   5.219
 7100SOL     OW22198   5.453   1.773   1.064
 7100SOL    HW122199   5.419   1.692   1.111
 7100SOL    HW222200   5.551   1.763   1.048
 7101SOL     OW22201   1.674   0.716   4.684
 7101SOL    HW122202   1.578   0.716   4.657
 7101SOL    HW222203   1.696   0.629   4.729
 7102SOL     OW22204   4.622   2.682   0.430
 7102SOL    HW122205   4.679   2.669   0.349
 7102SOL    HW222206   4.581   2.773   0.428
 7103SOL     OW22207   2.016   7.012   6.523
 7103SOL    HW122208   1.927   0.035   6.543
 7103SOL    HW222209   2.048   0.026   6.433
 7104SOL     OW22210   0.502   3.707   1.487
 7104SOL    HW122211   0.595   3.710   1.450
 7104SOL    HW222212   0.495   3.634   1.555
 7105SOL     OW22213   2.018   2.638   4.906
 7105SOL    HW122214   1.981   2.724   4.871
 7105SOL    HW222215   2.058   2.586   4.831
 7106SOL     OW22216   3.117   2.916   5.197
 7106SOL    HW122217   3.097   2.982   5.124
 7106SOL    HW222218   3.035   2.904   5.253
 7107SOL     OW22219   2.305   1.394   0.152
 7107SOL    HW122220   2.349   1.438   0.231
 7107SOL    HW222221   2.232   1.334   0.184
 7108SOL     OW22222   4.466   6.617   2.437
 7108SOL    HW122223   4.465   6.679   2.359
 7108SOL    HW222224   4.382   6.628   2.490
 7109SOL     OW22225   4.706   5.915   6.912
 7109SOL    HW122226   4.747   5.916   6.821
 7109SOL    HW222227   4.640   5.840   6.918
 7110SOL     OW22228   3.746   4.903   4.090
 7110SOL    HW122229   3.746   4.923   4.187
 7110SOL    HW222230   3.653   4.911   4.054
 7111SOL     OW22231   1.124   2.970   3.095
 7111SOL    HW122232   1.125   2.874   3.121
 7111SOL    HW222233   1.216   3.008   3.107
 7112SOL     OW22234   1.702   6.206   2.845
 7112SOL    HW122235   1.619   6.198   2.901
 7112SOL    HW222236   1.685   6.168   2.754
 7113SOL     OW22237   3.751   4.037   5.874
 7113SOL    HW122238   3.653   4.054   5.869
 7113SOL    HW222239   3.800   4.124   5.885
 7114SOL     OW22240   3.797   6.423   1.111
 7114SOL    HW122241   3.897   6.428   1.113
 7114SOL    HW222242   3.760   6.508   1.075
 7115SOL     OW22243   3.992   2.331   1.682
 7115SOL    HW122244   3.967   2.272   1.758
 7115SOL    HW222245   3.932   2.312   1.604
 7116SOL     OW22246   6.058   4.075   3.740
 7116SOL    HW122247   6.100   4.159   3.704
 7116SOL    HW222248   6.031   4.090   3.835
 7117SOL     OW22249   5.239   6.822   2.670
 7117SOL    HW122250   5.218   6.916   2.645
 7117SOL    HW222251   5.158   6.765   2.654
 7118SOL     OW22252   6.635   3.379   3.707
 7118SOL    HW122253   6.719   3.325   3.701
 7118SOL    HW222254   6.654   3.474   3.682
 7119SOL     OW22255   0.592   2.293   2.350
 7119SOL    HW122256   0.657   2.367   2.367
 7119SOL    HW222257   0.516   2.328   2.295
 7120SOL     OW22258   4.445   5.936   4.256
 7120SOL    HW122259   4.410   6.029   4.265
 7120SOL    HW222260   4.522   5.934   4.192
 7121SOL     OW22261   1.968   6.390   1.299
 7121SOL    HW122262   1.872   6.411   1.277
 7121SOL    HW222263   2.026   6.465   1.268
 7122SOL     OW22264   0.209   6.164   0.328
 7122SOL    HW122265   0.178   6.203   0.241
 7122SOL    HW222266   0.157   6.081   0.348
 7123SOL     OW22267   3.258   4.802   0.915
 7123SOL    HW122268   3.253   4.772   1.011
 7123SOL    HW222269   3.338   4.760   0.872
 7124SOL     OW22270   0.189   5.271   6.603
 7124SOL    HW122271   0.237   5.358   6.615
 7124SOL    HW222272   0.112   5.266   6.667
 7125SOL     OW22273   1.313   5.745   3.082
 7125SOL    HW122274   1.399   5.783   3.117
 7125SOL    HW222275   1.309   5.648   3.105
 7126SOL     OW22276   1.622   4.136   1.186
 7126SOL    HW122277   1.631   4.097   1.278
 7126SOL    HW222278   1.589   4.230   1.193
 7127SOL     OW22279   2.139   0.301   4.912
 7127SOL    HW122280   2.119   0.383   4.859
 7127SOL    HW222281   2.161   0.326   5.006
 7128SOL     OW22282   3.310   3.230   2.757
 7128SOL    HW122283   3.307   3.315   2.704
 7128SOL    HW222284   3.241   3.233   2.829
 7129SOL     OW22285   3.275   1.548   0.890
 7129SOL    HW122286   3.373   1.553   0.869
 7129SOL    HW222287   3.253   1.614   0.962
 7130SOL     OW22288   1.759   0.484   2.796
 7130SOL    HW122289   1.826   0.488   2.870
 7130SOL    HW222290   1.674   0.444   2.830
 7131SOL     OW22291   2.541   1.071   3.214
 7131SOL    HW122292   2.535   0.972   3.230
 7131SOL    HW222293   2.614   1.109   3.271
 7132SOL     OW22294   2.891   3.477   2.381
 7132SOL    HW122295   2.791   3.484   2.379
 7132SOL    HW222296   2.918   3.381   2.391
 7133SOL     OW22297   6.614   3.923   1.539
 7133SOL    HW122298   6.586   3.881   1.625
 7133SOL    HW222299   6.569   3.875   1.463
 7134SOL     OW22300   4.509   4.492   2.496
 7134SOL    HW122301   4.529   4.435   2.416
 7134SOL    HW222302   4.535   4.586   2.477
 7135SOL     OW22303   6.883   1.971   5.262
 7135SOL    HW122304   6.864   1.934   5.171
 7135SOL    HW222305   6.816   1.934   5.327
 7136SOL     OW22306   1.661   1.897   6.331
 7136SOL    HW122307   1.599   1.965   6.372
 7136SOL    HW222308   1.746   1.941   6.303
 7137SOL     OW22309   5.171   1.679   5.123
 7137SOL    HW122310   5.089   1.627   5.143
 7137SOL    HW222311   5.213   1.645   5.039
 7138SOL     OW22312   2.049   1.795   6.544
 7138SOL    HW122313   2.042   1.748   6.456
 7138SOL    HW222314   1.960   1.834   6.569
 7139SOL     OW22315   1.981   1.787   0.273
 7139SOL    HW122316   2.040   1.746   0.344
 7139SOL    HW222317   1.956   1.717   0.207
 7140SOL     OW22318   6.614   4.506   4.176
 7140SOL    HW122319   6.663   4.584   4.137
 7140SOL    HW222320   6.522   4.501   4.138
 7141SOL     OW22321   0.833   0.410   2.167
 7141SOL    HW122322   0.789   0.475   2.228
 7141SOL    HW222323   0.834   0.446   2.074
 7142SOL     OW22324   3.835   6.594   3.976
 7142SOL    HW122325   3.862   6.499   3.961
 7142SOL    HW222326   3.804   6.634   3.890
 7143SOL     OW22327   1.692   2.633   3.674
 7143SOL    HW122328   1.778   2.636   3.622
 7143SOL    HW222329   1.618   2.668   3.618
 7144SOL     OW22330   1.571   3.641   3.618
 7144SOL    HW122331   1.571   3.574   3.543
 7144SOL    HW222332   1.602   3.597   3.702
 7145SOL     OW22333   3.670   5.603   6.978
 7145SOL    HW122334   3.684   5.668   6.904
 7145SOL    HW222335   3.641   5.652   0.043
 7146SOL     OW22336   3.618   4.896   1.304
 7146SOL    HW122337   3.694   4.838   1.333
 7146SOL    HW222338   3.632   4.988   1.341
 7147SOL     OW22339   0.699   1.199   3.478
 7147SOL    HW122340   0.774   1.253   3.439
 7147SOL    HW222341   0.623   1.196   3.413
 7148SOL     OW22342   6.913   1.903   0.532
 7148SOL    HW122343   6.919   1.904   0.432
 7148SOL    HW222344   6.820   1.880   0.559
 7149SOL     OW22345   1.066   0.856   4.940
 7149SOL    HW122346   1.142   0.914   4.909
 7149SOL    HW222347   0.985   0.874   4.885
 7150SOL     OW22348   5.925   2.788   5.796
 7150SOL    HW122349   5.974   2.755   5.876
 7150SOL    HW222350   5.987   2.839   5.737
 7151SOL     OW22351   1.400   0.046   0.382
 7151SOL    HW122352   1.378   0.047   0.285
 7151SOL    HW222353   1.316   0.056   0.436
 7152SOL     OW22354   1.002   2.471   4.910
 7152SOL    HW122355   0.998   2.404   4.984
 7152SOL    HW222356   0.919   2.464   4.854
 7153SOL     OW22357   4.510   2.131   3.026
 7153SOL    HW122358   4.529   2.068   2.950
 7153SOL    HW222359   4.570   2.211   3.018
 7154SOL     OW22360   3.384   6.760   4.397
 7154SOL    HW122361   3.311   6.739   4.331
 7154SOL    HW222362   3.368   6.851   4.436
 7155SOL     OW22363   2.561   1.514   3.981
 7155SOL    HW122364   2.499   1.494   3.905
 7155SOL    HW222365   2.611   1.431   4.005
 7156SOL     OW22366   2.308   5.391   5.165
 7156SOL    HW122367   2.394   5.339   5.162
 7156SOL    HW222368   2.248   5.357   5.093
 7157SOL     OW22369   5.642   4.523   0.193
 7157SOL    HW122370   5.552   4.494   0.225
 7157SOL    HW222371   5.661   4.616   0.223
 7158SOL     OW22372   3.653   0.353   3.193
 7158SOL    HW122373   3.610   0.265   3.171
 7158SOL    HW222374   3.628   0.380   3.286
 7159SOL     OW22375   1.373   6.269   0.129
 7159SOL    HW122376   1.402   6.201   0.196
 7159SOL    HW222377   1.450   6.293   0.070
 7160SOL     OW22378   0.140   0.394   2.292
 7160SOL    HW122379   0.089   0.478   2.312
 7160SOL    HW222380   0.232   0.418   2.261
 7161SOL     OW22381   3.147   4.105   4.754
 7161SOL    HW122382   3.079   4.176   4.739
 7161SOL    HW222383   3.169   4.099   4.851
 7162SOL     OW22384   3.499   4.967   4.060
 7162SOL    HW122385   3.418   4.909   4.064
 7162SOL    HW222386   3.500   5.028   4.140
 7163SOL     OW22387   1.069   6.124   4.032
 7163SOL    HW122388   1.122   6.089   3.956
 7163SOL    HW222389   0.994   6.181   3.998
 7164SOL     OW22390   3.681   1.626   4.312
 7164SOL    HW122391   3.724   1.606   4.224
 7164SOL    HW222392   3.591   1.583   4.316
 7165SOL     OW22393   4.268   5.154   1.938
 7165SOL    HW122394   4.188   5.127   1.991
 7165SOL    HW222395   4.254   5.132   1.841
 7166SOL     OW22396   3.081   6.539   2.724
 7166SOL    HW122397   3.058   6.448   2.691
 7166SOL    HW222398   3.124   6.592   2.651
 7167SOL     OW22399   5.898   3.377   0.375
 7167SOL    HW122400   5.888   3.376   0.474
 7167SOL    HW222401   5.820   3.329   0.333
 7168SOL     OW22402   6.749   1.312   4.287
 7168SOL    HW122403   6.811   1.266   4.223
 7168SOL    HW222404   6.796   1.326   4.375
 7169SOL     OW22405   2.664   2.912   6.833
 7169SOL    HW122406   2.635   2.820   6.808
 7169SOL    HW222407   2.738   2.907   6.900
 7170SOL     OW22408   4.791   4.036   4.537
 7170SOL    HW122409   4.856   3.986   4.480
 7170SOL    HW222410   4.778   3.987   4.624
 7171SOL     OW22411   3.749   3.749   5.383
 7171SOL    HW122412   3.792   3.748   5.473
 7171SOL    HW222413   3.737   3.844   5.353
 7172SOL     OW22414   6.041   5.832   0.891
 7172SOL    HW122415   5.977   5.893   0.937
 7172SOL    HW222416   6.097   5.884   0.827
 7173SOL     OW22417   6.983   6.441   4.591
 7173SOL    HW122418   6.970   6.439   4.492
 7173SOL    HW222419   0.061   6.421   4.612
 7174SOL     OW22420   1.279   6.445   6.192
 7174SOL    HW122421   1.284   6.497   6.277
 7174SOL    HW222422   1.292   6.506   6.115
 7175SOL     OW22423   6.250   3.711   5.579
 7175SOL    HW122424   6.164   3.680   5.539
 7175SOL    HW222425   6.235   3.735   5.676
 7176SOL     OW22426   1.019   3.589   0.760
 7176SOL    HW122427   0.957   3.589   0.683
 7176SOL    HW222428   1.114   3.584   0.727
 7177SOL     OW22429   0.790   5.344   1.400
 7177SOL    HW122430   0.793   5.443   1.387
 7177SOL    HW222431   0.724   5.321   1.472
 7178SOL     OW22432   6.290   0.443   6.721
 7178SOL    HW122433   6.351   0.373   6.685
 7178SOL    HW222434   6.198   0.428   6.685
 7179SOL     OW22435   0.573   3.703   5.642
 7179SOL    HW122436   0.669   3.701   5.614
 7179SOL    HW222437   0.532   3.613   5.628
 7180SOL     OW22438   7.013   0.784   2.015
 7180SOL    HW122439   6.995   0.691   1.982
 7180SOL    HW222440   0.063   0.782   2.088
 7181SOL     OW22441   5.385   5.905   2.667
 7181SOL    HW122442   5.463   5.904   2.605
 7181SOL    HW222443   5.301   5.887   2.615
 7182SOL     OW22444   4.243   3.560   6.143
 7182SOL    HW122445   4.286   3.489   6.199
 7182SOL    HW222446   4.304   3.586   6.069
 7183SOL     OW22447   2.280   2.810   2.995
 7183SOL    HW122448   2.297   2.724   2.947
 7183SOL    HW222449   2.365   2.864   2.996
 7184SOL     OW22450   2.309   5.322   3.130
 7184SOL    HW122451   2.296   5.386   3.206
 7184SOL    HW222452   2.223   5.276   3.110
 7185SOL     OW22453   5.558   2.475   6.628
 7185SOL    HW122454   5.652   2.501   6.608
 7185SOL    HW222455   5.556   2.421   6.712
 7186SOL     OW22456   1.310   6.622   4.390
 7186SOL    HW122457   1.401   6.587   4.410
 7186SOL    HW222458   1.317   6.714   4.351
 7187SOL     OW22459   1.657   5.087   1.277
 7187SOL    HW122460   1.611   5.175   1.289
 7187SOL    HW222461   1.742   5.102   1.226
 7188SOL     OW22462   4.791   0.421   1.636
 7188SOL    HW122463   4.816   0.487   1.707
 7188SOL    HW222464   4.744   0.343   1.678
 7189SOL     OW22465   5.685   0.902   5.868
 7189SOL    HW122466   5.599   0.891   5.918
 7189SOL    HW222467   5.730   0.813   5.859
 7190SOL     OW22468   4.897   5.101   2.161
 7190SOL    HW122469   4.828   5.166   2.192
 7190SOL    HW222470   4.982   5.116   2.212
 7191SOL     OW22471   0.807   3.311   1.369
 7191SOL    HW122472   0.830   3.262   1.453
 7191SOL    HW222473   0.890   3.349   1.328
 7192SOL     OW22474   2.785   4.577   5.835
 7192SOL    HW122475   2.730   4.507   5.790
 7192SOL    HW222476   2.876   4.541   5.854
 7193SOL     OW22477   5.739   1.997   4.860
 7193SOL    HW122478   5.786   1.960   4.780
 7193SOL    HW222479   5.758   2.094   4.868
 7194SOL     OW22480   3.189   0.576   1.974
 7194SOL    HW122481   3.192   0.488   2.021
 7194SOL    HW222482   3.269   0.631   2.001
 7195SOL     OW22483   0.449   0.015   2.942
 7195SOL    HW122484   0.540   7.016   2.980
 7195SOL    HW222485   0.456   0.077   2.864
 7196SOL     OW22486   3.840   4.085   1.739
 7196SOL    HW122487   3.771   4.157   1.741
 7196SOL    HW222488   3.796   3.996   1.749
 7197SOL     OW22489   2.292   1.190   4.090
 7197SOL    HW122490   2.331   1.281   4.104
 7197SOL    HW222491   2.196   1.198   4.065
 7198SOL     OW22492   7.015   0.032   5.871
 7198SOL    HW122493   0.083   0.071   5.836
 7198SOL    HW222494   0.009   0.009   5.968
 7199SOL     OW22495   6.122   5.774   2.067
 7199SOL    HW122496   6.212   5.753   2.105
 7199SOL    HW222497   6.051   5.736   2.126
 7200SOL     OW22498   1.201   2.166   2.608
 7200SOL    HW122499   1.262   2.087   2.612
 7200SOL    HW222500   1.107   2.134   2.596
 7201SOL     OW22501   1.353   4.714   3.432
 7201SOL    HW122502   1.414   4.736   3.355
 7201SOL    HW222503   1.407   4.679   3.508
 7202SOL     OW22504   2.281   6.733   6.219
 7202SOL    HW122505   2.245   6.792   6.291
 7202SOL    HW222506   2.372   6.699   6.246
 7203SOL     OW22507   5.761   0.223   0.166
 7203SOL    HW122508   5.702   0.299   0.137
 7203SOL    HW222509   5.723   0.183   0.250
 7204SOL     OW22510   0.216   3.170   2.468
 7204SOL    HW122511   0.230   3.213   2.557
 7204SOL    HW222512   0.298   3.184   2.412
 7205SOL     OW22513   1.026   4.095   1.733
 7205SOL    HW122514   1.053   4.169   1.794
 7205SOL    HW222515   1.036   4.008   1.780
 7206SOL     OW22516   6.425   0.802   1.723
 7206SOL    HW122517   6.355   0.732   1.736
 7206SOL    HW222518   6.437   0.819   1.625
 7207SOL     OW22519   3.773   0.313   1.259
 7207SOL    HW122520   3.796   0.262   1.176
 7207SOL    HW222521   3.695   0.269   1.304
 7208SOL     OW22522   2.459   0.229   4.896
 7208SOL    HW122523   2.535   0.276   4.941
 7208SOL    HW222524   2.381   0.292   4.888
 7209SOL     OW22525   2.680   3.723   5.344
 7209SOL    HW122526   2.741   3.749   5.418
 7209SOL    HW222527   2.693   3.786   5.267
 7210SOL     OW22528   4.325   0.488   4.168
 7210SOL    HW122529   4.362   0.573   4.132
 7210SOL    HW222530   4.283   0.505   4.257
 7211SOL     OW22531   0.678   5.461   2.693
 7211SOL    HW122532   0.667   5.375   2.743
 7211SOL    HW222533   0.588   5.494   2.664
 7212SOL     OW22534   5.837   6.655   3.138
 7212SOL    HW122535   5.813   6.752   3.130
 7212SOL    HW222536   5.935   6.647   3.157
 7213SOL     OW22537   5.455   6.244   5.671
 7213SOL    HW122538   5.418   6.313   5.734
 7213SOL    HW222539   5.499   6.171   5.724
 7214SOL     OW22540   1.398   4.844   6.250
 7214SOL    HW122541   1.491   4.852   6.288
 7214SOL    HW222542   1.392   4.762   6.194
 7215SOL     OW22543   1.022   3.092   1.265
 7215SOL    HW122544   1.111   3.050   1.245
 7215SOL    HW222545   1.035   3.190   1.282
 7216SOL     OW22546   2.583   1.650   2.778
 7216SOL    HW122547   2.531   1.603   2.849
 7216SOL    HW222548   2.661   1.698   2.819
 7217SOL     OW22549   0.868   3.850   1.931
 7217SOL    HW122550   0.832   3.809   2.015
 7217SOL    HW222551   0.868   3.782   1.858
 7218SOL     OW22552   6.345   2.904   3.365
 7218SOL    HW122553   6.387   2.839   3.428
 7218SOL    HW222554   6.292   2.972   3.416
 7219SOL     OW22555   2.221   1.287   1.533
 7219SOL    HW122556   2.230   1.192   1.500
 7219SOL    HW222557   2.212   1.287   1.632
 7220SOL     OW22558   6.893   1.405   3.148
 7220SOL    HW122559   6.975   1.387   3.203
 7220SOL    HW222560   6.859   1.496   3.168
 7221SOL     OW22561   6.546   3.948   4.708
 7221SOL    HW122562   6.623   3.979   4.653
 7221SOL    HW222563   6.548   3.994   4.797
 7222SOL     OW22564   6.562   6.961   2.875
 7222SOL    HW122565   6.624   6.905   2.930
 7222SOL    HW222566   6.468   6.946   2.905
 7223SOL     OW22567   4.757   1.278   4.474
 7223SOL    HW122568   4.802   1.332   4.545
 7223SOL    HW222569   4.674   1.236   4.511
 7224SOL     OW22570   5.583   1.570   3.455
 7224SOL    HW122571   5.588   1.651   3.513
 7224SOL    HW222572   5.672   1.550   3.416
 7225SOL     OW22573   2.718   0.597   1.616
 7225SOL    HW122574   2.698   0.559   1.526
 7225SOL    HW222575   2.772   0.681   1.606
 7226SOL     OW22576   5.936   6.572   5.185
 7226SOL    HW122577   5.846   6.601   5.217
 7226SOL    HW222578   5.942   6.584   5.086
 7227SOL     OW22579   0.690   2.892   5.525
 7227SOL    HW122580   0.783   2.861   5.504
 7227SOL    HW222581   0.692   2.988   5.553
 7228SOL     OW22582   1.503   0.142   2.800
 7228SOL    HW122583   1.460   0.200   2.731
 7228SOL    HW222584   1.603   0.149   2.791
 7229SOL     OW22585   6.629   0.156   3.446
 7229SOL    HW122586   6.622   0.210   3.530
 7229SOL    HW222587   6.650   0.217   3.370
 7230SOL     OW22588   6.387   5.267   1.221
 7230SOL    HW122589   6.330   5.348   1.237
 7230SOL    HW222590   6.372   5.201   1.294
 7231SOL     OW22591   5.901   0.702   6.953
 7231SOL    HW122592   5.994   0.738   6.944
 7231SOL    HW222593   5.854   0.709   6.866
 7232SOL     OW22594   3.270   3.945   0.689
 7232SOL    HW122595   3.245   3.995   0.771
 7232SOL    HW222596   3.248   3.848   0.701
 7233SOL     OW22597   1.029   1.627   6.272
 7233SOL    HW122598   1.037   1.700   6.204
 7233SOL    HW222599   1.000   1.665   6.359
 7234SOL     OW22600   5.246   2.610   3.981
 7234SOL    HW122601   5.294   2.698   3.973
 7234SOL    HW222602   5.275   2.550   3.906
 7235SOL     OW22603   5.864   2.558   4.453
 7235SOL    HW122604   5.903   2.481   4.504
 7235SOL    HW222605   5.838   2.630   4.517
 7236SOL     OW22606   0.998   1.702   3.138
 7236SOL    HW122607   1.052   1.741   3.064
 7236SOL    HW222608   1.013   1.755   3.222
 7237SOL     OW22609   5.684   5.734   5.198
 7237SOL    HW122610   5.725   5.673   5.266
 7237SOL    HW222611   5.697   5.829   5.228
 7238SOL     OW22612   1.420   0.286   2.384
 7238SOL    HW122613   1.480   0.248   2.314
 7238SOL    HW222614   1.365   0.213   2.424
 7239SOL     OW22615   4.843   1.744   1.925
 7239SOL    HW122616   4.774   1.806   1.887
 7239SOL    HW222617   4.882   1.784   2.008
 7240SOL     OW22618   3.145   3.050   3.840
 7240SOL    HW122619   3.059   3.079   3.882
 7240SOL    HW222620   3.222   3.095   3.884
 7241SOL     OW22621   4.330   0.225   5.164
 7241SOL    HW122622   4.319   0.153   5.095
 7241SOL    HW222623   4.250   0.225   5.224
 7242SOL     OW22624   6.234   5.956   0.389
 7242SOL    HW122625   6.318   5.903   0.406
 7242SOL    HW222626   6.253   6.053   0.404
 7243SOL     OW22627   1.032   5.800   0.972
 7243SOL    HW122628   0.967   5.875   0.984
 7243SOL    HW222629   1.122   5.837   0.947
 7244SOL     OW22630   5.266   1.771   1.605
 7244SOL    HW122631   5.174   1.735   1.621
 7244SOL    HW222632   5.285   1.771   1.507
 7245SOL     OW22633   6.118   1.706   3.526
 7245SOL    HW122634   6.132   1.630   3.463
 7245SOL    HW222635   6.195   1.770   3.519
 7246SOL     OW22636   0.706   5.479   5.492
 7246SOL    HW122637   0.645   5.556   5.515
 7246SOL    HW222638   0.696   5.407   5.561
 7247SOL     OW22639   3.932   5.702   3.979
 7247SOL    HW122640   3.884   5.771   3.925
 7247SOL    HW222641   3.908   5.713   4.076
 7248SOL     OW22642   3.112   0.792   4.902
 7248SOL    HW122643   3.061   0.708   4.923
 7248SOL    HW222644   3.195   0.795   4.958
 7249SOL     OW22645   5.092   2.561   6.243
 7249SOL    HW122646   5.184   2.561   6.282
 7249SOL    HW222647   5.074   2.475   6.196
 7250SOL     OW22648   3.221   2.994   0.122
 7250SOL    HW122649   3.248   3.062   0.190
 7250SOL    HW222650   3.213   3.037   0.032
 7251SOL     OW22651   6.080   1.433   5.654
 7251SOL    HW122652   6.049   1.526   5.633
 7251SOL    HW222653   6.108   1.388   5.569
 7252SOL     OW22654   4.634   3.496   5.407
 7252SOL    HW122655   4.653   3.515   5.311
 7252SOL    HW222656   4.608   3.400   5.418
 7253SOL     OW22657   4.851   4.989   6.677
 7253SOL    HW122658   4.785   4.916   6.658
 7253SOL    HW222659   4.944   4.953   6.672
 7254SOL     OW22660   5.475   5.984   4.882
 7254SOL    HW122661   5.382   6.018   4.868
 7254SOL    HW222662   5.512   5.953   4.794
 7255SOL     OW22663   3.497   3.708   3.463
 7255SOL    HW122664   3.446   3.770   3.405
 7255SOL    HW222665   3.486   3.614   3.430
 7256SOL     OW22666   3.391   5.734   3.625
 7256SOL    HW122667   3.319   5.664   3.621
 7256SOL    HW222668   3.352   5.823   3.605
 7257SOL     OW22669   6.107   5.210   2.525
 7257SOL    HW122670   6.049   5.171   2.597
 7257SOL    HW222671   6.098   5.310   2.527
 7258SOL     OW22672   2.711   0.636   6.310
 7258SOL    HW122673   2.680   0.730   6.322
 7258SOL    HW222674   2.726   0.617   6.213
 7259SOL     OW22675   3.499   4.061   5.959
 7259SOL    HW122676   3.411   4.096   5.991
 7259SOL    HW222677   3.525   3.982   6.014
 7260SOL     OW22678   4.337   2.265   2.497
 7260SOL    HW122679   4.289   2.215   2.569
 7260SOL    HW222680   4.326   2.217   2.410
 7261SOL     OW22681   2.389   4.810   1.373
 7261SOL    HW122682   2.295   4.783   1.394
 7261SOL    HW222683   2.445   4.728   1.359
 7262SOL     OW22684   5.799   0.137   4.701
 7262SOL    HW122685   5.822   0.156   4.797
 7262SOL    HW222686   5.871   0.080   4.661
 7263SOL     OW22687   5.128   4.892   1.346
 7263SOL    HW122688   5.186   4.811   1.350
 7263SOL    HW222689   5.053   4.882   1.411
 7264SOL     OW22690   0.221   0.015   4.640
 7264SOL    HW122691   0.135   0.009   4.690
 7264SOL    HW222692   0.294   6.990   4.694
 7265SOL     OW22693   4.468   2.865   6.480
 7265SOL    HW122694   4.380   2.906   6.455
 7265SOL    HW222695   4.470   2.848   6.579
 7266SOL     OW22696   4.259   1.607   2.998
 7266SOL    HW122697   4.320   1.598   3.077
 7266SOL    HW222698   4.239   1.704   2.982
 7267SOL     OW22699   5.069   2.032   3.853
 7267SOL    HW122700   4.970   2.017   3.848
 7267SOL    HW222701   5.090   2.123   3.817
 7268SOL     OW22702   4.121   6.037   0.078
 7268SOL    HW122703   4.025   6.066   0.080
 7268SOL    HW222704   4.170   6.091   0.009
 7269SOL     OW22705   1.652   6.983   3.126
 7269SOL    HW122706   1.671   0.060   3.151
 7269SOL    HW222707   1.626   6.931   3.209
 7270SOL     OW22708   3.329   2.395   1.580
 7270SOL    HW122709   3.298   2.404   1.485
 7270SOL    HW222710   3.392   2.318   1.587
 7271SOL     OW22711   5.370   5.880   3.822
 7271SOL    HW122712   5.388   5.823   3.902
 7271SOL    HW222713   5.367   5.823   3.740
 7272SOL     OW22714   5.817   1.087   1.902
 7272SOL    HW122715   5.808   0.999   1.856
 7272SOL    HW222716   5.737   1.143   1.883
 7273SOL     OW22717   6.283   5.150   4.663
 7273SOL    HW122718   6.351   5.091   4.619
 7273SOL    HW222719   6.223   5.190   4.594
 7274SOL     OW22720   5.772   4.841   3.870
 7274SOL    HW122721   5.677   4.860   3.892
 7274SOL    HW222722   5.777   4.761   3.810
 7275SOL     OW22723   5.807   0.086   2.151
 7275SOL    HW122724   5.903   0.088   2.122
 7275SOL    HW222725   5.764   0.173   2.128
 7276SOL     OW22726   4.269   1.890   3.044
 7276SOL    HW122727   4.189   1.916   2.991
 7276SOL    HW222728   4.343   1.955   3.025
 7277SOL     OW22729   5.987   2.427   3.994
 7277SOL    HW122730   6.069   2.393   3.947
 7277SOL    HW222731   5.989   2.527   3.996
 7278SOL     OW22732   3.859   1.546   3.239
 7278SOL    HW122733   3.801   1.618   3.200
 7278SOL    HW222734   3.910   1.501   3.166
 7279SOL     OW22735   3.686   3.801   1.833
 7279SOL    HW122736   3.700   3.767   1.926
 7279SOL    HW222737   3.594   3.840   1.826
 7280SOL     OW22738   6.466   1.279   5.543
 7280SOL    HW122739   6.531   1.216   5.501
 7280SOL    HW222740   6.495   1.300   5.636
 7281SOL     OW22741   3.703   6.687   3.724
 7281SOL    HW122742   3.777   6.737   3.680
 7281SOL    HW222743   3.633   6.750   3.754
 7282SOL     OW22744   1.011   3.488   1.257
 7282SOL    HW122745   0.962   3.567   1.294
 7282SOL    HW222746   1.032   3.503   1.161
 7283SOL     OW22747   2.737   6.074   2.988
 7283SOL    HW122748   2.816   6.128   3.017
 7283SOL    HW222749   2.762   5.977   2.984
 7284SOL     OW22750   0.710   0.579   3.946
 7284SOL    HW122751   0.653   0.640   4.002
 7284SOL    HW222752   0.697   0.485   3.976
 7285SOL     OW22753   4.797   2.475   1.881
 7285SOL    HW122754   4.754   2.564   1.869
 7285SOL    HW222755   4.734   2.403   1.852
 7286SOL     OW22756   6.679   1.386   4.685
 7286SOL    HW122757   6.662   1.287   4.693
 7286SOL    HW222758   6.639   1.420   4.600
 7287SOL     OW22759   3.524   1.349   4.515
 7287SOL    HW122760   3.554   1.255   4.497
 7287SOL    HW222761   3.512   1.397   4.429
 7288SOL     OW22762   2.962   1.812   1.256
 7288SOL    HW122763   2.914   1.861   1.329
 7288SOL    HW222764   2.895   1.771   1.195
 7289SOL     OW22765   6.607   2.627   1.048
 7289SOL    HW122766   6.684   2.563   1.046
 7289SOL    HW222767   6.641   2.720   1.063
 7290SOL     OW22768   3.360   2.086   4.918
 7290SOL    HW122769   3.320   2.176   4.931
 7290SOL    HW222770   3.288   2.017   4.915
 7291SOL     OW22771   1.027   1.057   0.514
 7291SOL    HW122772   1.024   1.014   0.423
 7291SOL    HW222773   1.066   1.148   0.506
 7292SOL     OW22774   3.492   1.408   2.395
 7292SOL    HW122775   3.496   1.507   2.404
 7292SOL    HW222776   3.582   1.369   2.415
 7293SOL     OW22777   6.299   1.463   4.278
 7293SOL    HW122778   6.257   1.374   4.293
 7293SOL    HW222779   6.256   1.507   4.199
 7294SOL     OW22780   2.516   1.253   2.538
 7294SOL    HW122781   2.497   1.279   2.443
 7294SOL    HW222782   2.441   1.283   2.596
 7295SOL     OW22783   5.356   4.308   1.533
 7295SOL    HW122784   5.281   4.360   1.493
 7295SOL    HW222785   5.358   4.216   1.494
 7296SOL     OW22786   3.031   0.578   2.873
 7296SOL    HW122787   3.012   0.550   2.778
 7296SOL    HW222788   3.003   0.505   2.935
 7297SOL     OW22789   4.442   0.262   7.014
 7297SOL    HW122790   4.465   0.306   6.928
 7297SOL    HW222791   4.343   0.259   0.007
 7298SOL     OW22792   3.934   4.656   0.843
 7298SOL    HW122793   3.882   4.701   0.770
 7298SOL    HW222794   3.883   4.578   0.877
 7299SOL     OW22795   0.067   3.196   7.006
 7299SOL    HW122796   0.112   3.212   0.076
 7299SOL    HW222797   0.096   3.108   6.969
 7300SOL     OW22798   0.515   4.265   2.296
 7300SOL    HW122799   0.518   4.166   2.284
 7300SOL    HW222800   0.555   4.289   2.385
 7301SOL     OW22801   3.749   2.009   0.493
 7301SOL    HW122802   3.755   2.069   0.413
 7301SOL    HW222803   3.819   1.938   0.487
 7302SOL     OW22804   5.941   1.649   6.852
 7302SOL    HW122805   6.021   1.662   6.912
 7302SOL    HW222806   5.917   1.736   6.810
 7303SOL     OW22807   4.041   2.448   1.038
 7303SOL    HW122808   4.081   2.523   0.986
 7303SOL    HW222809   4.112   2.384   1.064
 7304SOL     OW22810   3.232   0.305   0.450
 7304SOL    HW122811   3.328   0.302   0.475
 7304SOL    HW222812   3.193   0.213   0.453
 7305SOL     OW22813   6.769   0.262   6.213
 7305SOL    HW122814   6.865   0.244   6.230
 7305SOL    HW222815   6.748   0.357   6.238
 7306SOL     OW22816   2.077   3.360   1.097
 7306SOL    HW122817   1.983   3.371   1.130
 7306SOL    HW222818   2.131   3.440   1.122
 7307SOL     OW22819   4.459   6.448   1.256
 7307SOL    HW122820   4.384   6.467   1.193
 7307SOL    HW222821   4.428   6.388   1.329
 7308SOL     OW22822   3.578   1.896   3.022
 7308SOL    HW122823   3.630   1.978   2.998
 7308SOL    HW222824   3.577   1.834   2.944
 7309SOL     OW22825   2.406   4.998   3.473
 7309SOL    HW122826   2.312   5.002   3.506
 7309SOL    HW222827   2.408   5.020   3.376
 7310SOL     OW22828   5.111   3.063   0.167
 7310SOL    HW122829   5.151   2.972   0.164
 7310SOL    HW222830   5.058   3.079   0.084
 7311SOL     OW22831   1.236   6.713   5.749
 7311SOL    HW122832   1.328   6.703   5.787
 7311SOL    HW222833   1.216   6.636   5.688
 7312SOL     OW22834   5.670   2.025   4.384
 7312SOL    HW122835   5.687   2.026   4.286
 7312SOL    HW222836   5.637   2.114   4.413
 7313SOL     OW22837   3.331   1.225   3.419
 7313SOL    HW122838   3.266   1.288   3.461
 7313SOL    HW222839   3.351   1.254   3.326
 7314SOL     OW22840   2.508   5.568   4.880
 7314SOL    HW122841   2.537   5.602   4.969
 7314SOL    HW222842   2.475   5.474   4.889
 7315SOL     OW22843   2.640   4.877   2.377
 7315SOL    HW122844   2.625   4.904   2.472
 7315SOL    HW222845   2.726   4.826   2.370
 7316SOL     OW22846   3.505   1.035   2.419
 7316SOL    HW122847   3.583   1.098   2.421
 7316SOL    HW222848   3.420   1.087   2.425
 7317SOL     OW22849   5.910   1.424   1.475
 7317SOL    HW122850   5.887   1.516   1.508
 7317SOL    HW222851   5.993   1.392   1.520
 7318SOL     OW22852   5.113   6.793   1.609
 7318SOL    HW122853   5.081   6.729   1.679
 7318SOL    HW222854   5.100   6.887   1.642
 7319SOL     OW22855   4.576   5.266   5.944
 7319SOL    HW122856   4.540   5.303   5.859
 7319SOL    HW222857   4.513   5.288   6.019
 7320SOL     OW22858   1.917   3.395   0.709
 7320SOL    HW122859   1.891   3.320   0.769
 7320SOL    HW222860   1.851   3.403   0.634
 7321SOL     OW22861   2.236   2.068   5.070
 7321SOL    HW122862   2.240   2.012   4.987
 7321SOL    HW222863   2.207   2.161   5.046
 7322SOL     OW22864   2.538   1.991   3.875
 7322SOL    HW122865   2.477   2.042   3.936
 7322SOL    HW222866   2.572   1.909   3.923
 7323SOL     OW22867   2.340   1.842   7.002
 7323SOL    HW122868   2.411   1.898   6.958
 7323SOL    HW222869   2.362   1.745   6.990
 7324SOL     OW22870   5.671   4.098   4.998
 7324SOL    HW122871   5.601   4.071   4.932
 7324SOL    HW222872   5.762   4.079   4.961
 7325SOL     OW22873   3.374   0.943   6.714
 7325SOL    HW122874   3.406   0.959   6.808
 7325SOL    HW222875   3.373   1.029   6.664
 7326SOL     OW22876   3.583   6.691   0.003
 7326SOL    HW122877   3.543   6.778   6.992
 7326SOL    HW222878   3.646   6.706   0.079
 7327SOL     OW22879   1.854   4.678   2.995
 7327SOL    HW122880   1.806   4.762   2.970
 7327SOL    HW222881   1.786   4.607   3.017
 7328SOL     OW22882   3.988   5.515   6.798
 7328SOL    HW122883   4.007   5.418   6.783
 7328SOL    HW222884   3.928   5.549   6.726
 7329SOL     OW22885   2.787   3.945   6.396
 7329SOL    HW122886   2.843   3.874   6.440
 7329SOL    HW222887   2.693   3.914   6.391
 7330SOL     OW22888   2.404   3.587   1.674
 7330SOL    HW122889   2.366   3.560   1.762
 7330SOL    HW222890   2.426   3.685   1.675
 7331SOL     OW22891   5.253   1.596   2.506
 7331SOL    HW122892   5.310   1.649   2.443
 7331SOL    HW222893   5.258   1.636   2.597
 7332SOL     OW22894   1.550   0.199   4.867
 7332SOL    HW122895   1.516   0.107   4.886
 7332SOL    HW222896   1.474   0.256   4.834
 7333SOL     OW22897   6.413   1.733   1.883
 7333SOL    HW122898   6.405   1.810   1.946
 7333SOL    HW222899   6.324   1.712   1.844
 7334SOL     OW22900   0.870   5.257   5.056
 7334SOL    HW122901   0.919   5.342   5.079
 7334SOL    HW222902   0.934   5.181   5.057
 7335SOL     OW22903   6.337   2.807   1.795
 7335SOL    HW122904   6.408   2.778   1.730
 7335SOL    HW222905   6.361   2.776   1.887
 7336SOL     OW22906   2.813   6.982   1.126
 7336SOL    HW122907   2.755   6.982   1.044
 7336SOL    HW222908   2.805   6.895   1.174
 7337SOL     OW22909   3.054   1.566   2.047
 7337SOL    HW122910   3.045   1.638   1.978
 7337SOL    HW222911   3.149   1.562   2.079
 7338SOL     OW22912   5.247   2.563   0.278
 7338SOL    HW122913   5.240   2.545   0.180
 7338SOL    HW222914   5.329   2.518   0.315
 7339SOL     OW22915   6.844   6.752   3.553
 7339SOL    HW122916   6.901   6.709   3.482
 7339SOL    HW222917   6.875   6.721   3.643
 7340SOL     OW22918   3.093   0.086   0.132
 7340SOL    HW122919   3.036   0.157   0.173
 7340SOL    HW222920   3.038   0.029   0.071
 7341SOL     OW22921   6.040   5.111   3.094
 7341SOL    HW122922   6.024   5.147   3.002
 7341SOL    HW222923   5.981   5.159   3.159
 7342SOL     OW22924   6.942   4.920   6.707
 7342SOL    HW122925   6.899   5.011   6.709
 7342SOL    HW222926   0.006   4.923   6.649
 7343SOL     OW22927   0.491   1.851   3.228
 7343SOL    HW122928   0.481   1.777   3.295
 7343SOL    HW222929   0.584   1.850   3.191
 7344SOL     OW22930   1.754   1.629   5.730
 7344SOL    HW122931   1.853   1.625   5.716
 7344SOL    HW222932   1.726   1.723   5.747
 7345SOL     OW22933   1.360   6.593   6.859
 7345SOL    HW122934   1.292   6.661   6.885
 7345SOL    HW222935   1.334   6.551   6.772
 7346SOL     OW22936   3.736   5.571   2.808
 7346SOL    HW122937   3.668   5.518   2.860
 7346SOL    HW222938   3.818   5.582   2.863
 7347SOL     OW22939   5.641   2.923   3.469
 7347SOL    HW122940   5.697   2.842   3.451
 7347SOL    HW222941   5.684   2.977   3.541
 7348SOL     OW22942   5.368   0.211   6.325
 7348SOL    HW122943   5.359   0.303   6.288
 7348SOL    HW222944   5.425   0.156   6.264
 7349SOL     OW22945   4.025   2.104   1.210
 7349SOL    HW122946   4.064   2.033   1.269
 7349SOL    HW222947   4.005   2.185   1.264
 7350SOL     OW22948   1.626   1.527   2.476
 7350SOL    HW122949   1.656   1.613   2.434
 7350SOL    HW222950   1.568   1.547   2.555
 7351SOL     OW22951   6.061   4.929   0.176
 7351SOL    HW122952   6.068   5.000   0.106
 7351SOL    HW222953   6.000   4.856   0.145
 7352SOL     OW22954   6.674   1.472   2.934
 7352SOL    HW122955   6.670   1.444   3.030
 7352SOL    HW222956   6.708   1.566   2.928
 7353SOL     OW22957   5.548   1.599   4.704
 7353SOL    HW122958   5.578   1.506   4.685
 7353SOL    HW222959   5.607   1.639   4.774
 7354SOL     OW22960   5.620   4.578   5.392
 7354SOL    HW122961   5.676   4.600   5.472
 7354SOL    HW222962   5.673   4.593   5.308
 7355SOL     OW22963   6.736   5.845   0.334
 7355SOL    HW122964   6.815   5.843   0.273
 7355SOL    HW222965   6.679   5.765   0.318
 7356SOL     OW22966   6.958   2.026   6.442
 7356SOL    HW122967   6.915   1.982   6.364
 7356SOL    HW222968   6.888   2.068   6.500
 7357SOL     OW22969   0.810   0.712   1.208
 7357SOL    HW122970   0.837   0.616   1.215
 7357SOL    HW222971   0.890   0.770   1.223
 7358SOL     OW22972   3.455   1.513   3.561
 7358SOL    HW122973   3.423   1.574   3.488
 7358SOL    HW222974   3.380   1.454   3.590
 7359SOL     OW22975   3.195   3.737   4.197
 7359SOL    HW122976   3.256   3.694   4.264
 7359SOL    HW222977   3.205   3.837   4.203
 7360SOL     OW22978   1.690   4.482   5.799
 7360SOL    HW122979   1.638   4.567   5.795
 7360SOL    HW222980   1.788   4.503   5.808
 7361SOL     OW22981   4.617   0.188   1.645
 7361SOL    HW122982   4.676   0.108   1.629
 7361SOL    HW222983   4.522   0.159   1.643
 7362SOL     OW22984   1.191   5.056   0.152
 7362SOL    HW122985   1.274   5.010   0.187
 7362SOL    HW222986   1.200   5.070   0.054
 7363SOL     OW22987   4.909   2.193   5.964
 7363SOL    HW122988   4.830   2.232   5.916
 7363SOL    HW222989   4.960   2.134   5.902
 7364SOL     OW22990   5.200   6.799   0.440
 7364SOL    HW122991   5.205   6.743   0.523
 7364SOL    HW222992   5.236   6.890   0.459
 7365SOL     OW22993   5.296   0.173   1.900
 7365SOL    HW122994   5.290   0.174   1.801
 7365SOL    HW222995   5.221   0.227   1.939
 7366SOL     OW22996   3.077   6.638   0.496
 7366SOL    HW122997   3.055   6.548   0.457
 7366SOL    HW222998   3.046   6.710   0.433
 7367SOL     OW22999   4.663   2.961   5.888
 7367SOL    HW123000   4.659   2.884   5.952
 7367SOL    HW223001   4.580   2.962   5.832
 7368SOL     OW23002   3.265   2.885   4.918
 7368SOL    HW123003   3.204   2.883   4.998
 7368SOL    HW223004   3.215   2.853   4.838
 7369SOL     OW23005   0.077   6.677   6.328
 7369SOL    HW123006   0.169   6.685   6.290
 7369SOL    HW223007   0.012   6.726   6.271
 7370SOL     OW23008   0.409   5.528   0.961
 7370SOL    HW123009   0.430   5.626   0.958
 7370SOL    HW223010   0.320   5.514   1.005
 7371SOL     OW23011   2.105   5.024   3.583
 7371SOL    HW123012   2.085   4.933   3.620
 7371SOL    HW223013   2.095   5.092   3.656
 7372SOL     OW23014   2.330   0.016   5.105
 7372SOL    HW123015   2.351   0.090   5.169
 7372SOL    HW223016   2.233   0.017   5.083
 7373SOL     OW23017   3.848   1.693   0.869
 7373SOL    HW123018   3.802   1.649   0.946
 7373SOL    HW223019   3.783   1.751   0.819
 7374SOL     OW23020   2.504   3.673   0.514
 7374SOL    HW123021   2.551   3.684   0.602
 7374SOL    HW223022   2.411   3.639   0.530
 7375SOL     OW23023   2.119   5.633   2.550
 7375SOL    HW123024   2.178   5.580   2.612
 7375SOL    HW223025   2.128   5.730   2.571
 7376SOL     OW23026   3.506   4.810   0.167
 7376SOL    HW123027   3.603   4.828   0.155
 7376SOL    HW223028   3.490   4.711   0.170
 7377SOL     OW23029   5.255   5.734   1.617
 7377SOL    HW123030   5.275   5.649   1.667
 7377SOL    HW223031   5.253   5.810   1.681
 7378SOL     OW23032   0.741   1.492   6.548
 7378SOL    HW123033   0.822   1.492   6.490
 7378SOL    HW223034   0.683   1.570   6.525
 7379SOL     OW23035   4.603   1.222   0.239
 7379SOL    HW123036   4.513   1.225   0.196
 7379SOL    HW223037   4.599   1.163   0.320
 7380SOL     OW23038   0.755   3.436   6.847
 7380SOL    HW123039   0.814   3.429   6.767
 7380SOL    HW223040   0.667   3.392   6.828
 7381SOL     OW23041   5.593   2.870   0.739
 7381SOL    HW123042   5.500   2.891   0.710
 7381SOL    HW223043   5.637   2.953   0.773
 7382SOL     OW23044   0.944   5.353   3.651
 7382SOL    HW123045   0.968   5.284   3.583
 7382SOL    HW223046   0.940   5.443   3.607
 7383SOL     OW23047   1.797   4.701   2.341
 7383SOL    HW123048   1.843   4.785   2.314
 7383SOL    HW223049   1.854   4.652   2.408
 7384SOL     OW23050   5.676   0.931   1.500
 7384SOL    HW123051   5.668   1.005   1.567
 7384SOL    HW223052   5.645   0.846   1.541
 7385SOL     OW23053   4.998   0.025   2.490
 7385SOL    HW123054   4.942   0.107   2.486
 7385SOL    HW223055   4.940   6.961   2.484
 7386SOL     OW23056   6.121   1.844   5.269
 7386SOL    HW123057   6.099   1.916   5.335
 7386SOL    HW223058   6.184   1.778   5.311
 7387SOL     OW23059   5.154   5.615   4.383
 7387SOL    HW123060   5.250   5.640   4.379
 7387SOL    HW223061   5.110   5.662   4.460
 7388SOL     OW23062   5.158   3.653   4.678
 7388SOL    HW123063   5.181   3.745   4.647
 7388SOL    HW223064   5.065   3.630   4.649
 7389SOL     OW23065   2.279   3.548   5.857
 7389SOL    HW123066   2.229   3.544   5.771
 7389SOL    HW223067   2.351   3.479   5.858
 7390SOL     OW23068   4.490   6.087   0.386
 7390SOL    HW123069   4.483   6.144   0.469
 7390SOL    HW223070   4.420   6.116   0.320
 7391SOL     OW23071   0.295   5.265   0.730
 7391SOL    HW123072   0.216   5.305   0.777
 7391SOL    HW223073   0.267   5.232   0.640
 7392SOL     OW23074   1.076   4.343   1.898
 7392SOL    HW123075   1.039   4.362   1.989
 7392SOL    HW223076   1.093   4.429   1.850
 7393SOL     OW23077   1.440   3.756   0.590
 7393SOL    HW123078   1.442   3.829   0.658
 7393SOL    HW223079   1.370   3.775   0.522
 7394SOL     OW23080   3.171   4.339   6.895
 7394SOL    HW123081   3.133   4.396   6.823
 7394SOL    HW223082   3.225   4.265   6.855
 7395SOL     OW23083   2.397   6.880   0.568
 7395SOL    HW123084   2.301   6.852   0.565
 7395SOL    HW223085   2.444   6.831   0.641
 7396SOL     OW23086   6.894   6.833   2.285
 7396SOL    HW123087   6.864   6.929   2.285
 7396SOL    HW223088   6.837   6.780   2.222
 7397SOL     OW23089   5.380   4.341   4.081
 7397SOL    HW123090   5.477   4.363   4.081
 7397SOL    HW223091   5.368   4.244   4.103
 7398SOL     OW23092   4.072   6.170   2.895
 7398SOL    HW123093   4.146   6.204   2.953
 7398SOL    HW223094   4.102   6.166   2.800
 7399SOL     OW23095   4.923   6.290   4.377
 7399SOL    HW123096   4.847   6.232   4.346
 7399SOL    HW223097   4.966   6.333   4.297
 7400SOL     OW23098   2.548   4.367   6.775
 7400SOL    HW123099   2.643   4.395   6.765
 7400SOL    HW223100   2.526   4.296   6.708
 7401SOL     OW23101   6.526   2.836   3.961
 7401SOL    HW123102   6.538   2.934   3.947
 7401SOL    HW223103   6.596   2.786   3.910
 7402SOL     OW23104   1.560   6.269   5.280
 7402SOL    HW123105   1.471   6.240   5.245
 7402SOL    HW223106   1.550   6.310   5.370
 7403SOL     OW23107   2.275   2.969   1.607
 7403SOL    HW123108   2.306   2.987   1.514
 7403SOL    HW223109   2.333   3.019   1.672
 7404SOL     OW23110   1.520   2.854   2.391
 7404SOL    HW123111   1.583   2.843   2.314
 7404SOL    HW223112   1.571   2.886   2.471
 7405SOL     OW23113   3.228   5.443   5.654
 7405SOL    HW123114   3.322   5.410   5.662
 7405SOL    HW223115   3.180   5.391   5.584
 7406SOL     OW23116   5.877   5.955   2.943
 7406SOL    HW123117   5.874   5.960   3.042
 7406SOL    HW223118   5.799   5.902   2.910
 7407SOL     OW23119   3.879   1.657   6.145
 7407SOL    HW123120   3.939   1.638   6.068
 7407SOL    HW223121   3.825   1.575   6.167
 7408SOL     OW23122   0.695   3.305   5.080
 7408SOL    HW123123   0.784   3.311   5.035
 7408SOL    HW223124   0.707   3.297   5.179
 7409SOL     OW23125   1.787   7.005   4.723
 7409SOL    HW123126   1.785   6.923   4.781
 7409SOL    HW223127   1.849   6.989   4.645
 7410SOL     OW23128   4.106   5.479   5.636
 7410SOL    HW123129   4.013   5.506   5.660
 7410SOL    HW223130   4.128   5.393   5.681
 7411SOL     OW23131   6.097   3.567   5.897
 7411SOL    HW123132   6.127   3.662   5.888
 7411SOL    HW223133   6.043   3.541   5.817
 7412SOL     OW23134   1.258   0.637   0.268
 7412SOL    HW123135   1.356   0.616   0.262
 7412SOL    HW223136   1.231   0.644   0.364
 7413SOL     OW23137   6.216   3.832   3.173
 7413SOL    HW123138   6.238   3.929   3.189
 7413SOL    HW223139   6.116   3.822   3.166
 7414SOL     OW23140   0.170   5.623   1.975
 7414SOL    HW123141   0.222   5.692   2.026
 7414SOL    HW223142   0.167   5.647   1.878
 7415SOL     OW23143   2.672   1.407   3.356
 7415SOL    HW123144   2.728   1.407   3.273
 7415SOL    HW223145   2.576   1.421   3.331
 7416SOL     OW23146   6.327   0.684   2.519
 7416SOL    HW123147   6.255   0.731   2.468
 7416SOL    HW223148   6.374   0.750   2.578
 7417SOL     OW23149   0.281   5.566   1.375
 7417SOL    HW123150   0.280   5.479   1.327
 7417SOL    HW223151   0.358   5.621   1.342
 7418SOL     OW23152   2.423   3.696   1.038
 7418SOL    HW123153   2.467   3.606   1.037
 7418SOL    HW223154   2.490   3.766   1.061
 7419SOL     OW23155   6.022   2.031   5.421
 7419SOL    HW123156   5.927   2.048   5.447
 7419SOL    HW223157   6.080   2.104   5.457
 7420SOL     OW23158   0.555   6.450   1.602
 7420SOL    HW123159   0.572   6.356   1.634
 7420SOL    HW223160   0.630   6.509   1.630
 7421SOL     OW23161   4.646   2.007   0.891
 7421SOL    HW123162   4.563   2.020   0.945
 7421SOL    HW223163   4.677   2.096   0.856
 7422SOL     OW23164   1.499   2.056   0.234
 7422SOL    HW123165   1.448   2.047   0.320
 7422SOL    HW223166   1.582   2.001   0.240
 7423SOL     OW23167   3.055   3.983   0.547
 7423SOL    HW123168   3.139   3.987   0.601
 7423SOL    HW223169   2.994   3.913   0.585
 7424SOL     OW23170   5.653   6.919   3.831
 7424SOL    HW123171   5.735   6.973   3.811
 7424SOL    HW223172   5.670   6.823   3.812
 7425SOL     OW23173   3.931   0.286   5.141
 7425SOL    HW123174   3.935   0.203   5.084
 7425SOL    HW223175   3.837   0.320   5.143
 7426SOL     OW23176   0.134   0.507   6.578
 7426SOL    HW123177   0.048   0.460   6.602
 7426SOL    HW223178   0.193   0.511   6.659
 7427SOL     OW23179   5.371   5.244   6.140
 7427SOL    HW123180   5.284   5.221   6.184
 7427SOL    HW223181   5.356   5.317   6.074
 7428SOL     OW23182   5.560   1.588   5.105
 7428SOL    HW123183   5.573   1.507   5.162
 7428SOL    HW223184   5.647   1.613   5.062
 7429SOL     OW23185   5.737   6.450   3.325
 7429SOL    HW123186   5.755   6.365   3.275
 7429SOL    HW223187   5.814   6.512   3.314
 7430SOL     OW23188   0.763   3.963   4.513
 7430SOL    HW123189   0.817   3.979   4.431
 7430SOL    HW223190   0.737   3.866   4.518
 7431SOL     OW23191   6.987   3.707   2.874
 7431SOL    HW123192   0.002   3.754   2.792
 7431SOL    HW223193   6.893   3.677   2.861
 7432SOL     OW23194   2.048   6.199   5.391
 7432SOL    HW123195   1.965   6.242   5.428
 7432SOL    HW223196   2.089   6.140   5.461
 7433SOL     OW23197   0.498   6.904   0.717
 7433SOL    HW123198   0.494   6.996   0.756
 7433SOL    HW223199   0.413   6.855   0.737
 7434SOL     OW23200   4.524   6.947   0.449
 7434SOL    HW123201   4.618   6.976   0.429
 7434SOL    HW223202   4.521   6.905   0.540
 7435SOL     OW23203   0.898   4.612   6.936
 7435SOL    HW123204   0.884   4.681   6.865
 7435SOL    HW223205   0.942   4.654   7.016
 7436SOL     OW23206   5.278   3.642   6.955
 7436SOL    HW123207   5.338   3.582   6.902
 7436SOL    HW223208   5.188   3.599   6.965
 7437SOL     OW23209   6.622   6.832   5.593
 7437SOL    HW123210   6.710   6.789   5.572
 7437SOL    HW223211   6.628   6.930   5.575
 7438SOL     OW23212   6.820   4.499   0.761
 7438SOL    HW123213   6.726   4.528   0.745
 7438SOL    HW223214   6.847   4.434   0.689
 7439SOL     OW23215   1.453   6.310   2.986
 7439SOL    HW123216   1.444   6.409   2.992
 7439SOL    HW223217   1.506   6.276   3.064
 7440SOL     OW23218   1.494   0.861   4.407
 7440SOL    HW123219   1.578   0.891   4.361
 7440SOL    HW223220   1.502   0.764   4.431
 7441SOL     OW23221   0.236   0.489   4.145
 7441SOL    HW123222   0.190   0.431   4.212
 7441SOL    HW223223   0.276   0.568   4.191
 7442SOL     OW23224   1.876   1.250   0.485
 7442SOL    HW123225   1.794   1.287   0.440
 7442SOL    HW223226   1.850   1.176   0.547
 7443SOL     OW23227   6.276   1.691   1.612
 7443SOL    HW123228   6.366   1.730   1.633
 7443SOL    HW223229   6.218   1.762   1.571
 7444SOL     OW23230   1.918   3.144   4.948
 7444SOL    HW123231   1.888   3.223   4.894
 7444SOL    HW223232   2.016   3.150   4.965
 7445SOL     OW23233   5.613   3.067   2.729
 7445SOL    HW123234   5.626   3.166   2.719
 7445SOL    HW223235   5.572   3.049   2.818
 7446SOL     OW23236   4.604   4.329   2.700
 7446SOL    HW123237   4.527   4.328   2.636
 7446SOL    HW223238   4.642   4.421   2.703
 7447SOL     OW23239   1.437   2.939   6.429
 7447SOL    HW123240   1.416   2.842   6.432
 7447SOL    HW223241   1.370   2.990   6.483
 7448SOL     OW23242   0.108   1.142   5.570
 7448SOL    HW123243   0.093   1.065   5.508
 7448SOL    HW223244   0.196   1.132   5.616
 7449SOL     OW23245   3.093   1.028   2.872
 7449SOL    HW123246   3.033   0.956   2.836
 7449SOL    HW223247   3.169   1.044   2.809
 7450SOL     OW23248   4.040   2.158   2.163
 7450SOL    HW123249   4.025   2.179   2.066
 7450SOL    HW223250   3.960   2.187   2.215
 7451SOL     OW23251   0.813   0.808   2.085
 7451SOL    HW123252   0.818   0.835   1.989
 7451SOL    HW223253   0.723   0.769   2.103
 7452SOL     OW23254   1.692   5.693   3.025
 7452SOL    HW123255   1.697   5.670   3.122
 7452SOL    HW223256   1.782   5.723   2.993
 7453SOL     OW23257   6.365   4.572   4.593
 7453SOL    HW123258   6.451   4.571   4.542
 7453SOL    HW223259   6.367   4.501   4.664
 7454SOL     OW23260   2.795   2.273   0.190
 7454SOL    HW123261   2.853   2.283   0.271
 7454SOL    HW223262   2.816   2.187   0.143
 7455SOL     OW23263   5.168   0.086   0.960
 7455SOL    HW123264   5.243   0.102   1.025
 7455SOL    HW223265   5.082   0.077   1.011
 7456SOL     OW23266   1.735   3.383   6.425
 7456SOL    HW123267   1.722   3.401   6.523
 7456SOL    HW223268   1.656   3.332   6.391
 7457SOL     OW23269   0.225   6.856   5.882
 7457SOL    HW123270   0.209   6.907   5.967
 7457SOL    HW223271   0.322   6.831   5.876
 7458SOL     OW23272   2.888   0.383   1.946
 7458SOL    HW123273   2.800   0.423   1.920
 7458SOL    HW223274   2.945   0.372   1.864
 7459SOL     OW23275   4.167   5.754   3.227
 7459SOL    HW123276   4.215   5.689   3.167
 7459SOL    HW223277   4.123   5.704   3.301
 7460SOL     OW23278   1.090   5.209   6.353
 7460SOL    HW123279   1.031   5.249   6.424
 7460SOL    HW223280   1.077   5.110   6.350
 7461SOL     OW23281   3.516   1.615   4.000
 7461SOL    HW123282   3.448   1.687   3.988
 7461SOL    HW223283   3.607   1.656   4.001
 7462SOL     OW23284   1.342   2.042   4.302
 7462SOL    HW123285   1.391   2.098   4.236
 7462SOL    HW223286   1.406   2.007   4.371
 7463SOL     OW23287   3.972   3.871   2.496
 7463SOL    HW123288   4.028   3.925   2.559
 7463SOL    HW223289   3.876   3.900   2.503
 7464SOL     OW23290   4.845   5.927   0.330
 7464SOL    HW123291   4.892   6.011   0.302
 7464SOL    HW223292   4.781   5.947   0.404
 7465SOL     OW23293   2.917   1.367   2.801
 7465SOL    HW123294   2.912   1.267   2.801
 7465SOL    HW223295   2.859   1.403   2.728
 7466SOL     OW23296   7.003   6.482   0.771
 7466SOL    HW123297   0.074   6.529   0.768
 7466SOL    HW223298   6.987   6.437   0.683
 7467SOL     OW23299   4.502   2.542   1.049
 7467SOL    HW123300   4.527   2.521   0.954
 7467SOL    HW223301   4.480   2.457   1.097
 7468SOL     OW23302   4.729   4.727   4.426
 7468SOL    HW123303   4.676   4.654   4.383
 7468SOL    HW223304   4.730   4.714   4.525
 7469SOL     OW23305   5.275   1.995   1.094
 7469SOL    HW123306   5.349   1.930   1.082
 7469SOL    HW223307   5.270   2.056   1.015
 7470SOL     OW23308   0.637   3.702   3.373
 7470SOL    HW123309   0.735   3.722   3.382
 7470SOL    HW223310   0.626   3.611   3.333
 7471SOL     OW23311   6.658   4.156   5.624
 7471SOL    HW123312   6.698   4.175   5.535
 7471SOL    HW223313   6.717   4.094   5.675
 7472SOL     OW23314   4.735   5.819   2.813
 7472SOL    HW123315   4.739   5.866   2.901
 7472SOL    HW223316   4.806   5.748   2.810
 7473SOL     OW23317   1.559   1.995   6.040
 7473SOL    HW123318   1.477   2.038   6.001
 7473SOL    HW223319   1.532   1.933   6.113
 7474SOL     OW23320   2.734   1.184   2.182
 7474SOL    HW123321   2.638   1.192   2.154
 7474SOL    HW223322   2.792   1.229   2.115
 7475SOL     OW23323   5.276   1.187   6.345
 7475SOL    HW123324   5.371   1.155   6.349
 7475SOL    HW223325   5.221   1.135   6.410
 7476SOL     OW23326   1.533   6.542   4.515
 7476SOL    HW123327   1.547   6.465   4.577
 7476SOL    HW223328   1.621   6.588   4.499
 7477SOL     OW23329   4.638   4.323   4.988
 7477SOL    HW123330   4.646   4.383   5.067
 7477SOL    HW223331   4.706   4.349   4.919
 7478SOL     OW23332   0.259   4.628   1.132
 7478SOL    HW123333   0.177   4.676   1.163
 7478SOL    HW223334   0.241   4.586   1.043
 7479SOL     OW23335   3.531   0.003   4.724
 7479SOL    HW123336   3.550   6.978   4.813
 7479SOL    HW223337   3.603   0.068   4.702
 7480SOL     OW23338   5.808   5.188   6.879
 7480SOL    HW123339   5.894   5.164   6.922
 7480SOL    HW223340   5.821   5.270   6.823
 7481SOL     OW23341   5.793   6.253   0.621
 7481SOL    HW123342   5.832   6.318   0.556
 7481SOL    HW223343   5.693   6.253   0.612
 7482SOL     OW23344   4.681   0.509   5.092
 7482SOL    HW123345   4.639   0.423   5.121
 7482SOL    HW223346   4.765   0.490   5.042
 7483SOL     OW23347   3.890   0.172   0.030
 7483SOL    HW123348   3.913   0.201   6.955
 7483SOL    HW223349   3.898   0.073   0.037
 7484SOL     OW23350   3.006   6.301   1.007
 7484SOL    HW123351   3.063   6.265   0.934
 7484SOL    HW223352   3.064   6.333   1.082
 7485SOL     OW23353   1.089   0.188   5.387
 7485SOL    HW123354   1.087   0.249   5.308
 7485SOL    HW223355   1.118   0.239   5.468
 7486SOL     OW23356   1.648   2.288   4.985
 7486SOL    HW123357   1.726   2.261   4.930
 7486SOL    HW223358   1.629   2.218   5.053
 7487SOL     OW23359   2.473   5.786   2.577
 7487SOL    HW123360   2.516   5.706   2.536
 7487SOL    HW223361   2.395   5.814   2.521
 7488SOL     OW23362   4.415   2.099   4.703
 7488SOL    HW123363   4.510   2.124   4.721
 7488SOL    HW223364   4.355   2.161   4.752
 7489SOL     OW23365   1.017   3.283   3.483
 7489SOL    HW123366   0.919   3.285   3.501
 7489SOL    HW223367   1.060   3.366   3.518
 7490SOL     OW23368   5.569   0.596   2.359
 7490SOL    HW123369   5.473   0.624   2.359
 7490SOL    HW223370   5.581   0.517   2.419
 7491SOL     OW23371   0.948   0.195   1.093
 7491SOL    HW123372   0.966   0.281   1.142
 7491SOL    HW223373   0.922   0.125   1.159
 7492SOL     OW23374   1.200   2.360   2.866
 7492SOL    HW123375   1.163   2.296   2.799
 7492SOL    HW223376   1.295   2.381   2.843
 7493SOL     OW23377   5.947   4.318   6.910
 7493SOL    HW123378   5.847   4.323   6.918
 7493SOL    HW223379   5.985   4.282   6.996
 7494SOL     OW23380   5.089   2.228   1.314
 7494SOL    HW123381   5.013   2.163   1.319
 7494SOL    HW223382   5.137   2.230   1.402
 7495SOL     OW23383   1.460   1.581   3.598
 7495SOL    HW123384   1.406   1.507   3.639
 7495SOL    HW223385   1.422   1.669   3.627
 7496SOL     OW23386   0.239   5.003   6.061
 7496SOL    HW123387   0.212   4.951   6.141
 7496SOL    HW223388   0.197   4.964   5.979
 7497SOL     OW23389   0.405   4.024   2.948
 7497SOL    HW123390   0.330   3.959   2.960
 7497SOL    HW223391   0.367   4.113   2.920
 7498SOL     OW23392   5.205   1.970   4.090
 7498SOL    HW123393   5.193   1.975   3.991
 7498SOL    HW223394   5.137   2.027   4.135
 7499SOL     OW23395   3.539   5.144   3.301
 7499SOL    HW123396   3.487   5.204   3.362
 7499SOL    HW223397   3.559   5.058   3.349
 7500SOL     OW23398   4.995   3.936   1.936
 7500SOL    HW123399   4.952   3.929   1.846
 7500SOL    HW223400   4.954   4.013   1.986
 7501SOL     OW23401   1.126   4.172   3.354
 7501SOL    HW123402   1.216   4.204   3.324
 7501SOL    HW223403   1.112   4.078   3.325
 7502SOL     OW23404   1.143   1.902   4.533
 7502SOL    HW123405   1.062   1.845   4.549
 7502SOL    HW223406   1.199   1.860   4.461
 7503SOL     OW23407   2.257   2.087   0.371
 7503SOL    HW123408   2.268   2.130   0.461
 7503SOL    HW223409   2.162   2.097   0.341
 7504SOL     OW23410   5.592   5.817   5.501
 7504SOL    HW123411   5.648   5.735   5.511
 7504SOL    HW223412   5.626   5.889   5.562
 7505SOL     OW23413   1.615   1.681   3.117
 7505SOL    HW123414   1.539   1.742   3.093
 7505SOL    HW223415   1.595   1.636   3.204
 7506SOL     OW23416   3.861   0.699   2.986
 7506SOL    HW123417   3.771   0.690   3.029
 7506SOL    HW223418   3.925   0.735   3.053
 7507SOL     OW23419   1.902   6.994   5.383
 7507SOL    HW123420   1.882   6.965   5.290
 7507SOL    HW223421   1.816   7.009   5.433
 7508SOL     OW23422   5.046   6.233   3.199
 7508SOL    HW123423   5.053   6.332   3.186
 7508SOL    HW223424   4.954   6.210   3.231
 7509SOL     OW23425   2.840   4.370   6.405
 7509SOL    HW123426   2.787   4.319   6.473
 7509SOL    HW223427   2.928   4.325   6.392
 7510SOL     OW23428   4.084   3.230   4.756
 7510SOL    HW123429   4.069   3.254   4.660
 7510SOL    HW223430   4.178   3.198   4.768
 7511SOL     OW23431   1.381   1.070   2.378
 7511SOL    HW123432   1.407   0.973   2.379
 7511SOL    HW223433   1.428   1.116   2.303
 7512SOL     OW23434   1.911   2.419   2.683
 7512SOL    HW123435   1.826   2.434   2.632
 7512SOL    HW223436   1.895   2.352   2.755
 7513SOL     OW23437   2.271   2.764   6.983
 7513SOL    HW123438   2.356   2.756   0.017
 7513SOL    HW223439   2.202   2.810   0.022
 7514SOL     OW23440   3.125   5.209   3.080
 7514SOL    HW123441   3.211   5.176   3.041
 7514SOL    HW223442   3.097   5.149   3.155
 7515SOL     OW23443   0.026   4.800   3.301
 7515SOL    HW123444   0.052   4.896   3.293
 7515SOL    HW223445   6.977   4.789   3.375
 7516SOL     OW23446   1.842   3.539   1.323
 7516SOL    HW123447   1.910   3.609   1.302
 7516SOL    HW223448   1.819   3.543   1.420
 7517SOL     OW23449   1.391   5.060   2.106
 7517SOL    HW123450   1.463   5.129   2.095
 7517SOL    HW223451   1.417   4.997   2.179
 7518SOL     OW23452   5.122   3.887   2.251
 7518SOL    HW123453   5.140   3.789   2.254
 7518SOL    HW223454   5.026   3.904   2.275
 7519SOL     OW23455   2.098   0.800   4.839
 7519SOL    HW123456   2.171   0.863   4.814
 7519SOL    HW223457   2.010   0.842   4.820
 7520SOL     OW23458   1.883   0.137   4.429
 7520SOL    HW123459   1.841   0.226   4.412
 7520SOL    HW223460   1.864   0.076   4.351
 7521SOL     OW23461   4.047   2.597   6.013
 7521SOL    HW123462   3.986   2.665   5.973
 7521SOL    HW223463   3.993   2.532   6.066
 7522SOL     OW23464   1.859   6.548   2.358
 7522SOL    HW123465   1.940   6.576   2.410
 7522SOL    HW223466   1.870   6.453   2.329
 7523SOL     OW23467   6.590   6.355   6.251
 7523SOL    HW123468   6.492   6.375   6.255
 7523SOL    HW223469   6.607   6.264   6.289
 7524SOL     OW23470   6.438   1.678   5.782
 7524SOL    HW123471   6.522   1.634   5.749
 7524SOL    HW223472   6.378   1.609   5.822
 7525SOL     OW23473   0.060   6.735   0.433
 7525SOL    HW123474   0.099   6.662   0.490
 7525SOL    HW223475   0.017   6.804   0.492
 7526SOL     OW23476   4.136   3.026   5.343
 7526SOL    HW123477   4.094   3.019   5.252
 7526SOL    HW223478   4.070   2.999   5.413
 7527SOL     OW23479   2.557   6.618   1.602
 7527SOL    HW123480   2.645   6.591   1.642
 7527SOL    HW223481   2.561   6.606   1.503
 7528SOL     OW23482   6.280   2.543   0.109
 7528SOL    HW123483   6.313   2.570   0.018
 7528SOL    HW223484   6.228   2.619   0.149
 7529SOL     OW23485   1.693   0.065   4.166
 7529SOL    HW123486   1.648   0.134   4.223
 7529SOL    HW223487   1.737   0.110   4.088
 7530SOL     OW23488   0.310   2.976   2.789
 7530SOL    HW123489   0.293   3.061   2.840
 7530SOL    HW223490   0.342   2.905   2.852
 7531SOL     OW23491   1.426   2.515   4.033
 7531SOL    HW123492   1.447   2.610   4.057
 7531SOL    HW223493   1.347   2.484   4.086
 7532SOL     OW23494   4.621   4.336   2.287
 7532SOL    HW123495   4.644   4.248   2.327
 7532SOL    HW223496   4.588   4.323   2.194
 7533SOL     OW23497   3.420   6.817   5.285
 7533SOL    HW123498   3.373   6.763   5.354
 7533SOL    HW223499   3.365   6.898   5.263
 7534SOL     OW23500   4.326   6.160   4.343
 7534SOL    HW123501   4.336   6.247   4.295
 7534SOL    HW223502   4.234   6.154   4.383
 7535SOL     OW23503   3.052   4.929   6.818
 7535SOL    HW123504   3.036   5.026   6.837
 7535SOL    HW223505   3.018   4.907   6.727
 7536SOL     OW23506   4.217   5.071   6.845
 7536SOL    HW123507   4.259   5.150   6.890
 7536SOL    HW223508   4.273   5.044   6.766
 7537SOL     OW23509   2.380   4.455   4.747
 7537SOL    HW123510   2.324   4.373   4.732
 7537SOL    HW223511   2.430   4.477   4.663
 7538SOL     OW23512   3.457   4.206   5.514
 7538SOL    HW123513   3.476   4.261   5.432
 7538SOL    HW223514   3.385   4.140   5.494
 7539SOL     OW23515   0.802   2.927   4.868
 7539SOL    HW123516   0.777   2.994   4.798
 7539SOL    HW223517   0.725   2.915   4.931
 7540SOL     OW23518   2.635   0.939   0.204
 7540SOL    HW123519   2.579   0.858   0.219
 7540SOL    HW223520   2.585   1.021   0.233
 7541SOL     OW23521   0.411   1.637   5.926
 7541SOL    HW123522   0.502   1.675   5.910
 7541SOL    HW223523   0.408   1.543   5.893
 7542SOL     OW23524   1.803   0.473   4.817
 7542SOL    HW123525   1.766   0.453   4.908
 7542SOL    HW223526   1.780   0.397   4.755
 7543SOL     OW23527   2.708   2.499   1.785
 7543SOL    HW123528   2.634   2.494   1.851
 7543SOL    HW223529   2.789   2.454   1.821
 7544SOL     OW23530   1.531   2.116   2.302
 7544SOL    HW123531   1.457   2.140   2.238
 7544SOL    HW223532   1.511   2.155   2.392
 7545SOL     OW23533   4.063   0.261   3.753
 7545SOL    HW123534   4.027   0.230   3.665
 7545SOL    HW223535   4.050   0.189   3.821
 7546SOL     OW23536   4.939   6.949   5.004
 7546SOL    HW123537   4.956   6.854   4.981
 7546SOL    HW223538   4.905   6.955   5.098
 7547SOL     OW23539   2.348   6.555   0.329
 7547SOL    HW123540   2.358   6.499   0.411
 7547SOL    HW223541   2.405   6.636   0.337
 7548SOL     OW23542   2.579   4.008   0.712
 7548SOL    HW123543   2.655   4.069   0.735
 7548SOL    HW223544   2.607   3.913   0.726
 7549SOL     OW23545   6.085   0.096   2.866
 7549SOL    HW123546   6.095   0.192   2.837
 7549SOL    HW223547   6.112   0.036   2.790
 7550SOL     OW23548   1.191   5.612   0.467
 7550SOL    HW123549   1.127   5.606   0.391
 7550SOL    HW223550   1.285   5.612   0.432
 7551SOL     OW23551   5.067   3.720   6.216
 7551SOL    HW123552   5.093   3.731   6.121
 7551SOL    HW223553   5.103   3.634   6.252
 7552SOL     OW23554   3.599   5.955   4.275
 7552SOL    HW123555   3.588   6.053   4.293
 7552SOL    HW223556   3.535   5.927   4.204
 7553SOL     OW23557   4.430   3.952   6.044
 7553SOL    HW123558   4.373   3.930   5.965
 7553SOL    HW223559   4.525   3.927   6.024
 7554SOL     OW23560   6.940   1.542   0.682
 7554SOL    HW123561   6.843   1.515   0.685
 7554SOL    HW223562   6.974   1.556   0.774
 7555SOL     OW23563   1.991   6.667   6.315
 7555SOL    HW123564   2.062   6.730   6.345
 7555SOL    HW223565   1.956   6.696   6.226
 7556SOL     OW23566   0.005   3.427   2.488
 7556SOL    HW123567   0.056   3.343   2.511
 7556SOL    HW223568   6.968   3.411   2.406
 7557SOL     OW23569   4.410   4.254   0.860
 7557SOL    HW123570   4.347   4.181   0.833
 7557SOL    HW223571   4.476   4.270   0.787
 7558SOL     OW23572   1.592   3.496   3.903
 7558SOL    HW123573   1.672   3.455   3.947
 7558SOL    HW223574   1.556   3.569   3.961
 7559SOL     OW23575   0.768   5.031   0.112
 7559SOL    HW123576   0.820   5.115   0.131
 7559SOL    HW223577   0.725   5.037   0.022
 7560SOL     OW23578   4.136   6.954   6.088
 7560SOL    HW123579   4.143   6.857   6.114
 7560SOL    HW223580   4.053   6.968   6.034
 7561SOL     OW23581   1.567   2.884   0.152
 7561SOL    HW123582   1.470   2.907   0.156
 7561SOL    HW223583   1.577   2.786   0.131
 7562SOL     OW23584   4.432   6.618   4.744
 7562SOL    HW123585   4.428   6.612   4.844
 7562SOL    HW223586   4.342   6.598   4.706
 7563SOL     OW23587   2.079   1.733   4.031
 7563SOL    HW123588   2.081   1.643   4.075
 7563SOL    HW223589   2.161   1.744   3.975
 7564SOL     OW23590   6.114   5.752   4.375
 7564SOL    HW123591   6.187   5.820   4.366
 7564SOL    HW223592   6.031   5.798   4.408
 7565SOL     OW23593   5.113   5.154   6.255
 7565SOL    HW123594   5.020   5.159   6.290
 7565SOL    HW223595   5.145   5.059   6.259
 7566SOL     OW23596   1.718   5.477   3.895
 7566SOL    HW123597   1.647   5.422   3.940
 7566SOL    HW223598   1.796   5.419   3.873
 7567SOL     OW23599   3.051   4.082   6.954
 7567SOL    HW123600   3.088   4.175   6.958
 7567SOL    HW223601   2.963   4.079   7.002
 7568SOL     OW23602   4.181   4.723   3.984
 7568SOL    HW123603   4.236   4.684   3.909
 7568SOL    HW223604   4.242   4.757   4.055
 7569SOL     OW23605   3.878   0.104   2.908
 7569SOL    HW123606   3.833   0.189   2.933
 7569SOL    HW223607   3.849   0.076   2.817
 7570SOL     OW23608   5.773   5.261   5.115
 7570SOL    HW123609   5.756   5.170   5.078
 7570SOL    HW223610   5.687   5.309   5.129
 7571SOL     OW23611   6.652   4.482   0.230
 7571SOL    HW123612   6.623   4.561   0.176
 7571SOL    HW223613   6.665   4.403   0.170
 7572SOL     OW23614   5.901   1.392   3.653
 7572SOL    HW123615   5.940   1.321   3.711
 7572SOL    HW223616   5.845   1.454   3.708
 7573SOL     OW23617   2.997   5.013   4.046
 7573SOL    HW123618   2.936   5.040   4.120
 7573SOL    HW223619   2.999   5.085   3.976
 7574SOL     OW23620   4.108   6.069   1.479
 7574SOL    HW123621   4.063   6.156   1.501
 7574SOL    HW223622   4.168   6.042   1.554
 7575SOL     OW23623   4.994   3.518   4.114
 7575SOL    HW123624   5.045   3.457   4.175
 7575SOL    HW223625   4.965   3.467   4.033
 7576SOL     OW23626   0.133   4.493   1.491
 7576SOL    HW123627   0.164   4.474   1.585
 7576SOL    HW223628   0.159   4.417   1.432
 7577SOL     OW23629   3.836   1.602   4.060
 7577SOL    HW123630   3.815   1.698   4.043
 7577SOL    HW223631   3.872   1.560   3.977
 7578SOL     OW23632   2.223   5.474   5.458
 7578SOL    HW123633   2.125   5.481   5.476
 7578SOL    HW223634   2.237   5.443   5.364
 7579SOL     OW23635   4.387   2.074   4.426
 7579SOL    HW123636   4.409   2.083   4.523
 7579SOL    HW223637   4.302   2.123   4.405
 7580SOL     OW23638   1.700   3.369   2.055
 7580SOL    HW123639   1.603   3.391   2.045
 7580SOL    HW223640   1.747   3.443   2.103
 7581SOL     OW23641   5.828   1.007   1.190
 7581SOL    HW123642   5.849   0.922   1.238
 7581SOL    HW223643   5.799   1.076   1.255
 7582SOL     OW23644   3.977   2.973   1.354
 7582SOL    HW123645   3.986   2.885   1.308
 7582SOL    HW223646   4.044   3.037   1.317
 7583SOL     OW23647   6.154   3.940   3.523
 7583SOL    HW123648   6.118   3.998   3.596
 7583SOL    HW223649   6.187   3.996   3.448
 7584SOL     OW23650   2.177   2.444   2.141
 7584SOL    HW123651   2.207   2.539   2.137
 7584SOL    HW223652   2.140   2.417   2.052
 7585SOL     OW23653   2.854   4.088   0.770
 7585SOL    HW123654   2.891   4.033   0.695
 7585SOL    HW223655   2.902   4.176   0.774
 7586SOL     OW23656   1.560   2.443   3.324
 7586SOL    HW123657   1.632   2.374   3.315
 7586SOL    HW223658   1.474   2.407   3.287
 7587SOL     OW23659   2.867   0.663   5.638
 7587SOL    HW123660   2.912   0.607   5.706
 7587SOL    HW223661   2.826   0.743   5.682
 7588SOL     OW23662   0.439   4.844   1.069
 7588SOL    HW123663   0.377   4.769   1.093
 7588SOL    HW223664   0.407   4.889   0.986
 7589SOL     OW23665   4.721   5.647   5.954
 7589SOL    HW123666   4.654   5.617   5.886
 7589SOL    HW223667   4.788   5.707   5.911
 7590SOL     OW23668   2.389   0.881   5.071
 7590SOL    HW123669   2.381   0.865   4.973
 7590SOL    HW223670   2.478   0.849   5.103
 7591SOL     OW23671   6.457   5.671   6.248
 7591SOL    HW123672   6.545   5.623   6.250
 7591SOL    HW223673   6.403   5.644   6.328
 7592SOL     OW23674   4.523   4.755   5.989
 7592SOL    HW123675   4.547   4.684   5.923
 7592SOL    HW223676   4.587   4.831   5.980
 7593SOL     OW23677   6.590   4.862   7.008
 7593SOL    HW123678   6.653   4.831   0.063
 7593SOL    HW223679   6.514   4.797   7.002
 7594SOL     OW23680   0.923   0.094   4.397
 7594SOL    HW123681   0.832   0.110   4.359
 7594SOL    HW223682   0.992   0.135   4.337
 7595SOL     OW23683   0.325   3.861   6.500
 7595SOL    HW123684   0.309   3.782   6.441
 7595SOL    HW223685   0.397   3.840   6.566
 7596SOL     OW23686   5.338   5.207   2.207
 7596SOL    HW123687   5.417   5.262   2.234
 7596SOL    HW223688   5.257   5.239   2.256
 7597SOL     OW23689   2.235   4.289   2.376
 7597SOL    HW123690   2.167   4.221   2.348
 7597SOL    HW223691   2.308   4.293   2.308
 7598SOL     OW23692   6.840   1.472   2.715
 7598SOL    HW123693   6.800   1.482   2.624
 7598SOL    HW223694   6.768   1.474   2.784
 7599SOL     OW23695   5.526   4.065   2.007
 7599SOL    HW123696   5.526   4.041   2.105
 7599SOL    HW223697   5.438   4.040   1.967
 7600SOL     OW23698   2.330   2.246   2.817
 7600SOL    HW123699   2.383   2.180   2.764
 7600SOL    HW223700   2.342   2.337   2.779
 7601SOL     OW23701   1.910   0.782   5.471
 7601SOL    HW123702   1.978   0.718   5.437
 7601SOL    HW223703   1.823   0.734   5.483
 7602SOL     OW23704   2.048   3.252   5.454
 7602SOL    HW123705   2.002   3.187   5.393
 7602SOL    HW223706   2.107   3.312   5.399
 7603SOL     OW23707   6.375   1.503   2.372
 7603SOL    HW123708   6.279   1.533   2.371
 7603SOL    HW223709   6.417   1.523   2.283
 7604SOL     OW23710   5.695   5.611   6.432
 7604SOL    HW123711   5.711   5.513   6.442
 7604SOL    HW223712   5.775   5.662   6.464
 7605SOL     OW23713   5.042   3.563   5.489
 7605SOL    HW123714   5.015   3.641   5.546
 7605SOL    HW223715   5.041   3.479   5.543
 7606SOL     OW23716   5.629   1.229   3.837
 7606SOL    HW123717   5.566   1.292   3.792
 7606SOL    HW223718   5.691   1.281   3.896
 7607SOL     OW23719   4.977   6.219   5.824
 7607SOL    HW123720   5.039   6.159   5.773
 7607SOL    HW223721   5.031   6.275   5.887
 7608SOL     OW23722   3.791   3.466   4.862
 7608SOL    HW123723   3.797   3.380   4.810
 7608SOL    HW223724   3.777   3.542   4.799
 7609SOL     OW23725   1.410   2.773   2.969
 7609SOL    HW123726   1.460   2.707   2.912
 7609SOL    HW223727   1.338   2.815   2.914
 7610SOL     OW23728   5.645   0.203   2.408
 7610SOL    HW123729   5.679   0.251   2.327
 7610SOL    HW223730   5.641   0.267   2.485
 7611SOL     OW23731   1.207   1.411   1.855
 7611SOL    HW123732   1.263   1.445   1.930
 7611SOL    HW223733   1.113   1.397   1.887
 7612SOL     OW23734   4.026   1.195   2.791
 7612SOL    HW123735   3.972   1.276   2.812
 7612SOL    HW223736   3.975   1.135   2.728
 7613SOL     OW23737   6.531   0.723   2.332
 7613SOL    HW123738   6.596   0.659   2.374
 7613SOL    HW223739   6.450   0.731   2.390
 7614SOL     OW23740   4.406   0.886   0.525
 7614SOL    HW123741   4.368   0.886   0.432
 7614SOL    HW223742   4.352   0.826   0.583
 7615SOL     OW23743   4.274   4.503   5.916
 7615SOL    HW123744   4.201   4.564   5.948
 7615SOL    HW223745   4.268   4.415   5.962
 7616SOL     OW23746   6.986   6.146   3.681
 7616SOL    HW123747   0.013   6.056   3.683
 7616SOL    HW223748   0.038   6.217   3.696
 7617SOL     OW23749   4.207   5.369   3.117
 7617SOL    HW123750   4.234   5.465   3.106
 7617SOL    HW223751   4.170   5.335   3.030
 7618SOL     OW23752   3.352   1.654   0.511
 7618SOL    HW123753   3.290   1.681   0.584
 7618SOL    HW223754   3.299   1.615   0.435
 7619SOL     OW23755   5.639   3.560   5.883
 7619SOL    HW123756   5.725   3.520   5.915
 7619SOL    HW223757   5.583   3.489   5.840
 7620SOL     OW23758   2.689   5.769   2.086
 7620SOL    HW123759   2.667   5.741   2.179
 7620SOL    HW223760   2.606   5.793   2.036
 7621SOL     OW23761   2.722   3.139   1.435
 7621SOL    HW123762   2.772   3.159   1.351
 7621SOL    HW223763   2.707   3.040   1.441
 7622SOL     OW23764   5.215   2.138   0.851
 7622SOL    HW123765   5.139   2.145   0.787
 7622SOL    HW223766   5.282   2.210   0.832
 7623SOL     OW23767   0.012   7.001   4.816
 7623SOL    HW123768   6.943   0.030   4.795
 7623SOL    HW223769   0.039   0.005   4.910
 7624SOL     OW23770   6.909   1.458   4.869
 7624SOL    HW123771   6.909   1.379   4.930
 7624SOL    HW223772   6.834   1.450   4.804
 7625SOL     OW23773   2.099   4.686   0.483
 7625SOL    HW123774   2.148   4.676   0.569
 7625SOL    HW223775   2.163   4.716   0.412
 7626SOL     OW23776   2.827   3.944   5.211
 7626SOL    HW123777   2.890   3.909   5.142
 7626SOL    HW223778   2.743   3.975   5.166
 7627SOL     OW23779   6.866   0.459   0.129
 7627SOL    HW123780   6.875   0.475   0.030
 7627SOL    HW223781   6.943   0.500   0.177
 7628SOL     OW23782   4.258   1.780   0.215
 7628SOL    HW123783   4.176   1.741   0.256
 7628SOL    HW223784   4.338   1.760   0.271
 7629SOL     OW23785   6.343   5.467   2.696
 7629SOL    HW123786   6.340   5.563   2.724
 7629SOL    HW223787   6.321   5.408   2.774
 7630SOL     OW23788   5.621   1.468   2.037
 7630SOL    HW123789   5.569   1.386   2.013
 7630SOL    HW223790   5.664   1.506   1.955
 7631SOL     OW23791   0.980   0.409   4.024
 7631SOL    HW123792   1.009   0.504   4.017
 7631SOL    HW223793   1.008   0.359   3.942
 7632SOL     OW23794   4.749   0.700   4.692
 7632SOL    HW123795   4.677   0.708   4.762
 7632SOL    HW223796   4.728   0.763   4.617
 7633SOL     OW23797   5.759   3.358   6.148
 7633SOL    HW123798   5.801   3.304   6.075
 7633SOL    HW223799   5.663   3.332   6.157
 7634SOL     OW23800   1.123   2.414   1.769
 7634SOL    HW123801   1.113   2.426   1.867
 7634SOL    HW223802   1.105   2.319   1.745
 7635SOL     OW23803   2.036   4.936   5.639
 7635SOL    HW123804   2.066   4.860   5.581
 7635SOL    HW223805   1.937   4.942   5.636
 7636SOL     OW23806   0.918   1.372   3.410
 7636SOL    HW123807   1.014   1.402   3.404
 7636SOL    HW223808   0.860   1.450   3.434
 7637SOL     OW23809   2.872   6.026   4.144
 7637SOL    HW123810   2.840   5.996   4.235
 7637SOL    HW223811   2.946   6.092   4.155
 7638SOL     OW23812   4.800   4.969   1.948
 7638SOL    HW123813   4.702   4.987   1.955
 7638SOL    HW223814   4.850   5.027   2.012
 7639SOL     OW23815   0.768   2.245   4.450
 7639SOL    HW123816   0.864   2.268   4.458
 7639SOL    HW223817   0.758   2.147   4.429
 7640SOL     OW23818   1.972   2.798   6.107
 7640SOL    HW123819   2.051   2.744   6.081
 7640SOL    HW223820   1.966   2.879   6.048
 7641SOL     OW23821   5.614   3.267   1.753
 7641SOL    HW123822   5.712   3.287   1.751
 7641SOL    HW223823   5.600   3.169   1.740
 7642SOL     OW23824   0.878   2.659   2.831
 7642SOL    HW123825   0.859   2.724   2.905
 7642SOL    HW223826   0.833   2.690   2.747
 7643SOL     OW23827   5.352   3.871   3.668
 7643SOL    HW123828   5.424   3.807   3.641
 7643SOL    HW223829   5.264   3.836   3.638
 7644SOL     OW23830   6.318   2.426   3.377
 7644SOL    HW123831   6.395   2.485   3.352
 7644SOL    HW223832   6.248   2.431   3.305
 7645SOL     OW23833   4.307   3.016   0.673
 7645SOL    HW123834   4.394   3.060   0.650
 7645SOL    HW223835   4.268   2.973   0.592
 7646SOL     OW23836   0.797   0.706   2.493
 7646SOL    HW123837   0.847   0.756   2.423
 7646SOL    HW223838   0.723   0.653   2.451
 7647SOL     OW23839   2.526   4.151   6.980
 7647SOL    HW123840   2.519   4.225   6.913
 7647SOL    HW223841   2.437   4.137   0.006
 7648SOL     OW23842   2.371   0.251   3.570
 7648SOL    HW123843   2.377   0.216   3.663
 7648SOL    HW223844   2.416   0.340   3.565
 7649SOL     OW23845   3.775   2.065   1.045
 7649SOL    HW123846   3.718   2.110   0.976
 7649SOL    HW223847   3.870   2.092   1.033
 7650SOL     OW23848   0.129   4.926   0.536
 7650SOL    HW123849   0.112   4.963   0.627
 7650SOL    HW223850   0.211   4.968   0.497
 7651SOL     OW23851   5.699   1.945   5.686
 7651SOL    HW123852   5.626   1.979   5.745
 7651SOL    HW223853   5.663   1.873   5.626
 7652SOL     OW23854   0.582   2.975   2.317
 7652SOL    HW123855   0.562   3.005   2.410
 7652SOL    HW223856   0.636   2.891   2.320
 7653SOL     OW23857   4.640   2.482   1.578
 7653SOL    HW123858   4.722   2.505   1.526
 7653SOL    HW223859   4.560   2.525   1.535
 7654SOL     OW23860   5.618   4.022   5.264
 7654SOL    HW123861   5.536   4.077   5.280
 7654SOL    HW223862   5.646   4.032   5.168
 7655SOL     OW23863   5.079   4.857   6.373
 7655SOL    HW123864   5.050   4.768   6.338
 7655SOL    HW223865   5.084   4.854   6.473
 7656SOL     OW23866   0.092   0.609   5.341
 7656SOL    HW123867   0.026   0.600   5.416
 7656SOL    HW223868   0.157   0.533   5.345
 7657SOL     OW23869   3.525   2.126   3.414
 7657SOL    HW123870   3.599   2.058   3.408
 7657SOL    HW223871   3.466   2.117   3.334
 7658SOL     OW23872   4.251   1.022   5.861
 7658SOL    HW123873   4.204   0.970   5.790
 7658SOL    HW223874   4.248   1.119   5.839
 7659SOL     OW23875   5.153   6.193   6.171
 7659SOL    HW123876   5.218   6.138   6.224
 7659SOL    HW223877   5.115   6.137   6.098
 7660SOL     OW23878   5.219   5.174   3.763
 7660SOL    HW123879   5.304   5.154   3.715
 7660SOL    HW223880   5.145   5.183   3.698
 7661SOL     OW23881   5.810   3.253   3.652
 7661SOL    HW123882   5.714   3.229   3.665
 7661SOL    HW223883   5.817   3.330   3.588
 7662SOL     OW23884   5.983   5.531   3.453
 7662SOL    HW123885   6.036   5.454   3.417
 7662SOL    HW223886   5.890   5.500   3.473
 7663SOL     OW23887   0.942   6.553   6.736
 7663SOL    HW123888   1.033   6.523   6.708
 7663SOL    HW223889   0.929   6.648   6.710
 7664SOL     OW23890   4.571   5.087   4.851
 7664SOL    HW123891   4.479   5.065   4.883
 7664SOL    HW223892   4.604   5.013   4.792
 7665SOL     OW23893   2.244   5.467   3.364
 7665SOL    HW123894   2.302   5.520   3.427
 7665SOL    HW223895   2.160   5.441   3.411
 7666SOL     OW23896   1.993   0.234   2.643
 7666SOL    HW123897   2.080   0.185   2.653
 7666SOL    HW223898   2.012   0.332   2.633
 7667SOL     OW23899   5.481   0.029   5.555
 7667SOL    HW123900   5.455   7.000   5.471
 7667SOL    HW223901   5.416   0.103   5.574
 7668SOL     OW23902   3.189   2.994   2.631
 7668SOL    HW123903   3.195   2.980   2.533
 7668SOL    HW223904   3.240   3.076   2.656
 7669SOL     OW23905   5.001   6.708   4.937
 7669SOL    HW123906   5.096   6.678   4.934
 7669SOL    HW223907   4.945   6.646   4.883
 7670SOL     OW23908   1.493   5.928   1.471
 7670SOL    HW123909   1.490   5.999   1.401
 7670SOL    HW223910   1.562   5.859   1.446
 7671SOL     OW23911   4.552   2.614   4.791
 7671SOL    HW123912   4.500   2.697   4.774
 7671SOL    HW223913   4.494   2.546   4.837
 7672SOL     OW23914   5.639   6.696   1.947
 7672SOL    HW123915   5.579   6.633   1.995
 7672SOL    HW223916   5.633   6.787   1.988
 7673SOL     OW23917   2.017   3.807   0.228
 7673SOL    HW123918   2.048   3.902   0.235
 7673SOL    HW223919   1.926   3.805   0.187
 7674SOL     OW23920   6.306   1.410   5.347
 7674SOL    HW123921   6.208   1.404   5.363
 7674SOL    HW223922   6.355   1.359   5.418
 7675SOL     OW23923   5.573   0.109   3.156
 7675SOL    HW123924   5.558   0.138   3.062
 7675SOL    HW223925   5.487   0.077   3.196
 7676SOL     OW23926   2.311   0.077   1.035
 7676SOL    HW123927   2.231   0.093   1.094
 7676SOL    HW223928   2.323   0.155   0.974
 7677SOL     OW23929   1.644   2.463   2.528
 7677SOL    HW123930   1.694   2.514   2.458
 7677SOL    HW223931   1.603   2.527   2.593
 7678SOL     OW23932   4.718   6.815   5.720
 7678SOL    HW123933   4.809   6.846   5.696
 7678SOL    HW223934   4.710   6.717   5.699
 7679SOL     OW23935   1.759   4.790   4.761
 7679SOL    HW123936   1.711   4.725   4.819
 7679SOL    HW223937   1.857   4.766   4.758
 7680SOL     OW23938   4.303   0.384   0.697
 7680SOL    HW123939   4.232   0.454   0.692
 7680SOL    HW223940   4.390   0.423   0.669
 7681SOL     OW23941   4.170   2.167   5.679
 7681SOL    HW123942   4.267   2.143   5.683
 7681SOL    HW223943   4.153   2.226   5.600
 7682SOL     OW23944   2.952   1.011   0.173
 7682SOL    HW123945   3.009   0.945   0.124
 7682SOL    HW223946   2.892   0.962   0.236
 7683SOL     OW23947   6.899   3.254   2.995
 7683SOL    HW123948   6.880   3.199   2.914
 7683SOL    HW223949   6.813   3.287   3.034
 7684SOL     OW23950   3.921   1.939   6.212
 7684SOL    HW123951   3.901   1.948   6.309
 7684SOL    HW223952   3.895   1.847   6.181
 7685SOL     OW23953   4.499   4.781   1.404
 7685SOL    HW123954   4.469   4.806   1.312
 7685SOL    HW223955   4.593   4.746   1.400
 7686SOL     OW23956   2.147   0.651   2.142
 7686SOL    HW123957   2.240   0.685   2.157
 7686SOL    HW223958   2.112   0.687   2.056
 7687SOL     OW23959   4.952   4.312   5.397
 7687SOL    HW123960   4.926   4.407   5.413
 7687SOL    HW223961   4.872   4.258   5.372
 7688SOL     OW23962   6.864   0.789   3.604
 7688SOL    HW123963   6.810   0.848   3.664
 7688SOL    HW223964   6.806   0.755   3.530
 7689SOL     OW23965   3.163   6.943   5.133
 7689SOL    HW123966   3.153   6.862   5.191
 7689SOL    HW223967   3.202   6.917   5.045
 7690SOL     OW23968   0.918   5.460   2.996
 7690SOL    HW123969   0.883   5.551   2.975
 7690SOL    HW223970   0.937   5.453   3.094
 7691SOL     OW23971   6.577   3.411   5.463
 7691SOL    HW123972   6.501   3.424   5.399
 7691SOL    HW223973   6.557   3.458   5.549
 7692SOL     OW23974   1.481   6.279   1.333
 7692SOL    HW123975   1.502   6.184   1.311
 7692SOL    HW223976   1.467   6.331   1.249
 7693SOL     OW23977   4.610   1.055   0.502
 7693SOL    HW123978   4.518   1.026   0.528
 7693SOL    HW223979   4.668   0.975   0.490
 7694SOL     OW23980   5.558   5.449   3.895
 7694SOL    HW123981   5.478   5.393   3.916
 7694SOL    HW223982   5.641   5.401   3.924
 7695SOL     OW23983   5.077   0.005   6.177
 7695SOL    HW123984   5.079   6.983   6.085
 7695SOL    HW223985   4.995   6.992   6.224
 7696SOL     OW23986   1.173   4.030   5.243
 7696SOL    HW123987   1.217   4.086   5.173
 7696SOL    HW223988   1.234   4.022   5.322
 7697SOL     OW23989   4.507   0.634   2.526
 7697SOL    HW123990   4.468   0.595   2.609
 7697SOL    HW223991   4.468   0.724   2.509
 7698SOL     OW23992   0.162   1.744   6.343
 7698SOL    HW123993   0.066   1.761   6.319
 7698SOL    HW223994   0.213   1.830   6.343
 7699SOL     OW23995   3.345   3.291   1.465
 7699SOL    HW123996   3.281   3.216   1.448
 7699SOL    HW223997   3.303   3.358   1.526
 7700SOL     OW23998   5.193   0.866   5.047
 7700SOL    HW123999   5.154   0.855   4.955
 7700SOL    HW224000   5.221   0.962   5.059
 7701SOL     OW24001   6.480   2.428   5.156
 7701SOL    HW124002   6.431   2.426   5.069
 7701SOL    HW224003   6.571   2.387   5.145
 7702SOL     OW24004   1.538   6.418   6.989
 7702SOL    HW124005   1.579   6.462   0.052
 7702SOL    HW224006   1.472   6.481   6.948
 7703SOL     OW24007   0.819   2.331   6.995
 7703SOL    HW124008   0.907   2.317   0.022
 7703SOL    HW224009   0.821   2.418   6.945
 7704SOL     OW24010   3.875   4.163   1.443
 7704SOL    HW124011   3.973   4.157   1.425
 7704SOL    HW224012   3.851   4.098   1.516
 7705SOL     OW24013   4.123   3.669   4.720
 7705SOL    HW124014   4.107   3.676   4.819
 7705SOL    HW224015   4.113   3.760   4.679
 7706SOL     OW24016   5.194   1.490   5.907
 7706SOL    HW124017   5.179   1.462   6.002
 7706SOL    HW224018   5.245   1.418   5.859
 7707SOL     OW24019   0.180   4.833   6.286
 7707SOL    HW124020   0.114   4.763   6.260
 7707SOL    HW224021   0.256   4.790   6.336
 7708SOL     OW24022   4.448   1.477   4.969
 7708SOL    HW124023   4.423   1.567   4.934
 7708SOL    HW224024   4.369   1.436   5.016
 7709SOL     OW24025   3.783   2.556   1.141
 7709SOL    HW124026   3.800   2.552   1.043
 7709SOL    HW224027   3.701   2.503   1.163
 7710SOL     OW24028   3.616   1.661   6.760
 7710SOL    HW124029   3.715   1.654   6.751
 7710SOL    HW224030   3.594   1.738   6.820
 7711SOL     OW24031   4.820   6.535   4.730
 7711SOL    HW124032   4.802   6.523   4.632
 7711SOL    HW224033   4.741   6.580   4.773
 7712SOL     OW24034   6.322   4.416   5.962
 7712SOL    HW124035   6.259   4.390   5.888
 7712SOL    HW224036   6.393   4.347   5.971
 7713SOL     OW24037   0.559   5.034   6.368
 7713SOL    HW124038   0.564   5.117   6.313
 7713SOL    HW224039   0.465   5.020   6.399
 7714SOL     OW24040   5.702   4.990   4.939
 7714SOL    HW124041   5.678   4.955   5.030
 7714SOL    HW224042   5.622   5.032   4.897
 7715SOL     OW24043   3.832   2.101   1.465
 7715SOL    HW124044   3.791   2.088   1.556
 7715SOL    HW224045   3.862   2.195   1.455
 7716SOL     OW24046   3.783   2.127   4.454
 7716SOL    HW124047   3.722   2.201   4.424
 7716SOL    HW224048   3.759   2.043   4.407
 7717SOL     OW24049   2.797   6.561   0.295
 7717SOL    HW124050   2.873   6.497   0.310
 7717SOL    HW224051   2.832   6.654   0.299
 7718SOL     OW24052   1.563   6.288   3.217
 7718SOL    HW124053   1.645   6.234   3.237
 7718SOL    HW224054   1.494   6.272   3.287
 7719SOL     OW24055   5.407   2.477   5.511
 7719SOL    HW124056   5.425   2.521   5.423
 7719SOL    HW224057   5.310   2.454   5.518
 7720SOL     OW24058   5.039   6.643   1.840
 7720SOL    HW124059   5.099   6.642   1.920
 7720SOL    HW224060   5.029   6.549   1.806
 7721SOL     OW24061   0.629   5.111   3.194
 7721SOL    HW124062   0.554   5.134   3.256
 7721SOL    HW224063   0.597   5.119   3.099
 7722SOL     OW24064   0.323   5.719   3.831
 7722SOL    HW124065   0.312   5.684   3.738
 7722SOL    HW224066   0.262   5.668   3.892
 7723SOL     OW24067   0.110   2.035   6.062
 7723SOL    HW124068   0.115   2.079   6.152
 7723SOL    HW224069   0.200   1.997   6.039
 7724SOL     OW24070   2.719   6.191   6.638
 7724SOL    HW124071   2.668   6.153   6.715
 7724SOL    HW224072   2.696   6.287   6.626
 7725SOL     OW24073   5.158   4.101   3.381
 7725SOL    HW124074   5.219   4.103   3.460
 7725SOL    HW224075   5.207   4.063   3.303
 7726SOL     OW24076   5.015   5.563   3.703
 7726SOL    HW124077   5.039   5.579   3.799
 7726SOL    HW224078   4.973   5.473   3.694
 7727SOL     OW24079   5.958   3.703   2.067
 7727SOL    HW124080   5.987   3.643   1.993
 7727SOL    HW224081   5.868   3.675   2.100
 7728SOL     OW24082   2.064   3.282   3.111
 7728SOL    HW124083   1.974   3.312   3.143
 7728SOL    HW224084   2.069   3.183   3.113
 7729SOL     OW24085   5.552   1.539   6.063
 7729SOL    HW124086   5.638   1.501   6.029
 7729SOL    HW224087   5.479   1.471   6.053
 7730SOL     OW24088   4.522   6.224   2.951
 7730SOL    HW124089   4.559   6.268   3.033
 7730SOL    HW224090   4.444   6.167   2.977
 7731SOL     OW24091   5.870   1.623   4.124
 7731SOL    HW124092   5.820   1.708   4.111
 7731SOL    HW224093   5.867   1.598   4.221
 7732SOL     OW24094   4.368   4.669   0.940
 7732SOL    HW124095   4.292   4.643   0.880
 7732SOL    HW224096   4.405   4.587   0.984
 7733SOL     OW24097   3.565   5.649   1.280
 7733SOL    HW124098   3.625   5.593   1.338
 7733SOL    HW224099   3.484   5.676   1.333
 7734SOL     OW24100   1.291   3.028   1.790
 7734SOL    HW124101   1.240   3.027   1.876
 7734SOL    HW224102   1.317   3.122   1.768
 7735SOL     OW24103   5.871   4.074   0.517
 7735SOL    HW124104   5.949   4.070   0.579
 7735SOL    HW224105   5.795   4.121   0.561
 7736SOL     OW24106   5.730   4.511   6.539
 7736SOL    HW124107   5.652   4.481   6.594
 7736SOL    HW224108   5.814   4.475   6.579
 7737SOL     OW24109   5.003   2.662   0.358
 7737SOL    HW124110   4.970   2.584   0.412
 7737SOL    HW224111   5.096   2.643   0.326
 7738SOL     OW24112   1.867   5.136   6.527
 7738SOL    HW124113   1.874   5.187   6.441
 7738SOL    HW224114   1.795   5.176   6.584
 7739SOL     OW24115   6.062   4.126   1.960
 7739SOL    HW124116   5.965   4.128   1.985
 7739SOL    HW224117   6.099   4.034   1.976
 7740SOL     OW24118   6.743   5.872   3.455
 7740SOL    HW124119   6.720   5.811   3.531
 7740SOL    HW224120   6.762   5.817   3.373
 7741SOL     OW24121   3.024   5.169   3.606
 7741SOL    HW124122   3.009   5.228   3.685
 7741SOL    HW224123   2.960   5.092   3.609
 7742SOL     OW24124   0.152   0.516   4.565
 7742SOL    HW124125   0.237   0.525   4.617
 7742SOL    HW224126   0.122   0.605   4.533
 7743SOL     OW24127   4.878   3.214   2.111
 7743SOL    HW124128   4.849   3.120   2.096
 7743SOL    HW224129   4.828   3.275   2.051
 7744SOL     OW24130   0.158   6.691   4.715
 7744SOL    HW124131   0.096   6.647   4.780
 7744SOL    HW224132   0.137   6.789   4.709
 7745SOL     OW24133   5.773   2.593   5.660
 7745SOL    HW124134   5.830   2.669   5.690
 7745SOL    HW224135   5.827   2.509   5.659
 7746SOL     OW24136   2.211   0.695   6.675
 7746SOL    HW124137   2.274   0.688   6.597
 7746SOL    HW224138   2.117   0.683   6.644
 7747SOL     OW24139   5.090   5.600   0.572
 7747SOL    HW124140   5.050   5.631   0.485
 7747SOL    HW224141   5.172   5.546   0.553
 7748SOL     OW24142   1.826   3.779   6.894
 7748SOL    HW124143   1.822   3.792   6.795
 7748SOL    HW224144   1.920   3.793   6.926
 7749SOL     OW24145   5.885   3.279   5.905
 7749SOL    HW124146   5.841   3.209   5.849
 7749SOL    HW224147   5.970   3.308   5.861
 7750SOL     OW24148   4.471   5.741   2.815
 7750SOL    HW124149   4.402   5.813   2.818
 7750SOL    HW224150   4.562   5.781   2.803
 7751SOL     OW24151   1.003   2.488   1.533
 7751SOL    HW124152   1.043   2.465   1.622
 7751SOL    HW224153   0.908   2.458   1.530
 7752SOL     OW24154   2.937   0.827   2.752
 7752SOL    HW124155   2.846   0.795   2.726
 7752SOL    HW224156   2.992   0.749   2.783
 7753SOL     OW24157   4.410   0.499   5.241
 7753SOL    HW124158   4.488   0.541   5.196
 7753SOL    HW224159   4.399   0.404   5.209
 7754SOL     OW24160   4.752   6.097   1.203
 7754SOL    HW124161   4.694   6.090   1.284
 7754SOL    HW224162   4.825   6.029   1.208
 7755SOL     OW24163   1.004   3.274   6.244
 7755SOL    HW124164   1.094   3.302   6.277
 7755SOL    HW224165   0.980   3.185   6.283
 7756SOL     OW24166   1.552   3.651   2.322
 7756SOL    HW124167   1.470   3.695   2.286
 7756SOL    HW224168   1.633   3.705   2.298
 7757SOL     OW24169   1.067   4.218   0.113
 7757SOL    HW124170   0.974   4.187   0.092
 7757SOL    HW224171   1.067   4.318   0.126
 7758SOL     OW24172   0.119   0.883   5.326
 7758SOL    HW124173   0.215   0.897   5.350
 7758SOL    HW224174   0.100   0.785   5.322
 7759SOL     OW24175   3.443   1.319   2.860
 7759SOL    HW124176   3.493   1.372   2.791
 7759SOL    HW224177   3.353   1.359   2.874
 7760SOL     OW24178   5.359   3.053   0.390
 7760SOL    HW124179   5.456   3.032   0.406
 7760SOL    HW224180   5.339   3.047   0.293
 7761SOL     OW24181   5.153   5.488   2.704
 7761SOL    HW124182   5.188   5.417   2.765
 7761SOL    HW224183   5.132   5.448   2.615
 7762SOL     OW24184   4.491   1.802   0.346
 7762SOL    HW124185   4.492   1.761   0.438
 7762SOL    HW224186   4.573   1.858   0.335
 7763SOL     OW24187   1.817   0.805   3.334
 7763SOL    HW124188   1.776   0.848   3.254
 7763SOL    HW224189   1.816   0.869   3.411
 7764SOL     OW24190   3.792   4.497   5.376
 7764SOL    HW124191   3.809   4.596   5.377
 7764SOL    HW224192   3.879   4.449   5.361
 7765SOL     OW24193   6.331   4.021   4.524
 7765SOL    HW124194   6.403   3.971   4.573
 7765SOL    HW224195   6.275   3.957   4.471
 7766SOL     OW24196   6.796   2.357   5.795
 7766SOL    HW124197   6.729   2.389   5.861
 7766SOL    HW224198   6.857   2.290   5.838
 7767SOL     OW24199   4.232   0.656   3.523
 7767SOL    HW124200   4.175   0.574   3.517
 7767SOL    HW224201   4.273   0.661   3.614
 7768SOL     OW24202   3.583   5.769   3.843
 7768SOL    HW124203   3.652   5.700   3.868
 7768SOL    HW224204   3.519   5.730   3.777
 7769SOL     OW24205   3.572   2.136   5.937
 7769SOL    HW124206   3.584   2.214   5.876
 7769SOL    HW224207   3.629   2.060   5.906
 7770SOL     OW24208   1.430   3.089   3.665
 7770SOL    HW124209   1.480   3.006   3.688
 7770SOL    HW224210   1.494   3.165   3.656
 7771SOL     OW24211   1.048   3.857   5.082
 7771SOL    HW124212   1.115   3.901   5.142
 7771SOL    HW224213   0.975   3.817   5.137
 7772SOL     OW24214   5.007   5.395   1.972
 7772SOL    HW124215   5.071   5.318   1.975
 7772SOL    HW224216   4.958   5.394   1.884
 7773SOL     OW24217   2.876   6.647   6.101
 7773SOL    HW124218   2.961   6.689   6.069
 7773SOL    HW224219   2.882   6.547   6.089
 7774SOL     OW24220   5.207   0.913   2.907
 7774SOL    HW124221   5.205   0.980   2.833
 7774SOL    HW224222   5.253   0.952   2.986
 7775SOL     OW24223   3.860   1.851   1.392
 7775SOL    HW124224   3.843   1.949   1.402
 7775SOL    HW224225   3.936   1.825   1.452
 7776SOL     OW24226   2.896   1.770   3.859
 7776SOL    HW124227   2.959   1.821   3.917
 7776SOL    HW224228   2.812   1.751   3.909
 7777SOL     OW24229   5.142   5.099   3.343
 7777SOL    HW124230   5.147   5.197   3.365
 7777SOL    HW224231   5.050   5.065   3.365
 7778SOL     OW24232   0.621   3.042   1.634
 7778SOL    HW124233   0.529   3.012   1.608
 7778SOL    HW224234   0.674   2.964   1.665
 7779SOL     OW24235   2.582   0.735   3.689
 7779SOL    HW124236   2.543   0.806   3.631
 7779SOL    HW224237   2.558   0.645   3.652
 7780SOL     OW24238   6.278   5.935   4.262
 7780SOL    HW124239   6.325   5.861   4.213
 7780SOL    HW224240   6.346   5.993   4.307
 7781SOL     OW24241   3.237   2.754   1.365
 7781SOL    HW124242   3.194   2.759   1.455
 7781SOL    HW224243   3.210   2.669   1.320
 7782SOL     OW24244   5.314   4.912   3.518
 7782SOL    HW124245   5.265   4.970   3.453
 7782SOL    HW224246   5.375   4.968   3.573
 7783SOL     OW24247   0.537   6.340   4.003
 7783SOL    HW124248   0.587   6.256   4.023
 7783SOL    HW224249   0.567   6.412   4.065
 7784SOL     OW24250   1.020   2.902   2.139
 7784SOL    HW124251   0.988   2.968   2.071
 7784SOL    HW224252   1.084   2.946   2.201
 7785SOL     OW24253   6.117   6.954   2.628
 7785SOL    HW124254   6.202   6.969   2.577
 7785SOL    HW224255   6.085   6.861   2.613
 7786SOL     OW24256   5.662   0.566   6.567
 7786SOL    HW124257   5.631   0.513   6.488
 7786SOL    HW224258   5.664   0.507   6.648
 7787SOL     OW24259   1.009   2.326   0.797
 7787SOL    HW124260   1.085   2.268   0.826
 7787SOL    HW224261   0.981   2.384   0.874
 7788SOL     OW24262   0.897   4.437   2.111
 7788SOL    HW124263   0.801   4.434   2.085
 7788SOL    HW224264   0.914   4.371   2.185
 7789SOL     OW24265   3.633   0.264   6.439
 7789SOL    HW124266   3.561   0.206   6.399
 7789SOL    HW224267   3.634   0.353   6.393
 7790SOL     OW24268   4.138   5.065   4.632
 7790SOL    HW124269   4.183   5.151   4.656
 7790SOL    HW224270   4.080   5.035   4.708
 7791SOL     OW24271   2.220   6.746   1.478
 7791SOL    HW124272   2.300   6.798   1.510
 7791SOL    HW224273   2.208   6.665   1.536
 7792SOL     OW24274   1.391   1.491   2.072
 7792SOL    HW124275   1.379   1.545   2.155
 7792SOL    HW224276   1.479   1.512   2.030
 7793SOL     OW24277   5.447   1.423   0.860
 7793SOL    HW124278   5.414   1.356   0.794
 7793SOL    HW224279   5.540   1.451   0.836
 7794SOL     OW24280   0.946   1.576   2.678
 7794SOL    HW124281   0.940   1.490   2.729
 7794SOL    HW224282   1.026   1.573   2.618
 7795SOL     OW24283   4.602   3.819   0.867
 7795SOL    HW124284   4.550   3.844   0.949
 7795SOL    HW224285   4.669   3.748   0.891
 7796SOL     OW24286   4.194   1.274   0.403
 7796SOL    HW124287   4.132   1.285   0.481
 7796SOL    HW224288   4.261   1.348   0.404
 7797SOL     OW24289   1.321   6.052   2.939
 7797SOL    HW124290   1.407   6.002   2.935
 7797SOL    HW224291   1.340   6.149   2.958
 7798SOL     OW24292   2.004   3.138   0.927
 7798SOL    HW124293   1.906   3.120   0.921
 7798SOL    HW224294   2.019   3.222   0.979
 7799SOL     OW24295   1.906   6.157   4.360
 7799SOL    HW124296   1.845   6.187   4.433
 7799SOL    HW224297   1.994   6.130   4.398
 7800SOL     OW24298   0.546   0.671   2.106
 7800SOL    HW124299   0.567   0.668   2.008
 7800SOL    HW224300   0.505   0.760   2.128
 7801SOL     OW24301   2.601   1.936   0.665
 7801SOL    HW124302   2.632   1.977   0.579
 7801SOL    HW224303   2.679   1.895   0.712
 7802SOL     OW24304   6.613   4.904   3.671
 7802SOL    HW124305   6.630   4.822   3.726
 7802SOL    HW224306   6.529   4.948   3.703
 7803SOL     OW24307   3.172   2.514   6.237
 7803SOL    HW124308   3.251   2.569   6.206
 7803SOL    HW224309   3.205   2.426   6.272
 7804SOL     OW24310   2.858   1.067   5.477
 7804SOL    HW124311   2.788   0.998   5.496
 7804SOL    HW224312   2.943   1.042   5.524
 7805SOL     OW24313   6.807   2.294   6.797
 7805SOL    HW124314   6.907   2.301   6.804
 7805SOL    HW224315   6.783   2.221   6.733
 7806SOL     OW24316   6.002   2.525   4.870
 7806SOL    HW124317   6.026   2.560   4.960
 7806SOL    HW224318   5.903   2.536   4.856
 7807SOL     OW24319   2.024   5.709   5.220
 7807SOL    HW124320   1.992   5.617   5.194
 7807SOL    HW224321   1.953   5.776   5.199
 7808SOL     OW24322   0.137   3.116   4.403
 7808SOL    HW124323   0.217   3.105   4.462
 7808SOL    HW224324   0.140   3.048   4.329
 7809SOL     OW24325   3.049   0.653   3.163
 7809SOL    HW124326   3.062   0.684   3.069
 7809SOL    HW224327   3.118   0.696   3.222
 7810SOL     OW24328   2.728   6.726   5.893
 7810SOL    HW124329   2.677   6.661   5.837
 7810SOL    HW224330   2.774   6.676   5.967
 7811SOL     OW24331   1.185   5.163   3.168
 7811SOL    HW124332   1.203   5.188   3.263
 7811SOL    HW224333   1.099   5.204   3.137
 7812SOL     OW24334   3.066   0.334   6.179
 7812SOL    HW124335   3.132   0.403   6.149
 7812SOL    HW224336   3.012   0.370   6.255
 7813SOL     OW24337   5.830   0.932   0.681
 7813SOL    HW124338   5.846   0.943   0.779
 7813SOL    HW224339   5.787   1.015   0.645
 7814SOL     OW24340   0.159   2.333   1.730
 7814SOL    HW124341   0.246   2.338   1.779
 7814SOL    HW224342   0.142   2.238   1.702
 7815SOL     OW24343   4.833   6.010   3.728
 7815SOL    HW124344   4.820   6.077   3.655
 7815SOL    HW224345   4.927   6.015   3.762
 7816SOL     OW24346   1.603   1.491   5.349
 7816SOL    HW124347   1.542   1.505   5.427
 7816SOL    HW224348   1.555   1.441   5.277
 7817SOL     OW24349   4.536   1.320   5.552
 7817SOL    HW124350   4.579   1.243   5.504
 7817SOL    HW224351   4.443   1.333   5.518
 7818SOL     OW24352   4.385   0.793   2.972
 7818SOL    HW124353   4.350   0.728   3.039
 7818SOL    HW224354   4.311   0.823   2.911
 7819SOL     OW24355   2.466   2.512   4.592
 7819SOL    HW124356   2.443   2.588   4.653
 7819SOL    HW224357   2.431   2.532   4.500
 7820SOL     OW24358   2.185   0.707   6.974
 7820SOL    HW124359   2.194   0.688   6.877
 7820SOL    HW224360   2.091   0.735   6.994
 7821SOL     OW24361   3.306   5.723   6.555
 7821SOL    HW124362   3.279   5.808   6.600
 7821SOL    HW224363   3.241   5.702   6.483
 7822SOL     OW24364   0.736   1.298   4.461
 7822SOL    HW124365   0.659   1.258   4.511
 7822SOL    HW224366   0.760   1.240   4.383
 7823SOL     OW24367   2.098   2.632   5.638
 7823SOL    HW124368   2.130   2.624   5.543
 7823SOL    HW224369   2.175   2.620   5.700
 7824SOL     OW24370   6.136   3.833   2.714
 7824SOL    HW124371   6.050   3.791   2.741
 7824SOL    HW224372   6.136   3.848   2.615
 7825SOL     OW24373   2.973   3.210   4.003
 7825SOL    HW124374   2.875   3.211   4.021
 7825SOL    HW224375   3.022   3.206   4.090
 7826SOL     OW24376   6.209   6.233   1.317
 7826SOL    HW124377   6.256   6.151   1.285
 7826SOL    HW224378   6.127   6.206   1.367
 7827SOL     OW24379   5.149   3.725   0.555
 7827SOL    HW124380   5.055   3.724   0.588
 7827SOL    HW224381   5.150   3.713   0.455
 7828SOL     OW24382   1.028   6.193   0.319
 7828SOL    HW124383   0.982   6.107   0.299
 7828SOL    HW224384   0.960   6.266   0.330
 7829SOL     OW24385   3.137   3.948   2.843
 7829SOL    HW124386   3.087   3.916   2.762
 7829SOL    HW224387   3.071   3.970   2.915
 7830SOL     OW24388   0.104   4.613   6.607
 7830SOL    HW124389   0.064   4.528   6.574
 7830SOL    HW224390   0.174   4.644   6.543
 7831SOL     OW24391   3.260   3.203   0.312
 7831SOL    HW124392   3.272   3.241   0.404
 7831SOL    HW224393   3.255   3.277   0.245
 7832SOL     OW24394   3.920   2.482   5.644
 7832SOL    HW124395   3.921   2.457   5.741
 7832SOL    HW224396   3.992   2.549   5.626
 7833SOL     OW24397   5.954   6.887   1.827
 7833SOL    HW124398   6.024   6.938   1.776
 7833SOL    HW224399   5.863   6.919   1.800
 7834SOL     OW24400   5.257   0.807   1.678
 7834SOL    HW124401   5.177   0.817   1.737
 7834SOL    HW224402   5.247   0.867   1.599
 7835SOL     OW24403   2.543   2.092   4.262
 7835SOL    HW124404   2.493   2.130   4.184
 7835SOL    HW224405   2.507   2.132   4.346
 7836SOL     OW24406   2.634   0.216   6.947
 7836SOL    HW124407   2.544   0.252   6.921
 7836SOL    HW224408   2.627   0.117   6.960
 7837SOL     OW24409   5.461   6.162   2.182
 7837SOL    HW124410   5.534   6.121   2.236
 7837SOL    HW224411   5.494   6.182   2.090
 7838SOL     OW24412   3.400   5.565   4.104
 7838SOL    HW124413   3.436   5.472   4.111
 7838SOL    HW224414   3.329   5.579   4.174
 7839SOL     OW24415   0.091   5.644   2.856
 7839SOL    HW124416   0.113   5.741   2.851
 7839SOL    HW224417   0.047   5.623   2.943
 7840SOL     OW24418   4.107   2.895   6.162
 7840SOL    HW124419   4.010   2.901   6.138
 7840SOL    HW224420   4.147   2.813   6.120
 7841SOL     OW24421   1.369   1.552   5.904
 7841SOL    HW124422   1.378   1.629   5.968
 7841SOL    HW224423   1.407   1.578   5.815
 7842SOL     OW24424   1.877   1.090   2.513
 7842SOL    HW124425   1.777   1.090   2.519
 7842SOL    HW224426   1.914   1.020   2.575
 7843SOL     OW24427   0.117   2.061   1.668
 7843SOL    HW124428   0.055   2.075   1.591
 7843SOL    HW224429   0.082   1.987   1.726
 7844SOL     OW24430   3.360   2.098   3.185
 7844SOL    HW124431   3.391   2.012   3.143
 7844SOL    HW224432   3.270   2.122   3.149
 7845SOL     OW24433   1.308   0.968   4.220
 7845SOL    HW124434   1.341   0.986   4.127
 7845SOL    HW224435   1.383   0.934   4.276
 7846SOL     OW24436   4.839   6.499   3.012
 7846SOL    HW124437   4.932   6.497   3.048
 7846SOL    HW224438   4.783   6.559   3.069
 7847SOL     OW24439   0.882   6.487   6.083
 7847SOL    HW124440   0.904   6.418   6.152
 7847SOL    HW224441   0.964   6.512   6.033
 7848SOL     OW24442   4.497   3.940   1.337
 7848SOL    HW124443   4.473   3.845   1.354
 7848SOL    HW224444   4.504   3.989   1.424
 7849SOL     OW24445   6.080   4.598   5.155
 7849SOL    HW124446   6.082   4.574   5.252
 7849SOL    HW224447   6.157   4.659   5.134
 7850SOL     OW24448   1.218   2.859   4.820
 7850SOL    HW124449   1.307   2.870   4.865
 7850SOL    HW224450   1.221   2.779   4.760
 7851SOL     OW24451   2.793   6.627   0.979
 7851SOL    HW124452   2.820   6.531   0.984
 7851SOL    HW224453   2.788   6.666   1.071
 7852SOL     OW24454   2.297   6.593   0.725
 7852SOL    HW124455   2.213   6.632   0.762
 7852SOL    HW224456   2.373   6.656   0.738
 7853SOL     OW24457   2.407   1.586   6.982
 7853SOL    HW124458   2.379   1.533   0.044
 7853SOL    HW224459   2.475   1.535   6.929
 7854SOL     OW24460   3.961   3.968   4.880
 7854SOL    HW124461   3.871   4.007   4.899
 7854SOL    HW224462   4.001   4.013   4.800
 7855SOL     OW24463   3.026   6.683   4.762
 7855SOL    HW124464   3.007   6.590   4.730
 7855SOL    HW224465   2.940   6.725   4.792
 7856SOL     OW24466   2.592   3.026   5.616
 7856SOL    HW124467   2.645   2.973   5.549
 7856SOL    HW224468   2.496   3.025   5.591
 7857SOL     OW24469   0.431   2.924   5.232
 7857SOL    HW124470   0.376   3.002   5.262
 7857SOL    HW224471   0.492   2.952   5.159
 7858SOL     OW24472   5.324   2.673   3.374
 7858SOL    HW124473   5.276   2.735   3.311
 7858SOL    HW224474   5.343   2.586   3.328
 7859SOL     OW24475   6.376   6.907   0.046
 7859SOL    HW124476   6.403   7.003   0.046
 7859SOL    HW224477   6.291   6.897   7.012
 7860SOL     OW24478   4.638   6.282   0.764
 7860SOL    HW124479   4.702   6.284   0.840
 7860SOL    HW224480   4.689   6.267   0.679
 7861SOL     OW24481   6.549   3.548   6.905
 7861SOL    HW124482   6.454   3.570   6.929
 7861SOL    HW224483   6.555   3.451   6.881
 7862SOL     OW24484   2.808   4.441   1.562
 7862SOL    HW124485   2.830   4.451   1.659
 7862SOL    HW224486   2.759   4.355   1.548
 7863SOL     OW24487   4.314   5.767   2.407
 7863SOL    HW124488   4.374   5.842   2.435
 7863SOL    HW224489   4.337   5.685   2.459
 7864SOL     OW24490   1.740   5.787   5.342
 7864SOL    HW124491   1.671   5.769   5.271
 7864SOL    HW224492   1.731   5.881   5.373
 7865SOL     OW24493   4.571   0.552   3.348
 7865SOL    HW124494   4.589   0.628   3.410
 7865SOL    HW224495   4.642   0.483   3.359
 7866SOL     OW24496   2.829   0.325   5.999
 7866SOL    HW124497   2.769   0.245   6.003
 7866SOL    HW224498   2.913   0.306   6.050
 7867SOL     OW24499   7.016   3.155   0.661
 7867SOL    HW124500   0.088   3.113   0.672
 7867SOL    HW224501   6.982   3.138   0.568
 7868SOL     OW24502   5.346   6.729   1.240
 7868SOL    HW124503   5.363   6.655   1.175
 7868SOL    HW224504   5.380   6.815   1.202
 7869SOL     OW24505   6.113   1.800   4.316
 7869SOL    HW124506   6.071   1.886   4.288
 7869SOL    HW224507   6.209   1.816   4.338
 7870SOL     OW24508   6.374   6.976   3.403
 7870SOL    HW124509   6.394   0.020   3.480
 7870SOL    HW224510   6.368   0.012   3.319
 7871SOL     OW24511   5.513   2.878   3.213
 7871SOL    HW124512   5.574   2.873   3.292
 7871SOL    HW224513   5.474   2.788   3.194
 7872SOL     OW24514   5.744   3.869   4.066
 7872SOL    HW124515   5.771   3.965   4.063
 7872SOL    HW224516   5.768   3.825   3.980
 7873SOL     OW24517   6.909   5.935   5.145
 7873SOL    HW124518   6.821   5.934   5.192
 7873SOL    HW224519   6.955   5.847   5.157
 7874SOL     OW24520   6.262   6.570   0.223
 7874SOL    HW124521   6.333   6.545   0.157
 7874SOL    HW224522   6.177   6.523   0.201
 7875SOL     OW24523   5.906   2.467   0.463
 7875SOL    HW124524   5.991   2.507   0.429
 7875SOL    HW224525   5.843   2.540   0.489
 7876SOL     OW24526   6.752   2.178   4.920
 7876SOL    HW124527   6.662   2.215   4.943
 7876SOL    HW224528   6.741   2.088   4.876
 7877SOL     OW24529   5.854   3.442   1.728
 7877SOL    HW124530   5.915   3.497   1.670
 7877SOL    HW224531   5.909   3.377   1.781
 7878SOL     OW24532   3.153   4.056   2.266
 7878SOL    HW124533   3.212   4.112   2.207
 7878SOL    HW224534   3.165   4.083   2.361
 7879SOL     OW24535   0.100   1.839   4.869
 7879SOL    HW124536   0.086   1.922   4.814
 7879SOL    HW224537   0.014   1.812   4.911
 7880SOL     OW24538   2.116   6.377   6.733
 7880SOL    HW124539   2.105   6.294   6.678
 7880SOL    HW224540   2.036   6.388   6.793
 7881SOL     OW24541   0.579   4.763   5.542
 7881SOL    HW124542   0.646   4.700   5.506
 7881SOL    HW224543   0.566   4.839   5.478
 7882SOL     OW24544   1.589   4.834   0.938
 7882SOL    HW124545   1.561   4.854   0.844
 7882SOL    HW224546   1.674   4.884   0.958
 7883SOL     OW24547   2.699   2.271   2.663
 7883SOL    HW124548   2.798   2.275   2.654
 7883SOL    HW224549   2.657   2.258   2.573
 7884SOL     OW24550   0.228   2.113   5.511
 7884SOL    HW124551   0.195   2.055   5.437
 7884SOL    HW224552   0.198   2.207   5.496
 7885SOL     OW24553   5.692   5.004   2.782
 7885SOL    HW124554   5.721   5.097   2.762
 7885SOL    HW224555   5.748   4.939   2.730
 7886SOL     OW24556   3.682   4.931   2.698
 7886SOL    HW124557   3.684   5.030   2.691
 7886SOL    HW224558   3.700   4.890   2.609
 7887SOL     OW24559   0.228   3.015   0.607
 7887SOL    HW124560   0.181   3.002   0.520
 7887SOL    HW224561   0.308   3.073   0.594
 7888SOL     OW24562   0.624   1.902   5.118
 7888SOL    HW124563   0.572   1.835   5.064
 7888SOL    HW224564   0.721   1.894   5.095
 7889SOL     OW24565   5.710   4.776   0.287
 7889SOL    HW124566   5.711   4.866   0.329
 7889SOL    HW224567   5.768   4.776   0.205
 7890SOL     OW24568   1.332   2.607   1.621
 7890SOL    HW124569   1.292   2.515   1.626
 7890SOL    HW224570   1.322   2.653   1.709
 7891SOL     OW24571   5.757   0.985   4.442
 7891SOL    HW124572   5.716   0.995   4.352
 7891SOL    HW224573   5.793   0.892   4.453
 7892SOL     OW24574   0.768   1.972   4.466
 7892SOL    HW124575   0.729   1.899   4.410
 7892SOL    HW224576   0.776   1.941   4.561
 7893SOL     OW24577   5.573   5.967   0.544
 7893SOL    HW124578   5.509   5.909   0.493
 7893SOL    HW224579   5.657   5.916   0.560
 7894SOL     OW24580   3.100   6.733   6.561
 7894SOL    HW124581   3.097   6.633   6.558
 7894SOL    HW224582   3.021   6.770   6.512
 7895SOL     OW24583   5.346   6.616   2.841
 7895SOL    HW124584   5.335   6.677   2.762
 7895SOL    HW224585   5.441   6.620   2.872
 7896SOL     OW24586   3.359   2.202   1.003
 7896SOL    HW124587   3.358   2.180   0.905
 7896SOL    HW224588   3.304   2.284   1.019
 7897SOL     OW24589   5.119   0.654   1.164
 7897SOL    HW124590   5.021   0.639   1.178
 7897SOL    HW224591   5.170   0.593   1.224
 7898SOL     OW24592   4.263   6.706   2.908
 7898SOL    HW124593   4.341   6.649   2.934
 7898SOL    HW224594   4.224   6.748   2.990
 7899SOL     OW24595   6.258   4.508   2.658
 7899SOL    HW124596   6.339   4.564   2.640
 7899SOL    HW224597   6.284   4.426   2.708
 7900SOL     OW24598   0.600   3.926   0.584
 7900SOL    HW124599   0.695   3.904   0.563
 7900SOL    HW224600   0.571   3.875   0.665
 7901SOL     OW24601   0.156   2.254   6.250
 7901SOL    HW124602   0.166   2.231   6.347
 7901SOL    HW224603   0.061   2.280   6.232
 7902SOL     OW24604   1.457   0.314   1.348
 7902SOL    HW124605   1.401   0.384   1.391
 7902SOL    HW224606   1.399   0.243   1.310
 7903SOL     OW24607   3.293   1.938   5.463
 7903SOL    HW124608   3.256   2.024   5.427
 7903SOL    HW224609   3.217   1.880   5.495
 7904SOL     OW24610   5.398   3.393   2.933
 7904SOL    HW124611   5.380   3.469   2.996
 7904SOL    HW224612   5.325   3.390   2.864
 7905SOL     OW24613   5.971   1.919   1.088
 7905SOL    HW124614   6.020   1.937   1.003
 7905SOL    HW224615   5.882   1.878   1.068
 7906SOL     OW24616   6.893   6.317   5.805
 7906SOL    HW124617   6.973   6.332   5.748
 7906SOL    HW224618   6.893   6.223   5.839
 7907SOL     OW24619   5.504   5.932   3.242
 7907SOL    HW124620   5.525   6.028   3.229
 7907SOL    HW224621   5.417   5.923   3.292
 7908SOL     OW24622   1.843   0.107   6.307
 7908SOL    HW124623   1.826   0.201   6.336
 7908SOL    HW224624   1.768   0.048   6.338
 7909SOL     OW24625   6.750   4.327   2.508
 7909SOL    HW124626   6.793   4.401   2.562
 7909SOL    HW224627   6.821   4.271   2.467
 7910SOL     OW24628   1.300   4.318   4.728
 7910SOL    HW124629   1.281   4.369   4.645
 7910SOL    HW224630   1.217   4.311   4.783
 7911SOL     OW24631   6.211   3.428   6.148
 7911SOL    HW124632   6.214   3.474   6.236
 7911SOL    HW224633   6.180   3.491   6.077
 7912SOL     OW24634   5.386   5.584   2.136
 7912SOL    HW124635   5.301   5.579   2.083
 7912SOL    HW224636   5.427   5.674   2.126
 7913SOL     OW24637   1.374   4.169   6.747
 7913SOL    HW124638   1.462   4.144   6.705
 7913SOL    HW224639   1.390   4.197   6.842
 7914SOL     OW24640   1.343   0.399   4.858
 7914SOL    HW124641   1.349   0.495   4.831
 7914SOL    HW224642   1.318   0.392   4.954
 7915SOL     OW24643   3.137   6.333   1.905
 7915SOL    HW124644   3.221   6.330   1.960
 7915SOL    HW224645   3.155   6.380   1.819
 7916SOL     OW24646   2.152   0.630   3.680
 7916SOL    HW124647   2.112   0.602   3.593
 7916SOL    HW224648   2.224   0.565   3.707
 7917SOL     OW24649   4.954   1.771   2.552
 7917SOL    HW124650   4.997   1.760   2.642
 7917SOL    HW224651   4.879   1.707   2.543
 7918SOL     OW24652   1.464   2.262   2.540
 7918SOL    HW124653   1.531   2.334   2.554
 7918SOL    HW224654   1.404   2.255   2.620
 7919SOL     OW24655   1.035   0.391   5.195
 7919SOL    HW124656   0.988   0.473   5.163
 7919SOL    HW224657   1.042   0.325   5.120
 7920SOL     OW24658   5.236   0.000   1.388
 7920SOL    HW124659   5.297   0.024   1.314
 7920SOL    HW224660   5.176   6.942   1.360
 7921SOL     OW24661   6.316   3.528   0.771
 7921SOL    HW124662   6.268   3.615   0.760
 7921SOL    HW224663   6.371   3.510   0.689
 7922SOL     OW24664   1.985   6.269   3.394
 7922SOL    HW124665   2.059   6.247   3.457
 7922SOL    HW224666   1.976   6.369   3.386
 7923SOL     OW24667   5.233   0.430   0.998
 7923SOL    HW124668   5.253   0.503   1.063
 7923SOL    HW224669   5.134   0.415   0.996
 7924SOL     OW24670   5.588   6.205   6.958
 7924SOL    HW124671   5.566   6.135   0.008
 7924SOL    HW224672   5.514   6.272   6.953
 7925SOL     OW24673   2.053   4.814   6.135
 7925SOL    HW124674   2.053   4.732   6.077
 7925SOL    HW224675   2.074   4.894   6.080
 7926SOL     OW24676   4.491   5.742   6.875
 7926SOL    HW124677   4.409   5.753   6.932
 7926SOL    HW224678   4.469   5.765   6.781
 7927SOL     OW24679   5.102   0.145   3.500
 7927SOL    HW124680   5.036   0.112   3.568
 7927SOL    HW224681   5.174   0.077   3.489
 7928SOL     OW24682   6.073   2.248   4.224
 7928SOL    HW124683   5.982   2.265   4.187
 7928SOL    HW224684   6.121   2.334   4.237
 7929SOL     OW24685   4.565   3.999   5.524
 7929SOL    HW124686   4.483   4.040   5.563
 7929SOL    HW224687   4.546   3.904   5.498
 7930SOL     OW24688   3.704   5.645   0.721
 7930SOL    HW124689   3.794   5.664   0.682
 7930SOL    HW224690   3.701   5.675   0.816
 7931SOL     OW24691   4.993   0.701   0.542
 7931SOL    HW124692   5.026   0.616   0.502
 7931SOL    HW224693   4.978   0.689   0.640
 7932SOL     OW24694   0.833   3.851   0.757
 7932SOL    HW124695   0.874   3.763   0.780
 7932SOL    HW224696   0.762   3.873   0.823
 7933SOL     OW24697   1.516   1.080   7.005
 7933SOL    HW124698   1.422   1.059   0.015
 7933SOL    HW224699   1.533   1.044   6.914
 7934SOL     OW24700   6.842   5.398   0.488
 7934SOL    HW124701   6.892   5.484   0.492
 7934SOL    HW224702   6.755   5.408   0.537
 7935SOL     OW24703   6.106   3.484   3.565
 7935SOL    HW124704   6.146   3.426   3.494
 7935SOL    HW224705   6.156   3.571   3.568
 7936SOL     OW24706   2.233   5.955   3.097
 7936SOL    HW124707   2.310   6.011   3.127
 7936SOL    HW224708   2.245   5.931   3.001
 7937SOL     OW24709   3.601   0.929   1.419
 7937SOL    HW124710   3.555   0.991   1.355
 7937SOL    HW224711   3.532   0.885   1.477
 7938SOL     OW24712   2.068   6.447   3.168
 7938SOL    HW124713   2.109   6.360   3.142
 7938SOL    HW224714   1.979   6.457   3.123
 7939SOL     OW24715   1.743   0.151   3.325
 7939SOL    HW124716   1.652   0.172   3.359
 7939SOL    HW224717   1.767   0.057   3.348
 7940SOL     OW24718   6.875   1.777   4.963
 7940SOL    HW124719   6.925   1.720   5.028
 7940SOL    HW224720   6.791   1.811   5.004
 7941SOL     OW24721   2.955   0.392   1.134
 7941SOL    HW124722   2.989   0.312   1.184
 7941SOL    HW224723   2.891   0.362   1.064
 7942SOL     OW24724   1.353   4.064   1.552
 7942SOL    HW124725   1.340   4.115   1.637
 7942SOL    HW224726   1.341   4.126   1.474
 7943SOL     OW24727   1.724   5.625   6.914
 7943SOL    HW124728   1.788   5.552   6.937
 7943SOL    HW224729   1.721   5.636   6.815
 7944SOL     OW24730   1.573   2.068   0.591
 7944SOL    HW124731   1.658   2.035   0.549
 7944SOL    HW224732   1.581   2.166   0.610
 7945SOL     OW24733   6.142   4.583   3.749
 7945SOL    HW124734   6.183   4.662   3.794
 7945SOL    HW224735   6.118   4.608   3.655
 7946SOL     OW24736   4.561   1.611   5.701
 7946SOL    HW124737   4.499   1.674   5.747
 7946SOL    HW224738   4.629   1.578   5.766
 7947SOL     OW24739   0.580   4.164   0.069
 7947SOL    HW124740   0.572   4.188   6.990
 7947SOL    HW224741   0.525   4.227   0.124
 7948SOL     OW24742   1.543   5.620   1.372
 7948SOL    HW124743   1.563   5.618   1.274
 7948SOL    HW224744   1.449   5.590   1.387
 7949SOL     OW24745   3.480   5.454   4.696
 7949SOL    HW124746   3.452   5.509   4.617
 7949SOL    HW224747   3.472   5.509   4.779
 7950SOL     OW24748   6.595   2.429   5.998
 7950SOL    HW124749   6.536   2.507   6.015
 7950SOL    HW224750   6.632   2.395   6.084
 7951SOL     OW24751   3.291   0.546   2.892
 7951SOL    HW124752   3.202   0.588   2.877
 7951SOL    HW224753   3.314   0.488   2.814
 7952SOL     OW24754   0.235   3.309   5.587
 7952SOL    HW124755   0.173   3.319   5.665
 7952SOL    HW224756   0.264   3.213   5.580
 7953SOL     OW24757   0.997   0.824   0.693
 7953SOL    HW124758   1.002   0.910   0.642
 7953SOL    HW224759   0.906   0.785   0.682
 7954SOL     OW24760   3.642   2.946   0.700
 7954SOL    HW124761   3.707   3.019   0.678
 7954SOL    HW224762   3.688   2.858   0.698
 7955SOL     OW24763   6.288   0.616   6.361
 7955SOL    HW124764   6.328   0.525   6.374
 7955SOL    HW224765   6.357   0.678   6.325
 7956SOL     OW24766   0.226   0.145   1.011
 7956SOL    HW124767   0.278   0.113   1.090
 7956SOL    HW224768   0.129   0.123   1.023
 7957SOL     OW24769   5.896   1.823   5.977
 7957SOL    HW124770   5.828   1.793   5.910
 7957SOL    HW224771   5.960   1.748   5.995
 7958SOL     OW24772   4.795   2.448   6.685
 7958SOL    HW124773   4.861   2.461   6.611
 7958SOL    HW224774   4.715   2.506   6.669
 7959SOL     OW24775   5.358   2.887   6.928
 7959SOL    HW124776   5.384   2.790   6.924
 7959SOL    HW224777   5.262   2.896   6.903
 7960SOL     OW24778   0.738   2.575   5.225
 7960SOL    HW124779   0.768   2.625   5.145
 7960SOL    HW224780   0.660   2.621   5.266
 7961SOL     OW24781   5.774   0.132   6.207
 7961SOL    HW124782   5.721   0.052   6.178
 7961SOL    HW224783   5.773   0.200   6.133
 7962SOL     OW24784   5.469   0.221   4.875
 7962SOL    HW124785   5.422   0.151   4.820
 7962SOL    HW224786   5.499   0.180   4.961
 7963SOL     OW24787   5.735   6.211   2.492
 7963SOL    HW124788   5.810   6.272   2.466
 7963SOL    HW224789   5.648   6.257   2.480
 7964SOL     OW24790   0.680   4.426   1.546
 7964SOL    HW124791   0.746   4.363   1.505
 7964SOL    HW224792   0.638   4.482   1.475
 7965SOL     OW24793   4.193   1.500   6.276
 7965SOL    HW124794   4.127   1.472   6.346
 7965SOL    HW224795   4.214   1.422   6.217
 7966SOL     OW24796   6.014   3.570   5.399
 7966SOL    HW124797   6.081   3.561   5.325
 7966SOL    HW224798   5.931   3.614   5.364
 7967SOL     OW24799   2.185   4.227   1.504
 7967SOL    HW124800   2.183   4.259   1.599
 7967SOL    HW224801   2.097   4.188   1.479
 7968SOL     OW24802   2.122   2.220   3.583
 7968SOL    HW124803   2.032   2.183   3.558
 7968SOL    HW224804   2.139   2.199   3.680
 7969SOL     OW24805   3.008   4.101   6.380
 7969SOL    HW124806   2.920   4.053   6.381
 7969SOL    HW224807   3.067   4.063   6.451
 7970SOL     OW24808   6.401   2.712   2.935
 7970SOL    HW124809   6.402   2.791   2.874
 7970SOL    HW224810   6.427   2.630   2.883
 7971SOL     OW24811   2.811   0.040   0.090
 7971SOL    HW124812   2.835   0.013   7.014
 7971SOL    HW224813   2.773   0.132   0.090
 7972SOL     OW24814   3.892   3.166   4.295
 7972SOL    HW124815   3.888   3.067   4.308
 7972SOL    HW224816   3.865   3.188   4.202
 7973SOL     OW24817   0.438   5.496   2.055
 7973SOL    HW124818   0.416   5.593   2.064
 7973SOL    HW224819   0.472   5.462   2.143
 7974SOL     OW24820   6.801   2.928   4.064
 7974SOL    HW124821   6.900   2.925   4.050
 7974SOL    HW224822   6.768   2.835   4.079
 7975SOL     OW24823   3.961   0.673   6.696
 7975SOL    HW124824   3.902   0.699   6.772
 7975SOL    HW224825   3.905   0.642   6.620
 7976SOL     OW24826   0.400   0.317   0.640
 7976SOL    HW124827   0.333   0.298   0.568
 7976SOL    HW224828   0.466   0.384   0.606
 7977SOL     OW24829   5.016   4.844   2.588
 7977SOL    HW124830   4.923   4.876   2.605
 7977SOL    HW224831   5.050   4.886   2.504
 7978SOL     OW24832   0.452   3.993   0.914
 7978SOL    HW124833   0.415   3.980   1.006
 7978SOL    HW224834   0.457   3.905   0.867
 7979SOL     OW24835   3.290   2.391   5.575
 7979SOL    HW124836   3.262   2.406   5.670
 7979SOL    HW224837   3.284   2.477   5.524
 7980SOL     OW24838   4.270   5.895   2.723
 7980SOL    HW124839   4.235   5.977   2.768
 7980SOL    HW224840   4.221   5.880   2.638
 7981SOL     OW24841   0.885   2.753   4.070
 7981SOL    HW124842   0.896   2.691   3.992
 7981SOL    HW224843   0.886   2.847   4.038
 7982SOL     OW24844   6.509   6.670   0.703
 7982SOL    HW124845   6.597   6.711   0.678
 7982SOL    HW224846   6.478   6.610   0.629
 7983SOL     OW24847   3.296   1.673   1.245
 7983SOL    HW124848   3.265   1.679   1.340
 7983SOL    HW224849   3.224   1.708   1.184
 7984SOL     OW24850   6.305   2.314   2.453
 7984SOL    HW124851   6.313   2.218   2.479
 7984SOL    HW224852   6.220   2.352   2.488
 7985SOL     OW24853   3.198   3.494   5.546
 7985SOL    HW124854   3.162   3.406   5.516
 7985SOL    HW224855   3.211   3.492   5.645
 7986SOL     OW24856   2.220   0.882   3.416
 7986SOL    HW124857   2.199   0.893   3.319
 7986SOL    HW224858   2.267   0.795   3.431
 7987SOL     OW24859   1.455   3.204   6.583
 7987SOL    HW124860   1.512   3.158   6.514
 7987SOL    HW224861   1.372   3.149   6.598
 7988SOL     OW24862   6.142   0.026   1.683
 7988SOL    HW124863   6.115   0.053   1.591
 7988SOL    HW224864   6.174   0.107   1.733
 7989SOL     OW24865   0.641   4.972   1.237
 7989SOL    HW124866   0.587   4.908   1.182
 7989SOL    HW224867   0.585   5.006   1.313
 7990SOL     OW24868   4.396   5.260   5.622
 7990SOL    HW124869   4.338   5.195   5.671
 7990SOL    HW224870   4.491   5.230   5.625
 7991SOL     OW24871   5.370   0.974   4.402
 7991SOL    HW124872   5.295   1.040   4.406
 7991SOL    HW224873   5.448   1.015   4.354
 7992SOL     OW24874   2.960   0.515   0.041
 7992SOL    HW124875   2.864   0.516   0.013
 7992SOL    HW224876   3.015   0.475   6.985
 7993SOL     OW24877   6.241   5.315   0.521
 7993SOL    HW124878   6.247   5.333   0.620
 7993SOL    HW224879   6.180   5.382   0.479
 7994SOL     OW24880   0.734   1.402   5.212
 7994SOL    HW124881   0.641   1.407   5.175
 7994SOL    HW224882   0.785   1.483   5.184
 7995SOL     OW24883   0.330   6.233   0.827
 7995SOL    HW124884   0.325   6.138   0.795
 7995SOL    HW224885   0.259   6.248   0.897
 7996SOL     OW24886   1.525   6.216   3.959
 7996SOL    HW124887   1.482   6.285   4.017
 7996SOL    HW224888   1.589   6.162   4.013
 7997SOL     OW24889   2.482   0.414   5.851
 7997SOL    HW124890   2.421   0.493   5.857
 7997SOL    HW224891   2.451   0.342   5.913
 7998SOL     OW24892   1.861   1.820   1.597
 7998SOL    HW124893   1.874   1.725   1.566
 7998SOL    HW224894   1.766   1.846   1.585
 7999SOL     OW24895   0.006   0.622   2.379
 7999SOL    HW124896   6.947   0.602   2.440
 7999SOL    HW224897   0.056   0.702   2.413
 8000SOL     OW24898   4.344   6.178   1.022
 8000SOL    HW124899   4.309   6.094   0.979
 8000SOL    HW224900   4.367   6.160   1.117
 8001SOL     OW24901   5.337   5.045   2.759
 8001SOL    HW124902   5.343   4.975   2.831
 8001SOL    HW224903   5.423   5.096   2.755
 8002SOL     OW24904   1.265   0.650   4.945
 8002SOL    HW124905   1.296   0.671   5.038
 8002SOL    HW224906   1.182   0.702   4.925
 8003SOL     OW24907   2.555   5.431   2.795
 8003SOL    HW124908   2.588   5.350   2.844
 8003SOL    HW224909   2.634   5.482   2.760
 8004SOL     OW24910   2.154   3.744   4.022
 8004SOL    HW124911   2.082   3.675   4.014
 8004SOL    HW224912   2.194   3.761   3.932
 8005SOL     OW24913   2.912   0.287   4.640
 8005SOL    HW124914   2.859   0.286   4.555
 8005SOL    HW224915   2.997   0.337   4.625
 8006SOL     OW24916   4.442   5.399   6.383
 8006SOL    HW124917   4.520   5.445   6.424
 8006SOL    HW224918   4.447   5.407   6.283
 8007SOL     OW24919   6.809   0.415   1.232
 8007SOL    HW124920   6.867   0.430   1.312
 8007SOL    HW224921   6.849   0.461   1.153
 8008SOL     OW24922   5.550   5.169   1.445
 8008SOL    HW124923   5.490   5.190   1.522
 8008SOL    HW224924   5.494   5.145   1.365
 8009SOL     OW24925   6.204   0.334   1.138
 8009SOL    HW124926   6.271   0.298   1.073
 8009SOL    HW224927   6.230   0.309   1.231
 8010SOL     OW24928   2.961   0.296   0.236
 8010SOL    HW124929   2.963   0.354   0.154
 8010SOL    HW224930   2.930   0.350   0.314
 8011SOL     OW24931   3.738   2.058   1.725
 8011SOL    HW124932   3.754   1.985   1.792
 8011SOL    HW224933   3.723   2.144   1.773
 8012SOL     OW24934   5.706   0.639   5.302
 8012SOL    HW124935   5.750   0.578   5.237
 8012SOL    HW224936   5.663   0.715   5.252
 8013SOL     OW24937   3.453   0.270   3.590
 8013SOL    HW124938   3.552   0.263   3.575
 8013SOL    HW224939   3.435   0.285   3.687
 8014SOL     OW24940   2.307   2.855   3.483
 8014SOL    HW124941   2.336   2.809   3.567
 8014SOL    HW224942   2.331   2.799   3.404
 8015SOL     OW24943   3.382   5.961   4.841
 8015SOL    HW124944   3.470   5.914   4.836
 8015SOL    HW224945   3.395   6.050   4.884
 8016SOL     OW24946   3.010   3.057   4.991
 8016SOL    HW124947   3.010   3.156   4.980
 8016SOL    HW224948   2.917   3.022   4.983
 8017SOL     OW24949   5.433   6.265   1.887
 8017SOL    HW124950   5.373   6.283   1.965
 8017SOL    HW224951   5.426   6.340   1.822
 8018SOL     OW24952   3.388   2.747   1.098
 8018SOL    HW124953   3.340   2.789   1.175
 8018SOL    HW224954   3.331   2.753   1.016
 8019SOL     OW24955   3.186   3.455   1.619
 8019SOL    HW124956   3.100   3.429   1.574
 8019SOL    HW224957   3.208   3.550   1.597
 8020SOL     OW24958   0.968   6.878   0.042
 8020SOL    HW124959   0.945   6.949   6.992
 8020SOL    HW224960   0.884   6.832   0.070
 8021SOL     OW24961   1.031   2.492   0.572
 8021SOL    HW124962   1.044   2.585   0.606
 8021SOL    HW224963   1.048   2.426   0.645
 8022SOL     OW24964   4.322   0.294   2.813
 8022SOL    HW124965   4.299   0.197   2.814
 8022SOL    HW224966   4.420   0.305   2.834
 8023SOL     OW24967   3.525   4.868   2.204
 8023SOL    HW124968   3.568   4.815   2.130
 8023SOL    HW224969   3.443   4.913   2.169
 8024SOL     OW24970   2.920   0.496   6.404
 8024SOL    HW124971   2.833   0.528   6.367
 8024SOL    HW224972   2.911   0.479   6.502
 8025SOL     OW24973   1.001   6.759   1.610
 8025SOL    HW124974   1.074   6.801   1.664
 8025SOL    HW224975   1.038   6.681   1.559
 8026SOL     OW24976   0.383   6.727   5.409
 8026SOL    HW124977   0.288   6.720   5.380
 8026SOL    HW224978   0.400   6.663   5.484
 8027SOL     OW24979   3.991   6.778   6.501
 8027SOL    HW124980   3.991   6.743   6.407
 8027SOL    HW224981   3.898   6.770   6.539
 8028SOL     OW24982   3.812   5.646   6.607
 8028SOL    HW124983   3.790   5.548   6.602
 8028SOL    HW224984   3.727   5.699   6.612
 8029SOL     OW24985   1.300   6.802   1.890
 8029SOL    HW124986   1.286   6.869   1.963
 8029SOL    HW224987   1.311   6.849   1.803
 8030SOL     OW24988   0.555   3.703   1.031
 8030SOL    HW124989   0.611   3.784   1.045
 8030SOL    HW224990   0.593   3.626   1.083
 8031SOL     OW24991   0.659   0.910   3.898
 8031SOL    HW124992   0.582   0.869   3.947
 8031SOL    HW224993   0.653   0.887   3.801
 8032SOL     OW24994   0.265   3.351   1.462
 8032SOL    HW124995   0.352   3.303   1.475
 8032SOL    HW224996   0.190   3.284   1.462
 8033SOL     OW24997   4.346   5.186   0.968
 8033SOL    HW124998   4.399   5.216   0.889
 8033SOL    HW224999   4.256   5.156   0.938
 8034SOL     OW25000   1.288   1.268   4.871
 8034SOL    HW125001   1.246   1.201   4.809
 8034SOL    HW225002   1.388   1.261   4.865
 8035SOL     OW25003   5.080   0.211   4.519
 8035SOL    HW125004   5.129   0.298   4.520
 8035SOL    HW225005   5.096   0.165   4.431
 8036SOL     OW25006   5.277   4.796   5.403
 8036SOL    HW125007   5.286   4.707   5.359
 8036SOL    HW225008   5.366   4.826   5.437
 8037SOL     OW25009   3.044   1.092   6.562
 8037SOL    HW125010   3.033   1.013   6.502
 8037SOL    HW225011   3.135   1.130   6.549
 8038SOL     OW25012   5.936   5.716   1.630
 8038SOL    HW125013   5.842   5.685   1.642
 8038SOL    HW225014   5.995   5.675   1.701
 8039SOL     OW25015   1.689   2.860   4.806
 8039SOL    HW125016   1.717   2.782   4.863
 8039SOL    HW225017   1.770   2.906   4.771
 8040SOL     OW25018   0.504   6.913   5.549
 8040SOL    HW125019   0.488   6.841   5.481
 8040SOL    HW225020   0.591   6.897   5.595
 8041SOL     OW25021   3.126   1.635   2.736
 8041SOL    HW125022   3.029   1.655   2.744
 8041SOL    HW225023   3.168   1.697   2.670
 8042SOL     OW25024   4.701   4.017   6.296
 8042SOL    HW125025   4.790   4.000   6.339
 8042SOL    HW225026   4.691   3.961   6.214
 8043SOL     OW25027   5.724   5.693   6.703
 8043SOL    HW125028   5.762   5.609   6.665
 8043SOL    HW225029   5.650   5.726   6.644
 8044SOL     OW25030   1.148   2.511   1.300
 8044SOL    HW125031   1.109   2.593   1.258
 8044SOL    HW225032   1.104   2.495   1.389
 8045SOL     OW25033   5.608   3.296   5.075
 8045SOL    HW125034   5.674   3.283   5.150
 8045SOL    HW225035   5.657   3.303   4.989
 8046SOL     OW25036   0.706   4.249   1.149
 8046SOL    HW125037   0.749   4.254   1.058
 8046SOL    HW225038   0.648   4.330   1.162
 8047SOL     OW25039   2.905   6.440   6.785
 8047SOL    HW125040   2.817   6.473   6.821
 8047SOL    HW225041   2.908   6.456   6.686
 8048SOL     OW25042   4.690   1.736   6.516
 8048SOL    HW125043   4.764   1.765   6.577
 8048SOL    HW225044   4.633   1.669   6.562
 8049SOL     OW25045   2.299   1.339   1.167
 8049SOL    HW125046   2.321   1.253   1.120
 8049SOL    HW225047   2.202   1.358   1.156
 8050SOL     OW25048   6.570   4.961   5.884
 8050SOL    HW125049   6.529   4.871   5.864
 8050SOL    HW225050   6.654   4.972   5.831
 8051SOL     OW25051   4.130   6.684   3.799
 8051SOL    HW125052   4.069   6.723   3.869
 8051SOL    HW225053   4.163   6.595   3.830
 8052SOL     OW25054   2.472   1.388   2.890
 8052SOL    HW125055   2.489   1.303   2.940
 8052SOL    HW225056   2.425   1.367   2.805
 8053SOL     OW25057   1.729   1.102   6.567
 8053SOL    HW125058   1.824   1.116   6.537
 8053SOL    HW225059   1.677   1.060   6.493
 8054SOL     OW25060   5.049   3.715   5.062
 8054SOL    HW125061   4.964   3.689   5.109
 8054SOL    HW225062   5.083   3.801   5.101
 8055SOL     OW25063   6.992   0.775   6.677
 8055SOL    HW125064   6.970   0.776   6.579
 8055SOL    HW225065   6.953   0.855   6.721
 8056SOL     OW25066   1.928   2.794   2.790
 8056SOL    HW125067   2.024   2.776   2.766
 8056SOL    HW225068   1.899   2.729   2.861
 8057SOL     OW25069   3.137   1.748   1.462
 8057SOL    HW125070   3.107   1.775   1.370
 8057SOL    HW225071   3.088   1.802   1.530
 8058SOL     OW25072   3.406   6.332   1.784
 8058SOL    HW125073   3.460   6.286   1.855
 8058SOL    HW225074   3.466   6.390   1.729
 8059SOL     OW25075   4.699   4.168   5.376
 8059SOL    HW125076   4.656   4.091   5.424
 8059SOL    HW225077   4.636   4.245   5.373
 8060SOL     OW25078   0.233   1.494   5.191
 8060SOL    HW125079   0.312   1.470   5.135
 8060SOL    HW225080   0.244   1.455   5.282
 8061SOL     OW25081   6.606   0.812   0.976
 8061SOL    HW125082   6.526   0.753   0.959
 8061SOL    HW225083   6.657   0.824   0.891
 8062SOL     OW25084   4.704   4.738   6.418
 8062SOL    HW125085   4.686   4.755   6.515
 8062SOL    HW225086   4.671   4.816   6.364
 8063SOL     OW25087   2.435   4.556   2.257
 8063SOL    HW125088   2.510   4.608   2.217
 8063SOL    HW225089   2.385   4.614   2.321
 8064SOL     OW25090   0.118   2.638   0.263
 8064SOL    HW125091   0.193   2.591   0.216
 8064SOL    HW225092   0.036   2.637   0.206
 8065SOL     OW25093   4.628   0.557   6.776
 8065SOL    HW125094   4.566   0.635   6.774
 8065SOL    HW225095   4.682   0.560   6.861
 8066SOL     OW25096   6.328   0.869   5.716
 8066SOL    HW125097   6.403   0.804   5.704
 8066SOL    HW225098   6.249   0.839   5.664
 8067SOL     OW25099   5.318   0.339   4.306
 8067SOL    HW125100   5.409   0.356   4.268
 8067SOL    HW225101   5.309   0.387   4.394
 8068SOL     OW25102   0.480   4.280   0.640
 8068SOL    HW125103   0.540   4.226   0.699
 8068SOL    HW225104   0.525   4.366   0.617
 8069SOL     OW25105   0.619   2.863   1.969
 8069SOL    HW125106   0.616   2.779   2.022
 8069SOL    HW225107   0.662   2.846   1.880
 8070SOL     OW25108   5.265   4.058   1.964
 8070SOL    HW125109   5.174   4.028   1.990
 8070SOL    HW225110   5.260   4.150   1.923
 8071SOL     OW25111   1.766   0.371   6.387
 8071SOL    HW125112   1.710   0.320   6.452
 8071SOL    HW225113   1.719   0.455   6.362
 8072SOL     OW25114   2.811   2.051   5.502
 8072SOL    HW125115   2.875   2.113   5.547
 8072SOL    HW225116   2.858   2.006   5.425
 8073SOL     OW25117   5.457   6.498   0.064
 8073SOL    HW125118   5.415   6.570   0.119
 8073SOL    HW225119   5.386   6.448   0.014
 8074SOL     OW25120   6.649   0.449   0.965
 8074SOL    HW125121   6.631   0.361   1.008
 8074SOL    HW225122   6.725   0.439   0.900
 8075SOL     OW25123   0.349   6.814   1.108
 8075SOL    HW125124   0.326   6.892   1.168
 8075SOL    HW225125   0.365   6.847   1.015
 8076SOL     OW25126   6.812   5.892   0.602
 8076SOL    HW125127   6.748   5.836   0.655
 8076SOL    HW225128   6.787   5.889   0.506
 8077SOL     OW25129   6.198   4.648   0.693
 8077SOL    HW125130   6.297   4.643   0.692
 8077SOL    HW225131   6.168   4.694   0.777
 8078SOL     OW25132   5.801   1.687   1.557
 8078SOL    HW125133   5.727   1.663   1.493
 8078SOL    HW225134   5.842   1.773   1.530
 8079SOL     OW25135   6.979   0.649   6.928
 8079SOL    HW125136   0.034   0.675   6.992
 8079SOL    HW225137   6.998   0.687   6.838
 8080SOL     OW25138   6.875   3.281   3.782
 8080SOL    HW125139   6.940   3.349   3.749
 8080SOL    HW225140   6.855   3.215   3.709
 8081SOL     OW25141   5.634   0.895   5.157
 8081SOL    HW125142   5.711   0.940   5.203
 8081SOL    HW225143   5.560   0.882   5.222
 8082SOL     OW25144   4.406   1.824   4.628
 8082SOL    HW125145   4.406   1.820   4.528
 8082SOL    HW225146   4.412   1.919   4.657
 8083SOL     OW25147   6.807   2.620   3.906
 8083SOL    HW125148   6.883   2.592   3.848
 8083SOL    HW225149   6.722   2.617   3.854
 8084SOL     OW25150   5.652   1.425   0.200
 8084SOL    HW125151   5.592   1.499   0.172
 8084SOL    HW225152   5.723   1.460   0.261
 8085SOL     OW25153   1.703   6.116   4.149
 8085SOL    HW125154   1.762   6.106   4.230
 8085SOL    HW225155   1.740   6.060   4.074
 8086SOL     OW25156   0.008   1.818   2.208
 8086SOL    HW125157   6.994   1.737   2.158
 8086SOL    HW225158   6.999   1.810   2.304
 8087SOL     OW25159   6.367   1.076   6.325
 8087SOL    HW125160   6.423   1.015   6.381
 8087SOL    HW225161   6.313   1.021   6.260
 8088SOL     OW25162   6.400   0.139   5.272
 8088SOL    HW125163   6.339   0.168   5.345
 8088SOL    HW225164   6.364   0.169   5.184
 8089SOL     OW25165   6.627   0.536   0.235
 8089SOL    HW125166   6.719   0.528   0.196
 8089SOL    HW225167   6.568   0.587   0.171
 8090SOL     OW25168   3.955   2.101   4.648
 8090SOL    HW125169   3.876   2.100   4.586
 8090SOL    HW225170   4.020   2.031   4.620
 8091SOL     OW25171   0.905   3.460   5.679
 8091SOL    HW125172   0.913   3.487   5.775
 8091SOL    HW225173   0.871   3.537   5.625
 8092SOL     OW25174   4.271   6.884   5.513
 8092SOL    HW125175   4.306   6.801   5.557
 8092SOL    HW225176   4.197   6.860   5.450
 8093SOL     OW25177   3.932   0.275   3.245
 8093SOL    HW125178   3.861   0.314   3.186
 8093SOL    HW225179   3.900   0.189   3.284
 8094SOL     OW25180   2.124   4.982   3.277
 8094SOL    HW125181   2.218   4.989   3.245
 8094SOL    HW225182   2.123   4.983   3.377
 8095SOL     OW25183   1.375   5.763   4.590
 8095SOL    HW125184   1.389   5.833   4.660
 8095SOL    HW225185   1.339   5.805   4.507
 8096SOL     OW25186   1.027   4.921   0.564
 8096SOL    HW125187   0.944   4.886   0.521
 8096SOL    HW225188   1.024   5.021   0.567
 8097SOL     OW25189   4.349   0.406   0.327
 8097SOL    HW125190   4.339   0.404   0.227
 8097SOL    HW225191   4.443   0.433   0.351
 8098SOL     OW25192   2.434   6.185   5.380
 8098SOL    HW125193   2.385   6.101   5.358
 8098SOL    HW225194   2.386   6.264   5.341
 8099SOL     OW25195   2.055   4.220   3.071
 8099SOL    HW125196   1.979   4.173   3.027
 8099SOL    HW225197   2.086   4.295   3.013
 8100SOL     OW25198   0.131   6.357   0.065
 8100SOL    HW125199   0.142   6.259   0.047
 8100SOL    HW225200   0.207   6.389   0.121
 8101SOL     OW25201   2.909   4.841   6.608
 8101SOL    HW125202   2.830   4.786   6.634
 8101SOL    HW225203   2.959   4.794   6.535
 8102SOL     OW25204   1.577   4.407   3.953
 8102SOL    HW125205   1.640   4.442   3.882
 8102SOL    HW225206   1.628   4.351   4.018
 8103SOL     OW25207   4.687   0.721   2.030
 8103SOL    HW125208   4.769   0.706   1.976
 8103SOL    HW225209   4.607   0.684   1.982
 8104SOL     OW25210   1.316   6.709   0.195
 8104SOL    HW125211   1.303   6.752   0.106
 8104SOL    HW225212   1.271   6.619   0.196
 8105SOL     OW25213   0.099   6.748   2.419
 8105SOL    HW125214   0.013   6.783   2.382
 8105SOL    HW225215   0.124   6.802   2.500
 8106SOL     OW25216   3.916   6.224   0.054
 8106SOL    HW125217   3.923   6.249   0.151
 8106SOL    HW225218   3.843   6.276   0.011
 8107SOL     OW25219   0.791   6.168   0.124
 8107SOL    HW125220   0.811   6.259   0.088
 8107SOL    HW225221   0.851   6.101   0.080
 8108SOL     OW25222   1.390   1.073   1.200
 8108SOL    HW125223   1.451   1.026   1.137
 8108SOL    HW225224   1.378   1.018   1.282
 8109SOL     OW25225   0.108   4.525   2.101
 8109SOL    HW125226   0.175   4.544   2.029
 8109SOL    HW225227   0.096   4.426   2.108
 8110SOL     OW25228   4.409   4.516   0.053
 8110SOL    HW125229   4.331   4.513   7.007
 8110SOL    HW225230   4.376   4.521   0.147
 8111SOL     OW25231   5.256   1.983   2.183
 8111SOL    HW125232   5.343   2.002   2.137
 8111SOL    HW225233   5.238   2.054   2.252
 8112SOL     OW25234   1.956   4.712   6.429
 8112SOL    HW125235   1.920   4.772   6.501
 8112SOL    HW225236   1.970   4.764   6.346
 8113SOL     OW25237   5.457   5.383   6.668
 8113SOL    HW125238   5.498   5.349   6.583
 8113SOL    HW225239   5.437   5.306   6.728
 8114SOL     OW25240   2.103   2.993   3.130
 8114SOL    HW125241   2.012   2.955   3.116
 8114SOL    HW225242   2.172   2.926   3.102
 8115SOL     OW25243   2.511   1.452   6.330
 8115SOL    HW125244   2.552   1.514   6.264
 8115SOL    HW225245   2.412   1.467   6.332
 8116SOL     OW25246   4.141   3.316   2.356
 8116SOL    HW125247   4.159   3.395   2.297
 8116SOL    HW225248   4.125   3.235   2.299
 8117SOL     OW25249   1.034   0.636   3.321
 8117SOL    HW125250   1.024   0.647   3.420
 8117SOL    HW225251   1.122   0.674   3.292
 8118SOL     OW25252   6.609   2.410   6.644
 8118SOL    HW125253   6.681   2.416   6.713
 8118SOL    HW225254   6.561   2.323   6.654
 8119SOL     OW25255   5.564   4.930   6.609
 8119SOL    HW125256   5.627   4.871   6.559
 8119SOL    HW225257   5.507   4.875   6.669
 8120SOL     OW25258   1.991   6.380   2.628
 8120SOL    HW125259   2.089   6.392   2.612
 8120SOL    HW225260   1.955   6.460   2.675
 8121SOL     OW25261   1.326   2.414   3.133
 8121SOL    HW125262   1.276   2.380   3.054
 8121SOL    HW225263   1.268   2.408   3.214
 8122SOL     OW25264   0.914   5.326   0.835
 8122SOL    HW125265   0.835   5.270   0.860
 8122SOL    HW225266   0.945   5.377   0.915
 8123SOL     OW25267   6.483   0.729   6.184
 8123SOL    HW125268   6.575   0.757   6.156
 8123SOL    HW225269   6.441   0.673   6.112
 8124SOL     OW25270   6.043   6.168   5.995
 8124SOL    HW125271   6.103   6.107   6.047
 8124SOL    HW225272   6.023   6.250   6.049
 8125SOL     OW25273   0.758   5.984   2.000
 8125SOL    HW125274   0.804   6.050   1.940
 8125SOL    HW225275   0.800   5.988   2.091
 8126SOL     OW25276   3.445   5.645   4.496
 8126SOL    HW125277   3.521   5.644   4.431
 8126SOL    HW225278   3.411   5.738   4.506
 8127SOL     OW25279   4.381   1.572   6.030
 8127SOL    HW125280   4.471   1.529   6.028
 8127SOL    HW225281   4.371   1.626   6.114
 8128SOL     OW25282   3.982   3.310   1.061
 8128SOL    HW125283   3.915   3.342   0.995
 8128SOL    HW225284   4.074   3.330   1.027
 8129SOL     OW25285   6.210   2.509   3.031
 8129SOL    HW125286   6.251   2.586   2.981
 8129SOL    HW225287   6.148   2.544   3.102
 8130SOL     OW25288   0.297   6.103   6.964
 8130SOL    HW125289   0.290   6.033   6.893
 8130SOL    HW225290   0.377   6.084   0.004
 8131SOL     OW25291   2.416   2.717   0.335
 8131SOL    HW125292   2.322   2.736   0.361
 8131SOL    HW225293   2.478   2.749   0.406
 8132SOL     OW25294   5.921   1.643   4.399
 8132SOL    HW125295   5.844   1.683   4.450
 8132SOL    HW225296   5.985   1.715   4.373
 8133SOL     OW25297   4.078   5.331   1.303
 8133SOL    HW125298   4.115   5.390   1.375
 8133SOL    HW225299   4.108   5.237   1.319
 8134SOL     OW25300   6.691   1.590   6.974
 8134SOL    HW125301   6.673   1.669   6.915
 8134SOL    HW225302   6.704   1.508   6.918
 8135SOL     OW25303   2.429   5.988   2.121
 8135SOL    HW125304   2.502   5.979   2.189
 8135SOL    HW225305   2.447   5.927   2.044
 8136SOL     OW25306   4.623   4.749   2.462
 8136SOL    HW125307   4.686   4.745   2.384
 8136SOL    HW225308   4.545   4.805   2.438
 8137SOL     OW25309   3.829   1.163   5.657
 8137SOL    HW125310   3.848   1.080   5.710
 8137SOL    HW225311   3.741   1.152   5.610
 8138SOL     OW25312   6.421   0.398   2.853
 8138SOL    HW125313   6.362   0.476   2.872
 8138SOL    HW225314   6.402   0.362   2.762
 8139SOL     OW25315   1.233   1.315   4.454
 8139SOL    HW125316   1.216   1.263   4.370
 8139SOL    HW225317   1.232   1.253   4.532
 8140SOL     OW25318   4.661   2.597   2.910
 8140SOL    HW125319   4.707   2.648   2.982
 8140SOL    HW225320   4.686   2.634   2.821
 8141SOL     OW25321   5.703   3.919   3.637
 8141SOL    HW125322   5.685   3.993   3.702
 8141SOL    HW225323   5.748   3.843   3.684
 8142SOL     OW25324   0.744   6.238   0.396
 8142SOL    HW125325   0.779   6.229   0.302
 8142SOL    HW225326   0.645   6.226   0.396
 8143SOL     OW25327   6.844   2.594   6.222
 8143SOL    HW125328   6.903   2.654   6.276
 8143SOL    HW225329   6.794   2.533   6.283
 8144SOL     OW25330   4.711   6.209   0.239
 8144SOL    HW125331   4.671   6.239   0.153
 8144SOL    HW225332   4.646   6.151   0.289
 8145SOL     OW25333   4.360   6.731   4.354
 8145SOL    HW125334   4.376   6.746   4.256
 8145SOL    HW225335   4.447   6.732   4.403
 8146SOL     OW25336   3.309   1.691   2.969
 8146SOL    HW125337   3.252   1.661   2.892
 8146SOL    HW225338   3.331   1.612   3.026
 8147SOL     OW25339   5.020   1.726   3.351
 8147SOL    HW125340   5.010   1.731   3.252
 8147SOL    HW225341   5.114   1.699   3.374
 8148SOL     OW25342   0.751   3.230   3.122
 8148SOL    HW125343   0.722   3.237   3.026
 8148SOL    HW225344   0.707   3.301   3.175
 8149SOL     OW25345   3.921   5.248   4.091
 8149SOL    HW125346   3.920   5.223   4.188
 8149SOL    HW225347   3.984   5.189   4.041
 8150SOL     OW25348   1.453   5.698   0.842
 8150SOL    HW125349   1.495   5.665   0.927
 8150SOL    HW225350   1.384   5.632   0.811
 8151SOL     OW25351   0.899   1.588   5.081
 8151SOL    HW125352   0.941   1.550   4.998
 8151SOL    HW225353   0.897   1.688   5.075
 8152SOL     OW25354   0.516   1.003   3.187
 8152SOL    HW125355   0.444   0.967   3.128
 8152SOL    HW225356   0.565   0.927   3.230
 8153SOL     OW25357   2.308   6.152   6.909
 8153SOL    HW125358   2.337   6.152   7.004
 8153SOL    HW225359   2.272   6.242   6.885
 8154SOL     OW25360   1.742   6.397   3.654
 8154SOL    HW125361   1.789   6.324   3.705
 8154SOL    HW225362   1.809   6.451   3.604
 8155SOL     OW25363   3.832   3.719   4.717
 8155SOL    HW125364   3.812   3.783   4.643
 8155SOL    HW225365   3.923   3.679   4.703
 8156SOL     OW25366   0.822   6.799   5.075
 8156SOL    HW125367   0.767   6.882   5.085
 8156SOL    HW225368   0.789   6.746   4.997
 8157SOL     OW25369   5.934   2.252   0.063
 8157SOL    HW125370   6.015   2.196   0.082
 8157SOL    HW225371   5.910   2.304   0.145
 8158SOL     OW25372   1.052   6.081   2.907
 8158SOL    HW125373   1.139   6.044   2.940
 8158SOL    HW225374   0.977   6.022   2.937
 8159SOL     OW25375   0.403   6.442   0.211
 8159SOL    HW125376   0.405   6.391   0.297
 8159SOL    HW225377   0.477   6.411   0.152
 8160SOL     OW25378   5.516   2.127   0.966
 8160SOL    HW125379   5.490   2.181   1.045
 8160SOL    HW225380   5.493   2.177   0.882
 8161SOL     OW25381   4.302   3.802   1.728
 8161SOL    HW125382   4.227   3.849   1.774
 8161SOL    HW225383   4.355   3.868   1.674
 8162SOL     OW25384   6.112   0.542   1.455
 8162SOL    HW125385   6.200   0.547   1.408
 8162SOL    HW225386   6.039   0.568   1.392
 8163SOL     OW25387   2.201   3.002   5.266
 8163SOL    HW125388   2.242   2.962   5.348
 8163SOL    HW225389   2.271   3.015   5.197
 8164SOL     OW25390   5.762   4.567   1.606
 8164SOL    HW125391   5.746   4.486   1.663
 8164SOL    HW225392   5.834   4.622   1.647
 8165SOL     OW25393   1.364   3.177   1.326
 8165SOL    HW125394   1.278   3.219   1.357
 8165SOL    HW225395   1.438   3.243   1.334
 8166SOL     OW25396   2.588   7.012   2.720
 8166SOL    HW125397   2.642   0.064   2.673
 8166SOL    HW225398   2.621   7.001   2.814
 8167SOL     OW25399   5.281   2.791   4.503
 8167SOL    HW125400   5.232   2.735   4.569
 8167SOL    HW225401   5.244   2.776   4.411
 8168SOL     OW25402   2.803   1.883   2.323
 8168SOL    HW125403   2.769   1.901   2.230
 8168SOL    HW225404   2.820   1.784   2.333
 8169SOL     OW25405   5.572   3.876   5.489
 8169SOL    HW125406   5.613   3.908   5.403
 8169SOL    HW225407   5.473   3.872   5.480
 8170SOL     OW25408   0.769   5.292   4.094
 8170SOL    HW125409   0.720   5.355   4.154
 8170SOL    HW225410   0.761   5.323   4.000
 8171SOL     OW25411   1.933   0.829   6.920
 8171SOL    HW125412   1.877   0.909   6.899
 8171SOL    HW225413   1.881   0.746   6.900
 8172SOL     OW25414   0.031   6.023   1.911
 8172SOL    HW125415   6.971   5.983   1.960
 8172SOL    HW225416   0.112   6.023   1.969
 8173SOL     OW25417   6.734   2.941   6.912
 8173SOL    HW125418   6.746   2.997   6.830
 8173SOL    HW225419   6.713   3.000   6.990
 8174SOL     OW25420   4.714   6.573   2.757
 8174SOL    HW125421   4.746   6.665   2.733
 8174SOL    HW225422   4.756   6.545   2.843
 8175SOL     OW25423   1.245   2.376   3.392
 8175SOL    HW125424   1.281   2.333   3.475
 8175SOL    HW225425   1.195   2.459   3.416
 8176SOL     OW25426   4.407   5.186   3.071
 8176SOL    HW125427   4.370   5.108   3.122
 8176SOL    HW225428   4.352   5.268   3.091
 8177SOL     OW25429   2.195   6.808   6.467
 8177SOL    HW125430   2.223   6.758   6.550
 8177SOL    HW225431   2.136   6.884   6.492
 8178SOL     OW25432   1.837   6.133   6.514
 8178SOL    HW125433   1.933   6.157   6.528
 8178SOL    HW225434   1.779   6.210   6.540
 8179SOL     OW25435   4.179   0.571   6.432
 8179SOL    HW125436   4.227   0.483   6.431
 8179SOL    HW225437   4.246   0.645   6.431
 8180SOL     OW25438   4.857   4.053   4.833
 8180SOL    HW125439   4.799   4.053   4.915
 8180SOL    HW225440   4.881   3.958   4.809
 8181SOL     OW25441   2.097   2.222   2.524
 8181SOL    HW125442   2.189   2.261   2.523
 8181SOL    HW225443   2.029   2.295   2.511
 8182SOL     OW25444   5.602   2.886   5.639
 8182SOL    HW125445   5.648   2.975   5.637
 8182SOL    HW225446   5.669   2.814   5.655
 8183SOL     OW25447   1.810   3.616   3.285
 8183SOL    HW125448   1.902   3.653   3.302
 8183SOL    HW225449   1.755   3.685   3.238
 8184SOL     OW25450   6.470   6.158   4.783
 8184SOL    HW125451   6.408   6.193   4.853
 8184SOL    HW225452   6.544   6.108   4.825
 8185SOL     OW25453   0.778   2.553   3.358
 8185SOL    HW125454   0.711   2.485   3.388
 8185SOL    HW225455   0.763   2.575   3.262
 8186SOL     OW25456   4.620   2.975   6.263
 8186SOL    HW125457   4.633   3.073   6.274
 8186SOL    HW225458   4.590   2.935   6.350
 8187SOL     OW25459   2.202   1.703   5.957
 8187SOL    HW125460   2.213   1.786   6.013
 8187SOL    HW225461   2.112   1.663   5.974
 8188SOL     OW25462   5.198   3.340   2.748
 8188SOL    HW125463   5.225   3.342   2.652
 8188SOL    HW225464   5.181   3.245   2.776
 8189SOL     OW25465   6.621   5.316   3.230
 8189SOL    HW125466   6.668   5.250   3.290
 8189SOL    HW225467   6.526   5.288   3.217
 8190SOL     OW25468   5.593   3.453   3.165
 8190SOL    HW125469   5.585   3.361   3.202
 8190SOL    HW225470   5.545   3.459   3.077
 8191SOL     OW25471   6.191   4.596   1.047
 8191SOL    HW125472   6.166   4.610   1.142
 8191SOL    HW225473   6.187   4.498   1.026
 8192SOL     OW25474   1.601   1.641   0.543
 8192SOL    HW125475   1.615   1.550   0.503
 8192SOL    HW225476   1.521   1.640   0.602
 8193SOL     OW25477   3.822   6.076   6.256
 8193SOL    HW125478   3.859   6.169   6.256
 8193SOL    HW225479   3.811   6.044   6.162
 8194SOL     OW25480   1.483   0.783   2.450
 8194SOL    HW125481   1.412   0.715   2.468
 8194SOL    HW225482   1.572   0.748   2.477
 8195SOL     OW25483   6.143   1.013   1.355
 8195SOL    HW125484   6.187   1.008   1.266
 8195SOL    HW225485   6.086   0.932   1.368
 8196SOL     OW25486   2.776   0.586   1.153
 8196SOL    HW125487   2.844   0.513   1.153
 8196SOL    HW225488   2.818   0.672   1.182
 8197SOL     OW25489   0.307   6.623   0.566
 8197SOL    HW125490   0.294   6.695   0.634
 8197SOL    HW225491   0.365   6.551   0.604
 8198SOL     OW25492   2.327   1.149   2.996
 8198SOL    HW125493   2.404   1.105   3.042
 8198SOL    HW225494   2.313   1.106   2.907
 8199SOL     OW25495   5.767   4.614   1.116
 8199SOL    HW125496   5.770   4.515   1.128
 8199SOL    HW225497   5.672   4.643   1.100
 8200SOL     OW25498   3.750   4.562   1.641
 8200SOL    HW125499   3.679   4.576   1.710
 8200SOL    HW225500   3.811   4.641   1.641
 8201SOL     OW25501   0.961   1.411   4.609
 8201SOL    HW125502   0.881   1.408   4.549
 8201SOL    HW225503   1.028   1.343   4.578
 8202SOL     OW25504   1.710   3.612   4.213
 8202SOL    HW125505   1.625   3.646   4.174
 8202SOL    HW225506   1.693   3.578   4.306
 8203SOL     OW25507   6.829   4.020   6.255
 8203SOL    HW125508   6.920   3.996   6.222
 8203SOL    HW225509   6.799   3.953   6.323
 8204SOL     OW25510   3.099   0.037   1.729
 8204SOL    HW125511   3.143   0.072   1.646
 8204SOL    HW225512   3.167   7.009   1.787
 8205SOL     OW25513   3.570   6.835   3.139
 8205SOL    HW125514   3.664   6.824   3.107
 8205SOL    HW225515   3.511   6.769   3.093
 8206SOL     OW25516   3.520   2.039   4.200
 8206SOL    HW125517   3.591   1.984   4.244
 8206SOL    HW225518   3.548   2.062   4.107
 8207SOL     OW25519   2.378   6.342   0.136
 8207SOL    HW125520   2.286   6.381   0.140
 8207SOL    HW225521   2.436   6.389   0.202
 8208SOL     OW25522   1.258   5.902   0.800
 8208SOL    HW125523   1.219   5.893   0.708
 8208SOL    HW225524   1.350   5.864   0.801
 8209SOL     OW25525   0.914   5.805   4.611
 8209SOL    HW125526   0.863   5.730   4.653
 8209SOL    HW225527   0.863   5.840   4.532
 8210SOL     OW25528   2.374   0.566   1.257
 8210SOL    HW125529   2.277   0.589   1.251
 8210SOL    HW225530   2.385   0.467   1.270
 8211SOL     OW25531   3.396   4.136   4.179
 8211SOL    HW125532   3.445   4.107   4.097
 8211SOL    HW225533   3.439   4.095   4.259
 8212SOL     OW25534   3.783   5.143   0.007
 8212SOL    HW125535   3.749   5.221   6.973
 8212SOL    HW225536   3.867   5.170   0.056
 8213SOL     OW25537   4.810   4.136   2.060
 8213SOL    HW125538   4.720   4.175   2.042
 8213SOL    HW225539   4.869   4.207   2.099
 8214SOL     OW25540   4.268   5.265   3.524
 8214SOL    HW125541   4.324   5.348   3.523
 8214SOL    HW225542   4.216   5.259   3.439
 8215SOL     OW25543   2.582   6.560   4.998
 8215SOL    HW125544   2.641   6.485   5.029
 8215SOL    HW225545   2.495   6.556   5.047
 8216SOL     OW25546   6.340   5.071   6.928
 8216SOL    HW125547   6.373   5.150   6.877
 8216SOL    HW225548   6.347   4.989   6.871
 8217SOL     OW25549   3.767   6.304   3.870
 8217SOL    HW125550   3.704   6.362   3.819
 8217SOL    HW225551   3.744   6.208   3.854
 8218SOL     OW25552   2.456   6.066   4.010
 8218SOL    HW125553   2.452   6.054   3.911
 8218SOL    HW225554   2.539   6.114   4.035
 8219SOL     OW25555   3.426   3.711   4.368
 8219SOL    HW125556   3.372   3.780   4.417
 8219SOL    HW225557   3.460   3.644   4.434
 8220SOL     OW25558   4.365   4.239   6.033
 8220SOL    HW125559   4.390   4.286   6.117
 8220SOL    HW225560   4.431   4.165   6.015
 8221SOL     OW25561   6.195   3.855   4.093
 8221SOL    HW125562   6.263   3.927   4.091
 8221SOL    HW225563   6.105   3.894   4.116
 8222SOL     OW25564   5.340   2.160   6.148
 8222SOL    HW125565   5.324   2.189   6.242
 8222SOL    HW225566   5.350   2.060   6.145
 8223SOL     OW25567   1.071   6.527   5.635
 8223SOL    HW125568   0.996   6.462   5.648
 8223SOL    HW225569   1.134   6.491   5.565
 8224SOL     OW25570   5.170   1.411   5.266
 8224SOL    HW125571   5.260   1.384   5.300
 8224SOL    HW225572   5.130   1.336   5.212
 8225SOL     OW25573   6.314   2.262   0.130
 8225SOL    HW125574   6.235   2.222   0.176
 8225SOL    HW225575   6.312   2.362   0.141
 8226SOL     OW25576   3.789   0.804   6.892
 8226SOL    HW125577   3.719   0.746   6.932
 8226SOL    HW225578   3.829   0.863   6.962
 8227SOL     OW25579   5.891   3.376   2.218
 8227SOL    HW125580   5.978   3.332   2.197
 8227SOL    HW225581   5.840   3.390   2.133
 8228SOL     OW25582   2.890   1.634   4.498
 8228SOL    HW125583   2.921   1.632   4.593
 8228SOL    HW225584   2.823   1.707   4.487
 8229SOL     OW25585   4.416   3.741   0.391
 8229SOL    HW125586   4.468   3.730   0.475
 8229SOL    HW225587   4.457   3.814   0.335
 8230SOL     OW25588   6.010   0.882   6.375
 8230SOL    HW125589   6.018   0.787   6.405
 8230SOL    HW225590   6.096   0.911   6.332
 8231SOL     OW25591   3.622   1.820   1.578
 8231SOL    HW125592   3.639   1.749   1.509
 8231SOL    HW225593   3.691   1.892   1.568
 8232SOL     OW25594   3.399   6.326   4.143
 8232SOL    HW125595   3.472   6.392   4.125
 8232SOL    HW225596   3.362   6.291   4.057
 8233SOL     OW25597   3.298   0.682   6.791
 8233SOL    HW125598   3.316   0.777   6.769
 8233SOL    HW225599   3.337   0.660   6.880
 8234SOL     OW25600   0.762   2.295   6.319
 8234SOL    HW125601   0.822   2.374   6.316
 8234SOL    HW225602   0.670   2.323   6.348
 8235SOL     OW25603   1.176   6.488   0.182
 8235SOL    HW125604   1.078   6.482   0.161
 8235SOL    HW225605   1.222   6.406   0.148
 8236SOL     OW25606   0.883   0.238   0.215
 8236SOL    HW125607   0.823   0.247   0.294
 8236SOL    HW225608   0.829   0.214   0.135
 8237SOL     OW25609   4.359   4.528   5.672
 8237SOL    HW125610   4.293   4.563   5.606
 8237SOL    HW225611   4.320   4.530   5.764
 8238SOL     OW25612   6.908   5.254   6.418
 8238SOL    HW125613   6.995   5.206   6.409
 8238SOL    HW225614   6.915   5.323   6.490
 8239SOL     OW25615   4.923   2.940   3.606
 8239SOL    HW125616   4.960   2.847   3.604
 8239SOL    HW225617   4.871   2.953   3.690
 8240SOL     OW25618   3.809   3.613   5.131
 8240SOL    HW125619   3.774   3.630   5.223
 8240SOL    HW225620   3.758   3.668   5.065
 8241SOL     OW25621   0.512   2.739   5.679
 8241SOL    HW125622   0.421   2.773   5.656
 8241SOL    HW225623   0.579   2.811   5.660
 8242SOL     OW25624   0.861   3.877   3.275
 8242SOL    HW125625   0.838   3.823   3.194
 8242SOL    HW225626   0.960   3.888   3.281
 8243SOL     OW25627   2.006   5.949   3.839
 8243SOL    HW125628   2.100   5.933   3.809
 8243SOL    HW225629   1.999   5.933   3.937
 8244SOL     OW25630   5.115   6.911   4.692
 8244SOL    HW125631   5.159   6.912   4.602
 8244SOL    HW225632   5.165   6.849   4.753
 8245SOL     OW25633   5.562   4.058   2.508
 8245SOL    HW125634   5.554   4.059   2.607
 8245SOL    HW225635   5.554   4.151   2.473
 8246SOL     OW25636   2.139   4.653   6.798
 8246SOL    HW125637   2.118   4.729   6.860
 8246SOL    HW225638   2.058   4.594   6.789
 8247SOL     OW25639   2.031   4.330   3.347
 8247SOL    HW125640   1.991   4.415   3.312
 8247SOL    HW225641   2.004   4.254   3.288
 8248SOL     OW25642   6.645   0.127   2.419
 8248SOL    HW125643   6.610   0.202   2.475
 8248SOL    HW225644   6.657   0.045   2.475
 8249SOL     OW25645   3.647   6.749   5.679
 8249SOL    HW125646   3.571   6.813   5.663
 8249SOL    HW225647   3.731   6.801   5.697
 8250SOL     OW25648   1.668   1.329   6.771
 8250SOL    HW125649   1.651   1.254   6.706
 8250SOL    HW225650   1.764   1.357   6.764
 8251SOL     OW25651   1.687   1.303   6.262
 8251SOL    HW125652   1.634   1.361   6.199
 8251SOL    HW225653   1.741   1.362   6.323
 8252SOL     OW25654   0.748   1.069   6.452
 8252SOL    HW125655   0.781   1.088   6.359
 8252SOL    HW225656   0.699   1.149   6.487
 8253SOL     OW25657   6.765   3.654   5.109
 8253SOL    HW125658   6.760   3.670   5.208
 8253SOL    HW225659   6.797   3.737   5.064
 8254SOL     OW25660   4.813   4.154   0.071
 8254SOL    HW125661   4.755   4.232   0.093
 8254SOL    HW225662   4.905   4.186   0.051
 8255SOL     OW25663   1.817   6.262   5.535
 8255SOL    HW125664   1.756   6.340   5.532
 8255SOL    HW225665   1.819   6.224   5.627
 8256SOL     OW25666   1.602   5.776   2.623
 8256SOL    HW125667   1.568   5.867   2.648
 8256SOL    HW225668   1.701   5.772   2.640
 8257SOL     OW25669   4.724   4.613   3.619
 8257SOL    HW125670   4.773   4.529   3.597
 8257SOL    HW225671   4.787   4.691   3.615
 8258SOL     OW25672   0.371   3.099   4.570
 8258SOL    HW125673   0.382   3.008   4.610
 8258SOL    HW225674   0.436   3.110   4.495
 8259SOL     OW25675   5.567   3.824   4.275
 8259SOL    HW125676   5.521   3.740   4.245
 8259SOL    HW225677   5.614   3.866   4.198
 8260SOL     OW25678   4.931   2.578   6.480
 8260SOL    HW125679   4.888   2.666   6.459
 8260SOL    HW225680   4.997   2.556   6.408
 8261SOL     OW25681   5.315   2.529   2.479
 8261SOL    HW125682   5.219   2.513   2.500
 8261SOL    HW225683   5.373   2.472   2.537
 8262SOL     OW25684   5.265   4.232   2.194
 8262SOL    HW125685   5.271   4.134   2.173
 8262SOL    HW225686   5.280   4.246   2.292
 8263SOL     OW25687   6.943   1.315   0.201
 8263SOL    HW125688   7.006   1.334   0.276
 8263SOL    HW225689   6.849   1.315   0.235
 8264SOL     OW25690   3.392   1.555   1.707
 8264SOL    HW125691   3.294   1.543   1.723
 8264SOL    HW225692   3.432   1.608   1.782
 8265SOL     OW25693   5.265   5.537   6.864
 8265SOL    HW125694   5.310   5.534   6.775
 8265SOL    HW225695   5.295   5.459   6.919
 8266SOL     OW25696   4.496   2.420   2.806
 8266SOL    HW125697   4.556   2.394   2.731
 8266SOL    HW225698   4.531   2.503   2.850
 8267SOL     OW25699   2.120   3.331   2.845
 8267SOL    HW125700   2.120   3.319   2.945
 8267SOL    HW225701   2.106   3.243   2.801
 8268SOL     OW25702   2.553   5.079   1.313
 8268SOL    HW125703   2.470   5.133   1.304
 8268SOL    HW225704   2.529   4.982   1.315
 8269SOL     OW25705   6.675   2.109   3.147
 8269SOL    HW125706   6.641   2.071   3.061
 8269SOL    HW225707   6.637   2.059   3.224
 8270SOL     OW25708   4.202   5.088   0.144
 8270SOL    HW125709   4.276   5.037   0.188
 8270SOL    HW225710   4.165   5.034   0.068
 8271SOL     OW25711   2.384   6.975   5.683
 8271SOL    HW125712   2.401   6.877   5.669
 8271SOL    HW225713   2.286   6.991   5.688
 8272SOL     OW25714   0.377   0.797   1.664
 8272SOL    HW125715   0.319   0.806   1.744
 8272SOL    HW225716   0.325   0.822   1.582
 8273SOL     OW25717   5.231   0.031   5.820
 8273SOL    HW125718   5.236   0.097   5.895
 8273SOL    HW225719   5.268   0.072   5.737
 8274SOL     OW25720   5.538   6.637   3.758
 8274SOL    HW125721   5.458   6.581   3.778
 8274SOL    HW225722   5.558   6.634   3.660
 8275SOL     OW25723   4.931   1.076   4.397
 8275SOL    HW125724   4.855   1.128   4.437
 8275SOL    HW225725   4.896   1.015   4.325
 8276SOL     OW25726   5.056   2.467   0.819
 8276SOL    HW125727   5.079   2.383   0.769
 8276SOL    HW225728   5.056   2.449   0.917
 8277SOL     OW25729   0.838   0.029   1.890
 8277SOL    HW125730   0.784   6.993   1.825
 8277SOL    HW225731   0.923   0.059   1.846
 8278SOL     OW25732   1.690   0.966   1.460
 8278SOL    HW125733   1.667   1.059   1.434
 8278SOL    HW225734   1.656   0.903   1.390
 8279SOL     OW25735   6.112   4.472   5.672
 8279SOL    HW125736   6.145   4.528   5.748
 8279SOL    HW225737   6.024   4.431   5.696
 8280SOL     OW25738   0.122   4.970   0.182
 8280SOL    HW125739   0.049   4.979   0.250
 8280SOL    HW225740   0.086   4.926   0.100
 8281SOL     OW25741   2.556   4.894   0.071
 8281SOL    HW125742   2.542   4.849   0.158
 8281SOL    HW225743   2.636   4.854   0.025
 8282SOL     OW25744   4.674   2.968   0.905
 8282SOL    HW125745   4.760   2.974   0.854
 8282SOL    HW225746   4.613   3.042   0.876
 8283SOL     OW25747   0.763   2.089   3.704
 8283SOL    HW125748   0.848   2.106   3.655
 8283SOL    HW225749   0.725   2.175   3.737
 8284SOL     OW25750   4.781   2.573   1.112
 8284SOL    HW125751   4.827   2.660   1.129
 8284SOL    HW225752   4.683   2.589   1.096
 8285SOL     OW25753   0.183   4.893   6.864
 8285SOL    HW125754   0.252   4.821   6.861
 8285SOL    HW225755   0.099   4.861   6.821
 8286SOL     OW25756   6.557   2.186   0.219
 8286SOL    HW125757   6.578   2.266   0.275
 8286SOL    HW225758   6.461   2.191   0.189
 8287SOL     OW25759   0.788   1.916   3.022
 8287SOL    HW125760   0.696   1.920   2.984
 8287SOL    HW225761   0.785   1.870   3.111
 8288SOL     OW25762   2.173   6.700   2.717
 8288SOL    HW125763   2.272   6.691   2.718
 8288SOL    HW225764   2.133   6.644   2.790
 8289SOL     OW25765   6.143   6.797   0.696
 8289SOL    HW125766   6.182   6.877   0.741
 8289SOL    HW225767   6.217   6.734   0.670
 8290SOL     OW25768   4.502   2.832   1.685
 8290SOL    HW125769   4.533   2.877   1.601
 8290SOL    HW225770   4.538   2.882   1.764
 8291SOL     OW25771   6.030   5.245   5.179
 8291SOL    HW125772   5.933   5.259   5.163
 8291SOL    HW225773   6.082   5.275   5.099
 8292SOL     OW25774   0.116   4.000   5.730
 8292SOL    HW125775   0.211   4.019   5.753
 8292SOL    HW225776   0.089   3.912   5.770
 8293SOL     OW25777   2.843   5.304   4.248
 8293SOL    HW125778   2.823   5.380   4.310
 8293SOL    HW225779   2.939   5.277   4.259
 8294SOL     OW25780   6.523   3.576   5.684
 8294SOL    HW125781   6.474   3.570   5.771
 8294SOL    HW225782   6.473   3.637   5.623
 8295SOL     OW25783   4.268   4.460   1.451
 8295SOL    HW125784   4.366   4.443   1.458
 8295SOL    HW225785   4.235   4.499   1.537
 8296SOL     OW25786   3.077   0.342   2.133
 8296SOL    HW125787   3.114   0.259   2.092
 8296SOL    HW225788   2.989   0.364   2.092
 8297SOL     OW25789   6.094   4.563   1.950
 8297SOL    HW125790   6.036   4.600   1.878
 8297SOL    HW225791   6.041   4.552   2.034
 8298SOL     OW25792   0.111   6.215   0.583
 8298SOL    HW125793   0.189   6.182   0.635
 8298SOL    HW225794   0.134   6.219   0.486
 8299SOL     OW25795   1.041   1.563   0.005
 8299SOL    HW125796   1.003   1.472   7.003
 8299SOL    HW225797   1.141   1.559   0.002
 8300SOL     OW25798   4.158   6.822   4.489
 8300SOL    HW125799   4.241   6.788   4.446
 8300SOL    HW225800   4.161   6.922   4.492
 8301SOL     OW25801   6.396   4.923   6.475
 8301SOL    HW125802   6.438   5.008   6.442
 8301SOL    HW225803   6.458   4.877   6.537
 8302SOL     OW25804   3.533   5.995   6.038
 8302SOL    HW125805   3.540   6.068   5.970
 8302SOL    HW225806   3.539   6.035   6.130
 8303SOL     OW25807   7.010   4.334   4.279
 8303SOL    HW125808   0.005   4.392   4.360
 8303SOL    HW225809   7.004   4.239   4.308
 8304SOL     OW25810   5.864   2.906   4.066
 8304SOL    HW125811   5.844   2.866   4.155
 8304SOL    HW225812   5.779   2.919   4.015
 8305SOL     OW25813   4.378   6.463   6.095
 8305SOL    HW125814   4.415   6.406   6.168
 8305SOL    HW225815   4.356   6.406   6.015
 8306SOL     OW25816   5.355   1.107   3.601
 8306SOL    HW125817   5.410   1.189   3.587
 8306SOL    HW225818   5.321   1.104   3.695
 8307SOL     OW25819   0.144   4.595   4.447
 8307SOL    HW125820   0.234   4.637   4.453
 8307SOL    HW225821   0.152   4.497   4.466
 8308SOL     OW25822   2.210   5.023   0.463
 8308SOL    HW125823   2.228   5.022   0.365
 8308SOL    HW225824   2.126   4.971   0.482
 8309SOL     OW25825   5.775   5.279   2.648
 8309SOL    HW125826   5.773   5.325   2.559
 8309SOL    HW225827   5.683   5.273   2.684
 8310SOL     OW25828   2.067   6.045   2.686
 8310SOL    HW125829   2.015   6.120   2.644
 8310SOL    HW225830   2.114   6.079   2.767
 8311SOL     OW25831   4.835   6.798   2.674
 8311SOL    HW125832   4.798   6.789   2.582
 8311SOL    HW225833   4.847   6.895   2.695
 8312SOL     OW25834   6.760   6.897   0.708
 8312SOL    HW125835   6.772   6.809   0.754
 8312SOL    HW225836   6.717   6.883   0.619
 8313SOL     OW25837   4.695   2.291   5.816
 8313SOL    HW125838   4.700   2.352   5.736
 8313SOL    HW225839   4.606   2.303   5.861
 8314SOL     OW25840   5.445   6.142   5.120
 8314SOL    HW125841   5.461   6.097   5.032
 8314SOL    HW225842   5.367   6.204   5.113
 8315SOL     OW25843   3.681   1.559   0.212
 8315SOL    HW125844   3.657   1.580   0.307
 8315SOL    HW225845   3.778   1.538   0.206
 8316SOL     OW25846   1.575   1.612   4.523
 8316SOL    HW125847   1.613   1.587   4.434
 8316SOL    HW225848   1.649   1.627   4.588
 8317SOL     OW25849   2.359   1.822   6.245
 8317SOL    HW125850   2.404   1.742   6.206
 8317SOL    HW225851   2.337   1.887   6.173
 8318SOL     OW25852   4.300   6.376   5.186
 8318SOL    HW125853   4.251   6.324   5.116
 8318SOL    HW225854   4.384   6.328   5.211
 8319SOL     OW25855   2.922   6.128   6.207
 8319SOL    HW125856   2.997   6.070   6.236
 8319SOL    HW225857   2.843   6.071   6.184
 8320SOL     OW25858   4.054   5.541   5.019
 8320SOL    HW125859   4.105   5.513   4.938
 8320SOL    HW225860   4.090   5.628   5.053
 8321SOL     OW25861   0.314   0.312   0.113
 8321SOL    HW125862   0.366   0.389   0.151
 8321SOL    HW225863   0.241   0.346   0.054
 8322SOL     OW25864   2.469   0.307   2.022
 8322SOL    HW125865   2.429   0.224   1.985
 8322SOL    HW225866   2.555   0.327   1.975
 8323SOL     OW25867   6.321   5.555   6.478
 8323SOL    HW125868   6.247   5.492   6.503
 8323SOL    HW225869   6.289   5.649   6.489
 8324SOL     OW25870   6.855   6.165   5.447
 8324SOL    HW125871   6.869   6.066   5.444
 8324SOL    HW225872   6.859   6.196   5.542
 8325SOL     OW25873   1.262   5.714   5.305
 8325SOL    HW125874   1.223   5.715   5.213
 8325SOL    HW225875   1.273   5.808   5.337
 8326SOL     OW25876   2.958   0.961   6.805
 8326SOL    HW125877   3.006   1.011   6.733
 8326SOL    HW225878   3.009   0.879   6.830
 8327SOL     OW25879   0.534   6.323   5.783
 8327SOL    HW125880   0.592   6.404   5.784
 8327SOL    HW225881   0.439   6.349   5.798
 8328SOL     OW25882   0.863   6.974   0.658
 8328SOL    HW125883   0.826   7.009   0.745
 8328SOL    HW225884   0.788   6.959   0.594
 8329SOL     OW25885   1.555   2.115   5.668
 8329SOL    HW125886   1.501   2.108   5.752
 8329SOL    HW225887   1.630   2.180   5.681
 8330SOL     OW25888   3.509   6.814   6.733
 8330SOL    HW125889   3.472   6.881   6.797
 8330SOL    HW225890   3.434   6.771   6.682
 8331SOL     OW25891   1.609   2.436   5.518
 8331SOL    HW125892   1.510   2.434   5.501
 8331SOL    HW225893   1.626   2.479   5.606
 8332SOL     OW25894   5.527   4.143   0.983
 8332SOL    HW125895   5.599   4.091   1.030
 8332SOL    HW225896   5.545   4.143   0.885
 8333SOL     OW25897   2.152   4.449   6.068
 8333SOL    HW125898   2.191   4.366   6.027
 8333SOL    HW225899   2.203   4.529   6.037
 8334SOL     OW25900   2.914   2.855   5.353
 8334SOL    HW125901   2.869   2.765   5.359
 8334SOL    HW225902   2.911   2.899   5.443
 8335SOL     OW25903   6.300   2.922   0.012
 8335SOL    HW125904   6.252   2.879   6.952
 8335SOL    HW225905   6.264   3.015   0.025
 8336SOL     OW25906   0.536   4.579   3.700
 8336SOL    HW125907   0.443   4.544   3.706
 8336SOL    HW225908   0.601   4.504   3.712
 8337SOL     OW25909   6.347   6.636   4.557
 8337SOL    HW125910   6.433   6.685   4.546
 8337SOL    HW225911   6.279   6.697   4.598
 8338SOL     OW25912   2.243   4.652   0.715
 8338SOL    HW125913   2.179   4.576   0.732
 8338SOL    HW225914   2.319   4.646   0.780
 8339SOL     OW25915   6.651   0.312   1.837
 8339SOL    HW125916   6.643   0.213   1.828
 8339SOL    HW225917   6.567   0.356   1.807
 8340SOL     OW25918   6.023   2.319   6.692
 8340SOL    HW125919   6.099   2.306   6.756
 8340SOL    HW225920   6.007   2.235   6.640
 8341SOL     OW25921   3.465   0.223   1.067
 8341SOL    HW125922   3.385   0.263   1.110
 8341SOL    HW225923   3.469   0.251   0.971
 8342SOL     OW25924   4.017   0.862   1.617
 8342SOL    HW125925   4.008   0.929   1.544
 8342SOL    HW225926   4.071   0.901   1.692
 8343SOL     OW25927   4.595   6.317   3.255
 8343SOL    HW125928   4.646   6.370   3.322
 8343SOL    HW225929   4.506   6.292   3.293
 8344SOL     OW25930   2.191   4.173   4.847
 8344SOL    HW125931   2.230   4.102   4.905
 8344SOL    HW225932   2.142   4.129   4.771
 8345SOL     OW25933   6.927   6.864   4.058
 8345SOL    HW125934   6.860   6.905   4.121
 8345SOL    HW225935   6.971   6.937   4.005
 8346SOL     OW25936   5.703   4.342   3.175
 8346SOL    HW125937   5.606   4.339   3.151
 8346SOL    HW225938   5.716   4.307   3.268
 8347SOL     OW25939   0.955   1.035   0.096
 8347SOL    HW125940   0.907   1.090   0.164
 8347SOL    HW225941   0.897   0.958   0.069
 8348SOL     OW25942   2.784   6.912   0.671
 8348SOL    HW125943   2.750   6.831   0.624
 8348SOL    HW225944   2.711   6.952   0.726
 8349SOL     OW25945   4.741   5.660   1.345
 8349SOL    HW125946   4.761   5.672   1.247
 8349SOL    HW225947   4.827   5.661   1.396
 8350SOL     OW25948   2.301   1.018   6.699
 8350SOL    HW125949   2.279   1.069   6.782
 8350SOL    HW225950   2.266   0.925   6.706
 8351SOL     OW25951   0.201   3.814   3.026
 8351SOL    HW125952   0.217   3.720   3.054
 8351SOL    HW225953   0.149   3.816   2.941
 8352SOL     OW25954   2.312   0.259   6.482
 8352SOL    HW125955   2.226   0.285   6.437
 8352SOL    HW225956   2.346   0.336   6.536
 8353SOL     OW25957   0.741   5.848   2.705
 8353SOL    HW125958   0.790   5.893   2.630
 8353SOL    HW225959   0.671   5.909   2.741
 8354SOL     OW25960   5.117   2.888   3.861
 8354SOL    HW125961   5.118   2.796   3.821
 8354SOL    HW225962   5.177   2.889   3.941
 8355SOL     OW25963   3.728   4.411   5.645
 8355SOL    HW125964   3.726   4.451   5.553
 8355SOL    HW225965   3.636   4.414   5.684
 8356SOL     OW25966   3.460   3.193   2.424
 8356SOL    HW125967   3.461   3.269   2.488
 8356SOL    HW225968   3.378   3.198   2.367
 8357SOL     OW25969   2.877   6.545   5.302
 8357SOL    HW125970   2.937   6.484   5.353
 8357SOL    HW225971   2.834   6.495   5.227
 8358SOL     OW25972   0.576   0.432   4.701
 8358SOL    HW125973   0.521   0.352   4.678
 8358SOL    HW225974   0.642   0.448   4.628
 8359SOL     OW25975   4.879   2.355   5.071
 8359SOL    HW125976   4.915   2.371   5.163
 8359SOL    HW225977   4.849   2.442   5.032
 8360SOL     OW25978   3.398   0.171   2.484
 8360SOL    HW125979   3.404   0.271   2.483
 8360SOL    HW225980   3.355   0.140   2.400
 8361SOL     OW25981   4.523   1.575   6.712
 8361SOL    HW125982   4.609   1.573   6.763
 8361SOL    HW225983   4.446   1.588   6.775
 8362SOL     OW25984   0.573   4.545   1.796
 8362SOL    HW125985   0.564   4.472   1.863
 8362SOL    HW225986   0.614   4.508   1.712
 8363SOL     OW25987   3.730   2.406   1.412
 8363SOL    HW125988   3.688   2.477   1.354
 8363SOL    HW225989   3.659   2.342   1.442
 8364SOL     OW25990   0.760   1.596   3.412
 8364SOL    HW125991   0.667   1.618   3.442
 8364SOL    HW225992   0.816   1.679   3.416
 8365SOL     OW25993   2.344   2.647   0.932
 8365SOL    HW125994   2.388   2.591   1.002
 8365SOL    HW225995   2.384   2.739   0.932
 8366SOL     OW25996   4.931   5.795   1.529
 8366SOL    HW125997   5.006   5.841   1.576
 8366SOL    HW225998   4.846   5.813   1.577
 8367SOL     OW25999   1.093   4.885   3.978
 8367SOL    HW126000   1.017   4.951   3.977
 8367SOL    HW226001   1.087   4.828   4.060
 8368SOL     OW26002   0.475   3.080   6.299
 8368SOL    HW126003   0.519   3.001   6.257
 8368SOL    HW226004   0.432   3.051   6.385
 8369SOL     OW26005   1.105   0.812   0.947
 8369SOL    HW126006   1.077   0.804   0.851
 8369SOL    HW226007   1.102   0.722   0.990
 8370SOL     OW26008   2.490   3.265   1.290
 8370SOL    HW126009   2.435   3.183   1.274
 8370SOL    HW226010   2.558   3.245   1.361
 8371SOL     OW26011   2.922   4.362   5.557
 8371SOL    HW126012   2.995   4.313   5.604
 8371SOL    HW226013   2.841   4.303   5.550
 8372SOL     OW26014   1.594   6.832   2.907
 8372SOL    HW126015   1.657   6.821   2.830
 8372SOL    HW226016   1.633   6.896   2.973
 8373SOL     OW26017   6.035   0.270   4.511
 8373SOL    HW126018   5.991   0.186   4.541
 8373SOL    HW226019   6.050   0.330   4.590
 8374SOL     OW26020   0.534   2.526   3.877
 8374SOL    HW126021   0.511   2.612   3.832
 8374SOL    HW226022   0.468   2.507   3.950
 8375SOL     OW26023   1.837   2.608   5.507
 8375SOL    HW126024   1.741   2.600   5.536
 8375SOL    HW226025   1.895   2.611   5.588
 8376SOL     OW26026   1.004   1.466   3.790
 8376SOL    HW126027   1.049   1.555   3.791
 8376SOL    HW226028   1.031   1.413   3.871
 8377SOL     OW26029   4.458   5.661   1.880
 8377SOL    HW126030   4.410   5.664   1.968
 8377SOL    HW226031   4.557   5.665   1.896
 8378SOL     OW26032   4.108   6.034   5.861
 8378SOL    HW126033   4.197   5.997   5.834
 8378SOL    HW226034   4.035   5.988   5.810
 8379SOL     OW26035   5.718   2.464   1.672
 8379SOL    HW126036   5.784   2.462   1.748
 8379SOL    HW226037   5.758   2.418   1.593
 8380SOL     OW26038   0.846   5.037   2.740
 8380SOL    HW126039   0.880   5.080   2.657
 8380SOL    HW226040   0.906   4.961   2.765
 8381SOL     OW26041   0.645   2.500   2.877
 8381SOL    HW126042   0.688   2.590   2.880
 8381SOL    HW226043   0.607   2.478   2.967
 8382SOL     OW26044   1.194   0.214   1.909
 8382SOL    HW126045   1.163   0.309   1.917
 8382SOL    HW226046   1.220   0.195   1.814
 8383SOL     OW26047   1.772   6.776   4.902
 8383SOL    HW126048   1.790   6.828   4.985
 8383SOL    HW226049   1.674   6.771   4.886
 8384SOL     OW26050   0.508   4.328   3.940
 8384SOL    HW126051   0.533   4.256   3.876
 8384SOL    HW226052   0.441   4.389   3.898
 8385SOL     OW26053   4.509   2.540   1.869
 8385SOL    HW126054   4.574   2.617   1.866
 8385SOL    HW226055   4.428   2.563   1.814
 8386SOL     OW26056   6.435   5.484   2.273
 8386SOL    HW126057   6.431   5.426   2.192
 8386SOL    HW226058   6.466   5.430   2.351
 8387SOL     OW26059   0.361   2.552   3.319
 8387SOL    HW126060   0.267   2.520   3.312
 8387SOL    HW226061   0.362   2.651   3.336
 8388SOL     OW26062   3.301   6.245   1.442
 8388SOL    HW126063   3.282   6.182   1.367
 8388SOL    HW226064   3.372   6.206   1.501
 8389SOL     OW26065   1.179   2.627   4.322
 8389SOL    HW126066   1.178   2.624   4.222
 8389SOL    HW226067   1.098   2.580   4.357
 8390SOL     OW26068   1.192   6.473   6.659
 8390SOL    HW126069   1.186   6.376   6.682
 8390SOL    HW226070   1.228   6.483   6.566
 8391SOL     OW26071   5.014   6.006   1.006
 8391SOL    HW126072   5.067   6.087   0.981
 8391SOL    HW226073   5.048   5.968   1.091
 8392SOL     OW26074   3.257   5.805   0.662
 8392SOL    HW126075   3.211   5.720   0.641
 8392SOL    HW226076   3.203   5.856   0.730
 8393SOL     OW26077   1.680   6.467   2.128
 8393SOL    HW126078   1.746   6.473   2.054
 8393SOL    HW226079   1.666   6.558   2.168
 8394SOL     OW26080   2.037   1.131   3.798
 8394SOL    HW126081   2.051   1.226   3.827
 8394SOL    HW226082   1.939   1.110   3.801
 8395SOL     OW26083   2.190   6.069   6.236
 8395SOL    HW126084   2.226   6.004   6.169
 8395SOL    HW226085   2.199   6.031   6.328
 8396SOL     OW26086   4.881   1.662   0.456
 8396SOL    HW126087   4.840   1.611   0.381
 8396SOL    HW226088   4.948   1.604   0.503
 8397SOL     OW26089   0.380   4.254   3.470
 8397SOL    HW126090   0.470   4.214   3.485
 8397SOL    HW226091   0.314   4.182   3.450
 8398SOL     OW26092   5.766   1.839   6.441
 8398SOL    HW126093   5.680   1.820   6.394
 8398SOL    HW226094   5.766   1.795   6.531
 8399SOL     OW26095   5.598   6.640   5.523
 8399SOL    HW126096   5.498   6.650   5.528
 8399SOL    HW226097   5.620   6.555   5.475
 8400SOL     OW26098   6.125   6.197   3.047
 8400SOL    HW126099   6.131   6.277   3.107
 8400SOL    HW226100   6.174   6.216   2.962
 8401SOL     OW26101   2.649   3.459   5.313
 8401SOL    HW126102   2.646   3.552   5.348
 8401SOL    HW226103   2.559   3.417   5.321
 8402SOL     OW26104   4.541   1.168   4.605
 8402SOL    HW126105   4.453   1.187   4.563
 8402SOL    HW226106   4.541   1.075   4.643
 8403SOL     OW26107   0.416   1.525   6.312
 8403SOL    HW126108   0.454   1.593   6.374
 8403SOL    HW226109   0.483   1.453   6.297
 8404SOL     OW26110   4.837   5.007   5.286
 8404SOL    HW126111   4.906   5.047   5.225
 8404SOL    HW226112   4.751   4.996   5.236
 8405SOL     OW26113   0.671   2.345   6.074
 8405SOL    HW126114   0.618   2.423   6.107
 8405SOL    HW226115   0.712   2.298   6.153
 8406SOL     OW26116   5.968   3.860   1.439
 8406SOL    HW126117   5.938   3.777   1.485
 8406SOL    HW226118   5.912   3.937   1.470
 8407SOL     OW26119   5.570   3.603   2.450
 8407SOL    HW126120   5.619   3.687   2.425
 8407SOL    HW226121   5.497   3.625   2.515
 8408SOL     OW26122   4.894   4.405   4.163
 8408SOL    HW126123   4.834   4.477   4.128
 8408SOL    HW226124   4.989   4.433   4.153
 8409SOL     OW26125   1.169   1.891   4.093
 8409SOL    HW126126   1.230   1.933   4.160
 8409SOL    HW226127   1.075   1.896   4.127
 8410SOL     OW26128   1.950   5.459   2.346
 8410SOL    HW126129   1.894   5.532   2.305
 8410SOL    HW226130   2.002   5.497   2.423
 8411SOL     OW26131   1.821   3.368   3.160
 8411SOL    HW126132   1.790   3.397   3.070
 8411SOL    HW226133   1.819   3.446   3.222
 8412SOL     OW26134   5.312   2.175   2.597
 8412SOL    HW126135   5.371   2.244   2.640
 8412SOL    HW226136   5.291   2.103   2.663
 8413SOL     OW26137   1.516   5.450   2.062
 8413SOL    HW126138   1.616   5.445   2.054
 8413SOL    HW226139   1.478   5.358   2.063
 8414SOL     OW26140   6.273   0.065   4.410
 8414SOL    HW126141   6.330   7.003   4.393
 8414SOL    HW226142   6.327   0.136   4.454
 8415SOL     OW26143   0.648   4.910   0.732
 8415SOL    HW126144   0.548   4.900   0.734
 8415SOL    HW226145   0.689   4.849   0.800
 8416SOL     OW26146   4.153   4.874   3.147
 8416SOL    HW126147   4.058   4.896   3.169
 8416SOL    HW226148   4.184   4.933   3.072
 8417SOL     OW26149   0.737   5.617   0.225
 8417SOL    HW126150   0.757   5.614   0.323
 8417SOL    HW226151   0.645   5.582   0.207
 8418SOL     OW26152   5.268   6.158   3.042
 8418SOL    HW126153   5.272   6.221   2.964
 8418SOL    HW226154   5.200   6.192   3.108
 8419SOL     OW26155   2.805   1.428   3.108
 8419SOL    HW126156   2.868   1.496   3.146
 8419SOL    HW226157   2.829   1.409   3.013
 8420SOL     OW26158   4.700   1.902   5.349
 8420SOL    HW126159   4.678   1.826   5.411
 8420SOL    HW226160   4.775   1.875   5.289
 8421SOL     OW26161   0.323   0.688   0.630
 8421SOL    HW126162   0.414   0.713   0.662
 8421SOL    HW226163   0.257   0.757   0.661
 8422SOL     OW26164   2.860   0.846   1.198
 8422SOL    HW126165   2.784   0.890   1.151
 8422SOL    HW226166   2.946   0.870   1.154
 8423SOL     OW26167   2.067   4.644   1.241
 8423SOL    HW126168   1.990   4.606   1.191
 8423SOL    HW226169   2.036   4.680   1.329
 8424SOL     OW26170   2.685   2.234   1.936
 8424SOL    HW126171   2.781   2.260   1.947
 8424SOL    HW226172   2.656   2.252   1.842
 8425SOL     OW26173   0.233   5.228   5.642
 8425SOL    HW126174   0.228   5.267   5.734
 8425SOL    HW226175   0.310   5.165   5.637
 8426SOL     OW26176   3.724   3.633   2.075
 8426SOL    HW126177   3.709   3.575   2.155
 8426SOL    HW226178   3.794   3.592   2.017
 8427SOL     OW26179   2.520   1.332   6.934
 8427SOL    HW126180   2.452   1.260   6.917
 8427SOL    HW226181   2.520   1.356   0.013
 8428SOL     OW26182   6.258   3.637   1.736
 8428SOL    HW126183   6.255   3.719   1.678
 8428SOL    HW226184   6.299   3.661   1.824
 8429SOL     OW26185   1.219   6.649   2.902
 8429SOL    HW126186   1.223   6.742   2.939
 8429SOL    HW226187   1.157   6.646   2.824
 8430SOL     OW26188   3.798   6.516   3.319
 8430SOL    HW126189   3.709   6.491   3.358
 8430SOL    HW226190   3.811   6.469   3.232
 8431SOL     OW26191   3.204   2.965   2.371
 8431SOL    HW126192   3.156   2.981   2.285
 8431SOL    HW226193   3.298   2.937   2.352
 8432SOL     OW26194   5.031   5.662   0.303
 8432SOL    HW126195   5.010   5.759   0.302
 8432SOL    HW226196   5.113   5.645   0.249
 8433SOL     OW26197   0.202   1.569   3.848
 8433SOL    HW126198   0.147   1.604   3.923
 8433SOL    HW226199   0.174   1.476   3.826
 8434SOL     OW26200   5.377   6.612   6.735
 8434SOL    HW126201   5.344   6.540   6.796
 8434SOL    HW226202   5.462   6.582   6.692
 8435SOL     OW26203   4.941   3.449   0.640
 8435SOL    HW126204   4.854   3.493   0.622
 8435SOL    HW226205   4.997   3.508   0.698
 8436SOL     OW26206   3.283   4.120   1.433
 8436SOL    HW126207   3.380   4.111   1.455
 8436SOL    HW226208   3.267   4.089   1.339
 8437SOL     OW26209   0.439   2.625   0.572
 8437SOL    HW126210   0.354   2.583   0.540
 8437SOL    HW226211   0.438   2.634   0.671
 8438SOL     OW26212   2.582   5.590   1.857
 8438SOL    HW126213   2.616   5.501   1.888
 8438SOL    HW226214   2.581   5.592   1.757
 8439SOL     OW26215   5.294   0.278   2.216
 8439SOL    HW126216   5.198   0.279   2.188
 8439SOL    HW226217   5.312   0.197   2.271
 8440SOL     OW26218   1.333   4.257   3.839
 8440SOL    HW126219   1.352   4.323   3.766
 8440SOL    HW226220   1.274   4.185   3.803
 8441SOL     OW26221   3.893   5.732   1.404
 8441SOL    HW126222   3.897   5.805   1.473
 8441SOL    HW226223   3.850   5.768   1.321
 8442SOL     OW26224   2.669   3.247   0.896
 8442SOL    HW126225   2.731   3.169   0.890
 8442SOL    HW226226   2.719   3.331   0.879
 8443SOL     OW26227   6.979   2.696   0.938
 8443SOL    HW126228   6.879   2.705   0.936
 8443SOL    HW226229   0.002   2.752   0.866
 8444SOL     OW26230   5.035   2.335   3.049
 8444SOL    HW126231   5.040   2.321   2.950
 8444SOL    HW226232   5.033   2.433   3.069
 8445SOL     OW26233   3.753   5.757   2.376
 8445SOL    HW126234   3.811   5.835   2.400
 8445SOL    HW226235   3.804   5.672   2.387
 8446SOL     OW26236   5.799   3.631   3.179
 8446SOL    HW126237   5.716   3.576   3.177
 8446SOL    HW226238   5.879   3.571   3.173
 8447SOL     OW26239   5.474   4.551   1.550
 8447SOL    HW126240   5.460   4.457   1.521
 8447SOL    HW226241   5.571   4.565   1.572
 8448SOL     OW26242   1.516   4.898   5.729
 8448SOL    HW126243   1.525   4.837   5.807
 8448SOL    HW226244   1.422   4.930   5.722
 8449SOL     OW26245   1.652   0.710   5.483
 8449SOL    HW126246   1.657   0.703   5.384
 8449SOL    HW226247   1.589   0.784   5.508
 8450SOL     OW26248   1.678   6.006   0.936
 8450SOL    HW126249   1.688   5.956   1.022
 8450SOL    HW226250   1.761   6.059   0.919
 8451SOL     OW26251   2.614   4.260   1.449
 8451SOL    HW126252   2.564   4.182   1.488
 8451SOL    HW226253   2.551   4.319   1.399
 8452SOL     OW26254   6.745   5.716   2.559
 8452SOL    HW126255   6.657   5.726   2.512
 8452SOL    HW226256   6.735   5.746   2.654
 8453SOL     OW26257   0.725   4.490   5.353
 8453SOL    HW126258   0.654   4.420   5.352
 8453SOL    HW226259   0.725   4.538   5.265
 8454SOL     OW26260   1.932   6.664   5.611
 8454SOL    HW126261   1.987   6.618   5.681
 8454SOL    HW226262   1.975   6.653   5.522
 8455SOL     OW26263   6.121   2.113   0.265
 8455SOL    HW126264   6.093   2.157   0.350
 8455SOL    HW226265   6.184   2.037   0.286
 8456SOL     OW26266   6.197   4.309   3.653
 8456SOL    HW126267   6.281   4.293   3.602
 8456SOL    HW226268   6.192   4.405   3.682
 8457SOL     OW26269   5.682   5.971   5.703
 8457SOL    HW126270   5.702   5.935   5.794
 8457SOL    HW226271   5.763   6.018   5.668
 8458SOL     OW26272   0.883   1.524   1.629
 8458SOL    HW126273   0.831   1.452   1.583
 8458SOL    HW226274   0.819   1.586   1.675
 8459SOL     OW26275   2.677   4.717   2.928
 8459SOL    HW126276   2.769   4.681   2.921
 8459SOL    HW226277   2.621   4.682   2.852
 8460SOL     OW26278   3.808   1.027   1.048
 8460SOL    HW126279   3.790   0.954   1.115
 8460SOL    HW226280   3.797   1.116   1.093
 8461SOL     OW26281   5.654   4.811   3.178
 8461SOL    HW126282   5.684   4.743   3.111
 8461SOL    HW226283   5.598   4.767   3.248
 8462SOL     OW26284   2.175   3.695   0.749
 8462SOL    HW126285   2.226   3.765   0.799
 8462SOL    HW226286   2.221   3.607   0.759
 8463SOL     OW26287   0.227   6.264   1.083
 8463SOL    HW126288   0.135   6.234   1.059
 8463SOL    HW226289   0.225   6.312   1.171
 8464SOL     OW26290   0.518   3.321   6.700
 8464SOL    HW126291   0.418   3.327   6.703
 8464SOL    HW226292   0.551   3.374   6.621
 8465SOL     OW26293   6.103   4.066   0.375
 8465SOL    HW126294   6.162   4.132   0.421
 8465SOL    HW226295   6.018   4.055   0.427
 8466SOL     OW26296   0.310   1.224   4.941
 8466SOL    HW126297   0.278   1.160   5.011
 8466SOL    HW226298   0.237   1.240   4.874
 8467SOL     OW26299   3.244   1.272   1.046
 8467SOL    HW126300   3.235   1.360   1.001
 8467SOL    HW226301   3.210   1.279   1.140
 8468SOL     OW26302   6.710   3.582   1.592
 8468SOL    HW126303   6.730   3.529   1.674
 8468SOL    HW226304   6.770   3.662   1.588
 8469SOL     OW26305   3.417   2.783   5.450
 8469SOL    HW126306   3.354   2.801   5.525
 8469SOL    HW226307   3.431   2.685   5.441
 8470SOL     OW26308   2.062   5.734   1.480
 8470SOL    HW126309   1.967   5.725   1.510
 8470SOL    HW226310   2.092   5.649   1.436
 8471SOL     OW26311   4.269   2.348   3.720
 8471SOL    HW126312   4.233   2.276   3.659
 8471SOL    HW226313   4.239   2.437   3.687
 8472SOL     OW26314   6.417   1.511   7.017
 8472SOL    HW126315   6.423   1.412   0.010
 8472SOL    HW226316   6.509   1.551   0.004
 8473SOL     OW26317   4.991   4.988   5.574
 8473SOL    HW126318   4.937   5.035   5.503
 8473SOL    HW226319   4.974   5.032   5.663
 8474SOL     OW26320   3.437   3.984   6.500
 8474SOL    HW126321   3.514   3.923   6.521
 8474SOL    HW226322   3.470   4.061   6.445
 8475SOL     OW26323   0.511   1.970   2.945
 8475SOL    HW126324   0.532   2.045   2.882
 8475SOL    HW226325   0.451   2.003   3.018
 8476SOL     OW26326   6.786   1.115   2.533
 8476SOL    HW126327   6.706   1.134   2.475
 8476SOL    HW226328   6.868   1.149   2.488
 8477SOL     OW26329   5.751   6.529   0.919
 8477SOL    HW126330   5.794   6.585   0.989
 8477SOL    HW226331   5.745   6.434   0.951
 8478SOL     OW26332   1.652   6.898   6.375
 8478SOL    HW126333   1.666   6.841   6.456
 8478SOL    HW226334   1.634   6.839   6.296
 8479SOL     OW26335   1.023   2.223   0.140
 8479SOL    HW126336   1.062   2.244   0.229
 8479SOL    HW226337   1.085   2.162   0.089
 8480SOL     OW26338   3.104   4.440   1.703
 8480SOL    HW126339   3.031   4.463   1.768
 8480SOL    HW226340   3.073   4.366   1.643
 8481SOL     OW26341   5.426   3.744   2.081
 8481SOL    HW126342   5.339   3.728   2.035
 8481SOL    HW226343   5.421   3.830   2.132
 8482SOL     OW26344   5.034   0.169   5.533
 8482SOL    HW126345   4.980   0.199   5.454
 8482SOL    HW226346   5.006   0.222   5.614
 8483SOL     OW26347   4.663   5.311   3.773
 8483SOL    HW126348   4.572   5.274   3.793
 8483SOL    HW226349   4.714   5.319   3.859
 8484SOL     OW26350   5.682   6.845   5.655
 8484SOL    HW126351   5.611   6.911   5.630
 8484SOL    HW226352   5.672   6.763   5.600
 8485SOL     OW26353   3.427   0.435   5.993
 8485SOL    HW126354   3.479   0.434   5.907
 8485SOL    HW226355   3.486   0.466   6.067
 8486SOL     OW26356   4.807   2.895   4.791
 8486SOL    HW126357   4.747   2.829   4.746
 8486SOL    HW226358   4.812   2.979   4.737
 8487SOL     OW26359   0.258   1.389   5.481
 8487SOL    HW126360   0.352   1.361   5.502
 8487SOL    HW226361   0.194   1.319   5.512
 8488SOL     OW26362   4.706   5.535   3.008
 8488SOL    HW126363   4.726   5.506   3.102
 8488SOL    HW226364   4.626   5.595   3.008
 8489SOL     OW26365   6.319   2.201   1.832
 8489SOL    HW126366   6.323   2.293   1.794
 8489SOL    HW226367   6.342   2.134   1.761
 8490SOL     OW26368   4.076   6.822   0.213
 8490SOL    HW126369   4.060   6.795   0.308
 8490SOL    HW226370   4.117   6.913   0.211
 8491SOL     OW26371   3.010   6.094   1.914
 8491SOL    HW126372   3.066   6.177   1.922
 8491SOL    HW226373   2.993   6.074   1.818
 8492SOL     OW26374   5.975   6.726   4.222
 8492SOL    HW126375   6.072   6.707   4.242
 8492SOL    HW226376   5.929   6.641   4.197
 8493SOL     OW26377   5.301   0.199   5.605
 8493SOL    HW126378   5.211   0.211   5.564
 8493SOL    HW226379   5.333   0.287   5.642
 8494SOL     OW26380   0.080   3.685   2.207
 8494SOL    HW126381   0.006   3.650   2.149
 8494SOL    HW226382   0.119   3.610   2.260
 8495SOL     OW26383   4.846   6.028   4.871
 8495SOL    HW126384   4.928   6.012   4.817
 8495SOL    HW226385   4.839   6.126   4.894
 8496SOL     OW26386   3.954   2.117   2.501
 8496SOL    HW126387   4.036   2.151   2.457
 8496SOL    HW226388   3.895   2.073   2.434
 8497SOL     OW26389   6.897   0.989   3.284
 8497SOL    HW126390   6.868   0.895   3.264
 8497SOL    HW226391   6.869   1.049   3.209
 8498SOL     OW26392   5.682   6.385   5.109
 8498SOL    HW126393   5.634   6.355   5.192
 8498SOL    HW226394   5.780   6.367   5.118
 8499SOL     OW26395   6.097   0.143   6.072
 8499SOL    HW126396   6.004   0.177   6.058
 8499SOL    HW226397   6.118   0.071   6.006
 8500SOL     OW26398   0.711   0.829   6.096
 8500SOL    HW126399   0.675   0.896   6.032
 8500SOL    HW226400   0.712   0.867   6.188
 8501SOL     OW26401   3.693   6.925   5.308
 8501SOL    HW126402   3.698   6.976   5.394
 8501SOL    HW226403   3.598   6.895   5.293
 8502SOL     OW26404   6.443   2.889   0.362
 8502SOL    HW126405   6.494   2.856   0.441
 8502SOL    HW226406   6.492   2.863   0.278
 8503SOL     OW26407   4.938   2.032   6.271
 8503SOL    HW126408   4.896   2.123   6.277
 8503SOL    HW226409   4.899   1.983   6.193
 8504SOL     OW26410   1.368   1.019   3.131
 8504SOL    HW126411   1.441   1.038   3.065
 8504SOL    HW226412   1.280   1.041   3.090
 8505SOL     OW26413   6.020   1.572   2.876
 8505SOL    HW126414   5.959   1.651   2.879
 8505SOL    HW226415   6.082   1.580   2.798
 8506SOL     OW26416   2.020   1.112   4.097
 8506SOL    HW126417   2.011   1.026   4.148
 8506SOL    HW226418   2.000   1.095   4.000
 8507SOL     OW26419   4.257   5.367   0.128
 8507SOL    HW126420   4.210   5.429   0.065
 8507SOL    HW226421   4.246   5.273   0.096
 8508SOL     OW26422   3.997   0.728   6.185
 8508SOL    HW126423   4.029   0.776   6.266
 8508SOL    HW226424   3.924   0.665   6.210
 8509SOL     OW26425   4.323   2.143   2.241
 8509SOL    HW126426   4.387   2.203   2.192
 8509SOL    HW226427   4.235   2.143   2.195
 8510SOL     OW26428   0.517   2.127   5.005
 8510SOL    HW126429   0.539   2.206   5.063
 8510SOL    HW226430   0.572   2.049   5.033
 8511SOL     OW26431   5.693   2.067   4.122
 8511SOL    HW126432   5.685   2.025   4.032
 8511SOL    HW226433   5.722   2.163   4.112
 8512SOL     OW26434   2.579   6.274   6.299
 8512SOL    HW126435   2.579   6.326   6.213
 8512SOL    HW226436   2.524   6.322   6.367
 8513SOL     OW26437   3.836   5.917   6.919
 8513SOL    HW126438   3.816   5.885   7.012
 8513SOL    HW226439   3.907   5.987   6.923
 8514SOL     OW26440   4.464   5.607   4.404
 8514SOL    HW126441   4.369   5.589   4.428
 8514SOL    HW226442   4.493   5.543   4.333
 8515SOL     OW26443   5.328   2.981   1.572
 8515SOL    HW126444   5.305   3.018   1.662
 8515SOL    HW226445   5.260   2.912   1.546
 8516SOL     OW26446   6.512   2.547   1.341
 8516SOL    HW126447   6.500   2.635   1.388
 8516SOL    HW226448   6.530   2.563   1.244
 8517SOL     OW26449   0.697   3.691   4.518
 8517SOL    HW126450   0.655   3.651   4.599
 8517SOL    HW226451   0.780   3.640   4.494
 8518SOL     OW26452   3.828   5.870   1.182
 8518SOL    HW126453   3.783   5.956   1.156
 8518SOL    HW226454   3.926   5.885   1.189
 8519SOL     OW26455   2.651   5.529   3.322
 8519SOL    HW126456   2.732   5.587   3.310
 8519SOL    HW226457   2.621   5.495   3.233
 8520SOL     OW26458   3.465   5.691   0.356
 8520SOL    HW126459   3.451   5.768   0.418
 8520SOL    HW226460   3.381   5.638   0.348
 8521SOL     OW26461   0.780   1.024   3.138
 8521SOL    HW126462   0.820   1.071   3.216
 8521SOL    HW226463   0.680   1.030   3.143
 8522SOL     OW26464   2.246   5.906   3.741
 8522SOL    HW126465   2.304   5.954   3.675
 8522SOL    HW226466   2.302   5.842   3.794
 8523SOL     OW26467   1.963   5.538   6.242
 8523SOL    HW126468   1.895   5.488   6.297
 8523SOL    HW226469   2.029   5.473   6.206
 8524SOL     OW26470   1.785   1.498   6.444
 8524SOL    HW126471   1.861   1.484   6.508
 8524SOL    HW226472   1.704   1.525   6.495
 8525SOL     OW26473   5.452   4.440   4.375
 8525SOL    HW126474   5.519   4.489   4.430
 8525SOL    HW226475   5.486   4.349   4.352
 8526SOL     OW26476   0.049   3.248   1.892
 8526SOL    HW126477   0.024   3.279   1.801
 8526SOL    HW226478   0.123   3.305   1.928
 8527SOL     OW26479   5.011   0.932   5.262
 8527SOL    HW126480   4.942   0.863   5.285
 8527SOL    HW226481   5.071   0.898   5.190
 8528SOL     OW26482   5.310   0.157   0.341
 8528SOL    HW126483   5.337   0.253   0.339
 8528SOL    HW226484   5.298   0.127   0.436
 8529SOL     OW26485   0.074   0.744   4.452
 8529SOL    HW126486   0.045   0.820   4.510
 8529SOL    HW226487   0.020   0.742   4.369
 8530SOL     OW26488   1.791   5.005   5.907
 8530SOL    HW126489   1.846   4.923   5.896
 8530SOL    HW226490   1.751   5.031   5.819
 8531SOL     OW26491   3.347   5.399   2.720
 8531SOL    HW126492   3.364   5.428   2.814
 8531SOL    HW226493   3.391   5.311   2.703
 8532SOL     OW26494   1.225   3.766   0.126
 8532SOL    HW126495   1.265   3.711   0.052
 8532SOL    HW226496   1.242   3.722   0.214
 8533SOL     OW26497   3.471   0.106   6.275
 8533SOL    HW126498   3.383   0.062   6.291
 8533SOL    HW226499   3.499   0.091   6.180
 8534SOL     OW26500   2.793   2.653   0.904
 8534SOL    HW126501   2.706   2.692   0.934
 8534SOL    HW226502   2.796   2.648   0.805
 8535SOL     OW26503   0.171   2.501   5.807
 8535SOL    HW126504   0.148   2.408   5.834
 8535SOL    HW226505   0.166   2.562   5.886
 8536SOL     OW26506   6.620   0.672   6.494
 8536SOL    HW126507   6.623   0.609   6.572
 8536SOL    HW226508   6.542   0.734   6.504
 8537SOL     OW26509   3.877   6.320   3.019
 8537SOL    HW126510   3.941   6.244   3.004
 8537SOL    HW226511   3.928   6.402   3.046
 8538SOL     OW26512   3.754   1.398   4.975
 8538SOL    HW126513   3.834   1.387   5.033
 8538SOL    HW226514   3.672   1.371   5.026
 8539SOL     OW26515   0.362   3.207   2.943
 8539SOL    HW126516   0.427   3.208   3.020
 8539SOL    HW226517   0.385   3.279   2.878
 8540SOL     OW26518   4.566   5.976   5.994
 8540SOL    HW126519   4.510   5.972   5.911
 8540SOL    HW226520   4.555   5.892   6.046
 8541SOL     OW26521   3.452   5.671   5.540
 8541SOL    HW126522   3.491   5.763   5.540
 8541SOL    HW226523   3.356   5.676   5.567
 8542SOL     OW26524   1.631   5.231   5.096
 8542SOL    HW126525   1.557   5.259   5.157
 8542SOL    HW226526   1.593   5.210   5.006
 8543SOL     OW26527   3.581   1.727   5.703
 8543SOL    HW126528   3.512   1.664   5.739
 8543SOL    HW226529   3.596   1.709   5.606
 8544SOL     OW26530   4.866   3.724   5.295
 8544SOL    HW126531   4.805   3.661   5.249
 8544SOL    HW226532   4.898   3.683   5.381
 8545SOL     OW26533   1.997   0.677   6.540
 8545SOL    HW126534   1.900   0.656   6.524
 8545SOL    HW226535   2.038   0.712   6.456
 8546SOL     OW26536   2.871   1.428   3.841
 8546SOL    HW126537   2.865   1.408   3.939
 8546SOL    HW226538   2.920   1.514   3.828
 8547SOL     OW26539   5.971   4.614   5.878
 8547SOL    HW126540   5.947   4.677   5.803
 8547SOL    HW226541   5.932   4.648   5.964
 8548SOL     OW26542   1.671   4.292   4.209
 8548SOL    HW126543   1.744   4.240   4.254
 8548SOL    HW226544   1.606   4.228   4.168
 8549SOL     OW26545   3.069   0.402   3.878
 8549SOL    HW126546   3.139   0.459   3.919
 8549SOL    HW226547   3.072   0.311   3.919
 8550SOL     OW26548   0.267   3.352   4.967
 8550SOL    HW126549   0.350   3.323   4.920
 8550SOL    HW226550   0.287   3.371   5.062
 8551SOL     OW26551   3.446   1.889   3.928
 8551SOL    HW126552   3.372   1.950   3.957
 8551SOL    HW226553   3.534   1.928   3.955
 8552SOL     OW26554   4.124   1.082   2.250
 8552SOL    HW126555   4.124   1.110   2.154
 8552SOL    HW226556   4.033   1.050   2.276
 8553SOL     OW26557   6.052   3.004   0.659
 8553SOL    HW126558   6.102   2.919   0.643
 8553SOL    HW226559   6.095   3.078   0.607
 8554SOL     OW26560   0.402   1.017   6.863
 8554SOL    HW126561   0.320   1.066   6.835
 8554SOL    HW226562   0.386   0.918   6.856
 8555SOL     OW26563   3.516   2.077   3.691
 8555SOL    HW126564   3.428   2.059   3.735
 8555SOL    HW226565   3.501   2.103   3.595
 8556SOL     OW26566   1.194   4.098   5.975
 8556SOL    HW126567   1.170   4.151   6.055
 8556SOL    HW226568   1.238   4.012   6.003
 8557SOL     OW26569   6.151   0.257   0.631
 8557SOL    HW126570   6.220   0.329   0.629
 8557SOL    HW226571   6.120   0.238   0.538
 8558SOL     OW26572   2.898   6.221   3.643
 8558SOL    HW126573   2.981   6.274   3.622
 8558SOL    HW226574   2.899   6.135   3.593
 8559SOL     OW26575   1.424   3.080   3.293
 8559SOL    HW126576   1.515   3.114   3.269
 8559SOL    HW226577   1.420   3.064   3.392
 8560SOL     OW26578   3.374   4.583   1.655
 8560SOL    HW126579   3.439   4.583   1.731
 8560SOL    HW226580   3.296   4.525   1.678
 8561SOL     OW26581   3.634   0.697   2.559
 8561SOL    HW126582   3.585   0.666   2.641
 8561SOL    HW226583   3.593   0.783   2.528
 8562SOL     OW26584   5.486   3.750   6.021
 8562SOL    HW126585   5.512   3.766   6.116
 8562SOL    HW226586   5.544   3.679   5.982
 8563SOL     OW26587   0.191   4.062   3.490
 8563SOL    HW126588   0.133   4.014   3.425
 8563SOL    HW226589   0.234   3.997   3.553
 8564SOL     OW26590   3.977   6.327   6.766
 8564SOL    HW126591   4.044   6.339   6.839
 8564SOL    HW226592   3.885   6.346   6.802
 8565SOL     OW26593   1.263   5.096   0.573
 8565SOL    HW126594   1.260   5.104   0.673
 8565SOL    HW226595   1.177   5.132   0.535
 8566SOL     OW26596   2.469   0.520   3.557
 8566SOL    HW126597   2.548   0.494   3.502
 8566SOL    HW226598   2.396   0.552   3.497
 8567SOL     OW26599   1.823   3.487   0.439
 8567SOL    HW126600   1.906   3.522   0.396
 8567SOL    HW226601   1.769   3.563   0.476
 8568SOL     OW26602   5.551   6.866   6.731
 8568SOL    HW126603   5.454   6.845   6.719
 8568SOL    HW226604   5.585   6.914   6.651
 8569SOL     OW26605   4.145   1.774   6.324
 8569SOL    HW126606   4.122   1.851   6.264
 8569SOL    HW226607   4.114   1.689   6.282
 8570SOL     OW26608   1.621   2.321   4.231
 8570SOL    HW126609   1.596   2.413   4.263
 8570SOL    HW226610   1.542   2.280   4.185
 8571SOL     OW26611   1.861   0.733   3.742
 8571SOL    HW126612   1.956   0.703   3.730
 8571SOL    HW226613   1.799   0.661   3.709
 8572SOL     OW26614   2.536   3.273   6.320
 8572SOL    HW126615   2.487   3.193   6.285
 8572SOL    HW226616   2.516   3.352   6.262
 8573SOL     OW26617   1.927   6.120   6.202
 8573SOL    HW126618   2.022   6.098   6.227
 8573SOL    HW226619   1.893   6.050   6.139
 8574SOL     OW26620   6.138   2.587   5.597
 8574SOL    HW126621   6.091   2.507   5.635
 8574SOL    HW226622   6.229   2.595   5.639
 8575SOL     OW26623   1.685   6.755   3.948
 8575SOL    HW126624   1.728   6.711   4.027
 8575SOL    HW226625   1.647   6.685   3.887
 8576SOL     OW26626   1.159   3.962   4.266
 8576SOL    HW126627   1.237   3.959   4.328
 8576SOL    HW226628   1.192   3.976   4.172
 8577SOL     OW26629   2.038   1.366   1.131
 8577SOL    HW126630   2.017   1.459   1.099
 8577SOL    HW226631   1.954   1.320   1.157
 8578SOL     OW26632   1.898   0.751   5.850
 8578SOL    HW126633   1.833   0.766   5.924
 8578SOL    HW226634   1.901   0.832   5.791
 8579SOL     OW26635   2.776   7.009   2.944
 8579SOL    HW126636   2.808   6.917   2.923
 8579SOL    HW226637   2.836   0.034   3.012
 8580SOL     OW26638   1.090   0.474   1.885
 8580SOL    HW126639   0.995   0.459   1.858
 8580SOL    HW226640   1.100   0.566   1.924
 8581SOL     OW26641   4.034   3.461   3.851
 8581SOL    HW126642   4.069   3.369   3.833
 8581SOL    HW226643   4.035   3.477   3.949
 8582SOL     OW26644   5.479   5.654   6.290
 8582SOL    HW126645   5.540   5.609   6.356
 8582SOL    HW226646   5.384   5.627   6.310
 8583SOL     OW26647   3.428   0.453   2.079
 8583SOL    HW126648   3.369   0.377   2.104
 8583SOL    HW226649   3.473   0.490   2.160
 8584SOL     OW26650   5.359   2.615   5.870
 8584SOL    HW126651   5.361   2.604   5.771
 8584SOL    HW226652   5.265   2.629   5.900
 8585SOL     OW26653   4.785   2.700   3.132
 8585SOL    HW126654   4.830   2.787   3.152
 8585SOL    HW226655   4.765   2.653   3.218
 8586SOL     OW26656   5.717   0.010   5.922
 8586SOL    HW126657   5.685   6.994   5.833
 8586SOL    HW226658   5.752   0.103   5.911
 8587SOL     OW26659   6.644   6.696   1.384
 8587SOL    HW126660   6.686   6.781   1.352
 8587SOL    HW226661   6.680   6.619   1.332
 8588SOL     OW26662   2.072   2.192   5.739
 8588SOL    HW126663   2.143   2.202   5.809
 8588SOL    HW226664   2.094   2.248   5.660
 8589SOL     OW26665   6.135   3.254   6.472
 8589SOL    HW126666   6.053   3.310   6.483
 8589SOL    HW226667   6.114   3.176   6.413
 8590SOL     OW26668   0.723   1.185   2.915
 8590SOL    HW126669   0.759   1.128   2.990
 8590SOL    HW226670   0.637   1.145   2.881
 8591SOL     OW26671   0.559   4.221   5.932
 8591SOL    HW126672   0.547   4.171   5.846
 8591SOL    HW226673   0.650   4.261   5.935
 8592SOL     OW26674   0.085   2.498   4.482
 8592SOL    HW126675   0.017   2.457   4.542
 8592SOL    HW226676   0.111   2.588   4.517
 8593SOL     OW26677   6.303   0.731   0.414
 8593SOL    HW126678   6.214   0.707   0.374
 8593SOL    HW226679   6.289   0.792   0.492
 8594SOL     OW26680   6.198   2.550   6.848
 8594SOL    HW126681   6.242   2.628   6.802
 8594SOL    HW226682   6.099   2.559   6.841
 8595SOL     OW26683   5.736   6.319   2.066
 8595SOL    HW126684   5.750   6.305   2.164
 8595SOL    HW226685   5.807   6.379   2.030
 8596SOL     OW26686   0.684   2.703   5.901
 8596SOL    HW126687   0.644   2.687   5.991
 8596SOL    HW226688   0.612   2.699   5.832
 8597SOL     OW26689   6.176   2.243   5.505
 8597SOL    HW126690   6.156   2.309   5.577
 8597SOL    HW226691   6.253   2.186   5.533
 8598SOL     OW26692   6.328   0.485   5.323
 8598SOL    HW126693   6.386   0.559   5.289
 8598SOL    HW226694   6.311   0.419   5.250
 8599SOL     OW26695   5.785   4.564   5.177
 8599SOL    HW126696   5.877   4.598   5.162
 8599SOL    HW226697   5.787   4.464   5.183
 8600SOL     OW26698   3.858   3.169   1.994
 8600SOL    HW126699   3.799   3.089   1.992
 8600SOL    HW226700   3.897   3.185   1.904
 8601SOL     OW26701   5.075   4.512   1.358
 8601SOL    HW126702   5.012   4.542   1.286
 8601SOL    HW226703   5.023   4.493   1.442
 8602SOL     OW26704   1.772   6.078   5.328
 8602SOL    HW126705   1.674   6.097   5.327
 8602SOL    HW226706   1.812   6.115   5.412
 8603SOL     OW26707   0.450   1.295   0.465
 8603SOL    HW126708   0.351   1.298   0.482
 8603SOL    HW226709   0.469   1.233   0.390
 8604SOL     OW26710   2.270   6.033   5.776
 8604SOL    HW126711   2.221   6.016   5.691
 8604SOL    HW226712   2.268   5.951   5.832
 8605SOL     OW26713   6.668   4.693   3.839
 8605SOL    HW126714   6.588   4.666   3.893
 8605SOL    HW226715   6.750   4.683   3.895
 8606SOL     OW26716   0.879   0.345   6.403
 8606SOL    HW126717   0.973   0.365   6.431
 8606SOL    HW226718   0.867   0.370   6.307
 8607SOL     OW26719   3.473   2.741   1.925
 8607SOL    HW126720   3.524   2.666   1.967
 8607SOL    HW226721   3.473   2.730   1.825
 8608SOL     OW26722   1.262   5.288   2.533
 8608SOL    HW126723   1.188   5.246   2.585
 8608SOL    HW226724   1.296   5.368   2.582
 8609SOL     OW26725   5.129   2.324   3.825
 8609SOL    HW126726   5.201   2.375   3.778
 8609SOL    HW226727   5.157   2.305   3.919
 8610SOL     OW26728   6.871   5.501   2.261
 8610SOL    HW126729   6.853   5.431   2.330
 8610SOL    HW226730   6.949   5.473   2.205
 8611SOL     OW26731   2.158   1.609   5.233
 8611SOL    HW126732   2.084   1.595   5.299
 8611SOL    HW226733   2.225   1.673   5.271
 8612SOL     OW26734   3.439   3.045   5.917
 8612SOL    HW126735   3.413   3.141   5.915
 8612SOL    HW226736   3.433   3.011   6.011
 8613SOL     OW26737   3.443   3.178   3.645
 8613SOL    HW126738   3.403   3.261   3.604
 8613SOL    HW226739   3.383   3.100   3.628
 8614SOL     OW26740   0.196   3.358   3.964
 8614SOL    HW126741   0.164   3.386   3.873
 8614SOL    HW226742   0.140   3.282   3.997
 8615SOL     OW26743   3.789   0.635   5.192
 8615SOL    HW126744   3.871   0.604   5.143
 8615SOL    HW226745   3.799   0.731   5.217
 8616SOL     OW26746   6.010   4.153   5.233
 8616SOL    HW126747   6.028   4.154   5.135
 8616SOL    HW226748   6.008   4.058   5.266
 8617SOL     OW26749   0.807   6.809   4.315
 8617SOL    HW126750   0.891   6.841   4.269
 8617SOL    HW226751   0.832   6.746   4.388
 8618SOL     OW26752   6.896   5.043   0.264
 8618SOL    HW126753   6.802   5.030   0.231
 8618SOL    HW226754   6.894   5.063   0.362
 8619SOL     OW26755   6.031   4.651   6.436
 8619SOL    HW126756   5.978   4.579   6.481
 8619SOL    HW226757   5.989   4.740   6.454
 8620SOL     OW26758   1.122   5.881   4.171
 8620SOL    HW126759   1.037   5.828   4.174
 8620SOL    HW226760   1.105   5.969   4.127
 8621SOL     OW26761   6.085   3.509   1.571
 8621SOL    HW126762   6.166   3.537   1.623
 8621SOL    HW226763   6.106   3.512   1.473
 8622SOL     OW26764   1.002   6.394   1.656
 8622SOL    HW126765   0.977   6.329   1.585
 8622SOL    HW226766   0.929   6.462   1.667
 8623SOL     OW26767   1.859   2.147   3.556
 8623SOL    HW126768   1.855   2.183   3.463
 8623SOL    HW226769   1.813   2.059   3.559
 8624SOL     OW26770   3.064   3.558   5.938
 8624SOL    HW126771   3.086   3.634   5.876
 8624SOL    HW226772   3.080   3.471   5.891
 8625SOL     OW26773   4.364   3.346   6.235
 8625SOL    HW126774   4.346   3.263   6.181
 8625SOL    HW226775   4.298   3.352   6.309
 8626SOL     OW26776   5.334   0.929   0.035
 8626SOL    HW126777   5.356   0.994   6.979
 8626SOL    HW226778   5.257   0.871   0.006
 8627SOL     OW26779   6.888   0.126   2.217
 8627SOL    HW126780   6.980   0.131   2.257
 8627SOL    HW226781   6.821   0.157   2.284
 8628SOL     OW26782   1.045   6.434   0.734
 8628SOL    HW126783   0.998   6.522   0.742
 8628SOL    HW226784   0.983   6.367   0.692
 8629SOL     OW26785   0.188   1.134   4.516
 8629SOL    HW126786   0.131   1.086   4.582
 8629SOL    HW226787   0.264   1.179   4.563
 8630SOL     OW26788   5.283   3.101   1.828
 8630SOL    HW126789   5.198   3.152   1.821
 8630SOL    HW226790   5.318   3.105   1.922
 8631SOL     OW26791   1.427   6.101   0.332
 8631SOL    HW126792   1.352   6.139   0.385
 8631SOL    HW226793   1.510   6.100   0.388
 8632SOL     OW26794   6.213   5.893   3.462
 8632SOL    HW126795   6.152   5.945   3.521
 8632SOL    HW226796   6.161   5.826   3.410
 8633SOL     OW26797   6.470   3.940   5.883
 8633SOL    HW126798   6.437   3.976   5.796
 8633SOL    HW226799   6.551   3.883   5.866
 8634SOL     OW26800   4.678   4.593   0.086
 8634SOL    HW126801   4.585   4.558   0.074
 8634SOL    HW226802   4.741   4.543   0.026
 8635SOL     OW26803   5.533   1.645   0.115
 8635SOL    HW126804   5.550   1.740   0.142
 8635SOL    HW226805   5.553   1.633   0.018
 8636SOL     OW26806   4.691   5.819   0.155
 8636SOL    HW126807   4.719   5.856   0.067
 8636SOL    HW226808   4.748   5.857   0.228
 8637SOL     OW26809   3.244   2.705   0.862
 8637SOL    HW126810   3.243   2.613   0.824
 8637SOL    HW226811   3.271   2.771   0.792
 8638SOL     OW26812   4.662   2.313   4.138
 8638SOL    HW126813   4.622   2.241   4.195
 8638SOL    HW226814   4.761   2.314   4.151
 8639SOL     OW26815   3.956   4.207   0.685
 8639SOL    HW126816   3.951   4.294   0.636
 8639SOL    HW226817   3.863   4.177   0.709
 8640SOL     OW26818   2.852   2.696   6.496
 8640SOL    HW126819   2.890   2.607   6.521
 8640SOL    HW226820   2.754   2.697   6.515
 8641SOL     OW26821   3.371   5.157   2.959
 8641SOL    HW126822   3.424   5.239   2.936
 8641SOL    HW226823   3.428   5.076   2.948
 8642SOL     OW26824   2.304   6.477   2.906
 8642SOL    HW126825   2.383   6.418   2.923
 8642SOL    HW226826   2.275   6.520   2.991
 8643SOL     OW26827   3.634   6.293   1.264
 8643SOL    HW126828   3.708   6.346   1.224
 8643SOL    HW226829   3.555   6.293   1.201
 8644SOL     OW26830   5.515   2.463   0.165
 8644SOL    HW126831   5.469   2.378   0.139
 8644SOL    HW226832   5.513   2.473   0.265
 8645SOL     OW26833   4.917   5.638   2.755
 8645SOL    HW126834   4.861   5.559   2.779
 8645SOL    HW226835   5.011   5.608   2.741
 8646SOL     OW26836   6.150   1.708   3.791
 8646SOL    HW126837   6.083   1.780   3.813
 8646SOL    HW226838   6.142   1.684   3.695
 8647SOL     OW26839   1.782   4.250   2.000
 8647SOL    HW126840   1.815   4.309   2.074
 8647SOL    HW226841   1.848   4.252   1.925
 8648SOL     OW26842   5.951   5.536   5.951
 8648SOL    HW126843   5.905   5.541   6.040
 8648SOL    HW226844   5.884   5.513   5.880
 8649SOL     OW26845   5.402   2.767   2.381
 8649SOL    HW126846   5.404   2.678   2.426
 8649SOL    HW226847   5.307   2.794   2.365
 8650SOL     OW26848   0.875   1.119   4.705
 8650SOL    HW126849   0.849   1.137   4.799
 8650SOL    HW226850   0.805   1.155   4.643
 8651SOL     OW26851   4.918   1.099   1.518
 8651SOL    HW126852   4.918   1.041   1.436
 8651SOL    HW226853   5.010   1.103   1.557
 8652SOL     OW26854   6.166   3.104   5.070
 8652SOL    HW126855   6.175   3.065   4.978
 8652SOL    HW226856   6.253   3.142   5.099
 8653SOL     OW26857   4.560   0.919   6.956
 8653SOL    HW126858   4.639   0.958   6.910
 8653SOL    HW226859   4.584   0.896   0.033
 8654SOL     OW26860   6.775   4.496   3.665
 8654SOL    HW126861   6.707   4.556   3.706
 8654SOL    HW226862   6.840   4.465   3.735
 8655SOL     OW26863   1.549   6.950   4.526
 8655SOL    HW126864   1.537   6.901   4.612
 8655SOL    HW226865   1.646   6.954   4.503
 8656SOL     OW26866   3.582   6.438   0.177
 8656SOL    HW126867   3.558   6.463   0.271
 8656SOL    HW226868   3.568   6.517   0.117
 8657SOL     OW26869   2.866   1.907   2.618
 8657SOL    HW126870   2.920   1.863   2.690
 8657SOL    HW226871   2.826   1.837   2.559
 8658SOL     OW26872   5.971   3.976   0.781
 8658SOL    HW126873   6.041   3.906   0.795
 8658SOL    HW226874   5.880   3.933   0.787
 8659SOL     OW26875   3.245   6.751   3.821
 8659SOL    HW126876   3.240   6.696   3.904
 8659SOL    HW226877   3.165   6.732   3.764
 8660SOL     OW26878   0.014   4.776   0.941
 8660SOL    HW126879   6.936   4.806   0.936
 8660SOL    HW226880   0.045   4.781   1.036
 8661SOL     OW26881   5.646   3.156   1.023
 8661SOL    HW126882   5.652   3.249   0.985
 8661SOL    HW226883   5.704   3.095   0.970
 8662SOL     OW26884   1.633   2.792   2.154
 8662SOL    HW126885   1.619   2.717   2.089
 8662SOL    HW226886   1.603   2.878   2.112
 8663SOL     OW26887   2.848   5.485   1.773
 8663SOL    HW126888   2.871   5.572   1.817
 8663SOL    HW226889   2.927   5.424   1.779
 8664SOL     OW26890   3.045   6.210   4.439
 8664SOL    HW126891   3.133   6.254   4.459
 8664SOL    HW226892   2.971   6.269   4.469
 8665SOL     OW26893   0.737   3.156   6.438
 8665SOL    HW126894   0.642   3.124   6.444
 8665SOL    HW226895   0.739   3.249   6.401
 8666SOL     OW26896   4.427   6.968   3.167
 8666SOL    HW126897   4.350   6.904   3.173
 8666SOL    HW226898   4.486   6.941   3.091
 8667SOL     OW26899   4.470   2.325   2.062
 8667SOL    HW126900   4.490   2.401   2.001
 8667SOL    HW226901   4.405   2.263   2.018
 8668SOL     OW26902   3.759   1.948   3.425
 8668SOL    HW126903   3.781   1.932   3.522
 8668SOL    HW226904   3.733   1.861   3.382
 8669SOL     OW26905   0.636   6.072   5.699
 8669SOL    HW126906   0.718   6.047   5.750
 8669SOL    HW226907   0.599   6.158   5.735
 8670SOL     OW26908   7.011   4.936   4.903
 8670SOL    HW126909   0.038   4.855   4.865
 8670SOL    HW226910   0.023   4.948   4.998
 8671SOL     OW26911   6.955   3.361   3.326
 8671SOL    HW126912   6.931   3.319   3.413
 8671SOL    HW226913   6.874   3.367   3.268
 8672SOL     OW26914   6.634   1.228   2.317
 8672SOL    HW126915   6.615   1.169   2.238
 8672SOL    HW226916   6.555   1.285   2.336
 8673SOL     OW26917   0.360   1.110   1.888
 8673SOL    HW126918   0.329   1.025   1.844
 8673SOL    HW226919   0.293   1.137   1.958
 8674SOL     OW26920   0.317   2.950   4.038
 8674SOL    HW126921   0.307   2.931   4.136
 8674SOL    HW226922   0.315   2.865   3.987
 8675SOL     OW26923   5.466   2.502   4.862
 8675SOL    HW126924   5.403   2.488   4.785
 8675SOL    HW226925   5.434   2.448   4.941
 8676SOL     OW26926   5.040   2.979   1.184
 8676SOL    HW126927   5.077   3.029   1.262
 8676SOL    HW226928   5.115   2.940   1.131
 8677SOL     OW26929   3.077   1.651   7.013
 8677SOL    HW126930   3.020   1.599   6.950
 8677SOL    HW226931   3.138   1.590   0.045
 8678SOL     OW26932   2.608   1.786   0.277
 8678SOL    HW126933   2.512   1.781   0.252
 8678SOL    HW226934   2.653   1.857   0.222
 8679SOL     OW26935   2.114   2.153   6.610
 8679SOL    HW126936   2.034   2.132   6.554
 8679SOL    HW226937   2.190   2.092   6.585
 8680SOL     OW26938   0.057   0.146   1.325
 8680SOL    HW126939   0.007   0.092   1.392
 8680SOL    HW226940   0.041   0.243   1.343
 8681SOL     OW26941   5.548   5.597   0.782
 8681SOL    HW126942   5.476   5.616   0.848
 8681SOL    HW226943   5.601   5.680   0.765
 8682SOL     OW26944   1.808   1.830   2.013
 8682SOL    HW126945   1.842   1.914   1.971
 8682SOL    HW226946   1.737   1.790   1.955
 8683SOL     OW26947   2.527   4.687   4.524
 8683SOL    HW126948   2.461   4.750   4.565
 8683SOL    HW226949   2.498   4.665   4.431
 8684SOL     OW26950   2.241   4.034   3.615
 8684SOL    HW126951   2.237   4.120   3.564
 8684SOL    HW226952   2.209   3.959   3.556
 8685SOL     OW26953   4.750   3.137   5.335
 8685SOL    HW126954   4.675   3.198   5.362
 8685SOL    HW226955   4.721   3.042   5.345
 8686SOL     OW26956   0.770   4.865   2.247
 8686SOL    HW126957   0.844   4.905   2.194
 8686SOL    HW226958   0.683   4.909   2.222
 8687SOL     OW26959   5.718   3.381   5.542
 8687SOL    HW126960   5.646   3.451   5.538
 8687SOL    HW226961   5.786   3.408   5.611
 8688SOL     OW26962   1.271   3.422   4.386
 8688SOL    HW126963   1.189   3.365   4.398
 8688SOL    HW226964   1.313   3.400   4.298
 8689SOL     OW26965   5.366   3.617   1.126
 8689SOL    HW126966   5.465   3.629   1.115
 8689SOL    HW226967   5.346   3.570   1.212
 8690SOL     OW26968   1.204   2.305   2.376
 8690SOL    HW126969   1.286   2.361   2.368
 8690SOL    HW226970   1.209   2.251   2.460
 8691SOL     OW26971   3.503   1.430   6.861
 8691SOL    HW126972   3.585   1.376   6.881
 8691SOL    HW226973   3.530   1.512   6.810
 8692SOL     OW26974   5.447   2.255   4.264
 8692SOL    HW126975   5.454   2.311   4.346
 8692SOL    HW226976   5.510   2.289   4.194
 8693SOL     OW26977   0.824   0.356   5.360
 8693SOL    HW126978   0.850   0.267   5.398
 8693SOL    HW226979   0.900   0.393   5.307
 8694SOL     OW26980   3.413   3.623   6.183
 8694SOL    HW126981   3.478   3.581   6.119
 8694SOL    HW226982   3.437   3.719   6.197
 8695SOL     OW26983   3.788   4.305   1.238
 8695SOL    HW126984   3.814   4.263   1.325
 8695SOL    HW226985   3.861   4.293   1.171
 8696SOL     OW26986   2.684   4.596   6.400
 8696SOL    HW126987   2.586   4.578   6.400
 8696SOL    HW226988   2.733   4.510   6.387
 8697SOL     OW26989   1.013   3.063   4.454
 8697SOL    HW126990   1.088   3.029   4.512
 8697SOL    HW226991   0.928   3.017   4.481
 8698SOL     OW26992   5.515   4.737   6.845
 8698SOL    HW126993   5.613   4.752   6.835
 8698SOL    HW226994   5.481   4.684   6.768
 8699SOL     OW26995   2.087   1.943   1.447
 8699SOL    HW126996   2.138   2.018   1.489
 8699SOL    HW226997   2.002   1.929   1.496
 8700SOL     OW26998   0.451   2.549   4.762
 8700SOL    HW126999   0.472   2.454   4.786
 8700SOL    HW227000   0.403   2.592   4.839
 8701SOL     OW27001   2.786   2.951   0.186
 8701SOL    HW127002   2.881   2.923   0.203
 8701SOL    HW227003   2.785   3.045   0.152
 8702SOL     OW27004   5.464   4.499   0.684
 8702SOL    HW127005   5.369   4.520   0.711
 8702SOL    HW227006   5.524   4.509   0.763
 8703SOL     OW27007   2.298   5.455   0.781
 8703SOL    HW127008   2.257   5.513   0.711
 8703SOL    HW227009   2.337   5.511   0.853
 8704SOL     OW27010   6.844   1.358   3.658
 8704SOL    HW127011   6.930   1.313   3.635
 8704SOL    HW227012   6.828   1.350   3.757
 8705SOL     OW27013   3.721   2.107   0.057
 8705SOL    HW127014   3.805   2.145   0.097
 8705SOL    HW227015   3.644   2.123   0.119
 8706SOL     OW27016   4.795   2.694   5.275
 8706SOL    HW127017   4.810   2.729   5.367
 8706SOL    HW227018   4.807   2.767   5.208
 8707SOL     OW27019   2.082   0.840   3.911
 8707SOL    HW127020   2.102   0.779   3.834
 8707SOL    HW227021   2.126   0.929   3.895
 8708SOL     OW27022   5.699   2.357   0.798
 8708SOL    HW127023   5.673   2.378   0.892
 8708SOL    HW227024   5.767   2.284   0.798
 8709SOL     OW27025   6.017   6.228   4.305
 8709SOL    HW127026   6.015   6.163   4.228
 8709SOL    HW227027   6.104   6.218   4.354
 8710SOL     OW27028   2.324   2.759   3.833
 8710SOL    HW127029   2.318   2.756   3.933
 8710SOL    HW227030   2.257   2.697   3.794
 8711SOL     OW27031   0.960   2.053   2.290
 8711SOL    HW127032   0.989   2.140   2.331
 8711SOL    HW227033   0.897   2.007   2.353
 8712SOL     OW27034   1.501   3.728   4.074
 8712SOL    HW127035   1.543   3.819   4.065
 8712SOL    HW227036   1.422   3.734   4.135
 8713SOL     OW27037   6.781   4.744   4.191
 8713SOL    HW127038   6.871   4.776   4.221
 8713SOL    HW227039   6.731   4.821   4.150
 8714SOL     OW27040   1.152   4.218   6.198
 8714SOL    HW127041   1.116   4.278   6.270
 8714SOL    HW227042   1.165   4.126   6.235
 8715SOL     OW27043   1.974   5.012   1.424
 8715SOL    HW127044   2.063   5.028   1.468
 8715SOL    HW227045   1.963   4.914   1.408
 8716SOL     OW27046   5.154   6.844   3.214
 8716SOL    HW127047   5.149   6.868   3.117
 8716SOL    HW227048   5.223   6.772   3.227
 8717SOL     OW27049   4.589   2.310   6.963
 8717SOL    HW127050   4.544   2.342   0.029
 8717SOL    HW227051   4.522   2.306   6.889
 8718SOL     OW27052   2.550   5.369   5.791
 8718SOL    HW127053   2.604   5.286   5.802
 8718SOL    HW227054   2.576   5.417   5.707
 8719SOL     OW27055   3.124   2.017   4.486
 8719SOL    HW127056   3.092   2.074   4.561
 8719SOL    HW227057   3.212   2.052   4.453
 8720SOL     OW27058   0.431   6.853   5.159
 8720SOL    HW127059   0.429   6.952   5.144
 8720SOL    HW227060   0.415   6.833   5.255
 8721SOL     OW27061   0.415   0.261   2.142
 8721SOL    HW127062   0.479   0.185   2.158
 8721SOL    HW227063   0.397   0.308   2.229
 8722SOL     OW27064   3.953   1.178   0.357
 8722SOL    HW127065   3.935   1.089   0.398
 8722SOL    HW227066   4.051   1.196   0.357
 8723SOL     OW27067   3.451   6.824   2.775
 8723SOL    HW127068   3.409   6.914   2.762
 8723SOL    HW227069   3.435   6.793   2.868
 8724SOL     OW27070   5.575   0.268   5.309
 8724SOL    HW127071   5.560   0.340   5.377
 8724SOL    HW227072   5.488   0.246   5.264
 8725SOL     OW27073   6.817   0.824   2.504
 8725SOL    HW127074   6.807   0.917   2.540
 8725SOL    HW227075   6.827   0.828   2.405
 8726SOL     OW27076   0.163   0.663   0.966
 8726SOL    HW127077   0.190   0.585   0.909
 8726SOL    HW227078   0.214   0.744   0.937
 8727SOL     OW27079   4.974   5.198   5.789
 8727SOL    HW127080   5.074   5.194   5.783
 8727SOL    HW227081   4.944   5.156   5.874
 8728SOL     OW27082   5.150   6.713   4.127
 8728SOL    HW127083   5.145   6.666   4.039
 8728SOL    HW227084   5.232   6.683   4.176
 8729SOL     OW27085   5.720   5.978   6.096
 8729SOL    HW127086   5.670   5.966   6.181
 8729SOL    HW227087   5.773   6.063   6.099
 8730SOL     OW27088   4.164   4.951   1.703
 8730SOL    HW127089   4.166   5.044   1.666
 8730SOL    HW227090   4.205   4.888   1.637
 8731SOL     OW27091   0.051   2.902   4.234
 8731SOL    HW127092   0.094   2.883   4.146
 8731SOL    HW227093   0.096   2.849   4.306
 8732SOL     OW27094   5.322   6.649   5.596
 8732SOL    HW127095   5.268   6.572   5.562
 8732SOL    HW227096   5.272   6.696   5.669
 8733SOL     OW27097   5.754   4.052   2.213
 8733SOL    HW127098   5.844   4.019   2.243
 8733SOL    HW227099   5.757   4.070   2.114
 8734SOL     OW27100   0.152   6.500   1.478
 8734SOL    HW127101   0.118   6.415   1.439
 8734SOL    HW227102   0.076   6.563   1.493
 8735SOL     OW27103   1.795   2.083   6.914
 8735SOL    HW127104   1.789   2.174   6.873
 8735SOL    HW227105   1.853   2.086   6.995
 8736SOL     OW27106   0.495   6.048   3.733
 8736SOL    HW127107   0.452   5.977   3.677
 8736SOL    HW227108   0.592   6.027   3.745
 8737SOL     OW27109   0.734   5.825   6.815
 8737SOL    HW127110   0.716   5.856   6.721
 8737SOL    HW227111   0.654   5.776   6.850
 8738SOL     OW27112   1.750   2.128   2.533
 8738SOL    HW127113   1.740   2.201   2.465
 8738SOL    HW227114   1.845   2.125   2.564
 8739SOL     OW27115   4.521   4.847   3.448
 8739SOL    HW127116   4.585   4.794   3.393
 8739SOL    HW227117   4.462   4.786   3.500
 8740SOL     OW27118   1.820   0.947   3.554
 8740SOL    HW127119   1.882   1.024   3.536
 8740SOL    HW227120   1.837   0.912   3.646
 8741SOL     OW27121   1.838   2.614   2.989
 8741SOL    HW127122   1.908   2.630   3.058
 8741SOL    HW227123   1.748   2.623   3.031
 8742SOL     OW27124   1.593   3.254   0.671
 8742SOL    HW127125   1.533   3.280   0.746
 8742SOL    HW227126   1.548   3.185   0.614
 8743SOL     OW27127   1.809   2.848   0.283
 8743SOL    HW127128   1.720   2.857   0.238
 8743SOL    HW227129   1.813   2.910   0.362
 8744SOL     OW27130   2.840   3.959   5.728
 8744SOL    HW127131   2.832   3.956   5.828
 8744SOL    HW227132   2.805   3.873   5.689
 8745SOL     OW27133   5.468   1.023   6.646
 8745SOL    HW127134   5.453   0.939   6.595
 8745SOL    HW227135   5.550   1.013   6.703
 8746SOL     OW27136   4.532   4.849   3.939
 8746SOL    HW127137   4.632   4.850   3.947
 8746SOL    HW227138   4.493   4.813   4.023
 8747SOL     OW27139   0.168   6.808   1.393
 8747SOL    HW127140   0.205   6.826   1.302
 8747SOL    HW227141   0.068   6.803   1.389
 8748SOL     OW27142   6.083   1.905   4.805
 8748SOL    HW127143   6.138   1.823   4.791
 8748SOL    HW227144   6.022   1.918   4.727
 8749SOL     OW27145   2.299   1.727   4.384
 8749SOL    HW127146   2.288   1.754   4.480
 8749SOL    HW227147   2.385   1.765   4.349
 8750SOL     OW27148   4.105   3.790   2.254
 8750SOL    HW127149   4.056   3.816   2.336
 8750SOL    HW227150   4.200   3.820   2.261
 8751SOL     OW27151   2.138   6.436   0.101
 8751SOL    HW127152   2.069   6.402   0.036
 8751SOL    HW227153   2.138   6.536   0.100
 8752SOL     OW27154   1.589   2.538   6.849
 8752SOL    HW127155   1.618   2.557   6.942
 8752SOL    HW227156   1.507   2.592   6.828
 8753SOL     OW27157   2.183   2.134   0.869
 8753SOL    HW127158   2.132   2.182   0.797
 8753SOL    HW227159   2.267   2.097   0.829
 8754SOL     OW27160   1.909   6.362   6.973
 8754SOL    HW127161   1.845   6.306   6.920
 8754SOL    HW227162   1.860   6.439   7.013
 8755SOL     OW27163   6.838   1.290   1.986
 8755SOL    HW127164   6.914   1.288   1.921
 8755SOL    HW227165   6.810   1.385   2.002
 8756SOL     OW27166   1.950   1.595   2.099
 8756SOL    HW127167   1.903   1.531   2.159
 8756SOL    HW227168   1.886   1.665   2.068
 8757SOL     OW27169   5.346   5.804   5.328
 8757SOL    HW127170   5.423   5.824   5.388
 8757SOL    HW227171   5.377   5.807   5.233
 8758SOL     OW27172   3.608   5.306   6.452
 8758SOL    HW127173   3.547   5.385   6.458
 8758SOL    HW227174   3.578   5.236   6.516
 8759SOL     OW27175   6.495   0.840   1.460
 8759SOL    HW127176   6.595   0.849   1.460
 8759SOL    HW227177   6.454   0.928   1.440
 8760SOL     OW27178   1.521   2.638   4.309
 8760SOL    HW127179   1.573   2.703   4.363
 8760SOL    HW227180   1.471   2.576   4.371
 8761SOL     OW27181   4.972   2.681   4.145
 8761SOL    HW127182   4.928   2.725   4.224
 8761SOL    HW227183   5.071   2.681   4.158
 8762SOL     OW27184   3.886   6.072   2.131
 8762SOL    HW127185   3.876   6.145   2.064
 8762SOL    HW227186   3.925   5.992   2.086
 8763SOL     OW27187   0.159   1.968   5.303
 8763SOL    HW127188   0.064   1.938   5.309
 8763SOL    HW227189   0.214   1.894   5.263
 8764SOL     OW27190   2.234   5.760   5.887
 8764SOL    HW127191   2.138   5.732   5.886
 8764SOL    HW227192   2.288   5.694   5.835
 8765SOL     OW27193   4.505   0.322   3.651
 8765SOL    HW127194   4.554   0.297   3.735
 8765SOL    HW227195   4.567   0.314   3.573
 8766SOL     OW27196   6.649   0.321   4.794
 8766SOL    HW127197   6.640   0.366   4.882
 8766SOL    HW227198   6.606   0.378   4.723
 8767SOL     OW27199   2.029   1.124   5.096
 8767SOL    HW127200   2.081   1.193   5.145
 8767SOL    HW227201   1.958   1.087   5.156
 8768SOL     OW27202   7.000   2.403   0.786
 8768SOL    HW127203   6.966   2.472   0.723
 8768SOL    HW227204   6.991   2.312   0.744
 8769SOL     OW27205   0.019   0.143   0.433
 8769SOL    HW127206   0.110   0.181   0.446
 8769SOL    HW227207   7.011   0.150   0.337
 8770SOL     OW27208   4.893   1.888   0.888
 8770SOL    HW127209   4.795   1.897   0.908
 8770SOL    HW227210   4.914   1.940   0.805
 8771SOL     OW27211   1.156   2.240   6.783
 8771SOL    HW127212   1.118   2.325   6.821
 8771SOL    HW227213   1.091   2.166   6.797
 8772SOL     OW27214   0.410   6.666   3.856
 8772SOL    HW127215   0.352   6.747   3.861
 8772SOL    HW227216   0.429   6.645   3.760
 8773SOL     OW27217   6.585   1.684   4.041
 8773SOL    HW127218   6.611   1.639   4.126
 8773SOL    HW227219   6.573   1.782   4.056
 8774SOL     OW27220   0.711   2.089   6.754
 8774SOL    HW127221   0.624   2.042   6.772
 8774SOL    HW227222   0.770   2.081   6.834
 8775SOL     OW27223   4.267   1.779   2.334
 8775SOL    HW127224   4.206   1.845   2.290
 8775SOL    HW227225   4.349   1.767   2.279
 8776SOL     OW27226   5.782   3.142   1.290
 8776SOL    HW127227   5.694   3.131   1.336
 8776SOL    HW227228   5.770   3.196   1.207
 8777SOL     OW27229   6.611   2.170   4.115
 8777SOL    HW127230   6.535   2.229   4.085
 8777SOL    HW227231   6.690   2.227   4.138
 8778SOL     OW27232   1.943   4.555   5.894
 8778SOL    HW127233   1.882   4.594   5.963
 8778SOL    HW227234   2.036   4.549   5.931
 8779SOL     OW27235   3.381   6.314   3.582
 8779SOL    HW127236   3.386   6.272   3.672
 8779SOL    HW227237   3.286   6.330   3.558
 8780SOL     OW27238   1.025   3.322   4.359
 8780SOL    HW127239   1.025   3.235   4.409
 8780SOL    HW227240   0.968   3.313   4.278
 8781SOL     OW27241   3.759   1.135   2.404
 8781SOL    HW127242   3.784   1.083   2.322
 8781SOL    HW227243   3.796   1.228   2.395
 8782SOL     OW27244   0.320   2.867   0.156
 8782SOL    HW127245   0.362   2.778   0.141
 8782SOL    HW227246   0.328   2.923   0.074
 8783SOL     OW27247   3.555   4.189   6.362
 8783SOL    HW127248   3.645   4.231   6.375
 8783SOL    HW227249   3.486   4.261   6.355
 8784SOL     OW27250   4.190   1.986   6.036
 8784SOL    HW127251   4.152   1.985   5.944
 8784SOL    HW227252   4.115   1.987   6.103
 8785SOL     OW27253   6.198   0.199   5.776
 8785SOL    HW127254   6.273   0.244   5.823
 8785SOL    HW227255   6.194   0.103   5.802
 8786SOL     OW27256   5.080   2.284   2.776
 8786SOL    HW127257   4.996   2.235   2.754
 8786SOL    HW227258   5.124   2.314   2.691
 8787SOL     OW27259   3.003   5.423   2.488
 8787SOL    HW127260   2.960   5.378   2.566
 8787SOL    HW227261   3.102   5.412   2.493
 8788SOL     OW27262   0.268   6.883   3.805
 8788SOL    HW127263   0.170   6.893   3.823
 8788SOL    HW227264   0.286   6.904   3.709
 8789SOL     OW27265   2.601   3.761   0.289
 8789SOL    HW127266   2.692   3.801   0.295
 8789SOL    HW227267   2.566   3.744   0.381
 8790SOL     OW27268   5.224   3.239   5.191
 8790SOL    HW127269   5.219   3.339   5.188
 8790SOL    HW227270   5.305   3.209   5.141
 8791SOL     OW27271   3.945   6.932   5.568
 8791SOL    HW127272   3.954   6.889   5.658
 8791SOL    HW227273   3.939   6.862   5.498
 8792SOL     OW27274   5.219   4.713   0.674
 8792SOL    HW127275   5.279   4.747   0.747
 8792SOL    HW227276   5.224   4.774   0.595
 8793SOL     OW27277   6.183   0.762   5.330
 8793SOL    HW127278   6.163   0.686   5.268
 8793SOL    HW227279   6.270   0.745   5.377
 8794SOL     OW27280   0.995   2.990   2.862
 8794SOL    HW127281   0.930   3.063   2.844
 8794SOL    HW227282   1.026   2.996   2.957
 8795SOL     OW27283   2.054   0.406   6.687
 8795SOL    HW127284   2.008   0.437   6.603
 8795SOL    HW227285   2.151   0.429   6.682
 8796SOL     OW27286   5.827   5.140   3.929
 8796SOL    HW127287   5.795   5.053   3.890
 8796SOL    HW227288   5.857   5.201   3.856
 8797SOL     OW27289   5.872   5.618   5.595
 8797SOL    HW127290   5.837   5.585   5.682
 8797SOL    HW227291   5.815   5.584   5.520
 8798SOL     OW27292   1.865   5.377   6.927
 8798SOL    HW127293   1.886   5.347   0.003
 8798SOL    HW227294   1.950   5.383   6.874
 8799SOL     OW27295   1.442   6.147   1.917
 8799SOL    HW127296   1.482   6.059   1.892
 8799SOL    HW227297   1.387   6.183   1.842
 8800SOL     OW27298   6.805   6.441   4.813
 8800SOL    HW127299   6.847   6.379   4.879
 8800SOL    HW227300   6.862   6.446   4.731
 8801SOL     OW27301   5.482   2.997   6.530
 8801SOL    HW127302   5.517   3.053   6.455
 8801SOL    HW227303   5.503   3.041   6.617
 8802SOL     OW27304   1.203   6.788   6.970
 8802SOL    HW127305   1.119   6.822   7.013
 8802SOL    HW227306   1.213   6.832   6.880
 8803SOL     OW27307   4.522   5.055   5.329
 8803SOL    HW127308   4.547   5.015   5.241
 8803SOL    HW227309   4.491   5.149   5.316
 8804SOL     OW27310   2.355   6.274   1.506
 8804SOL    HW127311   2.451   6.264   1.479
 8804SOL    HW227312   2.340   6.227   1.593
 8805SOL     OW27313   5.223   5.290   1.111
 8805SOL    HW127314   5.256   5.379   1.143
 8805SOL    HW227315   5.172   5.302   1.025
 8806SOL     OW27316   1.774   1.292   2.079
 8806SOL    HW127317   1.829   1.212   2.099
 8806SOL    HW227318   1.772   1.352   2.159
 8807SOL     OW27319   5.438   1.383   1.774
 8807SOL    HW127320   5.500   1.325   1.828
 8807SOL    HW227321   5.438   1.476   1.811
 8808SOL     OW27322   1.729   1.463   1.152
 8808SOL    HW127323   1.799   1.532   1.133
 8808SOL    HW227324   1.682   1.485   1.238
 8809SOL     OW27325   0.929   3.286   2.894
 8809SOL    HW127326   1.016   3.327   2.869
 8809SOL    HW227327   0.928   3.267   2.992
 8810SOL     OW27328   6.405   2.728   3.561
 8810SOL    HW127329   6.350   2.746   3.643
 8810SOL    HW227330   6.419   2.629   3.552
 8811SOL     OW27331   3.566   5.841   2.577
 8811SOL    HW127332   3.590   5.814   2.484
 8811SOL    HW227333   3.646   5.878   2.624
 8812SOL     OW27334   5.592   0.616   0.478
 8812SOL    HW127335   5.601   0.620   0.378
 8812SOL    HW227336   5.596   0.708   0.515
 8813SOL     OW27337   1.849   2.828   1.009
 8813SOL    HW127338   1.926   2.799   0.953
 8813SOL    HW227339   1.779   2.869   0.950
 8814SOL     OW27340   5.949   6.660   4.916
 8814SOL    HW127341   5.965   6.581   4.856
 8814SOL    HW227342   5.899   6.730   4.866
 8815SOL     OW27343   4.512   0.389   1.221
 8815SOL    HW127344   4.519   0.451   1.142
 8815SOL    HW227345   4.418   0.353   1.225
 8816SOL     OW27346   0.506   1.043   2.517
 8816SOL    HW127347   0.606   1.038   2.523
 8816SOL    HW227348   0.469   0.950   2.514
 8817SOL     OW27349   0.875   2.575   4.311
 8817SOL    HW127350   0.929   2.626   4.244
 8817SOL    HW227351   0.795   2.535   4.266
 8818SOL     OW27352   1.339   5.527   6.406
 8818SOL    HW127353   1.346   5.428   6.420
 8818SOL    HW227354   1.318   5.546   6.310
 8819SOL     OW27355   6.017   6.559   7.009
 8819SOL    HW127356   6.037   6.625   6.936
 8819SOL    HW227357   5.930   6.582   0.033
 8820SOL     OW27358   3.514   6.516   5.533
 8820SOL    HW127359   3.444   6.490   5.600
 8820SOL    HW227360   3.578   6.580   5.575
 8821SOL     OW27361   1.729   5.080   5.363
 8821SOL    HW127362   1.819   5.079   5.319
 8821SOL    HW227363   1.657   5.072   5.293
 8822SOL     OW27364   0.370   0.903   5.415
 8822SOL    HW127365   0.359   0.850   5.499
 8822SOL    HW227366   0.464   0.892   5.381
 8823SOL     OW27367   4.458   2.410   3.136
 8823SOL    HW127368   4.461   2.476   3.060
 8823SOL    HW227369   4.544   2.359   3.139
 8824SOL     OW27370   1.120   0.216   3.879
 8824SOL    HW127371   1.210   0.230   3.920
 8824SOL    HW227372   1.130   0.181   3.786
 8825SOL     OW27373   1.529   6.711   0.417
 8825SOL    HW127374   1.553   6.614   0.409
 8825SOL    HW227375   1.453   6.731   0.355
 8826SOL     OW27376   0.722   3.167   0.012
 8826SOL    HW127377   0.806   3.114   0.024
 8826SOL    HW227378   0.688   3.196   0.102
 8827SOL     OW27379   5.382   6.033   4.156
 8827SOL    HW127380   5.436   6.115   4.177
 8827SOL    HW227381   5.287   6.059   4.140
 8828SOL     OW27382   5.158   2.364   5.734
 8828SOL    HW127383   5.135   2.272   5.766
 8828SOL    HW227384   5.096   2.430   5.777
 8829SOL     OW27385   6.389   1.048   3.085
 8829SOL    HW127386   6.429   1.035   3.176
 8829SOL    HW227387   6.370   1.145   3.070
 8830SOL     OW27388   2.133   1.762   2.701
 8830SOL    HW127389   2.175   1.798   2.785
 8830SOL    HW227390   2.198   1.703   2.654
 8831SOL     OW27391   0.744   2.550   2.388
 8831SOL    HW127392   0.818   2.495   2.427
 8831SOL    HW227393   0.784   2.626   2.337
 8832SOL     OW27394   6.224   0.120   4.906
 8832SOL    HW127395   6.277   0.145   4.824
 8832SOL    HW227396   6.230   0.021   4.920
 8833SOL     OW27397   4.816   2.840   1.128
 8833SOL    HW127398   4.765   2.882   1.053
 8833SOL    HW227399   4.894   2.898   1.151
 8834SOL     OW27400   6.184   4.204   5.545
 8834SOL    HW127401   6.154   4.282   5.600
 8834SOL    HW227402   6.203   4.234   5.452
 8835SOL     OW27403   6.423   1.070   4.923
 8835SOL    HW127404   6.510   1.114   4.943
 8835SOL    HW227405   6.413   0.987   4.979
 8836SOL     OW27406   4.536   1.622   0.122
 8836SOL    HW127407   4.535   1.705   0.179
 8836SOL    HW227408   4.570   1.645   0.031
 8837SOL     OW27409   6.032   5.180   0.313
 8837SOL    HW127410   6.123   5.142   0.297
 8837SOL    HW227411   5.965   5.105   0.316
 8838SOL     OW27412   0.891   3.167   1.604
 8838SOL    HW127413   0.949   3.090   1.630
 8838SOL    HW227414   0.799   3.134   1.584
 8839SOL     OW27415   4.727   4.621   1.676
 8839SOL    HW127416   4.668   4.562   1.730
 8839SOL    HW227417   4.687   4.713   1.673
 8840SOL     OW27418   0.350   6.884   1.595
 8840SOL    HW127419   0.288   6.853   1.522
 8840SOL    HW227420   0.302   6.880   1.683
 8841SOL     OW27421   5.109   2.173   0.197
 8841SOL    HW127422   5.026   2.227   0.184
 8841SOL    HW227423   5.086   2.076   0.196
 8842SOL     OW27424   3.625   2.873   3.771
 8842SOL    HW127425   3.568   2.936   3.719
 8842SOL    HW227426   3.567   2.814   3.827
 8843SOL     OW27427   2.261   6.332   4.994
 8843SOL    HW127428   2.247   6.272   5.073
 8843SOL    HW227429   2.300   6.418   5.023
 8844SOL     OW27430   3.938   2.700   5.312
 8844SOL    HW127431   3.991   2.644   5.247
 8844SOL    HW227432   3.912   2.786   5.269
 8845SOL     OW27433   0.591   3.744   2.543
 8845SOL    HW127434   0.568   3.689   2.463
 8845SOL    HW227435   0.580   3.841   2.523
 8846SOL     OW27436   5.802   5.234   4.166
 8846SOL    HW127437   5.760   5.158   4.216
 8846SOL    HW227438   5.815   5.209   4.071
 8847SOL     OW27439   1.216   3.074   3.515
 8847SOL    HW127440   1.295   3.087   3.575
 8847SOL    HW227441   1.167   3.160   3.506
 8848SOL     OW27442   5.930   2.573   1.336
 8848SOL    HW127443   5.857   2.510   1.365
 8848SOL    HW227444   5.916   2.598   1.240
 8849SOL     OW27445   3.702   5.346   4.571
 8849SOL    HW127446   3.735   5.277   4.636
 8849SOL    HW227447   3.623   5.393   4.611
 8850SOL     OW27448   4.831   1.713   1.245
 8850SOL    HW127449   4.845   1.619   1.213
 8850SOL    HW227450   4.893   1.774   1.195
 8851SOL     OW27451   6.441   5.100   2.982
 8851SOL    HW127452   6.524   5.103   2.926
 8851SOL    HW227453   6.426   5.006   3.013
 8852SOL     OW27454   5.716   4.357   4.645
 8852SOL    HW127455   5.809   4.369   4.681
 8852SOL    HW227456   5.714   4.276   4.586
 8853SOL     OW27457   4.529   1.690   4.120
 8853SOL    HW127458   4.575   1.747   4.188
 8853SOL    HW227459   4.437   1.725   4.104
 8854SOL     OW27460   2.869   0.473   6.664
 8854SOL    HW127461   2.867   0.382   6.704
 8854SOL    HW227462   2.778   0.515   6.670
 8855SOL     OW27463   6.866   4.451   5.698
 8855SOL    HW127464   6.872   4.515   5.622
 8855SOL    HW227465   6.771   4.444   5.728
 8856SOL     OW27466   5.319   1.965   5.710
 8856SOL    HW127467   5.386   1.965   5.784
 8856SOL    HW227468   5.275   1.875   5.704
 8857SOL     OW27469   1.514   2.887   4.477
 8857SOL    HW127470   1.536   2.975   4.518
 8857SOL    HW227471   1.440   2.844   4.529
 8858SOL     OW27472   1.011   3.217   5.622
 8858SOL    HW127473   1.087   3.191   5.682
 8858SOL    HW227474   0.981   3.310   5.645
 8859SOL     OW27475   2.784   5.359   4.865
 8859SOL    HW127476   2.777   5.441   4.922
 8859SOL    HW227477   2.692   5.330   4.838
 8860SOL     OW27478   2.221   0.950   1.778
 8860SOL    HW127479   2.182   0.871   1.826
 8860SOL    HW227480   2.288   0.995   1.837
 8861SOL     OW27481   2.271   1.202   6.907
 8861SOL    HW127482   2.235   1.240   6.992
 8861SOL    HW227483   2.230   1.249   6.829
 8862SOL     OW27484   0.420   3.391   3.624
 8862SOL    HW127485   0.487   3.325   3.588
 8862SOL    HW227486   0.336   3.342   3.648
 8863SOL     OW27487   1.511   5.760   5.167
 8863SOL    HW127488   1.418   5.764   5.204
 8863SOL    HW227489   1.520   5.681   5.107
 8864SOL     OW27490   2.099   4.151   5.155
 8864SOL    HW127491   2.010   4.116   5.127
 8864SOL    HW227492   2.170   4.106   5.100
 8865SOL     OW27493   2.980   2.012   5.841
 8865SOL    HW127494   2.976   1.922   5.797
 8865SOL    HW227495   3.047   2.070   5.794
 8866SOL     OW27496   5.180   0.449   5.698
 8866SOL    HW127497   5.195   0.488   5.607
 8866SOL    HW227498   5.192   0.520   5.767
 8867SOL     OW27499   5.519   0.800   2.789
 8867SOL    HW127500   5.548   0.895   2.796
 8867SOL    HW227501   5.468   0.787   2.703
 8868SOL     OW27502   6.104   3.219   0.279
 8868SOL    HW127503   6.037   3.290   0.302
 8868SOL    HW227504   6.060   3.129   0.281
 8869SOL     OW27505   1.811   1.818   4.049
 8869SOL    HW127506   1.908   1.794   4.051
 8869SOL    HW227507   1.795   1.884   3.975
 8870SOL     OW27508   3.630   6.495   1.587
 8870SOL    HW127509   3.679   6.549   1.518
 8870SOL    HW227510   3.630   6.399   1.560
 8871SOL     OW27511   0.929   2.262   4.132
 8871SOL    HW127512   0.973   2.222   4.213
 8871SOL    HW227513   0.998   2.286   4.064
 8872SOL     OW27514   1.244   1.323   2.508
 8872SOL    HW127515   1.272   1.234   2.472
 8872SOL    HW227516   1.146   1.335   2.493
 8873SOL     OW27517   0.223   5.724   4.800
 8873SOL    HW127518   0.130   5.761   4.793
 8873SOL    HW227519   0.285   5.795   4.832
 8874SOL     OW27520   1.460   1.202   5.416
 8874SOL    HW127521   1.415   1.291   5.407
 8874SOL    HW227522   1.475   1.163   5.325
 8875SOL     OW27523   1.454   1.005   4.001
 8875SOL    HW127524   1.468   1.089   3.950
 8875SOL    HW227525   1.498   0.929   3.953
 8876SOL     OW27526   2.808   1.378   4.388
 8876SOL    HW127527   2.843   1.465   4.422
 8876SOL    HW227528   2.810   1.310   4.462
 8877SOL     OW27529   2.397   6.755   5.286
 8877SOL    HW127530   2.457   6.723   5.360
 8877SOL    HW227531   2.351   6.839   5.315
 8878SOL     OW27532   5.278   4.188   5.683
 8878SOL    HW127533   5.239   4.279   5.667
 8878SOL    HW227534   5.378   4.192   5.675
 8879SOL     OW27535   6.087   5.946   4.669
 8879SOL    HW127536   6.042   5.924   4.582
 8879SOL    HW227537   6.167   5.887   4.681
 8880SOL     OW27538   1.326   0.032   4.983
 8880SOL    HW127539   1.241   6.998   4.987
 8880SOL    HW227540   1.336   0.087   5.066
 8881SOL     OW27541   6.731   1.765   2.342
 8881SOL    HW127542   6.798   1.757   2.416
 8881SOL    HW227543   6.736   1.857   2.303
 8882SOL     OW27544   5.290   1.674   0.440
 8882SOL    HW127545   5.378   1.658   0.395
 8882SOL    HW227546   5.296   1.647   0.536
 8883SOL     OW27547   6.191   1.199   5.572
 8883SOL    HW127548   6.160   1.178   5.664
 8883SOL    HW227549   6.286   1.230   5.574
 8884SOL     OW27550   0.319   1.354   6.582
 8884SOL    HW127551   0.335   1.391   6.490
 8884SOL    HW227552   0.405   1.321   6.620
 8885SOL     OW27553   6.124   3.836   1.919
 8885SOL    HW127554   6.087   3.791   2.001
 8885SOL    HW227555   6.060   3.824   1.843
 8886SOL     OW27556   3.083   6.125   5.974
 8886SOL    HW127557   3.049   6.141   6.067
 8886SOL    HW227558   3.093   6.027   5.959
 8887SOL     OW27559   1.710   0.889   0.477
 8887SOL    HW127560   1.713   0.936   0.565
 8887SOL    HW227561   1.730   0.792   0.490
 8888SOL     OW27562   1.765   2.240   3.281
 8888SOL    HW127563   1.773   2.186   3.197
 8888SOL    HW227564   1.837   2.309   3.284
 8889SOL     OW27565   3.240   0.916   5.378
 8889SOL    HW127566   3.295   0.839   5.345
 8889SOL    HW227567   3.186   0.886   5.457
 8890SOL     OW27568   6.395   5.550   3.859
 8890SOL    HW127569   6.352   5.497   3.932
 8890SOL    HW227570   6.330   5.563   3.784
 8891SOL     OW27571   3.387   2.335   6.017
 8891SOL    HW127572   3.353   2.320   6.110
 8891SOL    HW227573   3.485   2.316   6.014
 8892SOL     OW27574   0.647   0.512   3.009
 8892SOL    HW127575   0.667   0.534   3.105
 8892SOL    HW227576   0.717   0.552   2.950
 8893SOL     OW27577   0.179   0.510   0.486
 8893SOL    HW127578   0.079   0.513   0.487
 8893SOL    HW227579   0.215   0.567   0.560
 8894SOL     OW27580   5.134   2.472   5.484
 8894SOL    HW127581   5.131   2.430   5.574
 8894SOL    HW227582   5.044   2.465   5.441
 8895SOL     OW27583   1.256   1.110   3.486
 8895SOL    HW127584   1.192   1.083   3.557
 8895SOL    HW227585   1.285   1.030   3.434
 8896SOL     OW27586   1.273   4.030   4.699
 8896SOL    HW127587   1.289   4.129   4.699
 8896SOL    HW227588   1.188   4.010   4.650
 8897SOL     OW27589   0.996   2.179   1.770
 8897SOL    HW127590   1.069   2.128   1.725
 8897SOL    HW227591   0.910   2.164   1.720
 8898SOL     OW27592   0.481   2.284   5.361
 8898SOL    HW127593   0.464   2.200   5.412
 8898SOL    HW227594   0.435   2.360   5.407
 8899SOL     OW27595   4.040   6.517   3.040
 8899SOL    HW127596   4.138   6.504   3.022
 8899SOL    HW227597   3.994   6.540   2.954
 8900SOL     OW27598   6.504   1.779   3.576
 8900SOL    HW127599   6.467   1.771   3.669
 8900SOL    HW227600   6.590   1.728   3.570
 8901SOL     OW27601   1.031   6.976   2.275
 8901SOL    HW127602   0.991   0.042   2.313
 8901SOL    HW227603   0.958   6.916   2.242
 8902SOL     OW27604   3.901   6.395   5.948
 8902SOL    HW127605   3.976   6.429   5.891
 8902SOL    HW227606   3.829   6.465   5.954
 8903SOL     OW27607   6.803   1.172   3.080
 8903SOL    HW127608   6.842   1.186   2.989
 8903SOL    HW227609   6.831   1.248   3.139
 8904SOL     OW27610   2.163   3.805   3.747
 8904SOL    HW127611   2.198   3.882   3.694
 8904SOL    HW227612   2.065   3.818   3.765
 8905SOL     OW27613   2.186   4.584   4.869
 8905SOL    HW127614   2.267   4.534   4.840
 8905SOL    HW227615   2.128   4.524   4.925
 8906SOL     OW27616   1.635   5.041   4.046
 8906SOL    HW127617   1.710   5.051   4.111
 8906SOL    HW227618   1.589   4.953   4.061
 8907SOL     OW27619   3.757   2.963   6.559
 8907SOL    HW127620   3.663   2.997   6.553
 8907SOL    HW227621   3.768   2.912   6.644
 8908SOL     OW27622   0.446   3.433   2.781
 8908SOL    HW127623   0.542   3.410   2.765
 8908SOL    HW227624   0.436   3.532   2.789
 8909SOL     OW27625   3.410   6.643   4.826
 8909SOL    HW127626   3.477   6.627   4.898
 8909SOL    HW227627   3.368   6.732   4.838
 8910SOL     OW27628   4.683   2.569   6.935
 8910SOL    HW127629   4.665   2.470   6.935
 8910SOL    HW227630   4.608   2.616   6.981
 8911SOL     OW27631   5.300   3.472   4.522
 8911SOL    HW127632   5.394   3.465   4.555
 8911SOL    HW227633   5.250   3.538   4.577
 8912SOL     OW27634   3.965   0.904   0.441
 8912SOL    HW127635   3.890   0.893   0.507
 8912SOL    HW227636   3.983   0.816   0.397
 8913SOL     OW27637   4.165   3.949   1.325
 8913SOL    HW127638   4.173   4.042   1.362
 8913SOL    HW227639   4.246   3.896   1.351
 8914SOL     OW27640   5.518   3.647   3.368
 8914SOL    HW127641   5.560   3.583   3.303
 8914SOL    HW227642   5.422   3.622   3.381
 8915SOL     OW27643   1.076   5.571   1.796
 8915SOL    HW127644   1.075   5.663   1.835
 8915SOL    HW227645   0.989   5.526   1.815
 8916SOL     OW27646   5.525   3.097   1.390
 8916SOL    HW127647   5.481   3.038   1.457
 8916SOL    HW227648   5.468   3.103   1.308
 8917SOL     OW27649   5.951   4.140   5.993
 8917SOL    HW127650   5.865   4.092   5.979
 8917SOL    HW227651   6.014   4.082   6.045
 8918SOL     OW27652   4.945   4.232   5.824
 8918SOL    HW127653   4.916   4.148   5.778
 8918SOL    HW227654   4.944   4.307   5.758
 8919SOL     OW27655   1.715   3.175   1.250
 8919SOL    HW127656   1.686   3.269   1.269
 8919SOL    HW227657   1.657   3.112   1.301
 8920SOL     OW27658   6.109   6.241   5.764
 8920SOL    HW127659   6.134   6.144   5.757
 8920SOL    HW227660   6.083   6.262   5.858
 8921SOL     OW27661   0.706   5.286   3.478
 8921SOL    HW127662   0.745   5.200   3.510
 8921SOL    HW227663   0.776   5.337   3.427
 8922SOL     OW27664   0.413   2.598   0.105
 8922SOL    HW127665   0.511   2.614   0.106
 8922SOL    HW227666   0.394   2.507   0.141
 8923SOL     OW27667   2.091   4.672   3.904
 8923SOL    HW127668   2.001   4.677   3.949
 8923SOL    HW227669   2.155   4.731   3.951
 8924SOL     OW27670   2.180   6.397   4.583
 8924SOL    HW127671   2.236   6.339   4.641
 8924SOL    HW227672   2.083   6.379   4.601
 8925SOL     OW27673   4.589   5.409   1.004
 8925SOL    HW127674   4.678   5.364   1.018
 8925SOL    HW227675   4.578   5.483   1.069
 8926SOL     OW27676   5.597   6.584   0.497
 8926SOL    HW127677   5.589   6.616   0.403
 8926SOL    HW227678   5.512   6.541   0.525
 8927SOL     OW27679   3.127   1.955   4.861
 8927SOL    HW127680   3.051   1.928   4.801
 8927SOL    HW227681   3.093   2.015   4.933
 8928SOL     OW27682   1.919   0.359   5.193
 8928SOL    HW127683   1.911   0.369   5.292
 8928SOL    HW227684   2.015   0.359   5.167
 8929SOL     OW27685   4.979   4.661   2.931
 8929SOL    HW127686   4.997   4.583   2.991
 8929SOL    HW227687   5.055   4.672   2.867
 8930SOL     OW27688   0.443   5.649   5.425
 8930SOL    HW127689   0.508   5.697   5.366
 8930SOL    HW227690   0.441   5.552   5.401
 8931SOL     OW27691   4.993   0.854   1.807
 8931SOL    HW127692   5.005   0.933   1.867
 8931SOL    HW227693   4.923   0.874   1.739
 8932SOL     OW27694   4.153   0.884   6.718
 8932SOL    HW127695   4.129   0.975   6.686
 8932SOL    HW227696   4.076   0.822   6.702
 8933SOL     OW27697   1.888   0.075   6.048
 8933SOL    HW127698   1.805   0.122   6.022
 8933SOL    HW227699   1.890   0.064   6.148
 8934SOL     OW27700   2.827   6.393   3.844
 8934SOL    HW127701   2.760   6.454   3.801
 8934SOL    HW227702   2.851   6.320   3.781
 8935SOL     OW27703   5.642   1.897   2.283
 8935SOL    HW127704   5.598   1.966   2.340
 8935SOL    HW227705   5.586   1.815   2.280
 8936SOL     OW27706   0.780   4.030   2.257
 8936SOL    HW127707   0.706   4.034   2.189
 8936SOL    HW227708   0.816   3.937   2.261
 8937SOL     OW27709   3.736   6.139   5.276
 8937SOL    HW127710   3.647   6.149   5.322
 8937SOL    HW227711   3.743   6.048   5.236
 8938SOL     OW27712   4.747   6.463   2.488
 8938SOL    HW127713   4.654   6.498   2.481
 8938SOL    HW227714   4.788   6.495   2.574
 8939SOL     OW27715   6.657   2.776   5.597
 8939SOL    HW127716   6.582   2.842   5.584
 8939SOL    HW227717   6.622   2.683   5.583
 8940SOL     OW27718   6.207   3.691   2.939
 8940SOL    HW127719   6.226   3.749   3.018
 8940SOL    HW227720   6.210   3.747   2.856
 8941SOL     OW27721   5.623   2.534   3.665
 8941SOL    HW127722   5.671   2.606   3.618
 8941SOL    HW227723   5.626   2.450   3.611
 8942SOL     OW27724   5.195   6.003   4.431
 8942SOL    HW127725   5.226   6.098   4.424
 8942SOL    HW227726   5.106   5.994   4.385
 8943SOL     OW27727   4.608   3.408   0.331
 8943SOL    HW127728   4.511   3.384   0.332
 8943SOL    HW227729   4.630   3.460   0.414
 8944SOL     OW27730   4.671   5.817   5.670
 8944SOL    HW127731   4.696   5.910   5.642
 8944SOL    HW227732   4.600   5.782   5.609
 8945SOL     OW27733   6.681   4.263   2.210
 8945SOL    HW127734   6.727   4.175   2.198
 8945SOL    HW227735   6.708   4.303   2.297
 8946SOL     OW27736   3.812   2.165   3.650
 8946SOL    HW127737   3.855   2.199   3.567
 8946SOL    HW227738   3.716   2.145   3.633
 8947SOL     OW27739   3.139   5.352   0.827
 8947SOL    HW127740   3.097   5.277   0.777
 8947SOL    HW227741   3.226   5.321   0.866
 8948SOL     OW27742   6.235   6.994   3.068
 8948SOL    HW127743   6.298   0.054   3.069
 8948SOL    HW227744   6.157   7.015   3.008
 8949SOL     OW27745   4.068   6.409   1.109
 8949SOL    HW127746   4.053   6.325   1.057
 8949SOL    HW227747   4.152   6.453   1.080
 8950SOL     OW27748   3.330   3.600   3.939
 8950SOL    HW127749   3.287   3.687   3.915
 8950SOL    HW227750   3.416   3.590   3.888
 8951SOL     OW27751   1.083   1.068   3.692
 8951SOL    HW127752   1.124   1.067   3.783
 8951SOL    HW227753   1.012   0.997   3.687
 8952SOL     OW27754   1.516   4.020   4.324
 8952SOL    HW127755   1.607   4.044   4.357
 8952SOL    HW227756   1.506   4.050   4.229
 8953SOL     OW27757   1.722   5.767   0.389
 8953SOL    HW127758   1.710   5.811   0.478
 8953SOL    HW227759   1.667   5.683   0.386
 8954SOL     OW27760   2.270   4.162   5.540
 8954SOL    HW127761   2.216   4.244   5.527
 8954SOL    HW227762   2.362   4.176   5.502
 8955SOL     OW27763   6.244   2.293   6.037
 8955SOL    HW127764   6.267   2.241   5.954
 8955SOL    HW227765   6.225   2.229   6.112
 8956SOL     OW27766   0.931   6.481   1.153
 8956SOL    HW127767   1.027   6.453   1.149
 8956SOL    HW227768   0.910   6.540   1.076
 8957SOL     OW27769   0.652   0.311   4.015
 8957SOL    HW127770   0.559   0.284   4.038
 8957SOL    HW227771   0.708   0.310   4.098
 8958SOL     OW27772   6.957   2.886   4.517
 8958SOL    HW127773   6.900   2.885   4.599
 8958SOL    HW227774   7.007   2.972   4.512
 8959SOL     OW27775   5.483   1.373   3.648
 8959SOL    HW127776   5.393   1.396   3.687
 8959SOL    HW227777   5.502   1.433   3.570
 8960SOL     OW27778   3.769   6.127   1.816
 8960SOL    HW127779   3.743   6.175   1.732
 8960SOL    HW227780   3.718   6.164   1.893
 8961SOL     OW27781   2.483   2.566   5.341
 8961SOL    HW127782   2.438   2.504   5.406
 8961SOL    HW227783   2.476   2.529   5.249
 8962SOL     OW27784   6.662   6.061   0.817
 8962SOL    HW127785   6.729   6.130   0.791
 8962SOL    HW227786   6.705   5.970   0.815
 8963SOL     OW27787   2.312   5.146   5.913
 8963SOL    HW127788   2.325   5.126   5.815
 8963SOL    HW227789   2.400   5.140   5.959
 8964SOL     OW27790   0.986   3.537   3.910
 8964SOL    HW127791   1.084   3.537   3.888
 8964SOL    HW227792   0.957   3.630   3.932
 8965SOL     OW27793   3.334   6.251   6.664
 8965SOL    HW127794   3.404   6.253   6.593
 8965SOL    HW227795   3.370   6.294   6.747
 8966SOL     OW27796   5.209   6.498   5.282
 8966SOL    HW127797   5.266   6.577   5.262
 8966SOL    HW227798   5.262   6.431   5.335
 8967SOL     OW27799   1.693   0.301   3.093
 8967SOL    HW127800   1.776   0.285   3.147
 8967SOL    HW227801   1.716   0.293   2.995
 8968SOL     OW27802   2.612   5.606   2.439
 8968SOL    HW127803   2.706   5.624   2.411
 8968SOL    HW227804   2.608   5.520   2.489
 8969SOL     OW27805   6.744   1.178   1.273
 8969SOL    HW127806   6.743   1.189   1.372
 8969SOL    HW227807   6.665   1.124   1.245
 8970SOL     OW27808   2.575   2.363   4.789
 8970SOL    HW127809   2.625   2.419   4.855
 8970SOL    HW227810   2.539   2.421   4.716
 8971SOL     OW27811   3.107   5.876   1.120
 8971SOL    HW127812   3.020   5.914   1.089
 8971SOL    HW227813   3.094   5.830   1.207
 8972SOL     OW27814   6.591   3.565   6.106
 8972SOL    HW127815   6.614   3.620   6.186
 8972SOL    HW227816   6.622   3.471   6.120
 8973SOL     OW27817   2.663   1.856   3.362
 8973SOL    HW127818   2.722   1.826   3.287
 8973SOL    HW227819   2.597   1.784   3.383
 8974SOL     OW27820   0.833   4.831   5.836
 8974SOL    HW127821   0.884   4.891   5.774
 8974SOL    HW227822   0.739   4.864   5.843
 8975SOL     OW27823   1.011   3.756   6.218
 8975SOL    HW127824   1.002   3.850   6.184
 8975SOL    HW227825   1.072   3.705   6.159
 8976SOL     OW27826   5.541   6.850   1.727
 8976SOL    HW127827   5.455   6.824   1.682
 8976SOL    HW227828   5.568   6.779   1.791
 8977SOL     OW27829   0.501   5.388   6.030
 8977SOL    HW127830   0.503   5.361   6.126
 8977SOL    HW227831   0.582   5.442   6.009
 8978SOL     OW27832   6.818   5.059   4.730
 8978SOL    HW127833   6.719   5.069   4.741
 8978SOL    HW227834   6.853   5.002   4.805
 8979SOL     OW27835   1.659   4.465   2.924
 8979SOL    HW127836   1.603   4.418   2.856
 8979SOL    HW227837   1.657   4.415   3.010
 8980SOL     OW27838   4.787   0.854   0.402
 8980SOL    HW127839   4.855   0.891   0.339
 8980SOL    HW227840   4.828   0.782   0.458
 8981SOL     OW27841   4.176   2.257   6.991
 8981SOL    HW127842   4.224   2.344   6.990
 8981SOL    HW227843   4.187   2.211   6.903
 8982SOL     OW27844   0.643   0.508   3.503
 8982SOL    HW127845   0.557   0.463   3.529
 8982SOL    HW227846   0.699   0.522   3.585
 8983SOL     OW27847   1.414   6.381   2.032
 8983SOL    HW127848   1.512   6.400   2.030
 8983SOL    HW227849   1.395   6.294   1.986
 8984SOL     OW27850   5.911   0.998   3.791
 8984SOL    HW127851   5.913   1.023   3.888
 8984SOL    HW227852   5.950   0.907   3.778
 8985SOL     OW27853   4.939   1.033   0.608
 8985SOL    HW127854   4.901   0.995   0.523
 8985SOL    HW227855   4.993   1.114   0.586
 8986SOL     OW27856   0.999   0.070   6.077
 8986SOL    HW127857   1.037   7.012   6.025
 8986SOL    HW227858   1.070   0.111   6.135
 8987SOL     OW27859   3.134   6.687   2.964
 8987SOL    HW127860   3.106   6.637   2.882
 8987SOL    HW227861   3.231   6.672   2.981
 8988SOL     OW27862   2.239   6.808   0.886
 8988SOL    HW127863   2.328   6.798   0.840
 8988SOL    HW227864   2.246   6.881   0.955
 8989SOL     OW27865   6.470   1.686   2.579
 8989SOL    HW127866   6.475   1.625   2.500
 8989SOL    HW227867   6.481   1.781   2.549
 8990SOL     OW27868   3.837   1.831   3.080
 8990SOL    HW127869   3.742   1.819   3.109
 8990SOL    HW227870   3.886   1.885   3.148
 8991SOL     OW27871   1.806   1.732   0.874
 8991SOL    HW127872   1.846   1.664   0.812
 8991SOL    HW227873   1.846   1.822   0.856
 8992SOL     OW27874   0.982   5.421   5.416
 8992SOL    HW127875   0.933   5.506   5.435
 8992SOL    HW227876   0.985   5.365   5.499
 8993SOL     OW27877   5.355   4.472   3.676
 8993SOL    HW127878   5.341   4.570   3.691
 8993SOL    HW227879   5.421   4.459   3.602
 8994SOL     OW27880   1.198   6.459   2.406
 8994SOL    HW127881   1.177   6.521   2.481
 8994SOL    HW227882   1.125   6.465   2.337
 8995SOL     OW27883   1.700   4.408   3.481
 8995SOL    HW127884   1.726   4.313   3.463
 8995SOL    HW227885   1.646   4.412   3.565
 8996SOL     OW27886   2.777   3.852   1.646
 8996SOL    HW127887   2.846   3.920   1.672
 8996SOL    HW227888   2.779   3.777   1.712
 8997SOL     OW27889   4.036   1.328   4.411
 8997SOL    HW127890   4.088   1.306   4.493
 8997SOL    HW227891   3.953   1.377   4.437
 8998SOL     OW27892   1.189   1.220   6.433
 8998SOL    HW127893   1.132   1.137   6.439
 8998SOL    HW227894   1.267   1.203   6.373
 8999SOL     OW27895   6.223   2.821   5.238
 8999SOL    HW127896   6.313   2.780   5.229
 8999SOL    HW227897   6.227   2.917   5.208
 9000SOL     OW27898   4.298   5.071   1.391
 9000SOL    HW127899   4.294   5.002   1.319
 9000SOL    HW227900   4.385   5.119   1.386
 9001SOL     OW27901   0.661   3.306   4.231
 9001SOL    HW127902   0.751   3.283   4.194
 9001SOL    HW227903   0.613   3.367   4.168
 9002SOL     OW27904   4.892   2.742   6.108
 9002SOL    HW127905   4.793   2.734   6.098
 9002SOL    HW227906   4.926   2.666   6.163
 9003SOL     OW27907   0.447   3.934   0.158
 9003SOL    HW127908   0.438   3.918   0.257
 9003SOL    HW227909   0.463   4.032   0.142
 9004SOL     OW27910   5.237   5.661   0.133
 9004SOL    HW127911   5.234   5.704   0.043
 9004SOL    HW227912   5.316   5.695   0.184
 9005SOL     OW27913   4.601   4.395   3.867
 9005SOL    HW127914   4.514   4.410   3.821
 9005SOL    HW227915   4.589   4.330   3.942
 9006SOL     OW27916   3.420   6.144   2.418
 9006SOL    HW127917   3.384   6.077   2.483
 9006SOL    HW227918   3.486   6.203   2.464
 9007SOL     OW27919   2.082   6.989   5.679
 9007SOL    HW127920   2.080   6.940   5.592
 9007SOL    HW227921   2.003   0.034   5.683
 9008SOL     OW27922   0.340   4.714   1.389
 9008SOL    HW127923   0.287   4.677   1.466
 9008SOL    HW227924   0.284   4.713   1.306
 9009SOL     OW27925   3.884   6.900   7.016
 9009SOL    HW127926   3.938   6.826   0.038
 9009SOL    HW227927   3.795   6.865   6.988
 9010SOL     OW27928   6.931   6.247   4.955
 9010SOL    HW127929   6.983   6.171   4.917
 9010SOL    HW227930   6.892   6.219   5.043
 9011SOL     OW27931   4.703   2.594   2.431
 9011SOL    HW127932   4.607   2.585   2.404
 9011SOL    HW227933   4.761   2.577   2.351
 9012SOL     OW27934   3.838   5.041   2.320
 9012SOL    HW127935   3.827   5.039   2.221
 9012SOL    HW227936   3.777   4.974   2.361
 9013SOL     OW27937   3.609   6.636   1.211
 9013SOL    HW127938   3.604   6.642   1.111
 9013SOL    HW227939   3.543   6.699   1.251
 9014SOL     OW27940   2.090   1.544   1.885
 9014SOL    HW127941   2.037   1.557   1.968
 9014SOL    HW227942   2.106   1.632   1.841
 9015SOL     OW27943   6.047   2.131   4.477
 9015SOL    HW127944   6.071   2.206   4.539
 9015SOL    HW227945   6.035   2.167   4.384
 9016SOL     OW27946   0.367   4.647   6.479
 9016SOL    HW127947   0.355   4.725   6.541
 9016SOL    HW227948   0.441   4.667   6.415
 9017SOL     OW27949   6.057   2.510   2.532
 9017SOL    HW127950   6.134   2.557   2.489
 9017SOL    HW227951   5.993   2.578   2.568
 9018SOL     OW27952   5.342   1.992   6.925
 9018SOL    HW127953   5.281   1.923   6.963
 9018SOL    HW227954   5.303   2.029   6.841
 9019SOL     OW27955   1.851   6.031   0.345
 9019SOL    HW127956   1.946   5.999   0.353
 9019SOL    HW227957   1.794   5.958   0.307
 9020SOL     OW27958   0.632   5.199   4.606
 9020SOL    HW127959   0.538   5.167   4.616
 9020SOL    HW227960   0.663   5.239   4.692
 9021SOL     OW27961   6.874   5.342   4.761
 9021SOL    HW127962   6.844   5.249   4.784
 9021SOL    HW227963   6.857   5.359   4.664
 9022SOL     OW27964   0.898   6.983   5.829
 9022SOL    HW127965   0.838   0.032   5.874
 9022SOL    HW227966   0.941   6.925   5.897
 9023SOL     OW27967   3.805   4.052   4.051
 9023SOL    HW127968   3.771   4.073   3.959
 9023SOL    HW227969   3.895   4.009   4.044
 9024SOL     OW27970   1.677   7.010   0.431
 9024SOL    HW127971   1.581   0.019   0.421
 9024SOL    HW227972   1.684   6.911   0.439
 9025SOL     OW27973   0.376   2.618   0.843
 9025SOL    HW127974   0.305   2.566   0.893
 9025SOL    HW227975   0.387   2.708   0.885
 9026SOL     OW27976   2.605   4.373   5.729
 9026SOL    HW127977   2.522   4.348   5.779
 9026SOL    HW227978   2.650   4.290   5.696
 9027SOL     OW27979   0.795   3.286   2.057
 9027SOL    HW127980   0.809   3.259   2.152
 9027SOL    HW227981   0.698   3.306   2.041
 9028SOL     OW27982   1.604   4.361   4.838
 9028SOL    HW127983   1.511   4.336   4.812
 9028SOL    HW227984   1.602   4.434   4.906
 9029SOL     OW27985   5.301   5.284   2.939
 9029SOL    HW127986   5.274   5.345   3.014
 9029SOL    HW227987   5.270   5.191   2.958
 9030SOL     OW27988   4.967   2.608   2.748
 9030SOL    HW127989   4.974   2.623   2.847
 9030SOL    HW227990   4.879   2.643   2.715
 9031SOL     OW27991   2.982   0.920   2.479
 9031SOL    HW127992   2.957   1.015   2.494
 9031SOL    HW227993   2.985   0.872   2.567
 9032SOL     OW27994   0.132   3.840   2.688
 9032SOL    HW127995   0.199   3.769   2.709
 9032SOL    HW227996   0.168   3.900   2.616
 9033SOL     OW27997   0.824   2.777   2.271
 9033SOL    HW127998   0.879   2.824   2.341
 9033SOL    HW227999   0.870   2.783   2.183
 9034SOL     OW28000   0.920   6.612   0.403
 9034SOL    HW128001   0.848   6.628   0.470
 9034SOL    HW228002   0.970   6.697   0.386
 9035SOL     OW28003   6.033   1.483   4.558
 9035SOL    HW128004   6.009   1.391   4.526
 9035SOL    HW228005   5.998   1.551   4.494
 9036SOL     OW28006   0.369   1.303   4.614
 9036SOL    HW128007   0.403   1.372   4.549
 9036SOL    HW228008   0.302   1.345   4.675
 9037SOL     OW28009   2.430   4.468   6.375
 9037SOL    HW128010   2.447   4.374   6.348
 9037SOL    HW228011   2.386   4.470   6.465
 9038SOL     OW28012   3.920   5.909   5.712
 9038SOL    HW128013   3.840   5.856   5.741
 9038SOL    HW228014   3.957   5.870   5.627
 9039SOL     OW28015   2.764   5.074   0.279
 9039SOL    HW128016   2.798   5.037   0.193
 9039SOL    HW228017   2.735   4.999   0.339
 9040SOL     OW28018   3.468   1.662   2.464
 9040SOL    HW128019   3.556   1.661   2.510
 9040SOL    HW228020   3.405   1.723   2.513
 9041SOL     OW28021   2.399   2.494   5.090
 9041SOL    HW128022   2.391   2.574   5.030
 9041SOL    HW228023   2.341   2.420   5.055
 9042SOL     OW28024   1.713   4.999   2.442
 9042SOL    HW128025   1.616   5.020   2.429
 9042SOL    HW228026   1.767   5.045   2.372
 9043SOL     OW28027   6.998   1.830   6.944
 9043SOL    HW128028   6.978   1.764   7.016
 9043SOL    HW228029   6.977   1.923   6.976
 9044SOL     OW28030   0.973   4.066   0.661
 9044SOL    HW128031   0.919   3.999   0.712
 9044SOL    HW228032   0.940   4.071   0.567
 9045SOL     OW28033   2.006   4.716   5.096
 9045SOL    HW128034   2.059   4.762   5.168
 9045SOL    HW228035   2.070   4.676   5.029
 9046SOL     OW28036   3.911   4.244   5.918
 9046SOL    HW128037   3.872   4.320   5.970
 9046SOL    HW228038   3.980   4.198   5.974
 9047SOL     OW28039   0.839   4.795   4.320
 9047SOL    HW128040   0.866   4.869   4.259
 9047SOL    HW228041   0.776   4.830   4.389
 9048SOL     OW28042   1.367   2.359   5.359
 9048SOL    HW128043   1.349   2.397   5.268
 9048SOL    HW228044   1.334   2.422   5.429
 9049SOL     OW28045   4.402   6.006   5.436
 9049SOL    HW128046   4.320   6.057   5.459
 9049SOL    HW228047   4.452   6.054   5.363
 9050SOL     OW28048   0.155   3.864   6.882
 9050SOL    HW128049   0.127   3.917   6.802
 9050SOL    HW228050   0.168   3.926   6.960
 9051SOL     OW28051   0.289   5.736   6.310
 9051SOL    HW128052   0.205   5.765   6.264
 9051SOL    HW228053   0.367   5.780   6.267
 9052SOL     OW28054   2.354   4.868   4.618
 9052SOL    HW128055   2.368   4.864   4.717
 9052SOL    HW228056   2.397   4.950   4.582
 9053SOL     OW28057   1.295   0.087   2.503
 9053SOL    HW128058   1.211   0.121   2.545
 9053SOL    HW228059   1.294   7.005   2.502
 9054SOL     OW28060   1.261   0.010   2.120
 9054SOL    HW128061   1.249   0.080   2.049
 9054SOL    HW228062   1.177   0.002   2.173
 9055SOL     OW28063   1.428   2.710   5.171
 9055SOL    HW128064   1.454   2.744   5.081
 9055SOL    HW228065   1.508   2.668   5.215
 9056SOL     OW28066   5.216   2.432   1.552
 9056SOL    HW128067   5.124   2.406   1.580
 9056SOL    HW228068   5.211   2.494   1.473
 9057SOL     OW28069   3.458   6.501   5.886
 9057SOL    HW128070   3.419   6.563   5.818
 9057SOL    HW228071   3.457   6.545   5.976
 9058SOL     OW28072   2.122   3.103   4.039
 9058SOL    HW128073   2.162   3.077   3.951
 9058SOL    HW228074   2.132   3.027   4.103
 9059SOL     OW28075   0.347   0.524   2.599
 9059SOL    HW128076   0.399   0.561   2.676
 9059SOL    HW228077   0.256   0.496   2.630
 9060SOL     OW28078   0.200   5.176   6.922
 9060SOL    HW128079   0.113   5.219   6.948
 9060SOL    HW228080   0.185   5.078   6.910
 9061SOL     OW28081   3.656   4.866   2.429
 9061SOL    HW128082   3.670   4.776   2.472
 9061SOL    HW228083   3.603   4.854   2.345
 9062SOL     OW28084   0.183   6.168   2.913
 9062SOL    HW128085   0.274   6.206   2.897
 9062SOL    HW228086   0.129   6.175   2.829
 9063SOL     OW28087   6.276   6.407   1.098
 9063SOL    HW128088   6.232   6.354   1.171
 9063SOL    HW228089   6.221   6.488   1.079
 9064SOL     OW28090   1.202   5.811   2.844
 9064SOL    HW128091   1.194   5.909   2.823
 9064SOL    HW228092   1.253   5.799   2.929
 9065SOL     OW28093   3.393   4.193   6.766
 9065SOL    HW128094   3.452   4.180   6.845
 9065SOL    HW228095   3.408   4.285   6.727
 9066SOL     OW28096   5.448   5.156   3.312
 9066SOL    HW128097   5.513   5.175   3.238
 9066SOL    HW228098   5.355   5.154   3.275
 9067SOL     OW28099   1.884   0.162   3.951
 9067SOL    HW128100   1.937   0.077   3.949
 9067SOL    HW228101   1.829   0.169   3.868
 9068SOL     OW28102   5.269   0.606   5.363
 9068SOL    HW128103   5.243   0.701   5.350
 9068SOL    HW228104   5.200   0.546   5.321
 9069SOL     OW28105   4.663   2.257   1.748
 9069SOL    HW128106   4.577   2.207   1.745
 9069SOL    HW228107   4.669   2.317   1.669
 9070SOL     OW28108   0.963   0.787   6.755
 9070SOL    HW128109   0.920   0.721   6.817
 9070SOL    HW228110   0.901   0.864   6.742
 9071SOL     OW28111   5.995   2.976   0.296
 9071SOL    HW128112   5.979   2.894   0.241
 9071SOL    HW228113   5.932   2.976   0.374
 9072SOL     OW28114   6.231   1.026   1.614
 9072SOL    HW128115   6.179   1.027   1.529
 9072SOL    HW228116   6.197   0.953   1.673
 9073SOL     OW28117   5.105   2.326   6.084
 9073SOL    HW128118   5.031   2.287   6.028
 9073SOL    HW228119   5.160   2.253   6.123
 9074SOL     OW28120   1.971   0.623   3.475
 9074SOL    HW128121   1.900   0.685   3.441
 9074SOL    HW228122   1.960   0.533   3.433
 9075SOL     OW28123   5.106   5.613   1.102
 9075SOL    HW128124   5.007   5.614   1.094
 9075SOL    HW228125   5.133   5.573   1.189
 9076SOL     OW28126   0.778   6.492   2.656
 9076SOL    HW128127   0.752   6.471   2.562
 9076SOL    HW228128   0.834   6.418   2.693
 9077SOL     OW28129   6.514   0.937   6.505
 9077SOL    HW128130   6.612   0.922   6.492
 9077SOL    HW228131   6.498   0.987   6.590
 9078SOL     OW28132   5.269   6.860   6.343
 9078SOL    HW128133   5.306   6.952   6.360
 9078SOL    HW228134   5.296   6.829   6.252
 9079SOL     OW28135   2.254   1.978   6.443
 9079SOL    HW128136   2.300   1.954   6.357
 9079SOL    HW228137   2.207   1.898   6.479
 9080SOL     OW28138   6.713   5.026   0.642
 9080SOL    HW128139   6.617   5.041   0.617
 9080SOL    HW228140   6.730   4.928   0.648
 9081SOL     OW28141   4.653   1.189   6.735
 9081SOL    HW128142   4.716   1.125   6.778
 9081SOL    HW228143   4.627   1.260   6.800
 9082SOL     OW28144   3.112   4.480   6.655
 9082SOL    HW128145   3.096   4.562   6.599
 9082SOL    HW228146   3.185   4.425   6.614
 9083SOL     OW28147   3.599   0.585   1.164
 9083SOL    HW128148   3.654   0.501   1.162
 9083SOL    HW228149   3.554   0.598   1.076
 9084SOL     OW28150   6.750   4.712   4.587
 9084SOL    HW128151   6.804   4.795   4.595
 9084SOL    HW228152   6.768   4.652   4.666
 9085SOL     OW28153   3.167   4.792   1.696
 9085SOL    HW128154   3.232   4.717   1.694
 9085SOL    HW228155   3.118   4.796   1.608
 9086SOL     OW28156   6.988   1.509   0.410
 9086SOL    HW128157   6.956   1.525   0.503
 9086SOL    HW228158   0.024   1.588   0.379
 9087SOL     OW28159   4.988   1.370   0.318
 9087SOL    HW128160   4.901   1.380   0.271
 9087SOL    HW228161   5.050   1.444   0.291
 9088SOL     OW28162   5.189   6.632   0.652
 9088SOL    HW128163   5.262   6.570   0.623
 9088SOL    HW228164   5.219   6.682   0.734
 9089SOL     OW28165   5.051   5.913   2.914
 9089SOL    HW128166   5.049   5.900   2.815
 9089SOL    HW228167   5.146   5.917   2.945
 9090SOL     OW28168   6.384   5.054   5.084
 9090SOL    HW128169   6.400   5.043   5.182
 9090SOL    HW228170   6.345   5.144   5.066
 9091SOL     OW28171   1.900   2.241   1.697
 9091SOL    HW128172   1.970   2.240   1.626
 9091SOL    HW228173   1.912   2.322   1.755
 9092SOL     OW28174   3.090   1.752   5.419
 9092SOL    HW128175   3.108   1.665   5.372
 9092SOL    HW228176   3.015   1.799   5.373
 9093SOL     OW28177   1.966   3.832   0.635
 9093SOL    HW128178   2.044   3.771   0.653
 9093SOL    HW228179   1.882   3.778   0.633
 9094SOL     OW28180   0.074   2.364   6.701
 9094SOL    HW128181   0.146   2.321   6.646
 9094SOL    HW228182   0.109   2.450   6.740
 9095SOL     OW28183   2.553   2.387   0.353
 9095SOL    HW128184   2.589   2.297   0.330
 9095SOL    HW228185   2.475   2.409   0.294
 9096SOL     OW28186   6.758   4.270   2.841
 9096SOL    HW128187   6.658   4.263   2.847
 9096SOL    HW228188   6.799   4.184   2.870
 9097SOL     OW28189   6.812   5.721   5.904
 9097SOL    HW128190   6.781   5.789   5.837
 9097SOL    HW228191   6.877   5.764   5.967
 9098SOL     OW28192   3.515   3.411   5.435
 9098SOL    HW128193   3.473   3.332   5.479
 9098SOL    HW228194   3.529   3.484   5.503
 9099SOL     OW28195   2.035   2.617   6.747
 9099SOL    HW128196   1.969   2.624   6.671
 9099SOL    HW228197   2.112   2.677   6.729
 9100SOL     OW28198   1.595   2.385   0.744
 9100SOL    HW128199   1.656   2.352   0.816
 9100SOL    HW228200   1.637   2.369   0.655
 9101SOL     OW28201   2.744   2.047   0.414
 9101SOL    HW128202   2.780   2.137   0.437
 9101SOL    HW228203   2.674   2.056   0.343
 9102SOL     OW28204   4.447   6.005   2.450
 9102SOL    HW128205   4.535   5.980   2.491
 9102SOL    HW228206   4.415   6.091   2.491
 9103SOL     OW28207   1.486   4.206   6.351
 9103SOL    HW128208   1.422   4.130   6.362
 9103SOL    HW228209   1.566   4.175   6.300
 9104SOL     OW28210   4.420   6.543   3.087
 9104SOL    HW128211   4.346   6.489   3.125
 9104SOL    HW228212   4.499   6.540   3.148
 9105SOL     OW28213   3.399   2.645   6.136
 9105SOL    HW128214   3.398   2.722   6.200
 9105SOL    HW228215   3.424   2.678   6.045
 9106SOL     OW28216   6.679   5.588   1.047
 9106SOL    HW128217   6.632   5.625   1.127
 9106SOL    HW228218   6.752   5.525   1.077
 9107SOL     OW28219   4.368   6.722   6.769
 9107SOL    HW128220   4.413   6.664   6.701
 9107SOL    HW228221   4.413   6.811   6.772
 9108SOL     OW28222   3.519   5.862   0.687
 9108SOL    HW128223   3.427   5.827   0.670
 9108SOL    HW228224   3.579   5.787   0.715
 9109SOL     OW28225   3.128   1.771   4.353
 9109SOL    HW128226   3.084   1.699   4.407
 9109SOL    HW228227   3.129   1.856   4.404
 9110SOL     OW28228   0.287   4.007   3.775
 9110SOL    HW128229   0.293   4.002   3.875
 9110SOL    HW228230   0.223   4.079   3.749
 9111SOL     OW28231   3.659   4.266   1.813
 9111SOL    HW128232   3.662   4.208   1.894
 9111SOL    HW228233   3.694   4.357   1.836
 9112SOL     OW28234   1.018   6.607   2.196
 9112SOL    HW128235   1.044   6.652   2.282
 9112SOL    HW228236   1.089   6.623   2.127
 9113SOL     OW28237   2.366   5.839   0.090
 9113SOL    HW128238   2.442   5.862   0.151
 9113SOL    HW228239   2.294   5.908   0.098
 9114SOL     OW28240   2.751   3.638   1.793
 9114SOL    HW128241   2.813   3.575   1.840
 9114SOL    HW228242   2.659   3.599   1.790
 9115SOL     OW28243   1.407   4.580   4.066
 9115SOL    HW128244   1.479   4.544   4.007
 9115SOL    HW228245   1.326   4.601   4.012
 9116SOL     OW28246   3.837   2.346   6.713
 9116SOL    HW128247   3.841   2.418   6.644
 9116SOL    HW228248   3.749   2.351   6.761
 9117SOL     OW28249   0.830   2.593   6.771
 9117SOL    HW128250   0.735   2.619   6.790
 9117SOL    HW228251   0.872   2.663   6.713
 9118SOL     OW28252   0.879   6.792   1.284
 9118SOL    HW128253   0.785   6.759   1.282
 9118SOL    HW228254   0.939   6.720   1.321
 9119SOL     OW28255   5.738   6.962   1.118
 9119SOL    HW128256   5.688   0.016   1.166
 9119SOL    HW228257   5.700   6.950   1.026
 9120SOL     OW28258   6.062   0.199   0.044
 9120SOL    HW128259   6.081   0.291   0.011
 9120SOL    HW228260   5.964   0.182   0.042
 9121SOL     OW28261   1.559   0.929   6.429
 9121SOL    HW128262   1.506   0.930   6.344
 9121SOL    HW228263   1.581   0.835   6.454
 9122SOL     OW28264   0.442   3.232   1.222
 9122SOL    HW128265   0.426   3.288   1.303
 9122SOL    HW228266   0.499   3.153   1.247
 9123SOL     OW28267   1.368   6.717   6.097
 9123SOL    HW128268   1.435   6.726   6.170
 9123SOL    HW228269   1.277   6.705   6.137
 9124SOL     OW28270   0.095   4.096   4.721
 9124SOL    HW128271   0.031   4.083   4.796
 9124SOL    HW228272   0.079   4.027   4.651
 9125SOL     OW28273   4.927   5.888   1.260
 9125SOL    HW128274   5.026   5.885   1.246
 9125SOL    HW228275   4.904   5.850   1.350
 9126SOL     OW28276   5.783   0.687   3.603
 9126SOL    HW128277   5.717   0.722   3.670
 9126SOL    HW228278   5.791   0.587   3.614
 9127SOL     OW28279   6.197   5.186   5.810
 9127SOL    HW128280   6.185   5.181   5.710
 9127SOL    HW228281   6.294   5.198   5.831
 9128SOL     OW28282   5.090   2.922   5.263
 9128SOL    HW128283   5.068   3.015   5.294
 9128SOL    HW228284   5.188   2.915   5.245
 9129SOL     OW28285   2.830   1.128   0.428
 9129SOL    HW128286   2.882   1.179   0.359
 9129SOL    HW228287   2.733   1.143   0.413
 9130SOL     OW28288   5.641   5.373   0.672
 9130SOL    HW128289   5.585   5.437   0.725
 9130SOL    HW228290   5.590   5.341   0.593
 9131SOL     OW28291   0.705   5.016   3.572
 9131SOL    HW128292   0.751   4.999   3.485
 9131SOL    HW228293   0.715   4.936   3.631
 9132SOL     OW28294   1.384   2.817   4.160
 9132SOL    HW128295   1.344   2.879   4.227
 9132SOL    HW228296   1.435   2.745   4.208
 9133SOL     OW28297   1.275   5.103   0.865
 9133SOL    HW128298   1.210   5.060   0.929
 9133SOL    HW228299   1.300   5.194   0.899
 9134SOL     OW28300   2.949   4.760   6.172
 9134SOL    HW128301   2.932   4.854   6.199
 9134SOL    HW228302   2.864   4.707   6.180
 9135SOL     OW28303   0.828   6.600   3.141
 9135SOL    HW128304   0.879   6.556   3.068
 9135SOL    HW228305   0.890   6.655   3.197
 9136SOL     OW28306   3.785   4.992   5.059
 9136SOL    HW128307   3.847   5.014   5.135
 9136SOL    HW228308   3.696   4.965   5.096
 9137SOL     OW28309   3.596   0.130   2.819
 9137SOL    HW128310   3.502   0.099   2.830
 9137SOL    HW228311   3.617   0.197   2.890
 9138SOL     OW28312   3.414   4.550   0.975
 9138SOL    HW128313   3.357   4.544   1.057
 9138SOL    HW228314   3.355   4.553   0.893
 9139SOL     OW28315   3.886   0.309   5.435
 9139SOL    HW128316   3.816   0.240   5.455
 9139SOL    HW228317   3.887   0.328   5.337
 9140SOL     OW28318   6.491   2.212   3.497
 9140SOL    HW128319   6.511   2.258   3.583
 9140SOL    HW228320   6.416   2.260   3.450
 9141SOL     OW28321   5.178   1.118   5.546
 9141SOL    HW128322   5.211   1.024   5.549
 9141SOL    HW228323   5.078   1.119   5.549
 9142SOL     OW28324   2.052   3.234   6.947
 9142SOL    HW128325   2.106   3.279   6.875
 9142SOL    HW228326   1.956   3.261   6.937
 9143SOL     OW28327   6.259   4.283   0.444
 9143SOL    HW128328   6.301   4.335   0.518
 9143SOL    HW228329   6.296   4.312   0.357
 9144SOL     OW28330   1.341   5.690   4.203
 9144SOL    HW128331   1.301   5.598   4.197
 9144SOL    HW228332   1.269   5.758   4.193
 9145SOL     OW28333   1.753   3.289   6.897
 9145SOL    HW128334   1.773   3.222   6.825
 9145SOL    HW228335   1.745   3.242   6.985
 9146SOL     OW28336   0.934   1.828   1.807
 9146SOL    HW128337   0.925   1.763   1.882
 9146SOL    HW228338   1.030   1.836   1.781
 9147SOL     OW28339   3.977   5.276   6.341
 9147SOL    HW128340   4.059   5.285   6.398
 9147SOL    HW228341   3.924   5.196   6.371
 9148SOL     OW28342   3.471   4.899   2.880
 9148SOL    HW128343   3.568   4.904   2.858
 9148SOL    HW228344   3.421   4.859   2.803
 9149SOL     OW28345   6.064   3.207   5.323
 9149SOL    HW128346   6.157   3.241   5.332
 9149SOL    HW228347   6.060   3.137   5.251
 9150SOL     OW28348   3.873   1.449   2.829
 9150SOL    HW128349   3.922   1.460   2.916
 9150SOL    HW228350   3.893   1.527   2.770
 9151SOL     OW28351   6.112   2.975   2.243
 9151SOL    HW128352   6.044   3.045   2.218
 9151SOL    HW228353   6.073   2.884   2.228
 9152SOL     OW28354   2.150   4.897   2.599
 9152SOL    HW128355   2.058   4.865   2.623
 9152SOL    HW228356   2.150   4.997   2.596
 9153SOL     OW28357   2.119   2.659   0.326
 9153SOL    HW128358   2.149   2.716   0.403
 9153SOL    HW228359   2.126   2.712   0.241
 9154SOL     OW28360   1.101   5.192   0.379
 9154SOL    HW128361   1.037   5.268   0.387
 9154SOL    HW228362   1.107   5.163   0.283
 9155SOL     OW28363   1.685   5.051   0.133
 9155SOL    HW128364   1.756   5.119   0.151
 9155SOL    HW228365   1.727   4.961   0.125
 9156SOL     OW28366   4.918   2.608   1.518
 9156SOL    HW128367   4.973   2.665   1.578
 9156SOL    HW228368   4.849   2.664   1.472
 9157SOL     OW28369   5.849   3.733   5.228
 9157SOL    HW128370   5.912   3.805   5.258
 9157SOL    HW228371   5.790   3.768   5.155
 9158SOL     OW28372   0.940   4.235   3.545
 9158SOL    HW128373   0.869   4.173   3.512
 9158SOL    HW228374   1.018   4.232   3.484
 9159SOL     OW28375   0.251   5.529   1.660
 9159SOL    HW128376   0.253   5.540   1.560
 9159SOL    HW228377   0.343   5.506   1.692
 9160SOL     OW28378   0.895   6.860   1.013
 9160SOL    HW128379   0.921   6.825   1.103
 9160SOL    HW228380   0.967   6.838   0.947
 9161SOL     OW28381   5.468   3.442   2.105
 9161SOL    HW128382   5.526   3.392   2.041
 9161SOL    HW228383   5.481   3.540   2.092
 9162SOL     OW28384   5.081   2.663   3.695
 9162SOL    HW128385   5.062   2.590   3.761
 9162SOL    HW228386   5.022   2.652   3.615
 9163SOL     OW28387   3.544   0.578   4.825
 9163SOL    HW128388   3.524   0.614   4.734
 9163SOL    HW228389   3.565   0.654   4.887
 9164SOL     OW28390   2.750   0.735   0.853
 9164SOL    HW128391   2.830   0.736   0.793
 9164SOL    HW228392   2.780   0.738   0.948
 9165SOL     OW28393   5.193   5.911   1.228
 9165SOL    HW128394   5.254   5.928   1.151
 9165SOL    HW228395   5.229   5.956   1.310
 9166SOL     OW28396   3.056   5.104   1.147
 9166SOL    HW128397   2.956   5.114   1.148
 9166SOL    HW228398   3.098   5.194   1.160
 9167SOL     OW28399   0.356   3.683   4.651
 9167SOL    HW128400   0.394   3.646   4.566
 9167SOL    HW228401   0.425   3.678   4.723
 9168SOL     OW28402   4.079   0.559   0.695
 9168SOL    HW128403   3.991   0.583   0.737
 9168SOL    HW228404   4.141   0.637   0.700
 9169SOL     OW28405   0.616   6.612   4.013
 9169SOL    HW128406   0.617   6.704   4.052
 9169SOL    HW228407   0.526   6.593   3.972
 9170SOL     OW28408   6.367   5.778   0.010
 9170SOL    HW128409   6.450   5.830   7.009
 9170SOL    HW228410   6.288   5.829   6.994
 9171SOL     OW28411   3.761   5.622   4.715
 9171SOL    HW128412   3.826   5.633   4.640
 9171SOL    HW228413   3.771   5.530   4.754
 9172SOL     OW28414   2.383   2.160   4.021
 9172SOL    HW128415   2.358   2.244   3.972
 9172SOL    HW228416   2.302   2.103   4.033
 9173SOL     OW28417   6.964   5.123   5.209
 9173SOL    HW128418   0.041   5.091   5.207
 9173SOL    HW228419   6.961   5.220   5.185
 9174SOL     OW28420   0.255   5.430   6.301
 9174SOL    HW128421   0.278   5.515   6.348
 9174SOL    HW228422   0.171   5.444   6.248
 9175SOL     OW28423   2.231   6.323   6.085
 9175SOL    HW128424   2.274   6.388   6.148
 9175SOL    HW228425   2.194   6.246   6.137
 9176SOL     OW28426   1.311   2.889   5.939
 9176SOL    HW128427   1.386   2.953   5.954
 9176SOL    HW228428   1.334   2.828   5.862
 9177SOL     OW28429   1.790   3.952   2.858
 9177SOL    HW128430   1.806   3.902   2.942
 9177SOL    HW228431   1.756   3.890   2.787
 9178SOL     OW28432   1.992   4.092   0.242
 9178SOL    HW128433   1.906   4.135   0.213
 9178SOL    HW228434   2.063   4.111   0.175
 9179SOL     OW28435   3.064   4.464   5.326
 9179SOL    HW128436   3.009   4.459   5.409
 9179SOL    HW228437   3.011   4.505   5.252
 9180SOL     OW28438   5.006   1.342   1.768
 9180SOL    HW128439   4.928   1.381   1.817
 9180SOL    HW228440   5.089   1.357   1.821
 9181SOL     OW28441   3.941   1.053   2.590
 9181SOL    HW128442   3.923   0.961   2.624
 9181SOL    HW228443   3.865   1.082   2.532
 9182SOL     OW28444   2.442   6.854   1.563
 9182SOL    HW128445   2.495   6.912   1.501
 9182SOL    HW228446   2.497   6.775   1.589
 9183SOL     OW28447   5.283   5.210   5.714
 9183SOL    HW128448   5.268   5.308   5.701
 9183SOL    HW228449   5.274   5.163   5.626
 9184SOL     OW28450   4.747   6.950   0.214
 9184SOL    HW128451   4.840   6.913   0.216
 9184SOL    HW228452   4.694   6.904   0.143
 9185SOL     OW28453   5.029   1.153   4.770
 9185SOL    HW128454   4.990   1.241   4.742
 9185SOL    HW228455   5.101   1.169   4.838
 9186SOL     OW28456   4.869   1.050   5.841
 9186SOL    HW128457   4.789   1.102   5.809
 9186SOL    HW228458   4.933   1.112   5.886
 9187SOL     OW28459   2.349   6.149   3.267
 9187SOL    HW128460   2.271   6.166   3.207
 9187SOL    HW228461   2.410   6.229   3.265
 9188SOL     OW28462   2.956   5.200   0.675
 9188SOL    HW128463   2.867   5.221   0.635
 9188SOL    HW228464   2.981   5.106   0.651
 9189SOL     OW28465   5.495   4.578   1.963
 9189SOL    HW128466   5.456   4.487   1.946
 9189SOL    HW228467   5.460   4.642   1.895
 9190SOL     OW28468   1.315   5.976   6.661
 9190SOL    HW128469   1.352   6.028   6.584
 9190SOL    HW228470   1.390   5.930   6.709
 9191SOL     OW28471   6.767   0.758   6.016
 9191SOL    HW128472   6.772   0.669   5.970
 9191SOL    HW228473   6.858   0.783   6.050
 9192SOL     OW28474   0.984   3.483   5.191
 9192SOL    HW128475   0.941   3.561   5.146
 9192SOL    HW228476   0.917   3.437   5.248
 9193SOL     OW28477   3.830   3.975   0.841
 9193SOL    HW128478   3.823   3.983   0.742
 9193SOL    HW228479   3.870   3.886   0.864
 9194SOL     OW28480   2.991   0.547   4.247
 9194SOL    HW128481   3.042   0.474   4.293
 9194SOL    HW228482   2.906   0.511   4.211
 9195SOL     OW28483   2.039   1.095   3.531
 9195SOL    HW128484   2.114   1.044   3.489
 9195SOL    HW228485   2.065   1.119   3.625
 9196SOL     OW28486   4.578   1.139   6.016
 9196SOL    HW128487   4.554   1.055   5.967
 9196SOL    HW228488   4.645   1.118   6.087
 9197SOL     OW28489   2.796   3.571   0.535
 9197SOL    HW128490   2.848   3.570   0.450
 9197SOL    HW228491   2.699   3.587   0.515
 9198SOL     OW28492   1.086   4.227   4.902
 9198SOL    HW128493   1.000   4.256   4.945
 9198SOL    HW228494   1.163   4.256   4.959
 9199SOL     OW28495   6.078   4.986   5.079
 9199SOL    HW128496   6.045   4.958   5.169
 9199SOL    HW228497   6.095   5.084   5.078
 9200SOL     OW28498   2.939   6.832   0.318
 9200SOL    HW128499   2.957   6.873   0.229
 9200SOL    HW228500   2.871   6.886   0.367
 9201SOL     OW28501   2.115   4.422   0.799
 9201SOL    HW128502   2.156   4.427   0.889
 9201SOL    HW228503   2.144   4.338   0.753
 9202SOL     OW28504   2.815   0.845   3.506
 9202SOL    HW128505   2.815   0.755   3.549
 9202SOL    HW228506   2.738   0.899   3.541
 9203SOL     OW28507   6.853   6.316   1.020
 9203SOL    HW128508   6.858   6.377   0.941
 9203SOL    HW228509   6.760   6.278   1.027
 9204SOL     OW28510   5.687   0.795   5.538
 9204SOL    HW128511   5.716   0.745   5.456
 9204SOL    HW228512   5.706   0.739   5.619
 9205SOL     OW28513   0.025   5.234   2.408
 9205SOL    HW128514   0.053   5.281   2.324
 9205SOL    HW228515   6.950   5.262   2.432
 9206SOL     OW28516   4.003   0.034   0.566
 9206SOL    HW128517   4.101   0.053   0.566
 9206SOL    HW228518   3.955   0.103   0.511
 9207SOL     OW28519   5.527   5.634   5.996
 9207SOL    HW128520   5.520   5.612   6.093
 9207SOL    HW228521   5.518   5.733   5.984
 9208SOL     OW28522   1.163   3.416   2.304
 9208SOL    HW128523   1.256   3.383   2.321
 9208SOL    HW228524   1.118   3.355   2.238
 9209SOL     OW28525   2.620   5.987   6.489
 9209SOL    HW128526   2.615   5.987   6.389
 9209SOL    HW228527   2.638   6.079   6.522
 9210SOL     OW28528   6.447   0.430   4.307
 9210SOL    HW128529   6.509   0.400   4.235
 9210SOL    HW228530   6.408   0.519   4.283
 9211SOL     OW28531   0.779   1.542   3.130
 9211SOL    HW128532   0.773   1.534   3.229
 9211SOL    HW228533   0.851   1.607   3.106
 9212SOL     OW28534   4.280   5.191   4.966
 9212SOL    HW128535   4.308   5.253   4.892
 9212SOL    HW228536   4.289   5.238   5.054
 9213SOL     OW28537   6.115   3.902   0.098
 9213SOL    HW128538   6.177   3.837   0.142
 9213SOL    HW228539   6.082   3.864   0.011
 9214SOL     OW28540   0.102   5.521   0.205
 9214SOL    HW128541   0.101   5.421   0.205
 9214SOL    HW228542   0.191   5.553   0.173
 9215SOL     OW28543   0.954   1.519   0.861
 9215SOL    HW128544   0.948   1.617   0.874
 9215SOL    HW228545   1.049   1.493   0.844
 9216SOL     OW28546   1.970   6.827   3.888
 9216SOL    HW128547   1.893   6.809   3.827
 9216SOL    HW228548   1.956   6.778   3.974
 9217SOL     OW28549   0.712   2.151   0.895
 9217SOL    HW128550   0.811   2.154   0.877
 9217SOL    HW228551   0.687   2.061   0.929
 9218SOL     OW28552   2.602   1.230   1.221
 9218SOL    HW128553   2.615   1.167   1.145
 9218SOL    HW228554   2.572   1.319   1.186
 9219SOL     OW28555   6.291   1.360   0.566
 9219SOL    HW128556   6.285   1.418   0.647
 9219SOL    HW228557   6.243   1.403   0.490
 9220SOL     OW28558   3.270   6.299   0.579
 9220SOL    HW128559   3.218   6.312   0.664
 9220SOL    HW228560   3.312   6.385   0.552
 9221SOL     OW28561   2.853   4.806   4.832
 9221SOL    HW128562   2.812   4.728   4.878
 9221SOL    HW228563   2.803   4.889   4.855
 9222SOL     OW28564   3.061   2.417   0.082
 9222SOL    HW128565   3.135   2.458   0.027
 9222SOL    HW228566   2.981   2.477   0.079
 9223SOL     OW28567   2.724   3.085   5.298
 9223SOL    HW128568   2.753   2.994   5.328
 9223SOL    HW228569   2.625   3.087   5.288
 9224SOL     OW28570   2.273   4.630   5.181
 9224SOL    HW128571   2.264   4.530   5.190
 9224SOL    HW228572   2.355   4.652   5.129
 9225SOL     OW28573   1.707   6.215   6.848
 9225SOL    HW128574   1.668   6.132   6.807
 9225SOL    HW228575   1.634   6.267   6.892
 9226SOL     OW28576   4.811   6.194   0.952
 9226SOL    HW128577   4.878   6.132   0.912
 9226SOL    HW228578   4.792   6.167   1.046
 9227SOL     OW28579   1.061   6.173   1.484
 9227SOL    HW128580   1.150   6.202   1.520
 9227SOL    HW228581   1.072   6.138   1.392
 9228SOL     OW28582   0.697   6.180   6.005
 9228SOL    HW128583   0.686   6.238   5.925
 9228SOL    HW228584   0.606   6.160   6.043
 9229SOL     OW28585   0.948   5.967   5.363
 9229SOL    HW128586   0.951   5.976   5.264
 9229SOL    HW228587   0.853   5.969   5.394
 9230SOL     OW28588   4.830   1.524   3.379
 9230SOL    HW128589   4.785   1.496   3.294
 9230SOL    HW228590   4.910   1.580   3.358
 9231SOL     OW28591   2.052   3.288   3.515
 9231SOL    HW128592   2.122   3.225   3.482
 9231SOL    HW228593   2.083   3.331   3.600
 9232SOL     OW28594   3.961   5.404   1.072
 9232SOL    HW128595   4.016   5.358   1.142
 9232SOL    HW228596   3.946   5.499   1.099
 9233SOL     OW28597   5.898   4.454   0.276
 9233SOL    HW128598   5.936   4.508   0.351
 9233SOL    HW228599   5.800   4.474   0.268
 9234SOL     OW28600   1.853   6.192   3.771
 9234SOL    HW128601   1.892   6.178   3.862
 9234SOL    HW228602   1.888   6.122   3.709
 9235SOL     OW28603   1.173   2.694   3.131
 9235SOL    HW128604   1.114   2.620   3.097
 9235SOL    HW228605   1.256   2.698   3.076
 9236SOL     OW28606   3.579   2.721   6.517
 9236SOL    HW128607   3.506   2.763   6.571
 9236SOL    HW228608   3.610   2.785   6.446
 9237SOL     OW28609   1.519   3.666   2.883
 9237SOL    HW128610   1.519   3.729   2.806
 9237SOL    HW228611   1.455   3.591   2.865
 9238SOL     OW28612   4.391   3.409   6.737
 9238SOL    HW128613   4.410   3.399   6.640
 9238SOL    HW228614   4.433   3.493   6.771
 9239SOL     OW28615   2.199   3.055   6.462
 9239SOL    HW128616   2.184   3.127   6.394
 9239SOL    HW228617   2.134   3.067   6.537
 9240SOL     OW28618   4.583   0.996   2.397
 9240SOL    HW128619   4.574   1.030   2.490
 9240SOL    HW228620   4.665   0.940   2.389
 9241SOL     OW28621   0.594   5.737   5.207
 9241SOL    HW128622   0.651   5.656   5.186
 9241SOL    HW228623   0.557   5.774   5.122
 9242SOL     OW28624   4.878   6.983   2.144
 9242SOL    HW128625   4.881   6.958   2.048
 9242SOL    HW228626   4.787   6.963   2.181
 9243SOL     OW28627   5.372   0.019   4.712
 9243SOL    HW128628   5.285   6.988   4.718
 9243SOL    HW228629   5.403   0.020   4.616
 9244SOL     OW28630   3.776   6.349   0.835
 9244SOL    HW128631   3.785   6.389   0.926
 9244SOL    HW228632   3.858   6.296   0.813
 9245SOL     OW28633   0.580   6.912   1.473
 9245SOL    HW128634   0.586   6.854   1.392
 9245SOL    HW228635   0.493   6.895   1.519
 9246SOL     OW28636   6.447   5.044   3.946
 9246SOL    HW128637   6.516   5.114   3.965
 9246SOL    HW228638   6.447   4.976   4.019
 9247SOL     OW28639   1.179   0.562   2.797
 9247SOL    HW128640   1.148   0.475   2.836
 9247SOL    HW228641   1.121   0.586   2.719
 9248SOL     OW28642   4.413   1.779   6.248
 9248SOL    HW128643   4.486   1.775   6.316
 9248SOL    HW228644   4.325   1.784   6.294
 9249SOL     OW28645   4.243   6.464   3.880
 9249SOL    HW128646   4.261   6.435   3.786
 9249SOL    HW228647   4.174   6.404   3.920
 9250SOL     OW28648   4.877   3.726   3.031
 9250SOL    HW128649   4.888   3.642   2.978
 9250SOL    HW228650   4.857   3.702   3.126
 9251SOL     OW28651   3.992   1.887   2.169
 9251SOL    HW128652   4.021   1.983   2.176
 9251SOL    HW228653   3.895   1.880   2.194
 9252SOL     OW28654   1.452   6.775   4.711
 9252SOL    HW128655   1.453   6.701   4.645
 9252SOL    HW228656   1.426   6.739   4.801
 9253SOL     OW28657   1.268   6.829   6.436
 9253SOL    HW128658   1.319   6.914   6.447
 9253SOL    HW228659   1.205   6.838   6.358
 9254SOL     OW28660   4.730   2.251   0.832
 9254SOL    HW128661   4.700   2.346   0.821
 9254SOL    HW228662   4.819   2.238   0.789
 9255SOL     OW28663   6.907   5.189   0.008
 9255SOL    HW128664   6.813   5.171   6.999
 9255SOL    HW228665   6.933   5.127   0.082
 9256SOL     OW28666   4.137   5.290   2.811
 9256SOL    HW128667   4.138   5.378   2.764
 9256SOL    HW228668   4.124   5.216   2.744
 9257SOL     OW28669   0.367   3.281   0.861
 9257SOL    HW128670   0.317   3.263   0.946
 9257SOL    HW228671   0.438   3.212   0.850
 9258SOL     OW28672   3.517   2.931   4.646
 9258SOL    HW128673   3.605   2.971   4.669
 9258SOL    HW228674   3.445   2.976   4.699
 9259SOL     OW28675   1.536   2.340   0.294
 9259SOL    HW128676   1.510   2.264   0.235
 9259SOL    HW228677   1.464   2.410   0.292
 9260SOL     OW28678   6.706   3.611   0.137
 9260SOL    HW128679   6.668   3.569   0.055
 9260SOL    HW228680   6.760   3.542   0.187
 9261SOL     OW28681   2.447   6.999   5.955
 9261SOL    HW128682   2.380   6.959   6.018
 9261SOL    HW228683   2.420   6.980   5.861
 9262SOL     OW28684   6.180   0.132   6.369
 9262SOL    HW128685   6.160   0.095   6.279
 9262SOL    HW228686   6.096   0.133   6.424
 9263SOL     OW28687   5.879   3.681   2.693
 9263SOL    HW128688   5.826   3.595   2.693
 9263SOL    HW228689   5.842   3.742   2.762
 9264SOL     OW28690   5.710   2.249   0.482
 9264SOL    HW128691   5.802   2.284   0.498
 9264SOL    HW228692   5.699   2.161   0.528
 9265SOL     OW28693   1.878   2.003   5.301
 9265SOL    HW128694   1.831   1.998   5.390
 9265SOL    HW228695   1.810   2.018   5.229
 9266SOL     OW28696   2.907   6.584   2.480
 9266SOL    HW128697   2.994   6.574   2.431
 9266SOL    HW228698   2.891   6.505   2.538
 9267SOL     OW28699   2.576   5.095   5.972
 9267SOL    HW128700   2.643   5.032   5.933
 9267SOL    HW228701   2.622   5.162   6.029
 9268SOL     OW28702   1.111   1.177   3.093
 9268SOL    HW128703   1.086   1.128   3.009
 9268SOL    HW228704   1.058   1.142   3.170
 9269SOL     OW28705   3.967   1.334   5.131
 9269SOL    HW128706   3.964   1.345   5.231
 9269SOL    HW228707   4.062   1.323   5.102
 9270SOL     OW28708   1.893   0.416   5.445
 9270SOL    HW128709   1.986   0.437   5.474
 9270SOL    HW228710   1.835   0.402   5.525
 9271SOL     OW28711   0.405   5.180   5.140
 9271SOL    HW128712   0.428   5.116   5.067
 9271SOL    HW228713   0.308   5.204   5.133
 9272SOL     OW28714   2.274   5.112   6.239
 9272SOL    HW128715   2.211   5.064   6.300
 9272SOL    HW228716   2.368   5.090   6.264
 9273SOL     OW28717   3.419   5.512   6.380
 9273SOL    HW128718   3.499   5.571   6.374
 9273SOL    HW228719   3.348   5.559   6.433
 9274SOL     OW28720   5.010   1.650   1.693
 9274SOL    HW128721   4.954   1.680   1.771
 9274SOL    HW228722   5.002   1.551   1.683
 9275SOL     OW28723   6.425   0.321   5.876
 9275SOL    HW128724   6.394   0.347   5.968
 9275SOL    HW228725   6.473   0.233   5.881
 9276SOL     OW28726   4.803   0.211   4.305
 9276SOL    HW128727   4.801   0.169   4.395
 9276SOL    HW228728   4.893   0.254   4.290
 9277SOL     OW28729   4.995   2.449   6.877
 9277SOL    HW128730   5.054   2.496   6.811
 9277SOL    HW228731   4.903   2.441   6.839
 9278SOL     OW28732   1.397   2.461   1.206
 9278SOL    HW128733   1.303   2.475   1.237
 9278SOL    HW228734   1.460   2.504   1.272
 9279SOL     OW28735   2.092   6.834   0.620
 9279SOL    HW128736   1.992   6.834   0.613
 9279SOL    HW228737   2.119   6.829   0.716
 9280SOL     OW28738   1.828   0.542   2.182
 9280SOL    HW128739   1.751   0.520   2.242
 9280SOL    HW228740   1.794   0.579   2.096
 9281SOL     OW28741   1.887   2.549   0.138
 9281SOL    HW128742   1.936   2.611   0.200
 9281SOL    HW228743   1.953   2.498   0.083
 9282SOL     OW28744   3.881   1.151   6.301
 9282SOL    HW128745   3.811   1.084   6.276
 9282SOL    HW228746   3.939   1.170   6.221
 9283SOL     OW28747   5.508   2.573   3.076
 9283SOL    HW128748   5.469   2.481   3.079
 9283SOL    HW228749   5.595   2.571   3.027
 9284SOL     OW28750   4.072   3.947   1.839
 9284SOL    HW128751   4.051   3.885   1.915
 9284SOL    HW228752   4.000   4.015   1.831
 9285SOL     OW28753   6.430   2.577   6.513
 9285SOL    HW128754   6.494   2.512   6.554
 9285SOL    HW228755   6.337   2.556   6.543
 9286SOL     OW28756   5.335   5.319   3.963
 9286SOL    HW128757   5.296   5.262   3.891
 9286SOL    HW228758   5.350   5.264   4.045
 9287SOL     OW28759   3.322   0.067   2.747
 9287SOL    HW128760   3.325   0.125   2.666
 9287SOL    HW228761   3.249   0.098   2.808
 9288SOL     OW28762   4.457   2.268   6.696
 9288SOL    HW128763   4.488   2.357   6.665
 9288SOL    HW228764   4.498   2.196   6.640
 9289SOL     OW28765   5.508   3.717   2.914
 9289SOL    HW128766   5.469   3.742   3.003
 9289SOL    HW228767   5.593   3.768   2.900
 9290SOL     OW28768   4.108   2.228   4.391
 9290SOL    HW128769   4.012   2.213   4.412
 9290SOL    HW228770   4.144   2.301   4.449
 9291SOL     OW28771   1.212   2.788   5.372
 9291SOL    HW128772   1.261   2.754   5.291
 9291SOL    HW228773   1.279   2.816   5.441
 9292SOL     OW28774   0.747   3.808   0.315
 9292SOL    HW128775   0.793   3.758   0.243
 9292SOL    HW228776   0.807   3.880   0.350
 9293SOL     OW28777   5.414   4.000   6.193
 9293SOL    HW128778   5.475   3.935   6.239
 9293SOL    HW228779   5.459   4.034   6.110
 9294SOL     OW28780   5.603   5.905   6.331
 9294SOL    HW128781   5.547   5.824   6.317
 9294SOL    HW228782   5.683   5.881   6.386
 9295SOL     OW28783   4.945   2.915   3.189
 9295SOL    HW128784   4.917   2.968   3.108
 9295SOL    HW228785   4.978   2.977   3.259
 9296SOL     OW28786   5.793   0.475   5.108
 9296SOL    HW128787   5.796   0.401   5.176
 9296SOL    HW228788   5.759   0.439   5.022
 9297SOL     OW28789   0.328   0.409   1.883
 9297SOL    HW128790   0.264   0.348   1.836
 9297SOL    HW228791   0.368   0.361   1.962
 9298SOL     OW28792   0.453   6.667   4.735
 9298SOL    HW128793   0.359   6.633   4.738
 9298SOL    HW228794   0.500   6.629   4.656
 9299SOL     OW28795   1.652   2.664   4.593
 9299SOL    HW128796   1.612   2.747   4.555
 9299SOL    HW228797   1.641   2.664   4.692
 9300SOL     OW28798   5.814   4.643   3.468
 9300SOL    HW128799   5.837   4.734   3.433
 9300SOL    HW228800   5.879   4.576   3.432
 9301SOL     OW28801   6.776   5.156   1.392
 9301SOL    HW128802   6.758   5.253   1.409
 9301SOL    HW228803   6.767   5.106   1.478
 9302SOL     OW28804   1.772   2.197   2.207
 9302SOL    HW128805   1.857   2.145   2.216
 9302SOL    HW228806   1.694   2.136   2.226
 9303SOL     OW28807   4.647   4.259   0.632
 9303SOL    HW128808   4.657   4.161   0.647
 9303SOL    HW228809   4.726   4.307   0.672
 9304SOL     OW28810   4.667   3.999   0.631
 9304SOL    HW128811   4.686   3.947   0.548
 9304SOL    HW228812   4.658   3.936   0.708
 9305SOL     OW28813   4.629   4.343   1.728
 9305SOL    HW128814   4.693   4.393   1.788
 9305SOL    HW228815   4.545   4.324   1.778
 9306SOL     OW28816   6.952   5.942   3.168
 9306SOL    HW128817   6.861   5.902   3.167
 9306SOL    HW228818   6.998   5.920   3.254
 9307SOL     OW28819   2.239   0.650   6.111
 9307SOL    HW128820   2.223   0.726   6.048
 9307SOL    HW228821   2.212   0.564   6.067
 9308SOL     OW28822   0.191   2.541   0.481
 9308SOL    HW128823   0.166   2.449   0.451
 9308SOL    HW228824   0.175   2.606   0.407
 9309SOL     OW28825   5.128   2.918   6.780
 9309SOL    HW128826   5.060   2.846   6.763
 9309SOL    HW228827   5.124   2.985   6.706
 9310SOL     OW28828   3.786   6.628   1.422
 9310SOL    HW128829   3.863   6.565   1.424
 9310SOL    HW228830   3.738   6.619   1.334
 9311SOL     OW28831   0.120   3.585   1.533
 9311SOL    HW128832   0.053   3.598   1.460
 9311SOL    HW228833   0.168   3.499   1.520
 9312SOL     OW28834   1.833   4.072   4.564
 9312SOL    HW128835   1.838   4.168   4.591
 9312SOL    HW228836   1.825   4.015   4.646
 9313SOL     OW28837   6.368   0.212   2.612
 9313SOL    HW128838   6.344   0.119   2.584
 9313SOL    HW228839   6.398   0.264   2.533
 9314SOL     OW28840   6.963   3.854   0.087
 9314SOL    HW128841   0.031   3.803   0.088
 9314SOL    HW228842   6.888   3.795   0.118
 9315SOL     OW28843   0.646   5.656   6.220
 9315SOL    HW128844   0.634   5.596   6.299
 9315SOL    HW228845   0.708   5.613   6.154
 9316SOL     OW28846   3.045   5.093   4.366
 9316SOL    HW128847   3.104   5.017   4.338
 9316SOL    HW228848   2.979   5.060   4.434
 9317SOL     OW28849   4.259   3.870   5.823
 9317SOL    HW128850   4.160   3.868   5.818
 9317SOL    HW228851   4.294   3.776   5.824
 9318SOL     OW28852   6.653   6.548   6.066
 9318SOL    HW128853   6.625   6.464   6.111
 9318SOL    HW228854   6.607   6.556   5.977
 9319SOL     OW28855   5.998   4.017   4.693
 9319SOL    HW128856   6.023   3.932   4.646
 9319SOL    HW228857   5.982   3.998   4.790
 9320SOL     OW28858   4.138   2.855   5.743
 9320SOL    HW128859   4.140   2.781   5.675
 9320SOL    HW228860   4.107   2.818   5.831
 9321SOL     OW28861   5.490   6.792   4.327
 9321SOL    HW128862   5.525   6.865   4.268
 9321SOL    HW228863   5.557   6.718   4.331
 9322SOL     OW28864   1.396   6.065   0.968
 9322SOL    HW128865   1.482   6.068   0.917
 9322SOL    HW228866   1.326   6.021   0.912
 9323SOL     OW28867   0.841   1.153   6.218
 9323SOL    HW128868   0.771   1.145   6.147
 9323SOL    HW228869   0.928   1.118   6.183
 9324SOL     OW28870   1.104   5.363   6.794
 9324SOL    HW128871   1.172   5.425   6.755
 9324SOL    HW228872   1.023   5.416   6.819
 9325SOL     OW28873   0.569   2.656   6.832
 9325SOL    HW128874   0.532   2.573   6.872
 9325SOL    HW228875   0.529   2.671   6.742
 9326SOL     OW28876   2.049   5.964   1.729
 9326SOL    HW128877   2.107   5.883   1.721
 9326SOL    HW228878   2.104   6.046   1.714
 9327SOL     OW28879   1.993   2.026   4.408
 9327SOL    HW128880   2.082   2.026   4.364
 9327SOL    HW228881   2.005   2.009   4.506
 9328SOL     OW28882   2.463   1.236   2.148
 9328SOL    HW128883   2.434   1.329   2.126
 9328SOL    HW228884   2.385   1.182   2.178
 9329SOL     OW28885   0.964   3.768   1.310
 9329SOL    HW128886   0.972   3.850   1.366
 9329SOL    HW228887   1.015   3.781   1.225
 9330SOL     OW28888   5.441   6.205   6.685
 9330SOL    HW128889   5.386   6.237   6.607
 9330SOL    HW228890   5.534   6.241   6.678
 9331SOL     OW28891   1.118   1.317   0.490
 9331SOL    HW128892   1.055   1.381   0.534
 9331SOL    HW228893   1.162   1.362   0.412
 9332SOL     OW28894   3.780   4.065   5.323
 9332SOL    HW128895   3.872   4.061   5.284
 9332SOL    HW228896   3.784   4.096   5.417
 9333SOL     OW28897   5.121   6.493   1.168
 9333SOL    HW128898   5.045   6.458   1.113
 9333SOL    HW228899   5.196   6.521   1.107
 9334SOL     OW28900   2.026   6.788   4.825
 9334SOL    HW128901   1.936   6.771   4.865
 9334SOL    HW228902   2.088   6.823   4.895
 9335SOL     OW28903   0.313   1.877   2.215
 9335SOL    HW128904   0.344   1.789   2.251
 9335SOL    HW228905   0.213   1.880   2.215
 9336SOL     OW28906   2.830   6.897   5.197
 9336SOL    HW128907   2.905   6.833   5.217
 9336SOL    HW228908   2.763   6.892   5.270
 9337SOL     OW28909   4.611   6.599   3.310
 9337SOL    HW128910   4.682   6.608   3.379
 9337SOL    HW228911   4.542   6.670   3.323
 9338SOL     OW28912   2.106   6.635   2.447
 9338SOL    HW128913   2.106   6.726   2.404
 9338SOL    HW228914   2.135   6.643   2.542
 9339SOL     OW28915   3.589   5.493   1.693
 9339SOL    HW128916   3.544   5.424   1.636
 9339SOL    HW228917   3.521   5.559   1.725
 9340SOL     OW28918   6.821   3.014   0.169
 9340SOL    HW128919   6.891   2.971   0.112
 9340SOL    HW228920   6.749   2.949   0.188
 9341SOL     OW28921   0.988   4.155   5.800
 9341SOL    HW128922   1.066   4.138   5.860
 9341SOL    HW228923   0.909   4.184   5.854
 9342SOL     OW28924   1.562   0.733   0.270
 9342SOL    HW128925   1.641   0.794   0.260
 9342SOL    HW228926   1.480   0.788   0.285
 9343SOL     OW28927   6.199   6.393   3.514
 9343SOL    HW128928   6.284   6.358   3.473
 9343SOL    HW228929   6.155   6.320   3.566
 9344SOL     OW28930   5.375   6.461   0.566
 9344SOL    HW128931   5.395   6.385   0.629
 9344SOL    HW228932   5.322   6.427   0.489
 9345SOL     OW28933   0.877   2.188   0.606
 9345SOL    HW128934   0.915   2.242   0.681
 9345SOL    HW228935   0.804   2.239   0.560
 9346SOL     OW28936   6.050   0.130   1.054
 9346SOL    HW128937   6.034   0.067   1.130
 9346SOL    HW228938   6.075   0.220   1.090
 9347SOL     OW28939   1.905   6.276   2.373
 9347SOL    HW128940   1.935   6.300   2.465
 9347SOL    HW228941   1.897   6.176   2.366
 9348SOL     OW28942   2.879   4.969   0.030
 9348SOL    HW128943   2.826   4.900   6.998
 9348SOL    HW228944   2.975   4.962   0.005
 9349SOL     OW28945   0.997   6.296   2.748
 9349SOL    HW128946   1.024   6.223   2.811
 9349SOL    HW228947   0.981   6.257   2.657
 9350SOL     OW28948   0.422   3.043   5.609
 9350SOL    HW128949   0.497   3.032   5.543
 9350SOL    HW228950   0.343   2.990   5.579
 9351SOL     OW28951   3.208   6.772   6.841
 9351SOL    HW128952   3.133   6.738   6.898
 9351SOL    HW228953   3.188   6.754   6.745
 9352SOL     OW28954   2.681   5.029   5.627
 9352SOL    HW128955   2.694   4.968   5.549
 9352SOL    HW228956   2.595   5.006   5.673
 9353SOL     OW28957   6.397   0.654   0.902
 9353SOL    HW128958   6.310   0.654   0.952
 9353SOL    HW228959   6.435   0.562   0.903
 9354SOL     OW28960   1.187   1.174   5.544
 9354SOL    HW128961   1.282   1.169   5.514
 9354SOL    HW228962   1.173   1.259   5.595
 9355SOL     OW28963   1.142   1.636   5.443
 9355SOL    HW128964   1.168   1.691   5.364
 9355SOL    HW228965   1.160   1.687   5.527
 9356SOL     OW28966   3.434   0.298   3.880
 9356SOL    HW128967   3.522   0.271   3.918
 9356SOL    HW228968   3.410   0.389   3.913
 9357SOL     OW28969   2.144   2.408   0.476
 9357SOL    HW128970   2.143   2.458   0.389
 9357SOL    HW228971   2.075   2.336   0.473
 9358SOL     OW28972   1.258   2.200   0.894
 9358SOL    HW128973   1.330   2.232   0.832
 9358SOL    HW228974   1.298   2.141   0.964
 9359SOL     OW28975   0.859   0.745   5.712
 9359SOL    HW128976   0.901   0.818   5.659
 9359SOL    HW228977   0.842   0.666   5.653
 9360SOL     OW28978   6.575   0.105   5.517
 9360SOL    HW128979   6.550   0.090   5.613
 9360SOL    HW228980   6.494   0.096   5.459
 9361SOL     OW28981   2.321   5.515   3.997
 9361SOL    HW128982   2.340   5.603   4.040
 9361SOL    HW228983   2.378   5.505   3.916
 9362SOL     OW28984   1.909   0.316   2.393
 9362SOL    HW128985   1.918   0.280   2.486
 9362SOL    HW228986   1.969   0.265   2.332
 9363SOL     OW28987   1.757   2.628   2.348
 9363SOL    HW128988   1.722   2.677   2.268
 9363SOL    HW228989   1.856   2.640   2.354
 9364SOL     OW28990   0.486   1.942   6.782
 9364SOL    HW128991   0.444   2.000   6.712
 9364SOL    HW228992   0.498   1.850   6.746
 9365SOL     OW28993   2.821   1.469   5.098
 9365SOL    HW128994   2.737   1.420   5.074
 9365SOL    HW228995   2.870   1.494   5.015
 9366SOL     OW28996   3.115   6.565   2.226
 9366SOL    HW128997   3.015   6.568   2.224
 9366SOL    HW228998   3.151   6.615   2.147
 9367SOL     OW28999   6.629   0.045   1.698
 9367SOL    HW129000   6.551   7.009   1.732
 9367SOL    HW229001   6.712   0.016   1.745
 9368SOL     OW29002   2.302   0.595   3.370
 9368SOL    HW129003   2.209   0.581   3.337
 9368SOL    HW229004   2.364   0.603   3.291
 9369SOL     OW29005   4.013   5.013   0.966
 9369SOL    HW129006   4.047   5.067   0.889
 9369SOL    HW229007   3.927   5.054   0.999
 9370SOL     OW29008   4.583   2.516   5.285
 9370SOL    HW129009   4.651   2.587   5.265
 9370SOL    HW229010   4.576   2.453   5.207
 9371SOL     OW29011   4.137   5.139   0.758
 9371SOL    HW129012   4.088   5.201   0.697
 9371SOL    HW229013   4.229   5.124   0.722
 9372SOL     OW29014   4.968   6.749   1.038
 9372SOL    HW129015   4.877   6.788   1.027
 9372SOL    HW229016   4.983   6.727   1.135
 9373SOL     OW29017   0.519   2.121   1.649
 9373SOL    HW129018   0.493   2.040   1.703
 9373SOL    HW229019   0.456   2.132   1.573
 9374SOL     OW29020   6.888   4.965   6.040
 9374SOL    HW129021   6.859   5.052   6.079
 9374SOL    HW229022   6.875   4.892   6.107
 9375SOL     OW29023   1.916   1.487   6.790
 9375SOL    HW129024   1.893   1.584   6.791
 9375SOL    HW229025   2.012   1.476   6.816
 9376SOL     OW29026   3.473   4.002   0.490
 9376SOL    HW129027   3.443   3.963   0.403
 9376SOL    HW229028   3.394   4.020   0.548
 9377SOL     OW29029   0.959   1.128   3.314
 9377SOL    HW129030   0.953   1.220   3.354
 9377SOL    HW229031   1.016   1.070   3.373
 9378SOL     OW29032   3.806   0.898   5.230
 9378SOL    HW129033   3.830   0.893   5.327
 9378SOL    HW229034   3.719   0.947   5.219
 9379SOL     OW29035   3.869   6.877   4.856
 9379SOL    HW129036   3.774   6.907   4.864
 9379SOL    HW229037   3.885   6.800   4.916
 9380SOL     OW29038   5.219   6.318   1.391
 9380SOL    HW129039   5.145   6.302   1.456
 9380SOL    HW229040   5.181   6.341   1.302
 9381SOL     OW29041   4.569   0.998   4.960
 9381SOL    HW129042   4.630   1.023   4.885
 9381SOL    HW229043   4.483   1.048   4.951
 9382SOL     OW29044   2.907   5.386   6.437
 9382SOL    HW129045   3.000   5.418   6.421
 9382SOL    HW229046   2.908   5.291   6.467
 9383SOL     OW29047   5.870   4.238   1.450
 9383SOL    HW129048   5.824   4.151   1.433
 9383SOL    HW229049   5.959   4.238   1.404
 9384SOL     OW29050   4.156   0.271   0.902
 9384SOL    HW129051   4.057   0.269   0.887
 9384SOL    HW229052   4.202   0.299   0.818
 9385SOL     OW29053   4.157   2.292   3.993
 9385SOL    HW129054   4.213   2.305   4.076
 9385SOL    HW229055   4.190   2.354   3.921
 9386SOL     OW29056   5.623   0.209   1.190
 9386SOL    HW129057   5.654   0.202   1.285
 9386SOL    HW229058   5.682   0.273   1.141
 9387SOL     OW29059   2.868   2.426   6.610
 9387SOL    HW129060   2.962   2.428   6.644
 9387SOL    HW229061   2.845   2.333   6.582
 9388SOL     OW29062   1.962   6.447   5.161
 9388SOL    HW129063   1.943   6.349   5.166
 9388SOL    HW229064   1.940   6.480   5.069
 9389SOL     OW29065   2.163   3.739   1.871
 9389SOL    HW129066   2.159   3.650   1.917
 9389SOL    HW229067   2.079   3.753   1.819
 9390SOL     OW29068   6.009   5.573   4.192
 9390SOL    HW129069   5.918   5.616   4.188
 9390SOL    HW229070   6.064   5.620   4.261
 9391SOL     OW29071   0.271   4.933   4.004
 9391SOL    HW129072   0.255   4.971   3.913
 9391SOL    HW229073   0.367   4.949   4.030
 9392SOL     OW29074   3.384   5.260   2.171
 9392SOL    HW129075   3.482   5.278   2.163
 9392SOL    HW229076   3.333   5.341   2.144
 9393SOL     OW29077   2.168   5.201   0.049
 9393SOL    HW129078   2.165   5.126   7.001
 9393SOL    HW229079   2.165   5.288   0.001
 9394SOL     OW29080   4.603   0.185   0.219
 9394SOL    HW129081   4.543   0.190   0.139
 9394SOL    HW229082   4.650   0.096   0.219
 9395SOL     OW29083   0.752   1.086   1.367
 9395SOL    HW129084   0.765   1.044   1.278
 9395SOL    HW229085   0.703   1.023   1.427
 9396SOL     OW29086   1.032   0.982   6.489
 9396SOL    HW129087   1.078   0.920   6.426
 9396SOL    HW229088   0.934   0.982   6.471
 9397SOL     OW29089   3.408   1.530   5.769
 9397SOL    HW129090   3.407   1.447   5.713
 9397SOL    HW229091   3.331   1.529   5.832
 9398SOL     OW29092   6.990   2.512   0.028
 9398SOL    HW129093   6.896   2.481   0.016
 9398SOL    HW229094   7.011   2.581   6.976
 9399SOL     OW29095   1.423   2.356   4.830
 9399SOL    HW129096   1.442   2.326   4.736
 9399SOL    HW229097   1.507   2.353   4.883
 9400SOL     OW29098   6.043   1.448   1.044
 9400SOL    HW129099   5.987   1.373   1.009
 9400SOL    HW229100   6.136   1.416   1.059
 9401SOL     OW29101   6.872   1.977   3.477
 9401SOL    HW129102   6.792   1.938   3.431
 9401SOL    HW229103   6.876   2.075   3.459
 9402SOL     OW29104   3.779   5.851   5.420
 9402SOL    HW129105   3.751   5.782   5.354
 9402SOL    HW229106   3.700   5.882   5.472
 9403SOL     OW29107   5.724   1.949   0.944
 9403SOL    HW129108   5.648   2.014   0.936
 9403SOL    HW229109   5.690   1.863   0.981
 9404SOL     OW29110   2.787   2.673   0.617
 9404SOL    HW129111   2.887   2.672   0.619
 9404SOL    HW229112   2.756   2.724   0.537
 9405SOL     OW29113   6.043   5.532   4.912
 9405SOL    HW129114   6.078   5.529   5.006
 9405SOL    HW229115   6.120   5.527   4.848
 9406SOL     OW29116   1.756   1.085   0.683
 9406SOL    HW129117   1.795   1.114   0.770
 9406SOL    HW229118   1.666   1.128   0.671
 9407SOL     OW29119   2.029   4.694   4.667
 9407SOL    HW129120   2.102   4.681   4.734
 9407SOL    HW229121   2.067   4.693   4.575
 9408SOL     OW29122   5.756   5.098   3.623
 9408SOL    HW129123   5.833   5.160   3.639
 9408SOL    HW229124   5.787   5.003   3.626
 9409SOL     OW29125   5.978   4.944   1.351
 9409SOL    HW129126   6.036   4.952   1.270
 9409SOL    HW229127   5.944   4.850   1.358
 9410SOL     OW29128   4.265   0.094   0.542
 9410SOL    HW129129   4.320   0.014   0.567
 9410SOL    HW229130   4.303   0.176   0.585
 9411SOL     OW29131   3.692   3.801   4.932
 9411SOL    HW129132   3.694   3.900   4.947
 9411SOL    HW229133   3.752   3.778   4.855
 9412SOL     OW29134   3.931   6.657   1.821
 9412SOL    HW129135   3.868   6.703   1.884
 9412SOL    HW229136   4.009   6.716   1.803
 9413SOL     OW29137   4.133   5.026   2.923
 9413SOL    HW129138   4.107   5.122   2.911
 9413SOL    HW229139   4.063   4.967   2.883
 9414SOL     OW29140   2.086   0.799   2.371
 9414SOL    HW129141   2.087   0.789   2.271
 9414SOL    HW229142   2.146   0.874   2.397
 9415SOL     OW29143   5.096   0.870   0.818
 9415SOL    HW129144   5.059   0.937   0.754
 9415SOL    HW229145   5.026   0.802   0.839
 9416SOL     OW29146   6.533   4.379   5.693
 9416SOL    HW129147   6.527   4.405   5.789
 9416SOL    HW229148   6.561   4.283   5.686
 9417SOL     OW29149   4.048   6.035   3.220
 9417SOL    HW129150   3.956   6.043   3.258
 9417SOL    HW229151   4.076   5.939   3.220
 9418SOL     OW29152   2.736   2.162   4.900
 9418SOL    HW129153   2.753   2.179   4.997
 9418SOL    HW229154   2.678   2.235   4.863
 9419SOL     OW29155   2.859   2.882   6.294
 9419SOL    HW129156   2.884   2.799   6.344
 9419SOL    HW229157   2.812   2.945   6.356
 9420SOL     OW29158   5.312   3.536   6.138
 9420SOL    HW129159   5.366   3.620   6.132
 9420SOL    HW229160   5.324   3.482   6.054
 9421SOL     OW29161   3.799   6.636   0.162
 9421SOL    HW129162   3.779   6.564   0.228
 9421SOL    HW229163   3.884   6.614   0.113
 9422SOL     OW29164   2.027   6.509   5.882
 9422SOL    HW129165   2.037   6.420   5.838
 9422SOL    HW229166   1.968   6.501   5.962
 9423SOL     OW29167   5.058   4.969   0.828
 9423SOL    HW129168   5.083   4.938   0.920
 9423SOL    HW229169   5.003   4.898   0.784
 9424SOL     OW29170   6.428   6.936   3.787
 9424SOL    HW129171   6.512   6.939   3.732
 9424SOL    HW229172   6.416   6.844   3.824
 9425SOL     OW29173   0.023   5.646   1.255
 9425SOL    HW129174   0.083   5.607   1.325
 9425SOL    HW229175   0.064   5.729   1.218
 9426SOL     OW29176   4.621   1.413   6.037
 9426SOL    HW129177   4.678   1.450   6.110
 9426SOL    HW229178   4.622   1.313   6.041
 9427SOL     OW29179   3.220   5.646   2.198
 9427SOL    HW129180   3.175   5.568   2.153
 9427SOL    HW229181   3.202   5.729   2.145
 9428SOL     OW29182   0.083   6.462   5.070
 9428SOL    HW129183   0.020   6.393   5.035
 9428SOL    HW229184   0.177   6.426   5.065
 9429SOL     OW29185   2.953   2.224   4.111
 9429SOL    HW129186   2.922   2.234   4.017
 9429SOL    HW229187   2.947   2.312   4.158
 9430SOL     OW29188   1.140   0.151   3.631
 9430SOL    HW129189   1.158   0.074   3.570
 9430SOL    HW229190   1.044   0.177   3.625
 9431SOL     OW29191   1.361   5.102   5.453
 9431SOL    HW129192   1.352   5.121   5.551
 9431SOL    HW229193   1.333   5.008   5.435
 9432SOL     OW29194   6.740   1.747   2.914
 9432SOL    HW129195   6.685   1.830   2.917
 9432SOL    HW229196   6.837   1.771   2.911
 9433SOL     OW29197   4.071   5.555   1.494
 9433SOL    HW129198   3.995   5.614   1.467
 9433SOL    HW229199   4.140   5.609   1.541
 9434SOL     OW29200   5.167   6.047   4.879
 9434SOL    HW129201   5.165   6.145   4.903
 9434SOL    HW229202   5.119   6.033   4.793
 9435SOL     OW29203   6.740   3.551   6.545
 9435SOL    HW129204   6.698   3.461   6.555
 9435SOL    HW229205   6.737   3.599   6.632
 9436SOL     OW29206   2.900   1.745   2.852
 9436SOL    HW129207   2.837   1.823   2.853
 9436SOL    HW229208   2.956   1.746   2.935
 9437SOL     OW29209   4.452   1.426   3.927
 9437SOL    HW129210   4.392   1.483   3.871
 9437SOL    HW229211   4.396   1.361   3.980
 9438SOL     OW29212   4.867   0.186   3.210
 9438SOL    HW129213   4.929   0.214   3.136
 9438SOL    HW229214   4.773   0.210   3.185
 9439SOL     OW29215   1.491   4.890   1.381
 9439SOL    HW129216   1.400   4.886   1.340
 9439SOL    HW229217   1.537   4.973   1.351
 9440SOL     OW29218   1.846   5.309   4.137
 9440SOL    HW129219   1.875   5.226   4.088
 9440SOL    HW229220   1.921   5.374   4.139
 9441SOL     OW29221   6.593   6.360   4.628
 9441SOL    HW129222   6.662   6.407   4.681
 9441SOL    HW229223   6.581   6.267   4.663
 9442SOL     OW29224   6.758   2.880   0.905
 9442SOL    HW129225   6.751   2.857   0.807
 9442SOL    HW229226   6.723   2.972   0.920
 9443SOL     OW29227   1.544   4.642   1.478
 9443SOL    HW129228   1.521   4.736   1.454
 9443SOL    HW229229   1.469   4.600   1.528
 9444SOL     OW29230   1.988   5.756   5.512
 9444SOL    HW129231   1.930   5.744   5.432
 9444SOL    HW229232   2.008   5.667   5.553
 9445SOL     OW29233   1.108   1.315   4.010
 9445SOL    HW129234   1.150   1.233   3.970
 9445SOL    HW229235   1.179   1.380   4.035
 9446SOL     OW29236   5.316   5.442   3.413
 9446SOL    HW129237   5.376   5.367   3.440
 9446SOL    HW229238   5.295   5.498   3.493
 9447SOL     OW29239   5.711   5.090   2.343
 9447SOL    HW129240   5.646   5.107   2.416
 9447SOL    HW229241   5.663   5.053   2.263
 9448SOL     OW29242   5.136   2.792   0.103
 9448SOL    HW129243   5.048   2.776   0.057
 9448SOL    HW229244   5.157   2.714   0.162
 9449SOL     OW29245   4.360   0.071   3.631
 9449SOL    HW129246   4.390   0.153   3.680
 9449SOL    HW229247   4.405   0.066   3.543
 9450SOL     OW29248   0.539   0.022   2.210
 9450SOL    HW129249   0.623   0.075   2.197
 9450SOL    HW229250   0.542   6.958   2.152
 9451SOL     OW29251   4.408   5.630   0.516
 9451SOL    HW129252   4.421   5.566   0.441
 9451SOL    HW229253   4.429   5.584   0.603
 9452SOL     OW29254   6.216   2.354   6.328
 9452SOL    HW129255   6.226   2.394   6.237
 9452SOL    HW229256   6.186   2.258   6.319
 9453SOL     OW29257   6.665   4.527   2.813
 9453SOL    HW129258   6.709   4.437   2.813
 9453SOL    HW229259   6.626   4.544   2.903
 9454SOL     OW29260   5.738   5.024   0.387
 9454SOL    HW129261   5.785   5.048   0.472
 9454SOL    HW229262   5.754   5.096   0.319
 9455SOL     OW29263   4.542   1.174   1.511
 9455SOL    HW129264   4.497   1.238   1.573
 9455SOL    HW229265   4.626   1.215   1.475
 9456SOL     OW29266   6.551   3.056   2.236
 9456SOL    HW129267   6.510   3.050   2.146
 9456SOL    HW229268   6.500   2.999   2.301
 9457SOL     OW29269   6.434   6.417   4.395
 9457SOL    HW129270   6.381   6.498   4.418
 9457SOL    HW229271   6.478   6.381   4.477
 9458SOL     OW29272   6.992   4.542   0.086
 9458SOL    HW129273   6.935   4.622   0.102
 9458SOL    HW229274   6.944   4.479   0.024
 9459SOL     OW29275   5.689   4.951   5.217
 9459SOL    HW129276   5.630   4.953   5.298
 9459SOL    HW229277   5.780   4.917   5.243
 9460SOL     OW29278   2.087   3.466   3.290
 9460SOL    HW129279   2.085   3.400   3.215
 9460SOL    HW229280   2.092   3.417   3.377
 9461SOL     OW29281   1.625   1.814   1.260
 9461SOL    HW129282   1.593   1.786   1.170
 9461SOL    HW229283   1.722   1.790   1.271
 9462SOL     OW29284   6.874   0.965   5.435
 9462SOL    HW129285   6.801   0.960   5.367
 9462SOL    HW229286   6.956   0.920   5.399
 9463SOL     OW29287   0.374   5.037   0.474
 9463SOL    HW129288   0.446   4.975   0.504
 9463SOL    HW229289   0.390   5.063   0.379
 9464SOL     OW29290   1.126   0.699   2.042
 9464SOL    HW129291   1.058   0.767   2.069
 9464SOL    HW229292   1.217   0.739   2.049
 9465SOL     OW29293   0.714   5.897   0.458
 9465SOL    HW129294   0.644   5.826   0.462
 9465SOL    HW229295   0.677   5.983   0.491
 9466SOL     OW29296   3.951   4.002   5.567
 9466SOL    HW129297   3.978   4.093   5.599
 9466SOL    HW229298   3.853   3.999   5.552
 9467SOL     OW29299   1.537   3.811   1.241
 9467SOL    HW129300   1.467   3.844   1.178
 9467SOL    HW229301   1.626   3.813   1.196
 9468SOL     OW29302   6.406   1.951   1.232
 9468SOL    HW129303   6.488   1.998   1.199
 9468SOL    HW229304   6.325   1.997   1.197
 9469SOL     OW29305   6.161   6.386   2.274
 9469SOL    HW129306   6.225   6.458   2.248
 9469SOL    HW229307   6.160   6.377   2.374
 9470SOL     OW29308   3.533   3.738   0.631
 9470SOL    HW129309   3.496   3.829   0.612
 9470SOL    HW229310   3.477   3.669   0.584
 9471SOL     OW29311   6.774   2.944   4.744
 9471SOL    HW129312   6.823   3.030   4.734
 9471SOL    HW229313   6.704   2.953   4.815
 9472SOL     OW29314   1.936   4.220   5.712
 9472SOL    HW129315   1.880   4.297   5.683
 9472SOL    HW229316   2.007   4.202   5.644
 9473SOL     OW29317   2.630   3.409   1.585
 9473SOL    HW129318   2.563   3.471   1.626
 9473SOL    HW229319   2.614   3.316   1.617
 9474SOL     OW29320   6.145   4.196   0.792
 9474SOL    HW129321   6.080   4.120   0.792
 9474SOL    HW229322   6.106   4.274   0.743
 9475SOL     OW29323   6.074   3.300   6.761
 9475SOL    HW129324   6.150   3.273   6.701
 9475SOL    HW229325   5.991   3.250   6.734
 9476SOL     OW29326   3.945   3.850   1.227
 9476SOL    HW129327   4.028   3.901   1.253
 9476SOL    HW229328   3.952   3.822   1.132
 9477SOL     OW29329   1.293   5.367   0.893
 9477SOL    HW129330   1.247   5.378   0.804
 9477SOL    HW229331   1.227   5.381   0.966
 9478SOL     OW29332   0.106   3.052   5.551
 9478SOL    HW129333   0.035   2.995   5.509
 9478SOL    HW229334   0.081   3.072   5.646
 9479SOL     OW29335   4.392   0.691   2.133
 9479SOL    HW129336   4.377   0.783   2.170
 9479SOL    HW229337   4.490   0.674   2.124
 9480SOL     OW29338   5.627   0.593   0.976
 9480SOL    HW129339   5.592   0.608   0.884
 9480SOL    HW229340   5.579   0.653   1.040
 9481SOL     OW29341   4.876   0.437   4.035
 9481SOL    HW129342   4.957   0.426   4.093
 9481SOL    HW229343   4.859   0.352   3.985
 9482SOL     OW29344   5.611   4.320   6.185
 9482SOL    HW129345   5.539   4.369   6.234
 9482SOL    HW229346   5.693   4.315   6.241
 9483SOL     OW29347   5.760   5.182   0.161
 9483SOL    HW129348   5.839   5.208   0.105
 9483SOL    HW229349   5.691   5.138   0.103
 9484SOL     OW29350   1.912   5.708   3.747
 9484SOL    HW129351   2.004   5.669   3.759
 9484SOL    HW229352   1.916   5.806   3.764
 9485SOL     OW29353   6.812   1.350   5.665
 9485SOL    HW129354   6.827   1.252   5.675
 9485SOL    HW229355   6.899   1.398   5.671
 9486SOL     OW29356   6.691   5.450   6.074
 9486SOL    HW129357   6.652   5.477   6.162
 9486SOL    HW229358   6.685   5.526   6.009
 9487SOL     OW29359   3.100   3.459   3.829
 9487SOL    HW129360   3.032   3.417   3.889
 9487SOL    HW229361   3.181   3.485   3.882
 9488SOL     OW29362   1.092   0.687   2.561
 9488SOL    HW129363   1.001   0.656   2.533
 9488SOL    HW229364   1.162   0.636   2.510
 9489SOL     OW29365   6.838   3.973   6.886
 9489SOL    HW129366   6.888   3.936   6.964
 9489SOL    HW229367   6.903   4.014   6.822
 9490SOL     OW29368   5.912   3.958   4.928
 9490SOL    HW129369   6.004   3.922   4.945
 9490SOL    HW229370   5.844   3.886   4.943
 9491SOL     OW29371   4.801   0.220   2.438
 9491SOL    HW129372   4.723   0.195   2.495
 9491SOL    HW229373   4.767   0.257   2.351
 9492SOL     OW29374   4.958   3.186   4.088
 9492SOL    HW129375   4.934   3.128   4.011
 9492SOL    HW229376   5.044   3.235   4.068
 9493SOL     OW29377   2.618   6.418   2.706
 9493SOL    HW129378   2.611   6.482   2.629
 9493SOL    HW229379   2.658   6.332   2.675
 9494SOL     OW29380   5.053   2.449   2.533
 9494SOL    HW129381   4.985   2.386   2.495
 9494SOL    HW229382   5.016   2.491   2.616
 9495SOL     OW29383   5.922   2.467   1.021
 9495SOL    HW129384   5.920   2.471   0.921
 9495SOL    HW229385   5.895   2.375   1.051
 9496SOL     OW29386   6.503   3.238   0.524
 9496SOL    HW129387   6.475   3.198   0.437
 9496SOL    HW229388   6.516   3.337   0.514
 9497SOL     OW29389   5.588   4.771   4.774
 9497SOL    HW129390   5.627   4.853   4.814
 9497SOL    HW229391   5.579   4.700   4.844
 9498SOL     OW29392   0.889   6.346   5.642
 9498SOL    HW129393   0.883   6.248   5.659
 9498SOL    HW229394   0.811   6.392   5.686
 9499SOL     OW29395   5.964   6.621   3.735
 9499SOL    HW129396   5.927   6.703   3.779
 9499SOL    HW229397   5.991   6.643   3.642
 9500SOL     OW29398   2.810   1.752   0.735
 9500SOL    HW129399   2.834   1.737   0.639
 9500SOL    HW229400   2.858   1.686   0.792
 9501SOL     OW29401   1.377   3.534   5.059
 9501SOL    HW129402   1.399   3.568   5.151
 9501SOL    HW229403   1.296   3.476   5.064
 9502SOL     OW29404   5.570   4.403   3.526
 9502SOL    HW129405   5.622   4.324   3.495
 9502SOL    HW229406   5.606   4.435   3.613
 9503SOL     OW29407   6.461   0.704   0.073
 9503SOL    HW129408   6.362   0.695   0.079
 9503SOL    HW229409   6.485   0.759   7.010
 9504SOL     OW29410   6.449   4.811   2.990
 9504SOL    HW129411   6.524   4.798   2.924
 9504SOL    HW229412   6.413   4.722   3.017
 9505SOL     OW29413   4.981   2.902   0.517
 9505SOL    HW129414   4.990   2.820   0.461
 9505SOL    HW229415   5.048   2.970   0.488
 9506SOL     OW29416   3.802   1.298   1.475
 9506SOL    HW129417   3.893   1.330   1.500
 9506SOL    HW229418   3.733   1.358   1.516
 9507SOL     OW29419   6.899   5.799   1.499
 9507SOL    HW129420   6.935   5.878   1.548
 9507SOL    HW229421   6.930   5.801   1.404
 9508SOL     OW29422   5.234   1.339   2.233
 9508SOL    HW129423   5.264   1.399   2.307
 9508SOL    HW229424   5.158   1.283   2.264
 9509SOL     OW29425   5.769   1.358   4.018
 9509SOL    HW129426   5.748   1.327   4.111
 9509SOL    HW229427   5.859   1.401   4.017
 9510SOL     OW29428   1.449   3.437   2.171
 9510SOL    HW129429   1.393   3.479   2.099
 9510SOL    HW229430   1.485   3.508   2.232
 9511SOL     OW29431   0.800   1.394   0.674
 9511SOL    HW129432   0.782   1.308   0.722
 9511SOL    HW229433   0.850   1.456   0.734
 9512SOL     OW29434   6.202   2.605   1.458
 9512SOL    HW129435   6.105   2.618   1.440
 9512SOL    HW229436   6.252   2.687   1.433
 9513SOL     OW29437   4.859   3.795   4.757
 9513SOL    HW129438   4.887   3.727   4.825
 9513SOL    HW229439   4.793   3.754   4.693
 9514SOL     OW29440   3.766   2.998   1.180
 9514SOL    HW129441   3.689   3.011   1.243
 9514SOL    HW229442   3.851   2.993   1.233
 9515SOL     OW29443   0.033   6.211   3.130
 9515SOL    HW129444   0.096   6.192   3.055
 9515SOL    HW229445   7.000   6.128   3.154
 9516SOL     OW29446   1.230   2.919   6.941
 9516SOL    HW129447   1.302   2.979   6.904
 9516SOL    HW229448   1.240   2.914   0.023
 9517SOL     OW29449   0.596   6.815   2.060
 9517SOL    HW129450   0.523   6.774   2.005
 9517SOL    HW229451   0.671   6.751   2.071
 9518SOL     OW29452   6.704   6.957   1.312
 9518SOL    HW129453   6.676   6.953   1.216
 9518SOL    HW229454   6.679   0.028   1.351
 9519SOL     OW29455   1.428   2.722   5.696
 9519SOL    HW129456   1.466   2.768   5.616
 9519SOL    HW229457   1.496   2.659   5.733
 9520SOL     OW29458   4.258   6.680   2.210
 9520SOL    HW129459   4.169   6.636   2.215
 9520SOL    HW229460   4.253   6.770   2.254
 9521SOL     OW29461   5.933   4.863   3.290
 9521SOL    HW129462   6.017   4.830   3.246
 9521SOL    HW229463   5.857   4.855   3.225
 9522SOL     OW29464   3.518   5.087   5.378
 9522SOL    HW129465   3.483   5.150   5.308
 9522SOL    HW229466   3.573   5.016   5.335
 9523SOL     OW29467   1.256   6.961   4.659
 9523SOL    HW129468   1.290   6.978   4.567
 9523SOL    HW229469   1.317   6.896   4.705
 9524SOL     OW29470   6.197   3.662   0.200
 9524SOL    HW129471   6.199   3.604   0.282
 9524SOL    HW229472   6.242   3.614   0.125
 9525SOL     OW29473   4.125   0.200   4.551
 9525SOL    HW129474   4.224   0.209   4.541
 9525SOL    HW229475   4.083   0.194   4.461
 9526SOL     OW29476   4.805   5.252   0.484
 9526SOL    HW129477   4.771   5.323   0.546
 9526SOL    HW229478   4.816   5.290   0.392
 9527SOL     OW29479   6.860   0.971   0.370
 9527SOL    HW129480   6.766   0.937   0.375
 9527SOL    HW229481   6.869   1.053   0.427
 9528SOL     OW29482   5.456   0.960   1.807
 9528SOL    HW129483   5.380   0.905   1.772
 9528SOL    HW229484   5.490   0.920   1.891
 9529SOL     OW29485   1.573   2.810   5.481
 9529SOL    HW129486   1.620   2.757   5.410
 9529SOL    HW229487   1.522   2.884   5.438
 9530SOL     OW29488   2.372   1.501   3.734
 9530SOL    HW129489   2.326   1.423   3.692
 9530SOL    HW229490   2.467   1.504   3.704
 9531SOL     OW29491   2.624   6.272   3.473
 9531SOL    HW129492   2.628   6.210   3.552
 9531SOL    HW229493   2.712   6.319   3.463
 9532SOL     OW29494   3.487   1.136   1.224
 9532SOL    HW129495   3.399   1.116   1.181
 9532SOL    HW229496   3.541   1.196   1.165
 9533SOL     OW29497   0.230   1.795   4.150
 9533SOL    HW129498   0.256   1.744   4.232
 9533SOL    HW229499   0.312   1.823   4.101
 9534SOL     OW29500   5.116   1.359   4.203
 9534SOL    HW129501   5.140   1.441   4.254
 9534SOL    HW229502   5.034   1.318   4.243
 9535SOL     OW29503   3.047   1.438   4.858
 9535SOL    HW129504   3.080   1.360   4.806
 9535SOL    HW229505   2.997   1.500   4.796
 9536SOL     OW29506   1.943   5.473   6.619
 9536SOL    HW129507   2.012   5.544   6.635
 9536SOL    HW229508   1.987   5.393   6.578
 9537SOL     OW29509   2.238   0.589   0.330
 9537SOL    HW129510   2.248   0.565   0.427
 9537SOL    HW229511   2.151   0.552   0.295
 9538SOL     OW29512   5.742   4.106   3.018
 9538SOL    HW129513   5.752   4.200   3.051
 9538SOL    HW229514   5.733   4.044   3.096
 9539SOL     OW29515   1.126   3.254   0.047
 9539SOL    HW129516   1.131   3.154   0.049
 9539SOL    HW229517   1.219   3.292   0.050
 9540SOL     OW29518   5.821   3.308   5.270
 9540SOL    HW129519   5.909   3.263   5.285
 9540SOL    HW229520   5.790   3.349   5.356
 9541SOL     OW29521   6.166   1.853   2.973
 9541SOL    HW129522   6.148   1.814   2.883
 9541SOL    HW229523   6.114   1.938   2.984
 9542SOL     OW29524   4.910   3.553   4.474
 9542SOL    HW129525   4.912   3.466   4.425
 9542SOL    HW229526   4.879   3.537   4.568
 9543SOL     OW29527   4.265   2.379   0.439
 9543SOL    HW129528   4.248   2.470   0.477
 9543SOL    HW229529   4.190   2.318   0.465
 9544SOL     OW29530   4.806   6.986   1.654
 9544SOL    HW129531   4.845   0.015   1.733
 9544SOL    HW229532   4.866   6.998   1.575
 9545SOL     OW29533   1.112   0.202   4.234
 9545SOL    HW129534   1.203   0.240   4.252
 9545SOL    HW229535   1.062   0.265   4.173
 9546SOL     OW29536   2.956   4.022   1.766
 9546SOL    HW129537   2.948   4.116   1.732
 9546SOL    HW229538   2.981   4.024   1.862
 9547SOL     OW29539   5.464   6.402   2.628
 9547SOL    HW129540   5.498   6.496   2.627
 9547SOL    HW229541   5.370   6.401   2.661
 9548SOL     OW29542   6.302   6.773   2.035
 9548SOL    HW129543   6.373   6.703   2.023
 9548SOL    HW229544   6.216   6.728   2.060
 9549SOL     OW29545   1.927   6.091   0.041
 9549SOL    HW129546   1.921   6.190   0.055
 9549SOL    HW229547   1.848   6.046   0.083
 9550SOL     OW29548   1.836   0.636   0.348
 9550SOL    HW129549   1.754   0.608   0.297
 9550SOL    HW229550   1.899   0.559   0.353
 9551SOL     OW29551   1.639   5.856   4.699
 9551SOL    HW129552   1.638   5.784   4.769
 9551SOL    HW229553   1.724   5.850   4.646
 9552SOL     OW29554   6.696   5.361   2.807
 9552SOL    HW129555   6.771   5.399   2.753
 9552SOL    HW229556   6.686   5.413   2.892
 9553SOL     OW29557   5.392   4.636   6.603
 9553SOL    HW129558   5.317   4.572   6.615
 9553SOL    HW229559   5.372   4.695   6.524
 9554SOL     OW29560   1.604   2.363   1.419
 9554SOL    HW129561   1.572   2.280   1.373
 9554SOL    HW229562   1.577   2.360   1.515
 9555SOL     OW29563   0.445   2.106   6.574
 9555SOL    HW129564   0.352   2.130   6.546
 9555SOL    HW229565   0.508   2.179   6.548
 9556SOL     OW29566   6.007   0.449   1.829
 9556SOL    HW129567   5.907   0.444   1.825
 9556SOL    HW229568   6.035   0.480   1.920
 9557SOL     OW29569   4.904   1.818   1.517
 9557SOL    HW129570   4.900   1.775   1.426
 9557SOL    HW229571   4.953   1.757   1.580
 9558SOL     OW29572   0.003   4.328   1.297
 9558SOL    HW129573   0.052   4.293   1.217
 9558SOL    HW229574   6.941   4.381   1.267
 9559SOL     OW29575   0.431   4.850   3.392
 9559SOL    HW129576   0.418   4.830   3.295
 9559SOL    HW229577   0.521   4.817   3.420
 9560SOL     OW29578   3.509   2.263   5.684
 9560SOL    HW129579   3.454   2.324   5.627
 9560SOL    HW229580   3.462   2.176   5.694
 9561SOL     OW29581   3.258   5.070   6.500
 9561SOL    HW129582   3.302   4.994   6.453
 9561SOL    HW229583   3.278   5.066   6.598
 9562SOL     OW29584   6.306   5.371   4.093
 9562SOL    HW129585   6.395   5.330   4.113
 9562SOL    HW229586   6.250   5.371   4.176
 9563SOL     OW29587   0.706   1.090   5.911
 9563SOL    HW129588   0.616   1.132   5.917
 9563SOL    HW229589   0.761   1.138   5.843
 9564SOL     OW29590   0.102   0.383   5.908
 9564SOL    HW129591   0.138   0.300   5.865
 9564SOL    HW229592   0.010   0.365   5.942
 9565SOL     OW29593   2.575   5.310   5.132
 9565SOL    HW129594   2.604   5.229   5.184
 9565SOL    HW229595   2.655   5.366   5.112
 9566SOL     OW29596   2.139   5.568   4.958
 9566SOL    HW129597   2.041   5.589   4.950
 9566SOL    HW229598   2.151   5.468   4.962
 9567SOL     OW29599   6.002   5.950   3.691
 9567SOL    HW129600   5.947   6.023   3.731
 9567SOL    HW229601   5.985   5.864   3.739
 9568SOL     OW29602   6.141   3.395   5.057
 9568SOL    HW129603   6.042   3.399   5.053
 9568SOL    HW229604   6.171   3.299   5.057
 9569SOL     OW29605   5.260   0.447   1.278
 9569SOL    HW129606   5.309   0.429   1.364
 9569SOL    HW229607   5.257   0.362   1.225
 9570SOL     OW29608   0.266   3.332   6.330
 9570SOL    HW129609   0.308   3.292   6.249
 9570SOL    HW229610   0.275   3.269   6.407
 9571SOL     OW29611   3.147   1.764   0.691
 9571SOL    HW129612   3.150   1.694   0.762
 9571SOL    HW229613   3.101   1.846   0.728
 9572SOL     OW29614   0.543   3.077   0.873
 9572SOL    HW129615   0.492   2.999   0.911
 9572SOL    HW229616   0.603   3.044   0.800
 9573SOL     OW29617   4.524   1.866   1.867
 9573SOL    HW129618   4.592   1.900   1.802
 9573SOL    HW229619   4.438   1.916   1.855
 9574SOL     OW29620   2.145   1.378   3.949
 9574SOL    HW129621   2.181   1.413   4.035
 9574SOL    HW229622   2.178   1.435   3.873
 9575SOL     OW29623   3.285   1.833   2.557
 9575SOL    HW129624   3.279   1.867   2.463
 9575SOL    HW229625   3.291   1.910   2.620
 9576SOL     OW29626   4.384   3.243   5.709
 9576SOL    HW129627   4.325   3.324   5.704
 9576SOL    HW229628   4.413   3.229   5.804
 9577SOL     OW29629   0.398   5.542   3.483
 9577SOL    HW129630   0.324   5.510   3.424
 9577SOL    HW229631   0.468   5.587   3.427
 9578SOL     OW29632   6.758   4.554   1.248
 9578SOL    HW129633   6.797   4.597   1.330
 9578SOL    HW229634   6.659   4.566   1.248
 9579SOL     OW29635   1.060   4.978   2.411
 9579SOL    HW129636   1.046   4.881   2.427
 9579SOL    HW229637   1.157   5.001   2.425
 9580SOL     OW29638   4.042   3.722   4.999
 9580SOL    HW129639   3.970   3.658   5.026
 9580SOL    HW229640   4.001   3.812   4.982
 9581SOL     OW29641   0.584   0.151   6.812
 9581SOL    HW129642   0.572   0.205   6.729
 9581SOL    HW229643   0.503   0.094   6.826
 9582SOL     OW29644   4.350   5.627   3.054
 9582SOL    HW129645   4.383   5.681   2.976
 9582SOL    HW229646   4.425   5.611   3.118
 9583SOL     OW29647   1.502   4.774   2.939
 9583SOL    HW129648   1.463   4.683   2.928
 9583SOL    HW229649   1.494   4.825   2.853
 9584SOL     OW29650   5.029   4.900   6.969
 9584SOL    HW129651   5.124   4.924   6.952
 9584SOL    HW229652   5.006   4.816   6.919
 9585SOL     OW29653   5.953   1.068   2.595
 9585SOL    HW129654   6.024   1.139   2.592
 9585SOL    HW229655   5.932   1.039   2.502
 9586SOL     OW29656   4.073   4.796   2.567
 9586SOL    HW129657   4.151   4.737   2.585
 9586SOL    HW229658   4.066   4.812   2.468
 9587SOL     OW29659   4.352   6.538   1.610
 9587SOL    HW129660   4.301   6.571   1.531
 9587SOL    HW229661   4.450   6.554   1.596
 9588SOL     OW29662   6.177   1.399   3.575
 9588SOL    HW129663   6.087   1.407   3.618
 9588SOL    HW229664   6.167   1.348   3.489
 9589SOL     OW29665   3.825   1.854   5.104
 9589SOL    HW129666   3.762   1.793   5.056
 9589SOL    HW229667   3.900   1.802   5.145
 9590SOL     OW29668   0.177   4.971   5.155
 9590SOL    HW129669   0.273   4.963   5.129
 9590SOL    HW229670   0.171   4.977   5.255
 9591SOL     OW29671   0.014   5.073   2.069
 9591SOL    HW129672   0.053   5.020   1.993
 9591SOL    HW229673   7.016   5.013   2.147
 9592SOL     OW29674   4.139   5.525   0.794
 9592SOL    HW129675   4.120   5.524   0.892
 9592SOL    HW229676   4.088   5.599   0.751
 9593SOL     OW29677   2.038   2.736   3.772
 9593SOL    HW129678   2.070   2.829   3.793
 9593SOL    HW229679   1.977   2.739   3.693
 9594SOL     OW29680   5.505   0.094   0.769
 9594SOL    HW129681   5.603   0.095   0.785
 9594SOL    HW229682   5.469   0.187   0.778
 9595SOL     OW29683   2.140   4.800   5.360
 9595SOL    HW129684   2.192   4.787   5.444
 9595SOL    HW229685   2.166   4.731   5.293
 9596SOL     OW29686   5.314   4.914   2.481
 9596SOL    HW129687   5.264   4.848   2.425
 9596SOL    HW229688   5.250   4.965   2.538
 9597SOL     OW29689   1.526   3.921   1.948
 9597SOL    HW129690   1.451   3.886   1.892
 9597SOL    HW229691   1.591   3.848   1.967
 9598SOL     OW29692   0.248   6.233   5.278
 9598SOL    HW129693   0.301   6.253   5.195
 9598SOL    HW229694   0.155   6.207   5.253
 9599SOL     OW29695   4.026   1.975   5.795
 9599SOL    HW129696   3.990   1.896   5.746
 9599SOL    HW229697   4.071   2.036   5.731
 9600SOL     OW29698   1.460   5.628   6.900
 9600SOL    HW129699   1.559   5.609   6.904
 9600SOL    HW229700   1.425   5.599   6.811
 9601SOL     OW29701   0.995   0.417   4.800
 9601SOL    HW129702   0.964   0.356   4.726
 9601SOL    HW229703   1.014   0.507   4.762
 9602SOL     OW29704   1.090   5.791   6.145
 9602SOL    HW129705   1.055   5.702   6.173
 9602SOL    HW229706   1.104   5.791   6.046
 9603SOL     OW29707   1.660   5.154   2.063
 9603SOL    HW129708   1.680   5.060   2.034
 9603SOL    HW229709   1.714   5.218   2.009
 9604SOL     OW29710   5.747   0.283   5.975
 9604SOL    HW129711   5.738   0.367   6.028
 9604SOL    HW229712   5.816   0.295   5.903
 9605SOL     OW29713   3.563   4.751   0.518
 9605SOL    HW129714   3.583   4.699   0.435
 9605SOL    HW229715   3.505   4.696   0.579
 9606SOL     OW29716   6.841   1.844   4.360
 9606SOL    HW129717   6.886   1.900   4.291
 9606SOL    HW229718   6.905   1.775   4.393
 9607SOL     OW29719   6.621   2.993   3.440
 9607SOL    HW129720   6.580   3.042   3.363
 9607SOL    HW229721   6.557   2.991   3.516
 9608SOL     OW29722   5.896   0.810   1.396
 9608SOL    HW129723   5.833   0.862   1.454
 9608SOL    HW229724   5.865   0.715   1.390
 9609SOL     OW29725   0.691   2.397   3.713
 9609SOL    HW129726   0.635   2.445   3.780
 9609SOL    HW229727   0.652   2.411   3.621
 9610SOL     OW29728   4.933   1.644   6.234
 9610SOL    HW129729   4.849   1.590   6.241
 9610SOL    HW229730   5.009   1.594   6.276
 9611SOL     OW29731   5.161   5.570   1.392
 9611SOL    HW129732   5.235   5.528   1.445
 9611SOL    HW229733   5.130   5.653   1.438
 9612SOL     OW29734   4.856   3.735   3.314
 9612SOL    HW129735   4.821   3.807   3.374
 9612SOL    HW229736   4.889   3.659   3.370
 9613SOL     OW29737   4.614   1.383   4.762
 9613SOL    HW129738   4.592   1.317   4.690
 9613SOL    HW229739   4.548   1.372   4.837
 9614SOL     OW29740   3.742   2.792   0.124
 9614SOL    HW129741   3.643   2.803   0.136
 9614SOL    HW229742   3.761   2.711   0.069
 9615SOL     OW29743   6.520   5.935   3.784
 9615SOL    HW129744   6.438   5.990   3.802
 9615SOL    HW229745   6.599   5.995   3.778
 9616SOL     OW29746   0.304   2.148   1.102
 9616SOL    HW129747   0.210   2.173   1.123
 9616SOL    HW229748   0.327   2.180   1.010
 9617SOL     OW29749   0.973   3.844   3.592
 9617SOL    HW129750   0.914   3.887   3.660
 9617SOL    HW229751   0.944   3.872   3.500
 9618SOL     OW29752   5.781   4.096   1.912
 9618SOL    HW129753   5.681   4.095   1.920
 9618SOL    HW229754   5.812   4.010   1.871
 9619SOL     OW29755   1.463   1.557   1.229
 9619SOL    HW129756   1.373   1.513   1.222
 9619SOL    HW229757   1.510   1.550   1.141
 9620SOL     OW29758   3.192   1.433   5.951
 9620SOL    HW129759   3.197   1.374   6.031
 9620SOL    HW229760   3.127   1.507   5.968
 9621SOL     OW29761   6.657   0.640   0.492
 9621SOL    HW129762   6.593   0.594   0.553
 9621SOL    HW229763   6.647   0.604   0.400
 9622SOL     OW29764   6.974   0.413   4.819
 9622SOL    HW129765   7.012   0.486   4.762
 9622SOL    HW229766   6.886   0.384   4.781
 9623SOL     OW29767   2.285   5.853   6.124
 9623SOL    HW129768   2.244   5.806   6.203
 9623SOL    HW229769   2.239   5.823   6.040
 9624SOL     OW29770   3.837   5.035   6.404
 9624SOL    HW129771   3.743   5.071   6.407
 9624SOL    HW229772   3.849   4.970   6.480
 9625SOL     OW29773   4.987   4.198   6.262
 9625SOL    HW129774   5.018   4.111   6.302
 9625SOL    HW229775   5.066   4.252   6.234
 9626SOL     OW29776   2.964   2.820   6.875
 9626SOL    HW129777   2.910   2.741   6.847
 9626SOL    HW229778   2.988   2.811   6.972
 9627SOL     OW29779   6.717   5.344   0.240
 9627SOL    HW129780   6.760   5.352   0.330
 9627SOL    HW229781   6.763   5.272   0.188
 9628SOL     OW29782   5.957   1.647   5.210
 9628SOL    HW129783   5.981   1.632   5.114
 9628SOL    HW229784   6.012   1.723   5.246
 9629SOL     OW29785   0.822   5.819   4.192
 9629SOL    HW129786   0.821   5.898   4.254
 9629SOL    HW229787   0.795   5.850   4.100
 9630SOL     OW29788   5.934   0.456   5.621
 9630SOL    HW129789   5.945   0.428   5.526
 9630SOL    HW229790   6.003   0.524   5.644
 9631SOL     OW29791   4.395   6.136   0.162
 9631SOL    HW129792   4.389   6.146   0.062
 9631SOL    HW229793   4.322   6.076   0.194
 9632SOL     OW29794   3.047   5.227   2.821
 9632SOL    HW129795   3.115   5.174   2.771
 9632SOL    HW229796   3.083   5.250   2.912
 9633SOL     OW29797   2.318   2.991   5.550
 9633SOL    HW129798   2.329   3.087   5.576
 9633SOL    HW229799   2.222   2.966   5.552
 9634SOL     OW29800   5.974   4.893   3.571
 9634SOL    HW129801   6.006   4.969   3.627
 9634SOL    HW229802   5.968   4.922   3.476
 9635SOL     OW29803   1.157   5.476   4.175
 9635SOL    HW129804   1.074   5.520   4.209
 9635SOL    HW229805   1.155   5.474   4.075
 9636SOL     OW29806   4.890   3.598   3.728
 9636SOL    HW129807   4.875   3.508   3.769
 9636SOL    HW229808   4.882   3.669   3.799
 9637SOL     OW29809   3.275   2.528   6.922
 9637SOL    HW129810   3.341   2.554   6.993
 9637SOL    HW229811   3.237   2.610   6.880
 9638SOL     OW29812   1.031   4.354   6.469
 9638SOL    HW129813   1.126   4.385   6.470
 9638SOL    HW229814   0.993   4.358   6.561
 9639SOL     OW29815   5.637   2.723   1.639
 9639SOL    HW129816   5.636   2.629   1.674
 9639SOL    HW229817   5.566   2.733   1.569
 9640SOL     OW29818   2.994   6.717   3.544
 9640SOL    HW129819   2.997   6.626   3.503
 9640SOL    HW229820   2.974   6.710   3.641
 9641SOL     OW29821   0.901   2.483   4.579
 9641SOL    HW129822   0.841   2.540   4.635
 9641SOL    HW229823   0.898   2.514   4.484
 9642SOL     OW29824   0.756   3.114   4.691
 9642SOL    HW129825   0.769   3.038   4.626
 9642SOL    HW229826   0.730   3.196   4.640
 9643SOL     OW29827   6.577   5.722   4.595
 9643SOL    HW129828   6.487   5.749   4.629
 9643SOL    HW229829   6.644   5.731   4.669
 9644SOL     OW29830   0.957   4.561   3.470
 9644SOL    HW129831   0.934   4.631   3.537
 9644SOL    HW229832   0.926   4.472   3.503
 9645SOL     OW29833   0.193   5.244   0.191
 9645SOL    HW129834   0.162   5.150   0.178
 9645SOL    HW229835   0.281   5.257   0.145
 9646SOL     OW29836   2.411   4.985   0.617
 9646SOL    HW129837   2.358   4.967   0.700
 9646SOL    HW229838   2.348   4.992   0.539
 9647SOL     OW29839   5.232   6.851   2.966
 9647SOL    HW129840   5.203   6.830   2.873
 9647SOL    HW229841   5.326   6.817   2.980
 9648SOL     OW29842   3.848   2.313   0.503
 9648SOL    HW129843   3.878   2.406   0.481
 9648SOL    HW229844   3.925   2.260   0.540
 9649SOL     OW29845   7.003   5.791   0.243
 9649SOL    HW129846   0.030   5.704   0.222
 9649SOL    HW229847   0.015   5.860   0.177
 9650SOL     OW29848   6.989   5.591   5.389
 9650SOL    HW129849   7.012   5.635   5.302
 9650SOL    HW229850   0.042   5.525   5.414
 9651SOL     OW29851   3.752   1.262   0.524
 9651SOL    HW129852   3.822   1.237   0.457
 9651SOL    HW229853   3.795   1.308   0.602
 9652SOL     OW29854   0.189   4.252   6.953
 9652SOL    HW129855   0.199   4.172   7.011
 9652SOL    HW229856   0.278   4.276   6.914
 9653SOL     OW29857   5.848   3.507   4.788
 9653SOL    HW129858   5.840   3.492   4.887
 9653SOL    HW229859   5.854   3.419   4.741
 9654SOL     OW29860   4.021   3.295   4.493
 9654SOL    HW129861   4.033   3.393   4.475
 9654SOL    HW229862   3.978   3.251   4.415
 9655SOL     OW29863   4.590   0.779   0.684
 9655SOL    HW129864   4.519   0.819   0.626
 9655SOL    HW229865   4.640   0.852   0.731
 9656SOL     OW29866   5.315   4.619   5.089
 9656SOL    HW129867   5.244   4.550   5.070
 9656SOL    HW229868   5.343   4.612   5.184
 9657SOL     OW29869   5.101   5.235   2.347
 9657SOL    HW129870   5.127   5.197   2.436
 9657SOL    HW229871   5.058   5.324   2.361
 9658SOL     OW29872   5.166   1.117   2.728
 9658SOL    HW129873   5.194   1.137   2.634
 9658SOL    HW229874   5.099   1.185   2.758
 9659SOL     OW29875   4.011   3.497   0.378
 9659SOL    HW129876   3.940   3.456   0.436
 9659SOL    HW229877   4.059   3.568   0.429
 9660SOL     OW29878   2.709   0.137   1.916
 9660SOL    HW129879   2.740   0.224   1.954
 9660SOL    HW229880   2.714   0.141   1.817
 9661SOL     OW29881   3.387   3.956   2.373
 9661SOL    HW129882   3.299   3.965   2.326
 9661SOL    HW229883   3.396   4.030   2.440
 9662SOL     OW29884   3.951   0.566   4.757
 9662SOL    HW129885   3.965   0.469   4.741
 9662SOL    HW229886   3.964   0.586   4.855
 9663SOL     OW29887   1.129   5.803   2.189
 9663SOL    HW129888   1.131   5.750   2.273
 9663SOL    HW229889   1.222   5.833   2.167
 9664SOL     OW29890   1.690   4.638   2.704
 9664SOL    HW129891   1.706   4.586   2.787
 9664SOL    HW229892   1.773   4.687   2.678
 9665SOL     OW29893   5.740   3.675   6.688
 9665SOL    HW129894   5.735   3.709   6.782
 9665SOL    HW229895   5.834   3.650   6.667
 9666SOL     OW29896   5.276   4.075   1.042
 9666SOL    HW129897   5.216   4.151   1.016
 9666SOL    HW229898   5.370   4.097   1.016
 9667SOL     OW29899   6.023   6.066   0.228
 9667SOL    HW129900   5.982   6.157   0.233
 9667SOL    HW229901   6.098   6.060   0.293
 9668SOL     OW29902   2.047   0.421   0.792
 9668SOL    HW129903   2.085   0.490   0.730
 9668SOL    HW229904   2.115   0.400   0.863
 9669SOL     OW29905   3.518   0.604   0.901
 9669SOL    HW129906   3.423   0.580   0.918
 9669SOL    HW229907   3.523   0.666   0.822
 9670SOL     OW29908   0.355   0.235   2.761
 9670SOL    HW129909   0.451   0.263   2.761
 9670SOL    HW229910   0.304   0.291   2.826
 9671SOL     OW29911   0.670   6.032   6.332
 9671SOL    HW129912   0.647   6.121   6.370
 9671SOL    HW229913   0.760   6.038   6.287
 9672SOL     OW29914   0.122   4.336   4.538
 9672SOL    HW129915   0.100   4.240   4.556
 9672SOL    HW229916   0.195   4.365   4.600
 9673SOL     OW29917   2.043   3.018   5.625
 9673SOL    HW129918   1.960   2.962   5.623
 9673SOL    HW229919   2.025   3.107   5.584
 9674SOL     OW29920   1.699   7.001   3.808
 9674SOL    HW129921   1.711   6.928   3.876
 9674SOL    HW229922   1.615   0.034   3.828
 9675SOL     OW29923   6.560   4.128   6.310
 9675SOL    HW129924   6.648   4.079   6.308
 9675SOL    HW229925   6.528   4.133   6.404
 9676SOL     OW29926   0.821   2.749   6.501
 9676SOL    HW129927   0.824   2.808   6.581
 9676SOL    HW229928   0.909   2.704   6.488
 9677SOL     OW29929   0.378   4.741   3.107
 9677SOL    HW129930   0.448   4.807   3.081
 9677SOL    HW229931   0.410   4.649   3.088
 9678SOL     OW29932   5.065   3.395   6.754
 9678SOL    HW129933   5.018   3.356   6.832
 9678SOL    HW229934   5.159   3.359   6.750
 9679SOL     OW29935   1.621   1.255   4.450
 9679SOL    HW129936   1.605   1.353   4.464
 9679SOL    HW229937   1.607   1.232   4.354
 9680SOL     OW29938   4.413   6.295   2.376
 9680SOL    HW129939   4.410   6.395   2.377
 9680SOL    HW229940   4.452   6.262   2.462
 9681SOL     OW29941   0.789   2.507   1.113
 9681SOL    HW129942   0.716   2.439   1.106
 9681SOL    HW229943   0.767   2.571   1.187
 9682SOL     OW29944   3.966   6.522   5.561
 9682SOL    HW129945   3.907   6.589   5.515
 9682SOL    HW229946   3.916   6.436   5.572
 9683SOL     OW29947   3.138   5.604   3.643
 9683SOL    HW129948   3.047   5.646   3.639
 9683SOL    HW229949   3.159   5.577   3.737
 9684SOL     OW29950   1.525   2.415   5.952
 9684SOL    HW129951   1.441   2.365   5.931
 9684SOL    HW229952   1.585   2.356   6.008
 9685SOL     OW29953   3.927   4.771   1.741
 9685SOL    HW129954   3.887   4.787   1.831
 9685SOL    HW229955   4.009   4.827   1.731
 9686SOL     OW29956   0.609   1.779   6.119
 9686SOL    HW129957   0.636   1.870   6.149
 9686SOL    HW229958   0.566   1.729   6.195
 9687SOL     OW29959   5.698   0.396   4.410
 9687SOL    HW129960   5.738   0.354   4.329
 9687SOL    HW229961   5.662   0.324   4.470
 9688SOL     OW29962   0.586   5.087   2.458
 9688SOL    HW129963   0.528   5.068   2.379
 9688SOL    HW229964   0.661   5.148   2.431
 9689SOL     OW29965   1.776   5.913   1.189
 9689SOL    HW129966   1.797   5.816   1.199
 9689SOL    HW229967   1.788   5.958   1.277
 9690SOL     OW29968   5.799   4.583   3.758
 9690SOL    HW129969   5.821   4.594   3.661
 9690SOL    HW229970   5.867   4.525   3.801
 9691SOL     OW29971   3.979   3.768   2.024
 9691SOL    HW129972   4.030   3.774   2.109
 9691SOL    HW229973   3.905   3.701   2.034
 9692SOL     OW29974   6.279   5.501   0.023
 9692SOL    HW129975   6.305   5.598   0.020
 9692SOL    HW229976   6.358   5.447   0.053
 9693SOL     OW29977   4.593   3.170   6.577
 9693SOL    HW129978   4.514   3.117   6.609
 9693SOL    HW229979   4.565   3.264   6.557
 9694SOL     OW29980   2.756   6.394   1.271
 9694SOL    HW129981   2.724   6.345   1.190
 9694SOL    HW229982   2.717   6.352   1.353
 9695SOL     OW29983   1.956   2.923   3.458
 9695SOL    HW129984   2.018   2.973   3.397
 9695SOL    HW229985   1.937   2.979   3.539
 9696SOL     OW29986   4.704   4.239   3.422
 9696SOL    HW129987   4.763   4.159   3.419
 9696SOL    HW229988   4.695   4.271   3.516
 9697SOL     OW29989   6.666   6.935   2.632
 9697SOL    HW129990   6.615   6.940   2.718
 9697SOL    HW229991   6.680   6.839   2.608
 9698SOL     OW29992   6.889   2.685   1.191
 9698SOL    HW129993   6.962   2.705   1.126
 9698SOL    HW229994   6.921   2.706   1.284
 9699SOL     OW29995   1.768   6.960   2.200
 9699SOL    HW129996   1.736   6.892   2.133
 9699SOL    HW229997   1.691   6.989   2.256
 9700SOL     OW29998   5.972   0.927   6.009
 9700SOL    HW129999   5.883   0.896   5.979
 9700SOL    HW230000   5.961   0.994   6.083
 9701SOL     OW30001   5.810   3.922   6.558
 9701SOL    HW130002   5.880   3.902   6.489
 9701SOL    HW230003   5.756   3.839   6.575
 9702SOL     OW30004   2.950   3.489   1.904
 9702SOL    HW130005   3.037   3.454   1.869
 9702SOL    HW230006   2.967   3.562   1.970
 9703SOL     OW30007   6.713   4.331   3.393
 9703SOL    HW130008   6.776   4.326   3.315
 9703SOL    HW230009   6.706   4.426   3.423
 9704SOL     OW30010   0.987   5.020   2.119
 9704SOL    HW130011   1.034   5.003   2.206
 9704SOL    HW230012   1.054   5.031   2.046
 9705SOL     OW30013   6.946   3.760   5.502
 9705SOL    HW130014   7.010   3.778   5.427
 9705SOL    HW230015   6.860   3.725   5.464
 9706SOL     OW30016   0.106   6.990   2.591
 9706SOL    HW130017   0.026   0.030   2.606
 9706SOL    HW230018   0.136   6.952   2.679
 9707SOL     OW30019   1.007   4.920   1.498
 9707SOL    HW130020   0.949   4.839   1.504
 9707SOL    HW230021   0.995   4.964   1.409
 9708SOL     OW30022   2.894   0.864   1.955
 9708SOL    HW130023   2.925   0.785   1.902
 9708SOL    HW230024   2.887   0.838   2.051
 9709SOL     OW30025   3.727   1.609   2.529
 9709SOL    HW130026   3.808   1.605   2.470
 9709SOL    HW230027   3.735   1.686   2.592
 9710SOL     OW30028   4.896   4.406   4.469
 9710SOL    HW130029   4.900   4.358   4.381
 9710SOL    HW230030   4.938   4.496   4.459
 9711SOL     OW30031   3.670   0.297   6.719
 9711SOL    HW130032   3.742   0.366   6.730
 9711SOL    HW230033   3.634   0.301   6.626
 9712SOL     OW30034   4.623   0.074   5.433
 9712SOL    HW130035   4.540   0.129   5.427
 9712SOL    HW230036   4.620   0.016   5.514
 9713SOL     OW30037   0.640   0.777   3.306
 9713SOL    HW130038   0.717   0.759   3.245
 9713SOL    HW230039   0.662   0.747   3.398
 9714SOL     OW30040   2.115   2.906   4.232
 9714SOL    HW130041   2.169   2.881   4.312
 9714SOL    HW230042   2.043   2.838   4.218
 9715SOL     OW30043   0.257   1.669   6.608
 9715SOL    HW130044   0.257   1.717   6.521
 9715SOL    HW230045   0.308   1.583   6.598
 9716SOL     OW30046   1.454   6.199   0.667
 9716SOL    HW130047   1.536   6.181   0.612
 9716SOL    HW230048   1.373   6.177   0.614
 9717SOL     OW30049   4.585   1.886   6.049
 9717SOL    HW130050   4.538   1.848   6.129
 9717SOL    HW230051   4.684   1.882   6.065
 9718SOL     OW30052   2.666   2.525   6.275
 9718SOL    HW130053   2.672   2.610   6.223
 9718SOL    HW230054   2.661   2.546   6.373
 9719SOL     OW30055   4.441   0.453   5.978
 9719SOL    HW130056   4.518   0.442   5.915
 9719SOL    HW230057   4.456   0.396   6.059
 9720SOL     OW30058   2.250   2.501   1.806
 9720SOL    HW130059   2.170   2.467   1.856
 9720SOL    HW230060   2.224   2.582   1.754
 9721SOL     OW30061   0.528   2.074   1.232
 9721SOL    HW130062   0.503   2.065   1.329
 9721SOL    HW230063   0.448   2.098   1.178
 9722SOL     OW30064   3.276   2.794   5.719
 9722SOL    HW130065   3.346   2.746   5.772
 9722SOL    HW230066   3.187   2.752   5.737
 9723SOL     OW30067   5.851   1.211   4.573
 9723SOL    HW130068   5.824   1.116   4.558
 9723SOL    HW230069   5.922   1.215   4.643
 9724SOL     OW30070   1.463   5.281   1.744
 9724SOL    HW130071   1.366   5.264   1.723
 9724SOL    HW230072   1.469   5.339   1.825
 9725SOL     OW30073   5.356   5.588   4.622
 9725SOL    HW130074   5.361   5.668   4.563
 9725SOL    HW230075   5.449   5.561   4.650
 9726SOL     OW30076   6.922   0.035   3.482
 9726SOL    HW130077   6.824   0.024   3.467
 9726SOL    HW230078   6.972   7.014   3.403
 9727SOL     OW30079   6.452   2.946   0.854
 9727SOL    HW130080   6.493   2.992   0.933
 9727SOL    HW230081   6.397   2.869   0.885
 9728SOL     OW30082   5.091   1.951   5.353
 9728SOL    HW130083   5.073   2.018   5.425
 9728SOL    HW230084   5.145   1.875   5.391
 9729SOL     OW30085   6.728   3.689   2.737
 9729SOL    HW130086   6.757   3.753   2.666
 9729SOL    HW230087   6.728   3.596   2.699
 9730SOL     OW30088   0.735   5.874   3.481
 9730SOL    HW130089   0.772   5.958   3.439
 9730SOL    HW230090   0.651   5.848   3.433
 9731SOL     OW30091   6.251   1.526   1.333
 9731SOL    HW130092   6.277   1.433   1.356
 9731SOL    HW230093   6.192   1.562   1.406
 9732SOL     OW30094   6.705   2.349   2.897
 9732SOL    HW130095   6.622   2.403   2.906
 9732SOL    HW230096   6.710   2.282   2.972
 9733SOL     OW30097   5.310   6.028   0.003
 9733SOL    HW130098   5.346   6.035   6.927
 9733SOL    HW230099   5.352   5.950   0.049
 9734SOL     OW30100   3.841   3.595   0.151
 9734SOL    HW130101   3.855   3.496   0.158
 9734SOL    HW230102   3.908   3.633   0.087
 9735SOL     OW30103   1.004   1.566   0.317
 9735SOL    HW130104   1.086   1.589   0.369
 9735SOL    HW230105   1.031   1.536   0.225
 9736SOL     OW30106   5.556   2.726   6.495
 9736SOL    HW130107   5.489   2.794   6.526
 9736SOL    HW230108   5.522   2.634   6.518
 9737SOL     OW30109   5.147   3.491   5.258
 9737SOL    HW130110   5.106   3.531   5.340
 9737SOL    HW230111   5.243   3.519   5.251
 9738SOL     OW30112   2.501   5.994   1.751
 9738SOL    HW130113   2.465   5.935   1.823
 9738SOL    HW230114   2.600   5.985   1.747
 9739SOL     OW30115   5.427   6.273   1.049
 9739SOL    HW130116   5.495   6.280   1.122
 9739SOL    HW230117   5.417   6.177   1.023
 9740SOL     OW30118   6.879   0.401   0.818
 9740SOL    HW130119   6.842   0.309   0.805
 9740SOL    HW230120   6.872   0.452   0.732
 9741SOL     OW30121   2.439   2.636   2.837
 9741SOL    HW130122   2.522   2.594   2.874
 9741SOL    HW230123   2.405   2.581   2.761
 9742SOL     OW30124   4.821   0.175   6.678
 9742SOL    HW130125   4.919   0.159   6.687
 9742SOL    HW230126   4.781   0.103   6.621
 9743SOL     OW30127   5.768   3.734   4.452
 9743SOL    HW130128   5.784   3.642   4.415
 9743SOL    HW230129   5.696   3.779   4.399
 9744SOL     OW30130   1.428   2.911   1.573
 9744SOL    HW130131   1.354   2.890   1.510
 9744SOL    HW230132   1.396   2.974   1.643
 9745SOL     OW30133   1.273   0.086   5.977
 9745SOL    HW130134   1.353   0.041   5.939
 9745SOL    HW230135   1.213   0.117   5.903
 9746SOL     OW30136   3.207   5.854   5.602
 9746SOL    HW130137   3.250   5.911   5.532
 9746SOL    HW230138   3.263   5.857   5.686
 9747SOL     OW30139   4.475   1.505   3.552
 9747SOL    HW130140   4.568   1.528   3.579
 9747SOL    HW230141   4.419   1.588   3.551
 9748SOL     OW30142   0.435   2.315   1.818
 9748SOL    HW130143   0.406   2.269   1.901
 9748SOL    HW230144   0.471   2.247   1.753
 9749SOL     OW30145   6.329   6.893   1.779
 9749SOL    HW130146   6.317   6.858   1.872
 9749SOL    HW230147   6.246   6.941   1.750
 9750SOL     OW30148   5.444   2.502   4.414
 9750SOL    HW130149   5.365   2.543   4.369
 9750SOL    HW230150   5.416   2.462   4.502
 9751SOL     OW30151   3.115   4.912   0.688
 9751SOL    HW130152   3.190   4.909   0.754
 9751SOL    HW230153   3.058   4.830   0.699
 9752SOL     OW30154   4.214   3.960   0.975
 9752SOL    HW130155   4.232   4.002   0.886
 9752SOL    HW230156   4.140   3.893   0.967
 9753SOL     OW30157   6.352   6.405   3.151
 9753SOL    HW130158   6.381   6.350   3.073
 9753SOL    HW230159   6.347   6.348   3.233
 9754SOL     OW30160   3.944   0.593   1.906
 9754SOL    HW130161   3.910   0.639   1.824
 9754SOL    HW230162   4.044   0.593   1.905
 9755SOL     OW30163   3.266   4.403   1.327
 9755SOL    HW130164   3.181   4.393   1.379
 9755SOL    HW230165   3.274   4.496   1.293
 9756SOL     OW30166   4.452   6.853   0.212
 9756SOL    HW130167   4.372   6.909   0.189
 9756SOL    HW230168   4.488   6.882   0.301
 9757SOL     OW30169   5.035   4.260   3.848
 9757SOL    HW130170   5.020   4.359   3.853
 9757SOL    HW230171   5.131   4.241   3.832
 9758SOL     OW30172   3.153   0.850   1.337
 9758SOL    HW130173   3.211   0.800   1.401
 9758SOL    HW230174   3.153   0.947   1.362
 9759SOL     OW30175   6.662   1.500   0.751
 9759SOL    HW130176   6.667   1.502   0.851
 9759SOL    HW230177   6.667   1.593   0.715
 9760SOL     OW30178   5.128   1.087   6.070
 9760SOL    HW130179   5.069   1.153   6.023
 9760SOL    HW230180   5.169   1.130   6.150
 9761SOL     OW30181   0.745   2.810   1.714
 9761SOL    HW130182   0.825   2.803   1.655
 9761SOL    HW230183   0.713   2.718   1.737
 9762SOL     OW30184   3.310   1.120   5.635
 9762SOL    HW130185   3.269   1.198   5.586
 9762SOL    HW230186   3.401   1.102   5.596
 9763SOL     OW30187   5.955   2.235   0.815
 9763SOL    HW130188   6.027   2.171   0.842
 9763SOL    HW230189   5.992   2.328   0.815
 9764SOL     OW30190   0.240   2.590   3.608
 9764SOL    HW130191   0.230   2.644   3.524
 9764SOL    HW230192   0.313   2.629   3.664
 9765SOL     OW30193   6.710   2.048   0.776
 9765SOL    HW130194   6.785   1.986   0.801
 9765SOL    HW230195   6.709   2.126   0.838
 9766SOL     OW30196   0.658   3.095   2.813
 9766SOL    HW130197   0.742   3.042   2.819
 9766SOL    HW230198   0.599   3.075   2.891
 9767SOL     OW30199   4.019   1.733   4.844
 9767SOL    HW130200   3.988   1.639   4.826
 9767SOL    HW230201   4.005   1.754   4.940
 9768SOL     OW30202   4.872   3.010   6.624
 9768SOL    HW130203   4.788   3.057   6.595
 9768SOL    HW230204   4.848   2.924   6.669
 9769SOL     OW30205   3.111   0.956   5.666
 9769SOL    HW130206   3.196   1.009   5.661
 9769SOL    HW230207   3.133   0.859   5.674
 9770SOL     OW30208   1.708   3.520   5.180
 9770SOL    HW130209   1.781   3.535   5.247
 9770SOL    HW230210   1.673   3.609   5.149
 9771SOL     OW30211   3.514   0.730   1.709
 9771SOL    HW130212   3.427   0.739   1.659
 9771SOL    HW230213   3.504   0.770   1.800
 9772SOL     OW30214   0.468   1.075   1.561
 9772SOL    HW130215   0.529   0.995   1.561
 9772SOL    HW230216   0.374   1.044   1.546
 9773SOL     OW30217   4.696   6.271   2.262
 9773SOL    HW130218   4.646   6.198   2.215
 9773SOL    HW230219   4.645   6.301   2.342
 9774SOL     OW30220   1.410   5.268   5.232
 9774SOL    HW130221   1.400   5.193   5.297
 9774SOL    HW230222   1.368   5.351   5.270
 9775SOL     OW30223   1.585   1.231   3.243
 9775SOL    HW130224   1.504   1.290   3.237
 9775SOL    HW230225   1.575   1.169   3.321
 9776SOL     OW30226   1.054   5.757   1.577
 9776SOL    HW130227   1.037   5.680   1.638
 9776SOL    HW230228   1.146   5.794   1.595
 9777SOL     OW30229   4.596   2.275   5.067
 9777SOL    HW130230   4.690   2.271   5.101
 9777SOL    HW230231   4.585   2.214   4.989
 9778SOL     OW30232   1.557   3.247   2.879
 9778SOL    HW130233   1.640   3.196   2.858
 9778SOL    HW230234   1.501   3.194   2.942
 9779SOL     OW30235   2.000   0.969   2.805
 9779SOL    HW130236   2.095   0.985   2.776
 9779SOL    HW230237   1.956   0.908   2.739
 9780SOL     OW30238   1.942   2.089   1.017
 9780SOL    HW130239   1.852   2.081   0.975
 9780SOL    HW230240   2.013   2.076   0.947
 9781SOL     OW30241   1.413   1.189   2.133
 9781SOL    HW130242   1.363   1.145   2.058
 9781SOL    HW230243   1.406   1.288   2.124
 9782SOL     OW30244   0.451   2.405   6.873
 9782SOL    HW130245   0.504   2.372   6.795
 9782SOL    HW230246   0.395   2.331   6.909
 9783SOL     OW30247   4.751   1.171   1.944
 9783SOL    HW130248   4.731   1.256   1.894
 9783SOL    HW230249   4.747   1.189   2.042
 9784SOL     OW30250   2.419   1.340   0.590
 9784SOL    HW130251   2.429   1.421   0.532
 9784SOL    HW230252   2.500   1.330   0.648
 9785SOL     OW30253   1.467   3.845   4.561
 9785SOL    HW130254   1.441   3.918   4.625
 9785SOL    HW230255   1.506   3.886   4.479
 9786SOL     OW30256   3.445   4.112   0.098
 9786SOL    HW130257   3.353   4.140   0.123
 9786SOL    HW230258   3.492   4.074   0.178
 9787SOL     OW30259   2.872   3.505   1.205
 9787SOL    HW130260   2.784   3.550   1.189
 9787SOL    HW230261   2.915   3.544   1.286
 9788SOL     OW30262   2.676   0.098   3.255
 9788SOL    HW130263   2.766   0.110   3.212
 9788SOL    HW230264   2.609   0.076   3.184
 9789SOL     OW30265   4.330   1.865   6.750
 9789SOL    HW130266   4.280   1.820   6.824
 9789SOL    HW230267   4.322   1.810   6.667
 9790SOL     OW30268   4.471   5.813   4.923
 9790SOL    HW130269   4.430   5.737   4.873
 9790SOL    HW230270   4.400   5.878   4.951
 9791SOL     OW30271   0.417   0.990   1.207
 9791SOL    HW130272   0.447   1.064   1.267
 9791SOL    HW230273   0.436   1.015   1.112
 9792SOL     OW30274   3.186   3.387   0.508
 9792SOL    HW130275   3.126   3.339   0.573
 9792SOL    HW230276   3.263   3.426   0.558
 9793SOL     OW30277   5.460   0.642   1.707
 9793SOL    HW130278   5.534   0.664   1.645
 9793SOL    HW230279   5.381   0.701   1.687
 9794SOL     OW30280   4.286   6.010   4.942
 9794SOL    HW130281   4.242   6.027   4.855
 9794SOL    HW230282   4.273   6.089   5.002
 9795SOL     OW30283   1.618   3.763   3.165
 9795SOL    HW130284   1.558   3.698   3.118
 9795SOL    HW230285   1.577   3.855   3.161
 9796SOL     OW30286   4.053   3.371   5.157
 9796SOL    HW130287   4.100   3.356   5.244
 9796SOL    HW230288   4.119   3.386   5.084
 9797SOL     OW30289   3.770   5.248   0.536
 9797SOL    HW130290   3.693   5.309   0.556
 9797SOL    HW230291   3.852   5.283   0.580
 9798SOL     OW30292   0.491   3.757   6.126
 9798SOL    HW130293   0.404   3.711   6.111
 9798SOL    HW230294   0.477   3.834   6.189
 9799SOL     OW30295   3.282   6.928   6.222
 9799SOL    HW130296   3.183   6.944   6.219
 9799SOL    HW230297   3.309   6.873   6.143
 9800SOL     OW30298   6.865   4.426   4.540
 9800SOL    HW130299   6.815   4.398   4.622
 9800SOL    HW230300   6.963   4.423   4.559
 9801SOL     OW30301   3.951   6.744   0.838
 9801SOL    HW130302   3.920   6.744   0.743
 9801SOL    HW230303   4.049   6.760   0.842
 9802SOL     OW30304   4.164   2.630   0.540
 9802SOL    HW130305   4.193   2.630   0.635
 9802SOL    HW230306   4.183   2.719   0.499
 9803SOL     OW30307   2.845   3.850   0.326
 9803SOL    HW130308   2.919   3.828   0.263
 9803SOL    HW230309   2.882   3.898   0.406
 9804SOL     OW30310   1.052   3.693   2.697
 9804SOL    HW130311   0.954   3.686   2.682
 9804SOL    HW230312   1.082   3.617   2.755
 9805SOL     OW30313   6.990   4.524   5.023
 9805SOL    HW130314   0.049   4.549   5.082
 9805SOL    HW230315   6.910   4.578   5.047
 9806SOL     OW30316   3.346   1.521   0.037
 9806SOL    HW130317   3.393   1.604   0.066
 9806SOL    HW230318   3.410   1.464   7.002
 9807SOL     OW30319   3.470   3.526   4.560
 9807SOL    HW130320   3.502   3.574   4.642
 9807SOL    HW230321   3.381   3.485   4.578
 9808SOL     OW30322   2.544   6.049   2.495
 9808SOL    HW130323   2.528   5.951   2.490
 9808SOL    HW230324   2.472   6.097   2.443
 9809SOL     OW30325   6.588   3.090   1.021
 9809SOL    HW130326   6.606   3.088   1.119
 9809SOL    HW230327   6.647   3.158   0.977
 9810SOL     OW30328   3.881   2.908   0.934
 9810SOL    HW130329   3.831   2.947   1.011
 9810SOL    HW230330   3.823   2.843   0.885
 9811SOL     OW30331   5.005   3.781   4.162
 9811SOL    HW130332   4.988   3.818   4.070
 9811SOL    HW230333   4.991   3.682   4.161
 9812SOL     OW30334   2.892   5.120   6.522
 9812SOL    HW130335   2.872   5.111   6.425
 9812SOL    HW230336   2.892   5.030   6.566
 9813SOL     OW30337   4.514   0.572   1.890
 9813SOL    HW130338   4.523   0.593   1.792
 9813SOL    HW230339   4.516   0.473   1.903
 9814SOL     OW30340   6.753   1.307   6.299
 9814SOL    HW130341   6.755   1.319   6.199
 9814SOL    HW230342   6.658   1.308   6.331
 9815SOL     OW30343   5.297   2.428   4.652
 9815SOL    HW130344   5.308   2.344   4.707
 9815SOL    HW230345   5.201   2.440   4.630
 9816SOL     OW30346   3.531   0.769   0.049
 9816SOL    HW130347   3.496   0.838   7.003
 9816SOL    HW230348   3.607   0.806   0.101
 9817SOL     OW30349   6.274   6.986   1.286
 9817SOL    HW130350   6.278   6.888   1.305
 9817SOL    HW230351   6.182   7.011   1.258
 9818SOL     OW30352   3.851   2.305   5.241
 9818SOL    HW130353   3.792   2.272   5.168
 9818SOL    HW230354   3.808   2.287   5.329
 9819SOL     OW30355   2.386   0.543   1.880
 9819SOL    HW130356   2.315   0.509   1.818
 9819SOL    HW230357   2.376   0.500   1.969
 9820SOL     OW30358   4.212   2.823   0.035
 9820SOL    HW130359   4.174   2.887   0.101
 9820SOL    HW230360   4.148   2.811   6.976
 9821SOL     OW30361   0.660   6.350   6.404
 9821SOL    HW130362   0.750   6.364   6.363
 9821SOL    HW230363   0.651   6.407   6.485
 9822SOL     OW30364   0.126   1.379   2.534
 9822SOL    HW130365   0.159   1.432   2.457
 9822SOL    HW230366   0.128   1.435   2.617
 9823SOL     OW30367   3.247   6.629   2.482
 9823SOL    HW130368   3.257   6.726   2.501
 9823SOL    HW230369   3.222   6.617   2.385
 9824SOL     OW30370   2.257   3.874   5.335
 9824SOL    HW130371   2.232   3.947   5.398
 9824SOL    HW230372   2.328   3.906   5.272
 9825SOL     OW30373   4.178   4.578   5.467
 9825SOL    HW130374   4.129   4.656   5.505
 9825SOL    HW230375   4.123   4.533   5.397
 9826SOL     OW30376   5.804   0.139   5.462
 9826SOL    HW130377   5.823   0.047   5.426
 9826SOL    HW230378   5.730   0.180   5.409
 9827SOL     OW30379   1.315   5.357   4.800
 9827SOL    HW130380   1.311   5.456   4.782
 9827SOL    HW230381   1.226   5.316   4.782
 9828SOL     OW30382   2.618   1.521   0.401
 9828SOL    HW130383   2.585   1.615   0.386
 9828SOL    HW230384   2.650   1.482   0.314
 9829SOL     OW30385   3.055   4.217   1.529
 9829SOL    HW130386   3.146   4.182   1.506
 9829SOL    HW230387   2.997   4.211   1.448
 9830SOL     OW30388   5.743   1.203   1.348
 9830SOL    HW130389   5.802   1.282   1.365
 9830SOL    HW230390   5.691   1.181   1.430
 9831SOL     OW30391   6.865   6.252   1.471
 9831SOL    HW130392   6.868   6.339   1.423
 9831SOL    HW230393   6.773   6.234   1.504
 9832SOL     OW30394   2.830   3.694   0.956
 9832SOL    HW130395   2.904   3.733   1.011
 9832SOL    HW230396   2.863   3.615   0.906
 9833SOL     OW30397   4.891   4.647   0.252
 9833SOL    HW130398   4.819   4.630   0.185
 9833SOL    HW230399   4.862   4.613   0.342
 9834SOL     OW30400   1.645   3.150   4.075
 9834SOL    HW130401   1.681   3.098   4.151
 9834SOL    HW230402   1.708   3.224   4.052
 9835SOL     OW30403   5.018   2.120   4.240
 9835SOL    HW130404   5.063   2.165   4.318
 9835SOL    HW230405   4.950   2.054   4.274
 9836SOL     OW30406   5.804   5.143   1.508
 9836SOL    HW130407   5.851   5.065   1.467
 9836SOL    HW230408   5.708   5.143   1.479
 9837SOL     OW30409   2.604   5.483   5.513
 9837SOL    HW130410   2.664   5.559   5.536
 9837SOL    HW230411   2.549   5.507   5.433
 9838SOL     OW30412   6.998   6.682   4.922
 9838SOL    HW130413   0.027   6.611   4.975
 9838SOL    HW230414   7.014   6.771   4.966
 9839SOL     OW30415   6.037   2.993   3.429
 9839SOL    HW130416   6.043   2.904   3.473
 9839SOL    HW230417   6.110   3.053   3.465
 9840SOL     OW30418   5.789   0.145   0.465
 9840SOL    HW130419   5.857   0.157   0.538
 9840SOL    HW230420   5.780   0.048   0.443
 9841SOL     OW30421   2.060   2.975   4.571
 9841SOL    HW130422   2.124   2.898   4.566
 9841SOL    HW230423   2.082   3.041   4.499
 9842SOL     OW30424   3.110   3.259   4.241
 9842SOL    HW130425   3.065   3.338   4.283
 9842SOL    HW230426   3.204   3.252   4.275
 9843SOL     OW30427   6.147   4.441   3.098
 9843SOL    HW130428   6.122   4.522   3.043
 9843SOL    HW230429   6.132   4.359   3.043
 9844SOL     OW30430   4.410   0.274   1.905
 9844SOL    HW130431   4.320   0.296   1.944
 9844SOL    HW230432   4.398   0.225   1.819
 9845SOL     OW30433   1.491   1.767   4.018
 9845SOL    HW130434   1.569   1.704   4.012
 9845SOL    HW230435   1.509   1.848   3.963
 9846SOL     OW30436   2.966   3.610   4.075
 9846SOL    HW130437   3.034   3.655   4.132
 9846SOL    HW230438   2.929   3.530   4.122
 9847SOL     OW30439   2.497   4.449   3.993
 9847SOL    HW130440   2.459   4.438   3.901
 9847SOL    HW230441   2.444   4.394   4.057
 9848SOL     OW30442   6.904   4.324   6.931
 9848SOL    HW130443   6.960   4.260   6.984
 9848SOL    HW230444   6.846   4.273   6.867
 9849SOL     OW30445   6.920   6.276   5.217
 9849SOL    HW130446   6.890   6.247   5.308
 9849SOL    HW230447   6.973   6.360   5.224
 9850SOL     OW30448   5.428   0.445   3.744
 9850SOL    HW130449   5.405   0.377   3.674
 9850SOL    HW230450   5.388   0.533   3.720
 9851SOL     OW30451   5.224   2.467   5.194
 9851SOL    HW130452   5.236   2.368   5.188
 9851SOL    HW230453   5.190   2.491   5.285
 9852SOL     OW30454   5.347   1.718   4.112
 9852SOL    HW130455   5.304   1.808   4.123
 9852SOL    HW230456   5.326   1.682   4.021
 9853SOL     OW30457   0.703   5.154   0.881
 9853SOL    HW130458   0.699   5.066   0.835
 9853SOL    HW230459   0.629   5.161   0.948
 9854SOL     OW30460   3.570   6.511   4.030
 9854SOL    HW130461   3.644   6.574   4.053
 9854SOL    HW230462   3.577   6.486   3.933
 9855SOL     OW30463   2.472   4.355   0.685
 9855SOL    HW130464   2.446   4.394   0.773
 9855SOL    HW230465   2.421   4.270   0.669
 9856SOL     OW30466   3.516   3.730   0.907
 9856SOL    HW130467   3.544   3.736   0.811
 9856SOL    HW230468   3.594   3.700   0.962
 9857SOL     OW30469   6.393   4.586   3.145
 9857SOL    HW130470   6.307   4.537   3.127
 9857SOL    HW230471   6.470   4.526   3.123
 9858SOL     OW30472   3.306   1.371   1.519
 9858SOL    HW130473   3.328   1.447   1.580
 9858SOL    HW230474   3.390   1.333   1.480
 9859SOL     OW30475   0.283   6.532   1.208
 9859SOL    HW130476   0.209   6.528   1.276
 9859SOL    HW230477   0.371   6.518   1.253
 9860SOL     OW30478   1.078   1.168   2.703
 9860SOL    HW130479   1.146   1.220   2.754
 9860SOL    HW230480   1.040   1.096   2.762
 9861SOL     OW30481   2.606   6.172   3.742
 9861SOL    HW130482   2.531   6.239   3.741
 9861SOL    HW230483   2.621   6.141   3.836
 9862SOL     OW30484   0.215   1.885   1.101
 9862SOL    HW130485   0.234   1.983   1.096
 9862SOL    HW230486   0.298   1.833   1.082
 9863SOL     OW30487   4.559   0.499   0.630
 9863SOL    HW130488   4.574   0.592   0.662
 9863SOL    HW230489   4.598   0.488   0.538
 9864SOL     OW30490   3.953   5.850   3.425
 9864SOL    HW130491   3.940   5.751   3.431
 9864SOL    HW230492   4.047   5.873   3.451
 9865SOL     OW30493   1.803   3.389   4.089
 9865SOL    HW130494   1.899   3.380   4.113
 9865SOL    HW230495   1.761   3.460   4.146
 9866SOL     OW30496   2.849   4.743   3.510
 9866SOL    HW130497   2.762   4.708   3.543
 9866SOL    HW230498   2.873   4.699   3.424
 9867SOL     OW30499   3.548   6.277   5.983
 9867SOL    HW130500   3.515   6.362   5.942
 9867SOL    HW230501   3.571   6.293   6.079
 9868SOL     OW30502   1.335   5.026   6.048
 9868SOL    HW130503   1.371   4.978   6.128
 9868SOL    HW230504   1.391   5.107   6.029
 9869SOL     OW30505   1.026   4.847   2.814
 9869SOL    HW130506   1.123   4.856   2.792
 9869SOL    HW230507   1.017   4.815   2.909
 9870SOL     OW30508   4.292   5.678   1.601
 9870SOL    HW130509   4.343   5.648   1.682
 9870SOL    HW230510   4.355   5.690   1.524
 9871SOL     OW30511   2.178   2.701   5.970
 9871SOL    HW130512   2.247   2.643   6.014
 9871SOL    HW230513   2.223   2.777   5.923
 9872SOL     OW30514   1.232   3.890   2.740
 9872SOL    HW130515   1.310   3.849   2.693
 9872SOL    HW230516   1.154   3.827   2.736
 9873SOL     OW30517   1.912   1.856   1.248
 9873SOL    HW130518   1.993   1.888   1.297
 9873SOL    HW230519   1.898   1.911   1.166
 9874SOL     OW30520   1.086   3.914   4.526
 9874SOL    HW130521   1.109   3.925   4.430
 9874SOL    HW230522   0.991   3.943   4.541
 9875SOL     OW30523   1.220   1.376   3.434
 9875SOL    HW130524   1.247   1.415   3.346
 9875SOL    HW230525   1.213   1.276   3.425
 9876SOL     OW30526   6.823   5.895   2.011
 9876SOL    HW130527   6.808   5.798   1.995
 9876SOL    HW230528   6.737   5.938   2.041
 9877SOL     OW30529   3.998   0.454   1.302
 9877SOL    HW130530   3.920   0.392   1.306
 9877SOL    HW230531   4.059   0.437   1.378
 9878SOL     OW30532   6.665   1.170   5.024
 9878SOL    HW130533   6.684   1.107   5.100
 9878SOL    HW230534   6.633   1.257   5.061
 9879SOL     OW30535   4.795   5.335   5.266
 9879SOL    HW130536   4.713   5.334   5.209
 9879SOL    HW230537   4.863   5.396   5.227
 9880SOL     OW30538   1.071   2.362   3.902
 9880SOL    HW130539   0.995   2.420   3.875
 9880SOL    HW230540   1.101   2.306   3.825
 9881SOL     OW30541   0.510   1.350   5.919
 9881SOL    HW130542   0.438   1.284   5.899
 9881SOL    HW230543   0.524   1.355   6.018
 9882SOL     OW30544   1.917   2.671   3.523
 9882SOL    HW130545   1.918   2.760   3.478
 9882SOL    HW230546   1.962   2.604   3.465
 9883SOL     OW30547   2.880   1.598   2.478
 9883SOL    HW130548   2.841   1.530   2.540
 9883SOL    HW230549   2.935   1.553   2.408
 9884SOL     OW30550   3.481   0.804   3.718
 9884SOL    HW130551   3.439   0.825   3.630
 9884SOL    HW230552   3.489   0.705   3.728
 9885SOL     OW30553   6.234   2.999   4.833
 9885SOL    HW130554   6.329   2.997   4.803
 9885SOL    HW230555   6.179   2.940   4.774
 9886SOL     OW30556   6.861   3.053   1.558
 9886SOL    HW130557   6.889   3.016   1.646
 9886SOL    HW230558   6.761   3.061   1.555
 9887SOL     OW30559   4.635   6.236   5.803
 9887SOL    HW130560   4.603   6.205   5.714
 9887SOL    HW230561   4.581   6.315   5.832
 9888SOL     OW30562   6.356   4.815   5.305
 9888SOL    HW130563   6.332   4.820   5.208
 9888SOL    HW230564   6.418   4.738   5.321
 9889SOL     OW30565   0.629   5.749   0.761
 9889SOL    HW130566   0.720   5.729   0.725
 9889SOL    HW230567   0.637   5.789   0.852
 9890SOL     OW30568   0.673   2.532   0.855
 9890SOL    HW130569   0.725   2.560   0.936
 9890SOL    HW230570   0.595   2.475   0.883
 9891SOL     OW30571   5.026   1.098   1.960
 9891SOL    HW130572   4.932   1.132   1.956
 9891SOL    HW230573   5.089   1.176   1.961
 9892SOL     OW30574   0.895   0.076   6.595
 9892SOL    HW130575   0.812   0.125   6.568
 9892SOL    HW230576   0.975   0.126   6.562
 9893SOL     OW30577   2.300   1.061   0.368
 9893SOL    HW130578   2.247   1.142   0.393
 9893SOL    HW230579   2.253   1.012   0.294
 9894SOL     OW30580   1.962   1.002   1.459
 9894SOL    HW130581   1.872   0.963   1.438
 9894SOL    HW230582   1.962   1.035   1.553
 9895SOL     OW30583   4.506   2.806   5.498
 9895SOL    HW130584   4.449   2.737   5.452
 9895SOL    HW230585   4.459   2.838   5.580
 9896SOL     OW30586   6.460   6.755   5.780
 9896SOL    HW130587   6.371   6.794   5.757
 9896SOL    HW230588   6.529   6.786   5.714
 9897SOL     OW30589   5.470   5.098   4.848
 9897SOL    HW130590   5.401   5.026   4.854
 9897SOL    HW230591   5.425   5.185   4.828
 9898SOL     OW30592   2.421   0.008   6.986
 9898SOL    HW130593   2.375   0.036   6.902
 9898SOL    HW230594   2.455   6.932   6.976
 9899SOL     OW30595   6.944   4.811   6.965
 9899SOL    HW130596   6.865   4.801   0.008
 9899SOL    HW230597   6.917   4.864   6.884
 9900SOL     OW30598   2.225   4.545   3.277
 9900SOL    HW130599   2.247   4.478   3.207
 9900SOL    HW230600   2.167   4.617   3.239
 9901SOL     OW30601   1.965   3.556   5.295
 9901SOL    HW130602   2.000   3.638   5.251
 9901SOL    HW230603   2.041   3.492   5.311
 9902SOL     OW30604   2.731   4.548   0.876
 9902SOL    HW130605   2.703   4.577   0.968
 9902SOL    HW230606   2.670   4.588   0.808
 9903SOL     OW30607   5.617   1.352   5.304
 9903SOL    HW130608   5.684   1.323   5.372
 9903SOL    HW230609   5.643   1.317   5.214
 9904SOL     OW30610   6.273   1.882   0.377
 9904SOL    HW130611   6.309   1.970   0.408
 9904SOL    HW230612   6.347   1.826   0.342
 9905SOL     OW30613   5.022   0.283   0.208
 9905SOL    HW130614   5.061   0.214   0.147
 9905SOL    HW230615   4.978   0.237   0.286
 9906SOL     OW30616   3.179   3.351   5.073
 9906SOL    HW130617   3.213   3.390   5.159
 9906SOL    HW230618   3.087   3.315   5.087
 9907SOL     OW30619   1.495   6.571   1.638
 9907SOL    HW130620   1.397   6.581   1.619
 9907SOL    HW230621   1.525   6.480   1.611
 9908SOL     OW30622   5.284   3.880   1.666
 9908SOL    HW130623   5.198   3.929   1.681
 9908SOL    HW230624   5.313   3.836   1.751
 9909SOL     OW30625   1.710   0.269   4.651
 9909SOL    HW130626   1.628   0.228   4.691
 9909SOL    HW230627   1.758   0.201   4.596
 9910SOL     OW30628   6.833   4.339   4.052
 9910SOL    HW130629   6.874   4.345   4.143
 9910SOL    HW230630   6.733   4.338   4.061
 9911SOL     OW30631   2.505   6.521   2.276
 9911SOL    HW130632   2.412   6.485   2.280
 9911SOL    HW230633   2.569   6.445   2.261
 9912SOL     OW30634   4.513   0.935   5.858
 9912SOL    HW130635   4.420   0.956   5.888
 9912SOL    HW230636   4.516   0.934   5.758
 9913SOL     OW30637   5.121   3.139   0.510
 9913SOL    HW130638   5.191   3.122   0.441
 9913SOL    HW230639   5.164   3.165   0.596
 9914SOL     OW30640   6.905   3.192   4.689
 9914SOL    HW130641   6.963   3.231   4.617
 9914SOL    HW230642   6.957   3.185   4.774
 9915SOL     OW30643   4.650   1.259   3.827
 9915SOL    HW130644   4.711   1.299   3.759
 9915SOL    HW230645   4.597   1.331   3.871
 9916SOL     OW30646   1.266   2.970   1.203
 9916SOL    HW130647   1.268   2.900   1.274
 9916SOL    HW230648   1.309   3.054   1.237
 9917SOL     OW30649   6.159   4.620   5.431
 9917SOL    HW130650   6.231   4.687   5.450
 9917SOL    HW230651   6.135   4.573   5.516
 9918SOL     OW30652   4.948   3.207   2.481
 9918SOL    HW130653   5.038   3.186   2.444
 9918SOL    HW230654   4.950   3.298   2.523
 9919SOL     OW30655   5.404   5.813   0.353
 9919SOL    HW130656   5.307   5.834   0.346
 9919SOL    HW230657   5.417   5.734   0.413
 9920SOL     OW30658   4.810   1.305   2.572
 9920SOL    HW130659   4.751   1.226   2.591
 9920SOL    HW230660   4.877   1.281   2.503
 9921SOL     OW30661   4.150   5.010   6.161
 9921SOL    HW130662   4.211   4.966   6.096
 9921SOL    HW230663   4.056   4.983   6.143
 9922SOL     OW30664   0.077   5.922   1.214
 9922SOL    HW130665   0.106   5.985   1.287
 9922SOL    HW230666   0.060   5.973   1.130
 9923SOL     OW30667   5.830   4.488   0.573
 9923SOL    HW130668   5.759   4.558   0.581
 9923SOL    HW230669   5.821   4.441   0.485
 9924SOL     OW30670   1.680   4.481   4.590
 9924SOL    HW130671   1.622   4.563   4.585
 9924SOL    HW230672   1.647   4.422   4.664
 9925SOL     OW30673   4.611   2.593   4.250
 9925SOL    HW130674   4.634   2.501   4.220
 9925SOL    HW230675   4.643   2.659   4.182
 9926SOL     OW30676   3.666   5.200   1.432
 9926SOL    HW130677   3.570   5.228   1.442
 9926SOL    HW230678   3.722   5.280   1.414
 9927SOL     OW30679   5.231   0.079   4.297
 9927SOL    HW130680   5.212   0.105   4.202
 9927SOL    HW230681   5.307   0.133   4.332
 9928SOL     OW30682   4.935   4.241   2.450
 9928SOL    HW130683   4.992   4.205   2.376
 9928SOL    HW230684   4.984   4.316   2.496
 9929SOL     OW30685   0.748   4.056   3.461
 9929SOL    HW130686   0.664   4.029   3.507
 9929SOL    HW230687   0.785   3.979   3.409
 9930SOL     OW30688   5.729   1.205   3.062
 9930SOL    HW130689   5.762   1.285   3.013
 9930SOL    HW230690   5.804   1.164   3.114
 9931SOL     OW30691   1.192   5.331   5.863
 9931SOL    HW130692   1.244   5.397   5.809
 9931SOL    HW230693   1.197   5.355   5.960
 9932SOL     OW30694   0.489   5.795   4.357
 9932SOL    HW130695   0.407   5.852   4.368
 9932SOL    HW230696   0.492   5.760   4.263
 9933SOL     OW30697   6.910   6.617   2.983
 9933SOL    HW130698   6.881   6.583   2.894
 9933SOL    HW230699   6.886   6.551   3.054
 9934SOL     OW30700   6.935   2.454   4.676
 9934SOL    HW130701   6.976   2.379   4.728
 9934SOL    HW230702   6.883   2.513   4.737
 9935SOL     OW30703   2.179   0.368   6.071
 9935SOL    HW130704   2.271   0.329   6.063
 9935SOL    HW230705   2.144   0.351   6.163
 9936SOL     OW30706   1.978   4.025   3.847
 9936SOL    HW130707   2.026   4.092   3.905
 9936SOL    HW230708   1.964   4.064   3.756
 9937SOL     OW30709   6.277   2.104   5.845
 9937SOL    HW130710   6.203   2.070   5.786
 9937SOL    HW230711   6.320   2.027   5.891
 9938SOL     OW30712   6.730   6.314   2.904
 9938SOL    HW130713   6.762   6.365   2.824
 9938SOL    HW230714   6.764   6.358   2.987
 9939SOL     OW30715   3.398   2.955   4.076
 9939SOL    HW130716   3.355   3.008   4.003
 9939SOL    HW230717   3.352   2.974   4.162
 9940SOL     OW30718   0.469   1.313   0.831
 9940SOL    HW130719   0.510   1.386   0.886
 9940SOL    HW230720   0.490   1.328   0.734
 9941SOL     OW30721   3.292   5.882   4.572
 9941SOL    HW130722   3.203   5.858   4.610
 9941SOL    HW230723   3.354   5.908   4.646
 9942SOL     OW30724   2.830   5.862   3.950
 9942SOL    HW130725   2.832   5.773   3.996
 9942SOL    HW230726   2.830   5.935   4.019
 9943SOL     OW30727   0.697   6.636   4.889
 9943SOL    HW130728   0.746   6.559   4.848
 9943SOL    HW230729   0.615   6.655   4.835
 9944SOL     OW30730   1.919   4.313   6.200
 9944SOL    HW130731   1.828   4.356   6.206
 9944SOL    HW230732   1.981   4.373   6.151
 9945SOL     OW30733   0.175   5.865   6.523
 9945SOL    HW130734   0.227   5.840   6.441
 9945SOL    HW230735   0.192   5.961   6.546
 9946SOL     OW30736   5.454   0.287   3.977
 9946SOL    HW130737   5.547   0.256   3.961
 9946SOL    HW230738   5.420   0.337   3.897
 9947SOL     OW30739   5.911   4.412   3.971
 9947SOL    HW130740   5.838   4.425   4.039
 9947SOL    HW230741   5.998   4.443   4.010
 9948SOL     OW30742   5.318   4.129   3.598
 9948SOL    HW130743   5.318   4.184   3.681
 9948SOL    HW230744   5.331   4.032   3.623
 9949SOL     OW30745   6.341   4.888   2.201
 9949SOL    HW130746   6.347   4.801   2.152
 9949SOL    HW230747   6.246   4.919   2.204
 9950SOL     OW30748   4.063   5.815   0.241
 9950SOL    HW130749   4.114   5.802   0.326
 9950SOL    HW230750   4.109   5.883   0.184
 9951SOL     OW30751   6.027   3.198   2.805
 9951SOL    HW130752   6.033   3.297   2.819
 9951SOL    HW230753   5.964   3.159   2.872
 9952SOL     OW30754   0.568   4.273   6.213
 9952SOL    HW130755   0.665   4.289   6.228
 9952SOL    HW230756   0.549   4.266   6.115
 9953SOL     OW30757   5.547   3.327   3.889
 9953SOL    HW130758   5.513   3.270   3.963
 9953SOL    HW230759   5.504   3.417   3.894
 9954SOL     OW30760   4.813   0.693   5.220
 9954SOL    HW130761   4.901   0.668   5.179
 9954SOL    HW230762   4.748   0.619   5.208
 9955SOL     OW30763   0.427   4.893   4.489
 9955SOL    HW130764   0.431   4.795   4.470
 9955SOL    HW230765   0.520   4.930   4.487
 9956SOL     OW30766   0.873   6.249   0.626
 9956SOL    HW130767   0.895   6.158   0.660
 9956SOL    HW230768   0.822   6.241   0.541
 9957SOL     OW30769   5.804   5.512   2.465
 9957SOL    HW130770   5.824   5.545   2.373
 9957SOL    HW230771   5.890   5.499   2.515
 9958SOL     OW30772   3.056   4.429   0.662
 9958SOL    HW130773   3.131   4.492   0.644
 9958SOL    HW230774   2.979   4.449   0.601
 9959SOL     OW30775   3.348   4.261   1.078
 9959SOL    HW130776   3.417   4.224   1.140
 9959SOL    HW230777   3.282   4.314   1.130
 9960SOL     OW30778   0.685   1.097   2.282
 9960SOL    HW130779   0.641   1.017   2.243
 9960SOL    HW230780   0.784   1.091   2.267
 9961SOL     OW30781   2.088   3.976   4.666
 9961SOL    HW130782   2.104   3.991   4.569
 9961SOL    HW230783   1.998   3.935   4.680
 9962SOL     OW30784   5.805   6.298   4.500
 9962SOL    HW130785   5.842   6.380   4.543
 9962SOL    HW230786   5.860   6.275   4.420
 9963SOL     OW30787   3.237   2.405   0.291
 9963SOL    HW130788   3.233   2.323   0.347
 9963SOL    HW230789   3.171   2.398   0.216
 9964SOL     OW30790   5.601   6.522   4.621
 9964SOL    HW130791   5.701   6.523   4.619
 9964SOL    HW230792   5.569   6.449   4.681
 9965SOL     OW30793   4.995   0.032   1.895
 9965SOL    HW130794   5.000   0.088   1.978
 9965SOL    HW230795   5.087   0.022   1.856
 9966SOL     OW30796   6.861   1.219   2.789
 9966SOL    HW130797   6.865   1.316   2.768
 9966SOL    HW230798   6.805   1.172   2.720
 9967SOL     OW30799   1.000   5.676   0.171
 9967SOL    HW130800   0.919   5.630   0.209
 9967SOL    HW230801   1.054   5.610   0.119
 9968SOL     OW30802   3.781   3.054   3.423
 9968SOL    HW130803   3.766   3.108   3.505
 9968SOL    HW230804   3.695   3.044   3.373
 9969SOL     OW30805   1.712   3.144   0.982
 9969SOL    HW130806   1.652   3.213   0.941
 9969SOL    HW230807   1.706   3.150   1.082
 9970SOL     OW30808   6.493   4.070   2.348
 9970SOL    HW130809   6.502   4.166   2.377
 9970SOL    HW230810   6.554   4.013   2.403
 9971SOL     OW30811   2.763   6.597   0.007
 9971SOL    HW130812   2.851   6.637   6.999
 9971SOL    HW230813   2.763   6.577   0.105
 9972SOL     OW30814   6.832   5.024   1.643
 9972SOL    HW130815   6.773   5.044   1.721
 9972SOL    HW230816   6.926   5.011   1.675
 9973SOL     OW30817   5.087   6.008   3.840
 9973SOL    HW130818   5.084   6.023   3.939
 9973SOL    HW230819   5.179   5.980   3.813
 9974SOL     OW30820   2.620   0.951   4.017
 9974SOL    HW130821   2.524   0.955   3.990
 9974SOL    HW230822   2.638   0.866   4.066
 9975SOL     OW30823   7.016   3.905   0.925
 9975SOL    HW130824   0.075   3.896   0.861
 9975SOL    HW230825   6.993   4.002   0.935
 9976SOL     OW30826   2.607   6.091   4.283
 9976SOL    HW130827   2.618   6.103   4.382
 9976SOL    HW230828   2.584   6.179   4.241
 9977SOL     OW30829   6.526   4.899   4.157
 9977SOL    HW130830   6.517   4.807   4.118
 9977SOL    HW230831   6.525   4.892   4.257
 9978SOL     OW30832   6.900   3.209   4.286
 9978SOL    HW130833   6.930   3.168   4.200
 9978SOL    HW230834   6.967   3.191   4.358
 9979SOL     OW30835   0.759   3.564   5.063
 9979SOL    HW130836   0.737   3.598   4.972
 9979SOL    HW230837   0.725   3.470   5.073
 9980SOL     OW30838   2.660   6.680   5.420
 9980SOL    HW130839   2.679   6.778   5.421
 9980SOL    HW230840   2.741   6.631   5.389
 9981SOL     OW30841   3.630   1.760   3.243
 9981SOL    HW130842   3.570   1.801   3.174
 9981SOL    HW230843   3.574   1.721   3.316
 9982SOL     OW30844   6.204   6.725   3.102
 9982SOL    HW130845   6.223   6.719   3.200
 9982SOL    HW230846   6.228   6.816   3.068
 9983SOL     OW30847   6.773   0.675   1.408
 9983SOL    HW130848   6.803   0.713   1.320
 9983SOL    HW230849   6.679   0.643   1.400
 9984SOL     OW30850   3.333   0.389   6.674
 9984SOL    HW130851   3.325   0.478   6.720
 9984SOL    HW230852   3.381   0.401   6.587
 9985SOL     OW30853   1.543   1.757   0.996
 9985SOL    HW130854   1.495   1.697   0.932
 9985SOL    HW230855   1.638   1.768   0.967
 9986SOL     OW30856   5.183   4.304   4.562
 9986SOL    HW130857   5.139   4.216   4.578
 9986SOL    HW230858   5.148   4.344   4.477
 9987SOL     OW30859   0.127   4.118   5.124
 9987SOL    HW130860   0.221   4.107   5.156
 9987SOL    HW230861   0.063   4.096   5.197
 9988SOL     OW30862   6.385   1.151   4.091
 9988SOL    HW130863   6.368   1.067   4.040
 9988SOL    HW230864   6.404   1.226   4.027
 9989SOL     OW30865   1.713   2.590   4.882
 9989SOL    HW130866   1.770   2.543   4.815
 9989SOL    HW230867   1.725   2.547   4.972
 9990SOL     OW30868   1.275   4.550   1.399
 9990SOL    HW130869   1.322   4.568   1.312
 9990SOL    HW230870   1.299   4.459   1.432
 9991SOL     OW30871   3.852   2.203   3.377
 9991SOL    HW130872   3.881   2.202   3.281
 9991SOL    HW230873   3.815   2.113   3.401
 9992SOL     OW30874   6.460   5.076   6.154
 9992SOL    HW130875   6.485   5.061   6.058
 9992SOL    HW230876   6.416   5.165   6.163
 9993SOL     OW30877   1.315   0.882   1.983
 9993SOL    HW130878   1.376   0.872   2.061
 9993SOL    HW230879   1.281   0.976   1.978
 9994SOL     OW30880   6.187   4.126   3.277
 9994SOL    HW130881   6.158   4.107   3.183
 9994SOL    HW230882   6.238   4.212   3.279
 9995SOL     OW30883   5.358   1.974   4.363
 9995SOL    HW130884   5.376   1.881   4.333
 9995SOL    HW230885   5.410   2.038   4.306
 9996SOL     OW30886   3.065   2.913   0.935
 9996SOL    HW130887   3.110   2.828   0.907
 9996SOL    HW230888   3.131   2.988   0.933
 9997SOL     OW30889   2.634   0.744   4.607
 9997SOL    HW130890   2.720   0.735   4.556
 9997SOL    HW230891   2.654   0.788   4.695
 9998SOL     OW30892   6.319   6.223   5.002
 9998SOL    HW130893   6.239   6.164   4.995
 9998SOL    HW230894   6.330   6.253   5.097
 9999SOL     OW30895   0.474   0.702   5.001
 9999SOL    HW130896   0.489   0.793   4.964
 9999SOL    HW230897   0.541   0.685   5.074
10000SOL     OW30898   6.749   4.828   0.890
10000SOL    HW130899   6.650   4.833   0.900
10000SOL    HW230900   6.771   4.793   0.799
10001SOL     OW30901   3.601   0.488   3.416
10001SOL    HW130902   3.521   0.538   3.448
10001SOL    HW230903   3.677   0.499   3.480
10002SOL     OW30904   1.122   2.005   1.968
10002SOL    HW130905   1.062   2.057   1.906
10002SOL    HW230906   1.070   1.930   2.009
10003SOL     OW30907   5.409   4.122   1.327
10003SOL    HW130908   5.479   4.192   1.339
10003SOL    HW230909   5.359   4.140   1.242
10004SOL     OW30910   5.974   3.874   4.263
10004SOL    HW130911   6.057   3.846   4.311
10004SOL    HW230912   5.902   3.806   4.278
10005SOL     OW30913   4.701   6.915   3.529
10005SOL    HW130914   4.726   6.939   3.622
10005SOL    HW230915   4.781   6.924   3.469
10006SOL     OW30916   5.244   2.662   4.268
10006SOL    HW130917   5.275   2.658   4.174
10006SOL    HW230918   5.198   2.576   4.292
10007SOL     OW30919   4.999   5.182   3.951
10007SOL    HW130920   5.029   5.130   4.031
10007SOL    HW230921   5.049   5.269   3.947
10008SOL     OW30922   2.313   6.739   4.084
10008SOL    HW130923   2.346   6.826   4.049
10008SOL    HW230924   2.274   6.752   4.175
10009SOL     OW30925   2.055   4.268   1.862
10009SOL    HW130926   2.106   4.190   1.899
10009SOL    HW230927   2.118   4.345   1.850
10010SOL     OW30928   5.285   0.920   5.843
10010SOL    HW130929   5.241   1.000   5.804
10010SOL    HW230930   5.324   0.943   5.933
10011SOL     OW30931   6.711   6.755   3.846
10011SOL    HW130932   6.719   6.854   3.852
10011SOL    HW230933   6.655   6.720   3.921
10012SOL     OW30934   4.926   1.541   5.145
10012SOL    HW130935   4.827   1.548   5.161
10012SOL    HW230936   4.963   1.466   5.200
10013SOL     OW30937   1.336   0.632   1.253
10013SOL    HW130938   1.325   0.603   1.158
10013SOL    HW230939   1.293   0.566   1.314
10014SOL     OW30940   1.560   4.694   5.914
10014SOL    HW130941   1.634   4.696   5.982
10014SOL    HW230942   1.478   4.654   5.955
10015SOL     OW30943   2.790   5.782   6.158
10015SOL    HW130944   2.821   5.812   6.068
10015SOL    HW230945   2.755   5.861   6.209
10016SOL     OW30946   2.480   1.464   4.972
10016SOL    HW130947   2.507   1.413   5.053
10016SOL    HW230948   2.390   1.506   4.989
10017SOL     OW30949   6.371   1.921   3.154
10017SOL    HW130950   6.309   1.882   3.086
10017SOL    HW230951   6.451   1.862   3.164
10018SOL     OW30952   4.222   6.689   6.190
10018SOL    HW130953   4.279   6.712   6.268
10018SOL    HW230954   4.253   6.603   6.150
10019SOL     OW30955   1.080   0.652   3.586
10019SOL    HW130956   1.109   0.556   3.579
10019SOL    HW230957   1.100   0.686   3.678
10020SOL     OW30958   1.189   3.836   0.470
10020SOL    HW130959   1.165   3.837   0.567
10020SOL    HW230960   1.181   3.929   0.433
10021SOL     OW30961   4.938   3.148   1.451
10021SOL    HW130962   5.030   3.122   1.424
10021SOL    HW230963   4.918   3.108   1.541
10022SOL     OW30964   2.197   0.884   5.963
10022SOL    HW130965   2.258   0.960   5.986
10022SOL    HW230966   2.197   0.870   5.864
10023SOL     OW30967   0.600   3.082   0.328
10023SOL    HW130968   0.532   3.010   0.342
10023SOL    HW230969   0.555   3.164   0.294
10024SOL     OW30970   0.781   3.620   2.684
10024SOL    HW130971   0.744   3.528   2.694
10024SOL    HW230972   0.722   3.674   2.624
10025SOL     OW30973   1.189   1.629   0.970
10025SOL    HW130974   1.271   1.598   0.921
10025SOL    HW230975   1.158   1.716   0.931
10026SOL     OW30976   6.253   0.703   4.528
10026SOL    HW130977   6.297   0.780   4.575
10026SOL    HW230978   6.288   0.697   4.434
10027SOL     OW30979   5.998   2.631   6.044
10027SOL    HW130980   5.984   2.637   6.142
10027SOL    HW230981   5.915   2.596   6.001
10028SOL     OW30982   1.555   1.773   1.833
10028SOL    HW130983   1.537   1.791   1.736
10028SOL    HW230984   1.501   1.835   1.889
10029SOL     OW30985   3.854   1.324   4.073
10029SOL    HW130986   3.776   1.303   4.132
10029SOL    HW230987   3.868   1.423   4.069
10030SOL     OW30988   0.487   1.318   1.747
10030SOL    HW130989   0.441   1.238   1.787
10030SOL    HW230990   0.568   1.288   1.697
10031SOL     OW30991   0.279   5.412   2.993
10031SOL    HW130992   0.235   5.417   2.904
10031SOL    HW230993   0.222   5.358   3.055
10032SOL     OW30994   3.753   2.126   5.069
10032SOL    HW130995   3.844   2.095   5.098
10032SOL    HW230996   3.693   2.048   5.054
10033SOL     OW30997   6.050   2.681   4.028
10033SOL    HW130998   6.078   2.665   4.123
10033SOL    HW230999   5.998   2.766   4.023
10034SOL     OW31000   3.910   6.376   6.235
10034SOL    HW131001   3.924   6.388   6.137
10034SOL    HW231002   3.969   6.439   6.286
10035SOL     OW31003   0.626   6.339   4.431
10035SOL    HW131004   0.532   6.306   4.422
10035SOL    HW231005   0.683   6.268   4.471
10036SOL     OW31006   6.141   0.205   0.370
10036SOL    HW131007   6.075   0.194   0.295
10036SOL    HW231008   6.234   0.187   0.335
10037SOL     OW31009   6.932   0.006   1.511
10037SOL    HW131010   6.938   6.955   1.583
10037SOL    HW231011   6.837   0.015   1.481
10038SOL     OW31012   5.885   6.653   1.452
10038SOL    HW131013   5.919   6.617   1.539
10038SOL    HW231014   5.810   6.595   1.420
10039SOL     OW31015   4.078   1.159   3.089
10039SOL    HW131016   4.070   1.067   3.126
10039SOL    HW231017   4.051   1.160   2.993
10040SOL     OW31018   0.773   1.429   0.403
10040SOL    HW131019   0.845   1.492   0.375
10040SOL    HW231020   0.783   1.408   0.500
10041SOL     OW31021   0.692   6.908   0.033
10041SOL    HW131022   0.715   6.986   0.092
10041SOL    HW231023   0.598   6.879   0.052
10042SOL     OW31024   6.547   1.928   3.851
10042SOL    HW131025   6.620   1.898   3.789
10042SOL    HW231026   6.587   1.960   3.937
10043SOL     OW31027   2.429   3.253   5.321
10043SOL    HW131028   2.407   3.214   5.410
10043SOL    HW231029   2.462   3.181   5.260
10044SOL     OW31030   3.998   0.922   6.437
10044SOL    HW131031   3.952   1.004   6.403
10044SOL    HW231032   3.935   0.871   6.495
10045SOL     OW31033   2.450   0.301   1.341
10045SOL    HW131034   2.491   0.210   1.347
10045SOL    HW231035   2.353   0.295   1.361
10046SOL     OW31036   0.713   6.433   6.693
10046SOL    HW131037   0.801   6.478   6.706
10046SOL    HW231038   0.640   6.493   6.726
10047SOL     OW31039   1.698   4.082   0.933
10047SOL    HW131040   1.710   3.983   0.924
10047SOL    HW231041   1.674   4.104   1.027
10048SOL     OW31042   6.491   3.399   1.019
10048SOL    HW131043   6.455   3.309   1.042
10048SOL    HW231044   6.465   3.423   0.926
10049SOL     OW31045   6.666   1.961   4.549
10049SOL    HW131046   6.715   1.947   4.463
10049SOL    HW231047   6.719   1.922   4.624
10050SOL     OW31048   0.373   1.986   6.012
10050SOL    HW131049   0.371   1.920   5.937
10050SOL    HW231050   0.400   2.076   5.976
10051SOL     OW31051   1.715   0.622   2.556
10051SOL    HW131052   1.740   0.582   2.644
10051SOL    HW231053   1.705   0.549   2.488
10052SOL     OW31054   0.873   0.212   4.629
10052SOL    HW131055   0.908   0.153   4.556
10052SOL    HW231056   0.848   0.301   4.591
10053SOL     OW31057   5.978   5.167   2.265
10053SOL    HW131058   5.884   5.137   2.284
10053SOL    HW231059   6.033   5.159   2.347
10054SOL     OW31060   4.898   4.458   3.434
10054SOL    HW131061   4.852   4.371   3.417
10054SOL    HW231062   4.980   4.442   3.489
10055SOL     OW31063   2.025   1.770   6.839
10055SOL    HW131064   2.046   1.780   6.742
10055SOL    HW231065   2.098   1.811   6.894
10056SOL     OW31066   5.001   2.714   4.624
10056SOL    HW131067   4.910   2.674   4.632
10056SOL    HW231068   5.025   2.760   4.709
10057SOL     OW31069   5.564   4.576   4.575
10057SOL    HW131070   5.558   4.638   4.653
10057SOL    HW231071   5.621   4.498   4.600
10058SOL     OW31072   5.875   4.125   4.235
10058SOL    HW131073   5.929   4.178   4.301
10058SOL    HW231074   5.890   4.028   4.250
10059SOL     OW31075   5.462   5.930   6.018
10059SOL    HW131076   5.407   5.945   6.100
10059SOL    HW231077   5.556   5.961   6.034
10060SOL     OW31078   3.122   1.569   1.681
10060SOL    HW131079   3.024   1.549   1.672
10060SOL    HW231080   3.153   1.618   1.600
10061SOL     OW31081   4.169   0.118   3.248
10061SOL    HW131082   4.264   0.148   3.242
10061SOL    HW231083   4.108   0.197   3.235
10062SOL     OW31084   6.613   0.132   4.475
10062SOL    HW131085   6.642   0.227   4.474
10062SOL    HW231086   6.599   0.102   4.569
10063SOL     OW31087   4.194   2.305   3.117
10063SOL    HW131088   4.273   2.363   3.135
10063SOL    HW231089   4.180   2.296   3.019
10064SOL     OW31090   2.357   6.246   2.411
10064SOL    HW131091   2.328   6.311   2.341
10064SOL    HW231092   2.361   6.292   2.500
10065SOL     OW31093   6.612   1.931   1.451
10065SOL    HW131094   6.665   2.002   1.496
10065SOL    HW231095   6.580   1.964   1.362
10066SOL     OW31096   5.993   4.221   3.453
10066SOL    HW131097   6.060   4.168   3.401
10066SOL    HW231098   6.035   4.256   3.536
10067SOL     OW31099   5.443   3.505   5.226
10067SOL    HW131100   5.501   3.458   5.159
10067SOL    HW231101   5.437   3.602   5.204
10068SOL     OW31102   2.180   3.910   2.771
10068SOL    HW131103   2.193   3.970   2.692
10068SOL    HW231104   2.267   3.900   2.819
10069SOL     OW31105   2.646   5.429   1.307
10069SOL    HW131106   2.678   5.389   1.393
10069SOL    HW231107   2.615   5.356   1.245
10070SOL     OW31108   5.157   0.490   6.761
10070SOL    HW131109   5.191   0.577   6.725
10070SOL    HW231110   5.094   0.508   6.837
10071SOL     OW31111   5.272   1.310   4.817
10071SOL    HW131112   5.245   1.405   4.828
10071SOL    HW231113   5.324   1.300   4.732
10072SOL     OW31114   5.652   3.127   2.231
10072SOL    HW131115   5.642   3.036   2.273
10072SOL    HW231116   5.642   3.197   2.301
10073SOL     OW31117   5.726   5.528   5.396
10073SOL    HW131118   5.769   5.439   5.380
10073SOL    HW231119   5.627   5.516   5.406
10074SOL     OW31120   2.156   4.404   1.123
10074SOL    HW131121   2.152   4.486   1.179
10074SOL    HW231122   2.076   4.347   1.142
10075SOL     OW31123   0.751   3.619   1.403
10075SOL    HW131124   0.792   3.531   1.430
10075SOL    HW231125   0.822   3.681   1.373
10076SOL     OW31126   6.273   4.797   3.846
10076SOL    HW131127   6.285   4.838   3.756
10076SOL    HW231128   6.237   4.865   3.910
10077SOL     OW31129   4.046   3.695   0.018
10077SOL    HW131130   4.071   3.693   6.939
10077SOL    HW231131   4.056   3.788   0.054
10078SOL     OW31132   6.003   6.420   3.883
10078SOL    HW131133   5.916   6.372   3.866
10078SOL    HW231134   6.007   6.501   3.825
10079SOL     OW31135   6.166   4.867   3.043
10079SOL    HW131136   6.127   4.956   3.066
10079SOL    HW231137   6.260   4.880   3.009
10080SOL     OW31138   5.236   2.788   4.799
10080SOL    HW131139   5.206   2.695   4.817
10080SOL    HW231140   5.261   2.832   4.886
10081SOL     OW31141   1.593   5.137   0.739
10081SOL    HW131142   1.520   5.069   0.746
10081SOL    HW231143   1.574   5.198   0.661
10082SOL     OW31144   6.869   4.672   1.728
10082SOL    HW131145   6.773   4.688   1.705
10082SOL    HW231146   6.876   4.602   1.799
10083SOL     OW31147   3.424   5.908   2.917
10083SOL    HW131148   3.416   5.869   2.826
10083SOL    HW231149   3.354   5.869   2.977
10084SOL     OW31150   1.597   3.714   4.737
10084SOL    HW131151   1.565   3.620   4.725
10084SOL    HW231152   1.553   3.772   4.668
10085SOL     OW31153   3.346   6.862   1.841
10085SOL    HW131154   3.444   6.846   1.852
10085SOL    HW231155   3.315   6.821   1.755
10086SOL     OW31156   2.316   0.858   3.103
10086SOL    HW131157   2.236   0.821   3.150
10086SOL    HW231158   2.398   0.810   3.133
10087SOL     OW31159   1.235   5.571   6.643
10087SOL    HW131160   1.264   5.554   6.549
10087SOL    HW231161   1.172   5.649   6.646
10088SOL     OW31162   5.268   1.619   0.751
10088SOL    HW131163   5.216   1.639   0.835
10088SOL    HW231164   5.333   1.545   0.769
10089SOL     OW31165   3.920   6.798   3.289
10089SOL    HW131166   3.882   6.712   3.324
10089SOL    HW231167   3.878   6.818   3.200
10090SOL     OW31168   3.711   6.170   2.813
10090SOL    HW131169   3.787   6.218   2.857
10090SOL    HW231170   3.745   6.085   2.773
10091SOL     OW31171   4.776   6.120   3.252
10091SOL    HW131172   4.799   6.064   3.172
10091SOL    HW231173   4.710   6.190   3.225
10092SOL     OW31174   6.706   1.486   2.486
10092SOL    HW131175   6.717   1.562   2.422
10092SOL    HW231176   6.689   1.402   2.435
10093SOL     OW31177   4.596   4.259   6.388
10093SOL    HW131178   4.618   4.163   6.372
10093SOL    HW231179   4.554   4.298   6.306
10094SOL     OW31180   4.603   2.945   0.257
10094SOL    HW131181   4.658   2.862   0.246
10094SOL    HW231182   4.657   3.016   0.301
10095SOL     OW31183   4.348   2.609   5.378
10095SOL    HW131184   4.281   2.597   5.305
10095SOL    HW231185   4.438   2.577   5.346
10096SOL     OW31186   6.298   4.707   1.598
10096SOL    HW131187   6.273   4.611   1.611
10096SOL    HW231188   6.284   4.732   1.502
10097SOL     OW31189   0.529   0.750   1.238
10097SOL    HW131190   0.498   0.844   1.231
10097SOL    HW231191   0.627   0.745   1.218
10098SOL     OW31192   4.131   4.820   0.690
10098SOL    HW131193   4.066   4.770   0.748
10098SOL    HW231194   4.129   4.917   0.715
10099SOL     OW31195   0.323   6.218   3.413
10099SOL    HW131196   0.326   6.128   3.369
10099SOL    HW231197   0.404   6.270   3.388
10100SOL     OW31198   5.406   5.651   3.989
10100SOL    HW131199   5.436   5.661   4.084
10100SOL    HW231200   5.455   5.576   3.946
10101SOL     OW31201   6.630   1.950   6.073
10101SOL    HW131202   6.644   2.019   6.002
10101SOL    HW231203   6.635   1.859   6.032
10102SOL     OW31204   0.084   5.059   3.199
10102SOL    HW131205   7.015   5.107   3.218
10102SOL    HW231206   0.141   5.060   3.281
10103SOL     OW31207   0.451   0.727   6.805
10103SOL    HW131208   0.419   0.712   6.712
10103SOL    HW231209   0.534   0.673   6.821
10104SOL     OW31210   2.917   1.786   4.151
10104SOL    HW131211   2.826   1.814   4.120
10104SOL    HW231212   2.938   1.832   4.237
10105SOL     OW31213   3.345   1.754   4.210
10105SOL    HW131214   3.380   1.840   4.175
10105SOL    HW231215   3.257   1.770   4.256
10106SOL     OW31216   6.761   3.770   1.245
10106SOL    HW131217   6.724   3.818   1.165
10106SOL    HW231218   6.730   3.674   1.243
10107SOL     OW31219   4.481   5.661   5.538
10107SOL    HW131220   4.399   5.687   5.488
10107SOL    HW231221   4.554   5.637   5.474
10108SOL     OW31222   3.429   1.722   4.724
10108SOL    HW131223   3.397   1.726   4.819
10108SOL    HW231224   3.412   1.810   4.679
10109SOL     OW31225   1.419   3.046   0.503
10109SOL    HW131226   1.338   3.039   0.561
10109SOL    HW231227   1.452   2.954   0.482
10110SOL     OW31228   6.544   6.100   1.998
10110SOL    HW131229   6.465   6.150   1.963
10110SOL    HW231230   6.626   6.156   1.986
10111SOL     OW31231   6.233   2.445   1.691
10111SOL    HW131232   6.235   2.502   1.609
10111SOL    HW231233   6.193   2.356   1.668
10112SOL     OW31234   0.398   3.003   3.695
10112SOL    HW131235   0.413   3.072   3.766
10112SOL    HW231236   0.302   3.005   3.667
10113SOL     OW31237   6.933   6.858   6.229
10113SOL    HW131238   6.861   6.878   6.163
10113SOL    HW231239   6.903   6.884   6.321
10114SOL     OW31240   6.470   4.308   1.112
10114SOL    HW131241   6.520   4.281   1.030
10114SOL    HW231242   6.497   4.400   1.139
10115SOL     OW31243   2.640   2.014   6.561
10115SOL    HW131244   2.730   1.999   6.600
10115SOL    HW231245   2.579   1.939   6.589
10116SOL     OW31246   1.056   6.789   6.260
10116SOL    HW131247   1.005   6.748   6.336
10116SOL    HW231248   0.995   6.802   6.182
10117SOL     OW31249   0.999   4.550   1.057
10117SOL    HW131250   0.954   4.631   1.094
10117SOL    HW231251   1.042   4.573   0.970
10118SOL     OW31252   4.050   5.301   3.336
10118SOL    HW131253   4.122   5.319   3.269
10118SOL    HW231254   3.967   5.350   3.309
10119SOL     OW31255   5.781   5.935   6.800
10119SOL    HW131256   5.764   5.837   6.790
10119SOL    HW231257   5.810   5.955   6.893
10120SOL     OW31258   2.375   2.457   2.639
10120SOL    HW131259   2.282   2.487   2.620
10120SOL    HW231260   2.420   2.429   2.555
10121SOL     OW31261   6.481   5.814   1.941
10121SOL    HW131262   6.434   5.897   1.970
10121SOL    HW231263   6.483   5.748   2.016
10122SOL     OW31264   1.926   6.806   3.383
10122SOL    HW131265   1.869   6.849   3.453
10122SOL    HW231266   2.016   6.849   3.382
10123SOL     OW31267   6.174   6.563   6.483
10123SOL    HW131268   6.194   6.477   6.435
10123SOL    HW231269   6.235   6.572   6.561
10124SOL     OW31270   0.214   4.579   3.316
10124SOL    HW131271   0.186   4.674   3.325
10124SOL    HW231272   0.252   4.547   3.403
10125SOL     OW31273   2.069   2.421   4.193
10125SOL    HW131274   2.060   2.486   4.117
10125SOL    HW231275   1.999   2.350   4.185
10126SOL     OW31276   0.270   6.051   4.929
10126SOL    HW131277   0.173   6.029   4.936
10126SOL    HW231278   0.282   6.130   4.869
10127SOL     OW31279   2.765   0.608   4.858
10127SOL    HW131280   2.721   0.697   4.869
10127SOL    HW231281   2.759   0.579   4.763
10128SOL     OW31282   2.830   0.793   0.496
10128SOL    HW131283   2.887   0.739   0.558
10128SOL    HW231284   2.819   0.885   0.534
10129SOL     OW31285   6.677   2.012   5.810
10129SOL    HW131286   6.758   1.969   5.770
10129SOL    HW231287   6.599   2.002   5.748
10130SOL     OW31288   1.035   2.638   3.392
10130SOL    HW131289   1.088   2.626   3.308
10130SOL    HW231290   0.942   2.603   3.377
10131SOL     OW31291   2.714   0.888   4.850
10131SOL    HW131292   2.810   0.916   4.846
10131SOL    HW231293   2.655   0.969   4.845
10132SOL     OW31294   5.763   0.720   2.090
10132SOL    HW131295   5.730   0.635   2.132
10132SOL    HW231296   5.797   0.781   2.161
10133SOL     OW31297   4.967   5.353   1.281
10133SOL    HW131298   5.000   5.426   1.340
10133SOL    HW231299   5.035   5.332   1.212
10134SOL     OW31300   6.411   1.327   2.587
10134SOL    HW131301   6.418   1.385   2.668
10134SOL    HW231302   6.419   1.383   2.505
10135SOL     OW31303   6.298   6.736   3.362
10135SOL    HW131304   6.368   6.667   3.380
10135SOL    HW231305   6.334   6.826   3.385
10136SOL     OW31306   5.541   0.443   3.161
10136SOL    HW131307   5.494   0.436   3.249
10136SOL    HW231308   5.491   0.507   3.102
10137SOL     OW31309   6.069   5.742   2.593
10137SOL    HW131310   6.110   5.674   2.531
10137SOL    HW231311   6.100   5.833   2.566
10138SOL     OW31312   0.110   1.685   1.759
10138SOL    HW131313   0.156   1.607   1.804
10138SOL    HW231314   0.133   1.685   1.662
10139SOL     OW31315   4.065   2.717   0.984
10139SOL    HW131316   4.043   2.699   1.080
10139SOL    HW231317   3.995   2.777   0.945
10140SOL     OW31318   5.853   6.243   3.512
10140SOL    HW131319   5.882   6.339   3.508
10140SOL    HW231320   5.851   6.205   3.419
10141SOL     OW31321   1.308   1.878   5.408
10141SOL    HW131322   1.281   1.875   5.312
10141SOL    HW231323   1.388   1.936   5.418
10142SOL     OW31324   4.040   6.364   2.027
10142SOL    HW131325   4.081   6.381   1.937
10142SOL    HW231326   4.104   6.310   2.083
10143SOL     OW31327   0.590   3.069   6.806
10143SOL    HW131328   0.648   3.064   6.888
10143SOL    HW231329   0.588   3.164   6.773
10144SOL     OW31330   4.851   0.316   2.834
10144SOL    HW131331   4.892   0.349   2.749
10144SOL    HW231332   4.899   0.355   2.912
10145SOL     OW31333   6.415   0.865   5.141
10145SOL    HW131334   6.451   0.823   5.224
10145SOL    HW231335   6.396   0.962   5.157
10146SOL     OW31336   1.876   1.394   5.382
10146SOL    HW131337   1.856   1.384   5.285
10146SOL    HW231338   1.803   1.447   5.426
10147SOL     OW31339   4.271   4.618   0.289
10147SOL    HW131340   4.253   4.689   0.356
10147SOL    HW231341   4.278   4.529   0.335
10148SOL     OW31342   6.398   5.933   6.308
10148SOL    HW131343   6.438   5.869   6.243
10148SOL    HW231344   6.343   5.883   6.375
10149SOL     OW31345   3.750   2.952   4.361
10149SOL    HW131346   3.789   2.924   4.448
10149SOL    HW231347   3.654   2.924   4.356
10150SOL     OW31348   6.578   3.733   6.389
10150SOL    HW131349   6.594   3.823   6.429
10150SOL    HW231350   6.658   3.675   6.406
10151SOL     OW31351   0.114   0.390   6.936
10151SOL    HW131352   0.211   0.404   6.916
10151SOL    HW231353   0.067   0.478   6.932
10152SOL     OW31354   3.514   6.824   3.893
10152SOL    HW131355   3.519   6.776   3.981
10152SOL    HW231356   3.433   6.794   3.843
10153SOL     OW31357   4.382   4.728   0.638
10153SOL    HW131358   4.429   4.705   0.723
10153SOL    HW231359   4.295   4.773   0.659
10154SOL     OW31360   4.840   5.050   6.308
10154SOL    HW131361   4.892   4.979   6.357
10154SOL    HW231362   4.760   5.075   6.362
10155SOL     OW31363   4.757   2.577   5.012
10155SOL    HW131364   4.693   2.588   4.936
10155SOL    HW231365   4.784   2.666   5.047
10156SOL     OW31366   2.942   2.155   6.613
10156SOL    HW131367   2.961   2.134   6.518
10156SOL    HW231368   2.888   2.081   6.654
10157SOL     OW31369   0.380   5.875   2.462
10157SOL    HW131370   0.376   5.925   2.376
10157SOL    HW231371   0.454   5.808   2.459
10158SOL     OW31372   0.262   4.642   6.018
10158SOL    HW131373   0.205   4.702   5.961
10158SOL    HW231374   0.204   4.572   6.060
10159SOL     OW31375   4.069   3.046   1.857
10159SOL    HW131376   3.998   3.059   1.787
10159SOL    HW231377   4.096   2.949   1.858
10160SOL     OW31378   6.829   4.599   2.598
10160SOL    HW131379   6.767   4.642   2.533
10160SOL    HW231380   6.784   4.592   2.687
10161SOL     OW31381   6.768   2.630   0.386
10161SOL    HW131382   6.829   2.704   0.355
10161SOL    HW231383   6.716   2.596   0.308
10162SOL     OW31384   2.025   2.141   2.269
10162SOL    HW131385   2.064   2.202   2.338
10162SOL    HW231386   2.087   2.135   2.191
10163SOL     OW31387   3.972   5.386   4.498
10163SOL    HW131388   3.980   5.329   4.416
10163SOL    HW231389   3.889   5.363   4.547
10164SOL     OW31390   0.191   1.812   3.359
10164SOL    HW131391   0.185   1.755   3.277
10164SOL    HW231392   0.145   1.899   3.342
10165SOL     OW31393   2.226   3.014   3.802
10165SOL    HW131394   2.285   2.934   3.803
10165SOL    HW231395   2.228   3.056   3.711
10166SOL     OW31396   3.413   6.161   3.900
10166SOL    HW131397   3.486   6.128   3.841
10166SOL    HW231398   3.340   6.093   3.905
10167SOL     OW31399   3.968   1.918   0.195
10167SOL    HW131400   3.995   2.013   0.177
10167SOL    HW231401   3.977   1.900   0.293
10168SOL     OW31402   0.140   1.102   6.781
10168SOL    HW131403   0.063   1.040   6.796
10168SOL    HW231404   0.106   1.190   6.749
10169SOL     OW31405   4.746   4.918   2.657
10169SOL    HW131406   4.670   4.859   2.631
10169SOL    HW231407   4.730   5.011   2.622
10170SOL     OW31408   4.316   0.106   6.743
10170SOL    HW131409   4.242   0.068   6.798
10170SOL    HW231410   4.331   0.201   6.768
10171SOL     OW31411   1.553   4.643   3.223
10171SOL    HW131412   1.646   4.656   3.258
10171SOL    HW231413   1.546   4.684   3.132
10172SOL     OW31414   0.230   0.320   3.398
10172SOL    HW131415   0.273   0.278   3.318
10172SOL    HW231416   0.168   0.392   3.369
10173SOL     OW31417   4.351   2.394   4.229
10173SOL    HW131418   4.431   2.404   4.288
10173SOL    HW231419   4.276   2.352   4.280
10174SOL     OW31420   4.077   5.657   1.151
10174SOL    HW131421   4.086   5.660   1.250
10174SOL    HW231422   4.104   5.745   1.112
10175SOL     OW31423   6.865   6.920   4.502
10175SOL    HW131424   6.902   7.010   4.522
10175SOL    HW231425   6.940   6.858   4.476
10176SOL     OW31426   0.273   1.664   4.727
10176SOL    HW131427   0.272   1.689   4.630
10176SOL    HW231428   0.214   1.727   4.778
10177SOL     OW31429   3.064   0.427   5.216
10177SOL    HW131430   3.049   0.331   5.189
10177SOL    HW231431   3.011   0.448   5.297
10178SOL     OW31432   6.152   1.438   1.629
10178SOL    HW131433   6.217   1.506   1.594
10178SOL    HW231434   6.182   1.406   1.719
10179SOL     OW31435   6.992   5.650   0.968
10179SOL    HW131436   0.059   5.598   0.957
10179SOL    HW231437   6.957   5.637   1.061
10180SOL     OW31438   2.042   0.306   6.351
10180SOL    HW131439   1.964   0.368   6.365
10180SOL    HW231440   2.011   0.226   6.299
10181SOL     OW31441   0.290   4.045   2.492
10181SOL    HW131442   0.390   4.043   2.485
10181SOL    HW231443   0.259   4.140   2.499
10182SOL     OW31444   2.497   0.136   6.659
10182SOL    HW131445   2.455   0.223   6.685
10182SOL    HW231446   2.437   0.088   6.596
10183SOL     OW31447   3.686   6.062   6.728
10183SOL    HW131448   3.739   6.014   6.798
10183SOL    HW231449   3.589   6.057   6.750
10184SOL     OW31450   4.909   3.306   4.342
10184SOL    HW131451   5.008   3.321   4.354
10184SOL    HW231452   4.893   3.254   4.259
10185SOL     OW31453   2.788   4.723   1.702
10185SOL    HW131454   2.797   4.662   1.781
10185SOL    HW231455   2.852   4.695   1.631
10186SOL     OW31456   3.460   3.094   1.607
10186SOL    HW131457   3.513   3.138   1.680
10186SOL    HW231458   3.424   3.164   1.546
10187SOL     OW31459   1.266   3.561   4.749
10187SOL    HW131460   1.309   3.570   4.839
10187SOL    HW231461   1.202   3.636   4.734
10188SOL     OW31462   2.505   6.421   6.929
10188SOL    HW131463   2.470   6.386   7.016
10188SOL    HW231464   2.605   6.430   6.935
10189SOL     OW31465   2.028   1.745   5.476
10189SOL    HW131466   2.084   1.804   5.418
10189SOL    HW231467   1.944   1.721   5.427
10190SOL     OW31468   2.836   4.063   1.046
10190SOL    HW131469   2.766   4.129   1.075
10190SOL    HW231470   2.842   4.062   0.947
10191SOL     OW31471   6.397   0.435   6.988
10191SOL    HW131472   6.375   0.404   6.896
10191SOL    HW231473   6.429   0.530   6.984
10192SOL     OW31474   3.132   0.852   3.909
10192SOL    HW131475   3.094   0.790   3.840
10192SOL    HW231476   3.105   0.822   4.000
10193SOL     OW31477   4.037   3.753   3.803
10193SOL    HW131478   4.037   3.654   3.787
10193SOL    HW231479   4.045   3.801   3.716
10194SOL     OW31480   3.232   5.777   3.209
10194SOL    HW131481   3.166   5.805   3.280
10194SOL    HW231482   3.325   5.783   3.245
10195SOL     OW31483   5.423   6.735   2.429
10195SOL    HW131484   5.374   6.809   2.475
10195SOL    HW231485   5.474   6.773   2.351
10196SOL     OW31486   4.786   4.572   3.965
10196SOL    HW131487   4.832   4.613   3.886
10196SOL    HW231488   4.734   4.492   3.935
10197SOL     OW31489   5.827   1.829   2.467
10197SOL    HW131490   5.755   1.821   2.398
10197SOL    HW231491   5.829   1.747   2.524
10198SOL     OW31492   3.691   1.294   2.075
10198SOL    HW131493   3.710   1.234   1.997
10198SOL    HW231494   3.592   1.299   2.089
10199SOL     OW31495   1.563   1.969   6.839
10199SOL    HW131496   1.655   1.998   6.863
10199SOL    HW231497   1.565   1.921   6.752
10200SOL     OW31498   4.409   6.979   3.991
10200SOL    HW131499   4.446   6.886   4.000
10200SOL    HW231500   4.389   7.015   4.082
10201SOL     OW31501   0.473   5.185   2.962
10201SOL    HW131502   0.467   5.282   2.986
10201SOL    HW231503   0.537   5.173   2.887
10202SOL     OW31504   1.179   2.905   3.844
10202SOL    HW131505   1.276   2.928   3.851
10202SOL    HW231506   1.148   2.918   3.750
10203SOL     OW31507   6.281   2.364   1.299
10203SOL    HW131508   6.358   2.417   1.333
10203SOL    HW231509   6.204   2.371   1.362
10204SOL     OW31510   1.703   5.925   3.936
10204SOL    HW131511   1.758   5.981   3.874
10204SOL    HW231512   1.648   5.861   3.881
10205SOL     OW31513   3.904   6.882   1.400
10205SOL    HW131514   3.828   6.942   1.423
10205SOL    HW231515   3.874   6.787   1.407
10206SOL     OW31516   6.076   5.899   6.738
10206SOL    HW131517   6.106   5.941   6.823
10206SOL    HW231518   5.981   5.924   6.719
10207SOL     OW31519   3.570   1.581   2.048
10207SOL    HW131520   3.631   1.501   2.045
10207SOL    HW231521   3.565   1.623   1.958
10208SOL     OW31522   0.997   2.124   6.192
10208SOL    HW131523   1.069   2.193   6.185
10208SOL    HW231524   0.948   2.135   6.278
10209SOL     OW31525   4.018   6.101   0.513
10209SOL    HW131526   3.945   6.045   0.553
10209SOL    HW231527   4.106   6.075   0.553
10210SOL     OW31528   4.137   6.344   6.529
10210SOL    HW131529   4.064   6.341   6.598
10210SOL    HW231530   4.184   6.432   6.534
10211SOL     OW31531   4.044   4.861   4.502
10211SOL    HW131532   4.084   4.942   4.546
10211SOL    HW231533   4.108   4.784   4.509
10212SOL     OW31534   6.792   5.883   5.644
10212SOL    HW131535   6.748   5.803   5.603
10212SOL    HW231536   6.877   5.903   5.596
10213SOL     OW31537   3.285   0.103   4.734
10213SOL    HW131538   3.380   0.076   4.750
10213SOL    HW231539   3.253   0.161   4.809
10214SOL     OW31540   6.607   6.784   0.037
10214SOL    HW131541   6.616   6.727   0.118
10214SOL    HW231542   6.514   6.822   0.034
10215SOL     OW31543   4.948   2.395   0.173
10215SOL    HW131544   5.004   2.477   0.190
10215SOL    HW231545   4.884   2.414   0.099
10216SOL     OW31546   4.995   0.394   3.073
10216SOL    HW131547   5.022   0.487   3.047
10216SOL    HW231548   5.074   0.333   3.063
10217SOL     OW31549   2.558   1.657   6.136
10217SOL    HW131550   2.639   1.713   6.125
10217SOL    HW231551   2.516   1.640   6.047
10218SOL     OW31552   3.642   0.624   6.036
10218SOL    HW131553   3.715   0.576   5.988
10218SOL    HW231554   3.663   0.627   6.134
10219SOL     OW31555   0.029   5.378   0.766
10219SOL    HW131556   0.031   5.447   0.694
10219SOL    HW231557   6.960   5.328   0.762
10220SOL     OW31558   4.519   2.626   6.378
10220SOL    HW131559   4.501   2.711   6.426
10220SOL    HW231560   4.465   2.623   6.293
10221SOL     OW31561   1.807   0.147   4.966
10221SOL    HW131562   1.857   0.122   4.883
10221SOL    HW231563   1.724   0.197   4.941
10222SOL     OW31564   2.765   4.985   5.088
10222SOL    HW131565   2.826   4.908   5.102
10222SOL    HW231566   2.744   5.028   5.175
10223SOL     OW31567   2.514   5.835   5.680
10223SOL    HW131568   2.488   5.929   5.657
10223SOL    HW231569   2.485   5.774   5.607
10224SOL     OW31570   4.122   6.140   5.530
10224SOL    HW131571   4.068   6.121   5.612
10224SOL    HW231572   4.078   6.212   5.477
10225SOL     OW31573   4.594   0.834   5.191
10225SOL    HW131574   4.686   0.807   5.221
10225SOL    HW231575   4.598   0.866   5.097
10226SOL     OW31576   6.718   2.165   6.275
10226SOL    HW131577   6.695   2.093   6.210
10226SOL    HW231578   6.635   2.192   6.325
10227SOL     OW31579   4.485   4.752   5.239
10227SOL    HW131580   4.481   4.789   5.146
10227SOL    HW231581   4.580   4.751   5.270
10228SOL     OW31582   0.924   2.751   1.509
10228SOL    HW131583   0.947   2.656   1.527
10228SOL    HW231584   0.908   2.763   1.411
10229SOL     OW31585   2.644   0.476   1.848
10229SOL    HW131586   2.678   0.510   1.759
10229SOL    HW231587   2.547   0.498   1.857
10230SOL     OW31588   5.315   0.126   3.251
10230SOL    HW131589   5.304   0.207   3.309
10230SOL    HW231590   5.292   0.044   3.304
10231SOL     OW31591   4.913   0.113   4.805
10231SOL    HW131592   5.001   0.134   4.763
10231SOL    HW231593   4.926   0.044   4.877
10232SOL     OW31594   3.944   2.162   2.776
10232SOL    HW131595   3.995   2.243   2.804
10232SOL    HW231596   3.953   2.149   2.677
10233SOL     OW31597   5.242   0.095   4.999
10233SOL    HW131598   5.268   0.115   4.905
10233SOL    HW231599   5.177   0.020   5.001
10234SOL     OW31600   4.135   4.420   1.057
10234SOL    HW131601   4.198   4.350   1.092
10234SOL    HW231602   4.064   4.438   1.125
10235SOL     OW31603   4.959   6.866   6.807
10235SOL    HW131604   4.904   6.794   6.765
10235SOL    HW231605   4.899   6.941   6.837
10236SOL     OW31606   1.014   5.260   1.324
10236SOL    HW131607   0.925   5.295   1.351
10236SOL    HW231608   1.069   5.244   1.406
10237SOL     OW31609   5.511   2.117   2.427
10237SOL    HW131610   5.475   2.171   2.351
10237SOL    HW231611   5.448   2.124   2.505
10238SOL     OW31612   4.912   4.694   5.867
10238SOL    HW131613   4.987   4.751   5.900
10238SOL    HW231614   4.867   4.651   5.946
10239SOL     OW31615   5.561   4.095   3.786
10239SOL    HW131616   5.598   4.112   3.878
10239SOL    HW231617   5.517   4.179   3.752
10240SOL     OW31618   5.171   3.727   2.519
10240SOL    HW131619   5.075   3.742   2.542
10240SOL    HW231620   5.178   3.684   2.429
10241SOL     OW31621   0.977   2.443   2.530
10241SOL    HW131622   1.039   2.403   2.462
10241SOL    HW231623   1.025   2.515   2.580
10242SOL     OW31624   0.897   5.570   6.509
10242SOL    HW131625   0.935   5.603   6.595
10242SOL    HW231626   0.945   5.612   6.432
10243SOL     OW31627   6.788   5.769   3.766
10243SOL    HW131628   6.728   5.694   3.791
10243SOL    HW231629   6.754   5.854   3.806
10244SOL     OW31630   2.658   5.927   0.019
10244SOL    HW131631   2.622   5.916   0.112
10244SOL    HW231632   2.746   5.973   0.023
10245SOL     OW31633   4.129   3.633   1.082
10245SOL    HW131634   4.216   3.603   1.044
10245SOL    HW231635   4.112   3.586   1.169
10246SOL     OW31636   3.437   3.722   4.744
10246SOL    HW131637   3.368   3.696   4.812
10246SOL    HW231638   3.399   3.793   4.684
10247SOL     OW31639   0.928   5.286   6.561
10247SOL    HW131640   1.002   5.292   6.629
10247SOL    HW231641   0.907   5.377   6.526
10248SOL     OW31642   6.231   6.732   3.918
10248SOL    HW131643   6.146   6.772   3.952
10248SOL    HW231644   6.217   6.700   3.824
10249SOL     OW31645   4.064   1.587   5.913
10249SOL    HW131646   4.101   1.509   5.864
10249SOL    HW231647   4.132   1.620   5.978
10250SOL     OW31648   4.681   5.497   0.589
10250SOL    HW131649   4.583   5.521   0.586
10250SOL    HW231650   4.713   5.501   0.683
10251SOL     OW31651   4.043   4.542   1.321
10251SOL    HW131652   4.117   4.523   1.385
10251SOL    HW231653   4.069   4.617   1.260
10252SOL     OW31654   6.973   4.744   0.378
10252SOL    HW131655   6.954   4.649   0.404
10252SOL    HW231656   7.006   4.794   0.458
10253SOL     OW31657   5.472   4.126   0.323
10253SOL    HW131658   5.477   4.121   0.223
10253SOL    HW231659   5.524   4.205   0.355
10254SOL     OW31660   3.449   1.988   5.680
10254SOL    HW131661   3.410   1.977   5.589
10254SOL    HW231662   3.516   1.915   5.697
10255SOL     OW31663   2.827   4.842   3.906
10255SOL    HW131664   2.882   4.888   3.976
10255SOL    HW231665   2.888   4.790   3.845
10256SOL     OW31666   5.484   5.134   0.105
10256SOL    HW131667   5.492   5.090   0.195
10256SOL    HW231668   5.389   5.163   0.091
10257SOL     OW31669   1.920   4.367   4.697
10257SOL    HW131670   1.946   4.393   4.790
10257SOL    HW231671   1.848   4.428   4.664
10258SOL     OW31672   4.316   1.375   2.344
10258SOL    HW131673   4.273   1.285   2.338
10258SOL    HW231674   4.247   1.444   2.363
10259SOL     OW31675   5.571   3.128   3.703
10259SOL    HW131676   5.485   3.092   3.668
10259SOL    HW231677   5.555   3.218   3.746
10260SOL     OW31678   6.919   5.759   2.356
10260SOL    HW131679   6.910   5.674   2.304
10260SOL    HW231680   6.854   5.758   2.432
10261SOL     OW31681   1.569   6.995   2.380
10261SOL    HW131682   1.586   6.948   2.467
10261SOL    HW231683   1.506   6.941   2.325
10262SOL     OW31684   6.739   6.079   3.816
10262SOL    HW131685   6.823   6.089   3.763
10262SOL    HW231686   6.743   6.138   3.896
10263SOL     OW31687   6.571   3.991   4.981
10263SOL    HW131688   6.645   3.987   5.047
10263SOL    HW231689   6.495   3.934   5.012
10264SOL     OW31690   0.565   0.418   0.915
10264SOL    HW131691   0.523   0.468   0.990
10264SOL    HW231692   0.503   0.347   0.883
10265SOL     OW31693   5.218   2.207   4.786
10265SOL    HW131694   5.152   2.223   4.859
10265SOL    HW231695   5.263   2.118   4.800
10266SOL     OW31696   3.171   3.900   0.114
10266SOL    HW131697   3.193   3.825   0.052
10266SOL    HW231698   3.119   3.970   0.065
10267SOL     OW31699   7.008   0.783   6.149
10267SOL    HW131700   0.071   0.723   6.143
10267SOL    HW231701   0.003   0.847   6.225
10268SOL     OW31702   6.760   4.761   0.186
10268SOL    HW131703   6.843   4.752   0.241
10268SOL    HW231704   6.680   4.744   0.244
10269SOL     OW31705   4.170   1.779   5.595
10269SOL    HW131706   4.232   1.782   5.674
10269SOL    HW231707   4.200   1.707   5.532
10270SOL     OW31708   3.488   6.049   3.411
10270SOL    HW131709   3.426   6.102   3.353
10270SOL    HW231710   3.489   5.954   3.380
10271SOL     OW31711   1.292   4.878   1.194
10271SOL    HW131712   1.209   4.890   1.141
10271SOL    HW231713   1.346   4.803   1.154
10272SOL     OW31714   1.262   3.680   4.453
10272SOL    HW131715   1.259   3.580   4.457
10272SOL    HW231716   1.336   3.713   4.511
10273SOL     OW31717   4.590   0.303   4.163
10273SOL    HW131718   4.535   0.381   4.191
10273SOL    HW231719   4.666   0.291   4.228
10274SOL     OW31720   1.658   4.617   6.837
10274SOL    HW131721   1.643   4.704   6.884
10274SOL    HW231722   1.625   4.624   6.743
10275SOL     OW31723   0.123   5.769   1.759
10275SOL    HW131724   0.137   5.686   1.705
10275SOL    HW231725   0.026   5.776   1.784
10276SOL     OW31726   3.159   0.057   0.439
10276SOL    HW131727   3.184   6.982   0.469
10276SOL    HW231728   3.063   0.058   0.409
10277SOL     OW31729   6.157   5.385   2.212
10277SOL    HW131730   6.080   5.321   2.223
10277SOL    HW231731   6.192   5.379   2.119
10278SOL     OW31732   6.186   1.151   4.806
10278SOL    HW131733   6.226   1.133   4.716
10278SOL    HW231734   6.254   1.134   4.876
10279SOL     OW31735   3.944   6.612   4.239
10279SOL    HW131736   3.865   6.583   4.292
10279SOL    HW231737   3.923   6.604   4.141
10280SOL     OW31738   2.760   2.647   6.831
10280SOL    HW131739   2.766   2.596   6.917
10280SOL    HW231740   2.761   2.583   6.754
10281SOL     OW31741   4.415   1.130   4.183
10281SOL    HW131742   4.339   1.101   4.241
10281SOL    HW231743   4.424   1.230   4.188
10282SOL     OW31744   1.388   3.234   4.161
10282SOL    HW131745   1.348   3.279   4.081
10282SOL    HW231746   1.482   3.207   4.140
10283SOL     OW31747   1.690   5.480   6.657
10283SOL    HW131748   1.650   5.391   6.634
10283SOL    HW231749   1.789   5.473   6.660
10284SOL     OW31750   5.836   2.742   0.508
10284SOL    HW131751   5.752   2.710   0.552
10284SOL    HW231752   5.853   2.837   0.534
10285SOL     OW31753   5.098   1.229   0.509
10285SOL    HW131754   5.055   1.289   0.441
10285SOL    HW231755   5.146   1.155   0.463
10286SOL     OW31756   2.932   6.696   3.815
10286SOL    HW131757   2.903   6.604   3.839
10286SOL    HW231758   2.888   6.762   3.875
10287SOL     OW31759   2.115   3.898   2.425
10287SOL    HW131760   2.118   3.812   2.476
10287SOL    HW231761   2.132   3.880   2.328
10288SOL     OW31762   4.773   0.078   4.540
10288SOL    HW131763   4.789   7.005   4.580
10288SOL    HW231764   4.839   0.143   4.576
10289SOL     OW31765   2.347   1.639   2.607
10289SOL    HW131766   2.412   1.665   2.678
10289SOL    HW231767   2.390   1.649   2.517
10290SOL     OW31768   3.055   3.277   2.962
10290SOL    HW131769   3.055   3.220   3.044
10290SOL    HW231770   3.015   3.227   2.886
10291SOL     OW31771   4.084   0.432   3.439
10291SOL    HW131772   4.016   0.402   3.372
10291SOL    HW231773   4.170   0.385   3.422
10292SOL     OW31774   6.626   3.019   4.285
10292SOL    HW131775   6.691   3.016   4.208
10292SOL    HW231776   6.650   3.095   4.346
10293SOL     OW31777   1.840   5.017   3.357
10293SOL    HW131778   1.745   4.999   3.384
10293SOL    HW231779   1.894   4.934   3.370
10294SOL     OW31780   6.613   0.679   2.988
10294SOL    HW131781   6.632   0.777   2.991
10294SOL    HW231782   6.515   0.664   3.001
10295SOL     OW31783   1.708   4.326   3.168
10295SOL    HW131784   1.718   4.255   3.238
10295SOL    HW231785   1.759   4.408   3.196
10296SOL     OW31786   6.760   3.312   1.471
10296SOL    HW131787   6.837   3.319   1.408
10296SOL    HW231788   6.706   3.396   1.467
10297SOL     OW31789   3.974   4.277   5.637
10297SOL    HW131790   3.977   4.245   5.732
10297SOL    HW231791   3.890   4.329   5.622
10298SOL     OW31792   5.898   3.066   3.057
10298SOL    HW131793   5.829   3.001   3.026
10298SOL    HW231794   5.859   3.126   3.127
10299SOL     OW31795   4.397   4.908   2.396
10299SOL    HW131796   4.307   4.925   2.436
10299SOL    HW231797   4.387   4.873   2.303
10300SOL     OW31798   0.216   5.895   2.650
10300SOL    HW131799   0.250   5.819   2.706
10300SOL    HW231800   0.275   5.906   2.570
10301SOL     OW31801   4.479   1.020   1.957
10301SOL    HW131802   4.570   1.060   1.970
10301SOL    HW231803   4.449   0.979   2.043
10302SOL     OW31804   0.075   3.952   3.260
10302SOL    HW131805   0.112   3.904   3.180
10302SOL    HW231806   7.015   4.010   3.231
10303SOL     OW31807   4.763   3.618   0.970
10303SOL    HW131808   4.752   3.574   1.059
10303SOL    HW231809   4.854   3.597   0.934
10304SOL     OW31810   5.750   6.218   4.108
10304SOL    HW131811   5.798   6.162   4.041
10304SOL    HW231812   5.805   6.298   4.130
10305SOL     OW31813   1.312   5.125   1.256
10305SOL    HW131814   1.311   5.026   1.242
10305SOL    HW231815   1.242   5.168   1.199
10306SOL     OW31816   4.852   3.768   6.522
10306SOL    HW131817   4.753   3.759   6.515
10306SOL    HW231818   4.894   3.680   6.502
10307SOL     OW31819   2.856   2.363   6.207
10307SOL    HW131820   2.943   2.401   6.238
10307SOL    HW231821   2.782   2.426   6.231
10308SOL     OW31822   3.228   4.865   4.028
10308SOL    HW131823   3.215   4.804   3.950
10308SOL    HW231824   3.146   4.921   4.041
10309SOL     OW31825   6.978   6.593   4.073
10309SOL    HW131826   6.969   6.692   4.061
10309SOL    HW231827   0.034   6.559   4.015
10310SOL     OW31828   3.863   4.062   4.597
10310SOL    HW131829   3.808   4.146   4.601
10310SOL    HW231830   3.809   3.989   4.558
10311SOL     OW31831   1.813   0.358   0.665
10311SOL    HW131832   1.902   0.365   0.711
10311SOL    HW231833   1.819   0.293   0.590
10312SOL     OW31834   3.353   4.497   0.424
10312SOL    HW131835   3.379   4.503   0.520
10312SOL    HW231836   3.263   4.537   0.411
10313SOL     OW31837   6.558   5.596   3.360
10313SOL    HW131838   6.541   5.613   3.457
10313SOL    HW231839   6.608   5.510   3.350
10314SOL     OW31840   6.518   5.337   5.193
10314SOL    HW131841   6.532   5.254   5.247
10314SOL    HW231842   6.524   5.417   5.252
10315SOL     OW31843   4.370   5.420   5.400
10315SOL    HW131844   4.286   5.472   5.416
10315SOL    HW231845   4.393   5.366   5.481
10316SOL     OW31846   0.034   2.938   3.929
10316SOL    HW131847   0.121   2.897   3.958
10316SOL    HW231848   0.002   2.892   3.846
10317SOL     OW31849   6.052   4.026   6.237
10317SOL    HW131850   6.149   4.039   6.219
10317SOL    HW231851   6.039   3.948   6.299
10318SOL     OW31852   5.098   4.789   2.334
10318SOL    HW131853   5.004   4.811   2.309
10318SOL    HW231854   5.125   4.703   2.289
10319SOL     OW31855   6.248   6.623   3.655
10319SOL    HW131856   6.234   6.525   3.662
10319SOL    HW231857   6.208   6.657   3.570
10320SOL     OW31858   3.200   6.575   1.765
10320SOL    HW131859   3.299   6.567   1.760
10320SOL    HW231860   3.175   6.642   1.834
10321SOL     OW31861   4.887   6.656   5.335
10321SOL    HW131862   4.853   6.627   5.424
10321SOL    HW231863   4.986   6.641   5.330
10322SOL     OW31864   6.976   1.518   6.161
10322SOL    HW131865   0.037   1.569   6.125
10322SOL    HW231866   6.921   1.578   6.220
10323SOL     OW31867   0.146   2.217   5.077
10323SOL    HW131868   0.166   2.129   5.120
10323SOL    HW231869   0.216   2.283   5.103
10324SOL     OW31870   3.239   3.698   4.937
10324SOL    HW131871   3.155   3.727   4.983
10324SOL    HW231872   3.292   3.639   4.997
10325SOL     OW31873   0.696   3.201   3.856
10325SOL    HW131874   0.602   3.172   3.870
10325SOL    HW231875   0.699   3.298   3.833
10326SOL     OW31876   6.218   1.090   0.896
10326SOL    HW131877   6.290   1.120   0.834
10326SOL    HW231878   6.143   1.050   0.843
10327SOL     OW31879   6.319   2.126   3.840
10327SOL    HW131880   6.415   2.107   3.819
10327SOL    HW231881   6.261   2.081   3.772
10328SOL     OW31882   6.970   3.383   1.666
10328SOL    HW131883   7.017   3.449   1.608
10328SOL    HW231884   6.883   3.356   1.623
10329SOL     OW31885   2.209   5.875   2.526
10329SOL    HW131886   2.155   5.934   2.587
10329SOL    HW231887   2.236   5.927   2.445
10330SOL     OW31888   4.010   3.273   0.699
10330SOL    HW131889   4.027   3.207   0.772
10330SOL    HW231890   4.096   3.297   0.655
10331SOL     OW31891   4.926   2.345   4.114
10331SOL    HW131892   4.967   2.259   4.145
10331SOL    HW231893   4.969   2.422   4.162
10332SOL     OW31894   1.764   2.647   6.538
10332SOL    HW131895   1.755   2.742   6.509
10332SOL    HW231896   1.688   2.623   6.599
10333SOL     OW31897   6.771   4.311   5.369
10333SOL    HW131898   6.832   4.387   5.392
10333SOL    HW231899   6.706   4.341   5.300
10334SOL     OW31900   0.546   4.862   5.894
10334SOL    HW131901   0.531   4.938   5.957
10334SOL    HW231902   0.559   4.778   5.946
10335SOL     OW31903   2.789   5.184   2.711
10335SOL    HW131904   2.734   5.196   2.794
10335SOL    HW231905   2.886   5.185   2.734
10336SOL     OW31906   4.201   0.567   3.112
10336SOL    HW131907   4.167   0.526   3.028
10336SOL    HW231908   4.190   0.503   3.188
10337SOL     OW31909   1.477   3.130   5.685
10337SOL    HW131910   1.534   3.130   5.604
10337SOL    HW231911   1.526   3.086   5.761
10338SOL     OW31912   1.999   3.781   2.942
10338SOL    HW131913   1.954   3.702   2.900
10338SOL    HW231914   2.077   3.808   2.886
10339SOL     OW31915   3.542   6.435   6.632
10339SOL    HW131916   3.518   6.471   6.723
10339SOL    HW231917   3.563   6.512   6.571
10340SOL     OW31918   2.135   5.907   1.025
10340SOL    HW131919   2.147   5.925   1.122
10340SOL    HW231920   2.047   5.862   1.010
10341SOL     OW31921   0.035   2.755   1.727
10341SOL    HW131922   0.002   2.840   1.769
10341SOL    HW231923   0.110   2.718   1.782
10342SOL     OW31924   3.334   5.283   3.738
10342SOL    HW131925   3.374   5.196   3.765
10342SOL    HW231926   3.241   5.269   3.706
10343SOL     OW31927   2.757   2.331   4.599
10343SOL    HW131928   2.835   2.324   4.662
10343SOL    HW231929   2.672   2.330   4.652
10344SOL     OW31930   5.063   4.360   1.032
10344SOL    HW131931   5.024   4.451   1.048
10344SOL    HW231932   5.043   4.301   1.111
10345SOL     OW31933   2.533   2.048   6.330
10345SOL    HW131934   2.520   1.956   6.292
10345SOL    HW231935   2.554   2.040   6.428
10346SOL     OW31936   6.725   4.865   6.485
10346SOL    HW131937   6.787   4.866   6.563
10346SOL    HW231938   6.666   4.785   6.489
10347SOL     OW31939   3.837   6.403   2.320
10347SOL    HW131940   3.903   6.476   2.341
10347SOL    HW231941   3.802   6.416   2.228
10348SOL     OW31942   0.530   3.049   4.362
10348SOL    HW131943   0.588   2.971   4.337
10348SOL    HW231944   0.555   3.127   4.304
10349SOL     OW31945   6.086   1.665   0.265
10349SOL    HW131946   6.103   1.683   0.168
10349SOL    HW231947   6.117   1.744   0.318
10350SOL     OW31948   2.070   5.470   4.104
10350SOL    HW131949   2.022   5.556   4.087
10350SOL    HW231950   2.162   5.475   4.066
10351SOL     OW31951   4.056   5.870   5.421
10351SOL    HW131952   3.958   5.870   5.404
10351SOL    HW231953   4.088   5.963   5.439
10352SOL     OW31954   0.664   1.524   1.937
10352SOL    HW131955   0.629   1.573   1.857
10352SOL    HW231956   0.632   1.429   1.934
10353SOL     OW31957   5.328   2.743   3.625
10353SOL    HW131958   5.231   2.724   3.640
10353SOL    HW231959   5.348   2.736   3.527
10354SOL     OW31960   6.808   2.549   1.970
10354SOL    HW131961   6.906   2.538   1.980
10354SOL    HW231962   6.779   2.514   1.881
10355SOL     OW31963   6.677   1.769   0.681
10355SOL    HW131964   6.638   1.811   0.599
10355SOL    HW231965   6.667   1.832   0.759
10356SOL     OW31966   6.486   2.300   6.386
10356SOL    HW131967   6.442   2.387   6.409
10356SOL    HW231968   6.417   2.229   6.376
10357SOL     OW31969   0.352   6.569   6.405
10357SOL    HW131970   0.280   6.556   6.473
10357SOL    HW231971   0.351   6.493   6.340
10358SOL     OW31972   0.243   3.626   4.215
10358SOL    HW131973   0.280   3.547   4.168
10358SOL    HW231974   0.143   3.618   4.221
10359SOL     OW31975   0.700   2.602   2.034
10359SOL    HW131976   0.745   2.513   2.028
10359SOL    HW231977   0.622   2.596   2.097
10360SOL     OW31978   5.900   4.693   1.360
10360SOL    HW131979   5.852   4.667   1.444
10360SOL    HW231980   5.849   4.658   1.281
10361SOL     OW31981   5.748   2.067   3.773
10361SOL    HW131982   5.649   2.061   3.758
10361SOL    HW231983   5.773   2.162   3.789
10362SOL     OW31984   0.107   6.469   2.387
10362SOL    HW131985   0.036   6.460   2.317
10362SOL    HW231986   0.114   6.565   2.414
10363SOL     OW31987   4.773   5.457   6.403
10363SOL    HW131988   4.745   5.429   6.312
10363SOL    HW231989   4.839   5.391   6.440
10364SOL     OW31990   6.041   5.252   1.294
10364SOL    HW131991   6.017   5.172   1.348
10364SOL    HW231992   6.039   5.333   1.352
10365SOL     OW31993   6.306   6.150   6.453
10365SOL    HW131994   6.285   6.128   6.549
10365SOL    HW231995   6.373   6.085   6.418
10366SOL     OW31996   2.213   0.272   3.326
10366SOL    HW131997   2.268   0.343   3.283
10366SOL    HW231998   2.238   0.264   3.423
10367SOL     OW31999   4.070   5.877   2.538
10367SOL    HW132000   4.100   5.797   2.485
10367SOL    HW232001   4.054   5.954   2.476
10368SOL     OW32002   1.331   5.479   2.322
10368SOL    HW132003   1.295   5.402   2.374
10368SOL    HW232004   1.382   5.445   2.243
10369SOL     OW32005   2.690   0.855   5.542
10369SOL    HW132006   2.664   0.762   5.514
10369SOL    HW232007   2.631   0.884   5.617
10370SOL     OW32008   2.488   1.993   6.843
10370SOL    HW132009   2.464   1.931   6.768
10370SOL    HW232010   2.475   2.088   6.813
10371SOL     OW32011   3.840   5.536   2.555
10371SOL    HW132012   3.805   5.546   2.648
10371SOL    HW232013   3.863   5.440   2.539
10372SOL     OW32014   1.209   6.407   1.153
10372SOL    HW132015   1.251   6.439   1.068
10372SOL    HW232016   1.222   6.309   1.163
10373SOL     OW32017   6.721   0.966   5.228
10373SOL    HW132018   6.639   0.914   5.251
10373SOL    HW232019   6.774   0.915   5.160
10374SOL     OW32020   2.051   5.380   2.095
10374SOL    HW132021   2.040   5.401   2.192
10374SOL    HW232022   2.103   5.452   2.050
10375SOL     OW32023   2.351   5.556   6.273
10375SOL    HW132024   2.276   5.494   6.250
10375SOL    HW232025   2.396   5.585   6.188
10376SOL     OW32026   2.118   4.720   3.622
10376SOL    HW132027   2.205   4.676   3.599
10376SOL    HW232028   2.109   4.727   3.721
10377SOL     OW32029   3.296   1.051   3.853
10377SOL    HW132030   3.241   0.969   3.869
10377SOL    HW232031   3.237   1.132   3.857
10378SOL     OW32032   6.808   0.071   5.120
10378SOL    HW132033   6.730   0.015   5.147
10378SOL    HW232034   6.860   0.097   5.202
10379SOL     OW32035   0.450   5.240   3.377
10379SOL    HW132036   0.402   5.319   3.339
10379SOL    HW232037   0.541   5.267   3.408
10380SOL     OW32038   3.146   1.261   3.831
10380SOL    HW132039   3.066   1.226   3.781
10380SOL    HW232040   3.120   1.280   3.926
10381SOL     OW32041   2.228   6.641   3.832
10381SOL    HW132042   2.245   6.657   3.929
10381SOL    HW232043   2.203   6.728   3.788
10382SOL     OW32044   3.837   5.942   2.704
10382SOL    HW132045   3.906   5.911   2.638
10382SOL    HW232046   3.855   5.899   2.793
10383SOL     OW32047   0.409   6.852   0.047
10383SOL    HW132048   0.371   6.937   0.010
10383SOL    HW232049   0.407   6.855   0.147
10384SOL     OW32050   5.819   5.161   1.153
10384SOL    HW132051   5.813   5.070   1.195
10384SOL    HW232052   5.856   5.226   1.219
10385SOL     OW32053   3.784   4.314   6.445
10385SOL    HW132054   3.822   4.316   6.538
10385SOL    HW232055   3.850   4.271   6.383
10386SOL     OW32056   0.248   0.610   2.070
10386SOL    HW132057   0.176   0.564   2.019
10386SOL    HW232058   0.338   0.576   2.041
10387SOL     OW32059   5.495   0.885   2.062
10387SOL    HW132060   5.567   0.816   2.073
10387SOL    HW232061   5.523   0.970   2.105
10388SOL     OW32062   1.070   6.937   4.991
10388SOL    HW132063   1.053   6.881   4.911
10388SOL    HW232064   0.997   6.924   5.058
10389SOL     OW32065   0.658   4.164   0.804
10389SOL    HW132066   0.735   4.211   0.847
10389SOL    HW232067   0.628   4.088   0.862
10390SOL     OW32068   1.585   2.449   2.224
10390SOL    HW132069   1.582   2.351   2.208
10390SOL    HW232070   1.676   2.475   2.258
10391SOL     OW32071   6.255   0.203   3.571
10391SOL    HW132072   6.332   0.241   3.623
10391SOL    HW232073   6.199   0.278   3.535
10392SOL     OW32074   5.564   3.512   4.117
10392SOL    HW132075   5.538   3.552   4.029
10392SOL    HW232076   5.498   3.540   4.187
10393SOL     OW32077   1.887   2.542   1.314
10393SOL    HW132078   1.883   2.442   1.306
10393SOL    HW232079   1.954   2.578   1.249
10394SOL     OW32080   2.804   5.501   3.836
10394SOL    HW132081   2.817   5.536   3.928
10394SOL    HW232082   2.848   5.562   3.770
10395SOL     OW32083   0.700   1.361   1.515
10395SOL    HW132084   0.675   1.275   1.470
10395SOL    HW232085   0.654   1.437   1.468
10396SOL     OW32086   3.535   1.862   5.350
10396SOL    HW132087   3.557   1.914   5.267
10396SOL    HW232088   3.439   1.878   5.375
10397SOL     OW32089   4.852   1.193   4.037
10397SOL    HW132090   4.771   1.196   3.978
10397SOL    HW232091   4.890   1.101   4.038
10398SOL     OW32092   4.715   2.724   2.675
10398SOL    HW132093   4.702   2.680   2.586
10398SOL    HW232094   4.749   2.817   2.661
10399SOL     OW32095   0.935   3.024   1.927
10399SOL    HW132096   0.862   3.090   1.947
10399SOL    HW232097   0.957   3.029   1.830
10400SOL     OW32098   1.917   6.560   0.693
10400SOL    HW132099   1.973   6.568   0.611
10400SOL    HW232100   1.845   6.629   0.691
10401SOL     OW32101   6.465   0.985   5.458
10401SOL    HW132102   6.534   0.962   5.527
10401SOL    HW232103   6.382   1.017   5.504
10402SOL     OW32104   6.435   4.449   5.453
10402SOL    HW132105   6.337   4.435   5.436
10402SOL    HW232106   6.460   4.409   5.541
10403SOL     OW32107   3.540   0.223   1.381
10403SOL    HW132108   3.461   0.211   1.321
10403SOL    HW232109   3.523   0.300   1.443
10404SOL     OW32110   0.724   5.261   5.690
10404SOL    HW132111   0.769   5.214   5.766
10404SOL    HW232112   0.634   5.219   5.673
10405SOL     OW32113   0.143   1.252   0.030
10405SOL    HW132114   0.155   1.185   6.974
10405SOL    HW232115   0.062   1.228   0.083
10406SOL     OW32116   1.743   5.384   1.095
10406SOL    HW132117   1.808   5.309   1.103
10406SOL    HW232118   1.667   5.357   1.036
10407SOL     OW32119   2.139   5.913   0.366
10407SOL    HW132120   2.201   5.938   0.440
10407SOL    HW232121   2.166   5.962   0.283
10408SOL     OW32122   4.748   0.574   7.006
10408SOL    HW132123   4.812   0.648   0.011
10408SOL    HW232124   4.696   0.549   0.070
10409SOL     OW32125   6.667   3.649   0.434
10409SOL    HW132126   6.739   3.708   0.471
10409SOL    HW232127   6.673   3.648   0.334
10410SOL     OW32128   4.024   6.244   0.782
10410SOL    HW132129   4.067   6.154   0.779
10410SOL    HW232130   4.083   6.312   0.738
10411SOL     OW32131   1.487   5.286   4.009
10411SOL    HW132132   1.513   5.191   4.029
10411SOL    HW232133   1.523   5.346   4.080
10412SOL     OW32134   4.893   0.448   2.178
10412SOL    HW132135   4.804   0.402   2.170
10412SOL    HW232136   4.895   0.502   2.262
10413SOL     OW32137   6.137   3.535   1.298
10413SOL    HW132138   6.118   3.601   1.226
10413SOL    HW232139   6.187   3.457   1.260
10414SOL     OW32140   4.873   3.851   3.894
10414SOL    HW132141   4.970   3.872   3.910
10414SOL    HW232142   4.828   3.932   3.857
10415SOL     OW32143   0.880   0.607   6.913
10415SOL    HW132144   0.836   0.642   6.996
10415SOL    HW232145   0.953   0.542   6.939
10416SOL     OW32146   5.192   2.827   3.147
10416SOL    HW132147   5.101   2.865   3.166
10416SOL    HW232148   5.242   2.888   3.086
10417SOL     OW32149   1.780   3.850   2.295
10417SOL    HW132150   1.849   3.851   2.367
10417SOL    HW232151   1.805   3.917   2.225
10418SOL     OW32152   1.616   5.544   6.102
10418SOL    HW132153   1.665   5.632   6.103
10418SOL    HW232154   1.615   5.506   6.194
10419SOL     OW32155   1.371   0.888   6.213
10419SOL    HW132156   1.385   0.987   6.201
10419SOL    HW232157   1.363   0.845   6.123
10420SOL     OW32158   0.399   3.192   2.276
10420SOL    HW132159   0.437   3.281   2.249
10420SOL    HW232160   0.474   3.127   2.288
10421SOL     OW32161   1.034   2.065   2.992
10421SOL    HW132162   1.015   2.149   2.942
10421SOL    HW232163   0.950   2.012   3.002
10422SOL     OW32164   5.733   1.819   0.393
10422SOL    HW132165   5.721   1.852   0.486
10422SOL    HW232166   5.727   1.896   0.329
10423SOL     OW32167   4.515   5.320   2.639
10423SOL    HW132168   4.450   5.295   2.567
10423SOL    HW232169   4.514   5.250   2.710
10424SOL     OW32170   4.485   1.256   6.309
10424SOL    HW132171   4.576   1.215   6.302
10424SOL    HW232172   4.489   1.335   6.370
10425SOL     OW32173   1.867   6.490   1.929
10425SOL    HW132174   1.943   6.527   1.982
10425SOL    HW232175   1.903   6.430   1.857
10426SOL     OW32176   6.271   3.717   6.270
10426SOL    HW132177   6.357   3.668   6.257
10426SOL    HW232178   6.284   3.814   6.246
10427SOL     OW32179   4.762   0.946   0.818
10427SOL    HW132180   4.832   0.978   0.754
10427SOL    HW232181   4.764   1.004   0.900
10428SOL     OW32182   4.727   2.096   3.321
10428SOL    HW132183   4.738   2.166   3.391
10428SOL    HW232184   4.634   2.100   3.284
10429SOL     OW32185   5.548   5.485   2.571
10429SOL    HW132186   5.630   5.529   2.535
10429SOL    HW232187   5.488   5.554   2.611
10430SOL     OW32188   3.951   5.912   2.961
10430SOL    HW132189   4.023   5.982   2.958
10430SOL    HW232190   3.887   5.934   3.034
10431SOL     OW32191   3.003   1.774   5.696
10431SOL    HW132192   3.094   1.762   5.736
10431SOL    HW232193   3.011   1.774   5.596
10432SOL     OW32194   3.978   0.283   4.777
10432SOL    HW132195   4.036   0.259   4.699
10432SOL    HW232196   4.000   0.223   4.854
10433SOL     OW32197   2.458   5.807   1.925
10433SOL    HW132198   2.384   5.811   1.857
10433SOL    HW232199   2.514   5.726   1.908
10434SOL     OW32200   3.466   2.244   5.262
10434SOL    HW132201   3.532   2.170   5.275
10434SOL    HW232202   3.381   2.222   5.309
10435SOL     OW32203   5.782   5.358   6.433
10435SOL    HW132204   5.867   5.331   6.390
10435SOL    HW232205   5.734   5.277   6.468
10436SOL     OW32206   0.444   1.641   2.500
10436SOL    HW132207   0.528   1.658   2.449
10436SOL    HW232208   0.466   1.616   2.594
10437SOL     OW32209   1.297   2.965   0.184
10437SOL    HW132210   1.320   3.059   0.209
10437SOL    HW232211   1.258   2.918   0.263
10438SOL     OW32212   3.353   6.702   5.733
10438SOL    HW132213   3.259   6.684   5.706
10438SOL    HW232214   3.391   6.776   5.678
10439SOL     OW32215   3.127   0.215   5.653
10439SOL    HW132216   3.137   0.124   5.613
10439SOL    HW232217   3.137   0.210   5.752
10440SOL     OW32218   1.099   5.836   0.568
10440SOL    HW132219   1.028   5.866   0.504
10440SOL    HW232220   1.149   5.759   0.528
10441SOL     OW32221   4.860   6.553   1.425
10441SOL    HW132222   4.795   6.503   1.367
10441SOL    HW232223   4.922   6.606   1.367
10442SOL     OW32224   3.987   6.049   6.696
10442SOL    HW132225   3.988   6.148   6.685
10442SOL    HW232226   3.893   6.018   6.711
10443SOL     OW32227   6.884   2.806   5.012
10443SOL    HW132228   6.973   2.767   5.035
10443SOL    HW232229   6.893   2.905   5.000
10444SOL     OW32230   4.196   4.808   5.224
10444SOL    HW132231   4.192   4.877   5.152
10444SOL    HW232232   4.291   4.775   5.234
10445SOL     OW32233   6.750   6.269   2.026
10445SOL    HW132234   6.811   6.304   2.097
10445SOL    HW232235   6.796   6.272   1.938
10446SOL     OW32236   1.071   6.816   5.943
10446SOL    HW132237   1.167   6.828   5.919
10446SOL    HW232238   1.043   6.722   5.924
10447SOL     OW32239   5.249   2.232   6.713
10447SOL    HW132240   5.163   2.182   6.706
10447SOL    HW232241   5.241   2.319   6.666
10448SOL     OW32242   3.602   3.575   2.474
10448SOL    HW132243   3.693   3.572   2.432
10448SOL    HW232244   3.593   3.659   2.527
10449SOL     OW32245   1.277   5.153   5.028
10449SOL    HW132246   1.247   5.215   4.956
10449SOL    HW232247   1.327   5.204   5.098
10450SOL     OW32248   0.420   3.439   0.438
10450SOL    HW132249   0.350   3.463   0.504
10450SOL    HW232250   0.485   3.515   0.429
10451SOL     OW32251   2.012   4.188   2.277
10451SOL    HW132252   1.976   4.274   2.242
10451SOL    HW232253   1.948   4.150   2.344
10452SOL     OW32254   1.810   3.545   6.056
10452SOL    HW132255   1.786   3.523   6.151
10452SOL    HW232256   1.867   3.628   6.055
10453SOL     OW32257   5.176   0.700   2.175
10453SOL    HW132258   5.225   0.737   2.096
10453SOL    HW232259   5.103   0.639   2.143
10454SOL     OW32260   3.703   5.442   2.280
10454SOL    HW132261   3.622   5.464   2.335
10454SOL    HW232262   3.775   5.407   2.338
10455SOL     OW32263   1.120   4.894   3.480
10455SOL    HW132264   1.079   4.879   3.390
10455SOL    HW232265   1.169   4.812   3.508
10456SOL     OW32266   3.504   6.809   0.992
10456SOL    HW132267   3.407   6.831   1.004
10456SOL    HW232268   3.559   6.888   1.019
10457SOL     OW32269   3.858   2.998   3.801
10457SOL    HW132270   3.910   2.961   3.878
10457SOL    HW232271   3.776   2.943   3.788
10458SOL     OW32272   6.430   6.166   2.694
10458SOL    HW132273   6.359   6.100   2.721
10458SOL    HW232274   6.515   6.117   2.676
10459SOL     OW32275   0.060   5.309   1.684
10459SOL    HW132276   0.125   5.386   1.687
10459SOL    HW232277   6.999   5.330   1.742
10460SOL     OW32278   1.149   4.080   1.254
10460SOL    HW132279   1.167   3.997   1.201
10460SOL    HW232280   1.093   4.057   1.334
10461SOL     OW32281   3.908   0.250   6.392
10461SOL    HW132282   3.951   0.163   6.416
10461SOL    HW232283   3.809   0.243   6.403
10462SOL     OW32284   5.100   6.800   1.334
10462SOL    HW132285   5.096   6.794   1.434
10462SOL    HW232286   5.184   6.758   1.301
10463SOL     OW32287   4.332   3.330   0.637
10463SOL    HW132288   4.336   3.368   0.544
10463SOL    HW232289   4.321   3.405   0.702
10464SOL     OW32290   6.037   6.766   2.059
10464SOL    HW132291   5.998   6.673   2.055
10464SOL    HW232292   6.017   6.813   1.973
10465SOL     OW32293   0.288   4.758   5.514
10465SOL    HW132294   0.375   4.734   5.470
10465SOL    HW232295   0.306   4.798   5.604
10466SOL     OW32296   4.198   5.637   5.437
10466SOL    HW132297   4.150   5.725   5.432
10466SOL    HW232298   4.154   5.579   5.505
10467SOL     OW32299   4.262   1.776   4.051
10467SOL    HW132300   4.189   1.736   4.107
10467SOL    HW232301   4.237   1.869   4.025
10468SOL     OW32302   2.746   5.218   3.172
10468SOL    HW132303   2.756   5.301   3.228
10468SOL    HW232304   2.822   5.157   3.191
10469SOL     OW32305   1.299   4.627   6.060
10469SOL    HW132306   1.218   4.605   6.114
10469SOL    HW232307   1.332   4.545   6.014
10470SOL     OW32308   2.690   1.796   4.540
10470SOL    HW132309   2.640   1.759   4.619
10470SOL    HW232310   2.705   1.894   4.554
10471SOL     OW32311   4.929   4.262   6.722
10471SOL    HW132312   4.971   4.173   6.740
10471SOL    HW232313   4.922   4.275   6.623
10472SOL     OW32314   4.008   1.934   3.714
10472SOL    HW132315   4.061   1.951   3.797
10472SOL    HW232316   3.929   1.995   3.711
10473SOL     OW32317   4.635   4.704   6.676
10473SOL    HW132318   4.544   4.726   6.713
10473SOL    HW232319   4.636   4.609   6.644
10474SOL     OW32320   4.583   0.796   4.231
10474SOL    HW132321   4.499   0.834   4.272
10474SOL    HW232322   4.636   0.870   4.189
10475SOL     OW32323   4.016   6.485   1.391
10475SOL    HW132324   4.054   6.440   1.311
10475SOL    HW232325   4.063   6.572   1.406
10476SOL     OW32326   0.397   4.878   6.606
10476SOL    HW132327   0.448   4.853   6.688
10476SOL    HW232328   0.321   4.938   6.630
10477SOL     OW32329   4.548   4.819   4.740
10477SOL    HW132330   4.621   4.753   4.725
10477SOL    HW232331   4.474   4.802   4.675
10478SOL     OW32332   0.741   0.043   2.747
10478SOL    HW132333   0.828   0.093   2.754
10478SOL    HW232334   0.673   0.102   2.704
10479SOL     OW32335   0.777   4.082   2.698
10479SOL    HW132336   0.876   4.084   2.714
10479SOL    HW232337   0.730   4.055   2.782
10480SOL     OW32338   4.607   1.346   6.980
10480SOL    HW132339   4.612   1.280   0.038
10480SOL    HW232340   4.517   1.389   6.979
10481SOL     OW32341   3.691   1.636   3.531
10481SOL    HW132342   3.604   1.589   3.544
10481SOL    HW232343   3.766   1.578   3.561
10482SOL     OW32344   0.655   6.612   6.067
10482SOL    HW132345   0.591   6.561   6.125
10482SOL    HW232346   0.746   6.569   6.071
10483SOL     OW32347   1.041   6.136   0.881
10483SOL    HW132348   1.118   6.075   0.864
10483SOL    HW232349   1.059   6.226   0.839
10484SOL     OW32350   6.634   1.491   1.502
10484SOL    HW132351   6.584   1.541   1.573
10484SOL    HW232352   6.590   1.402   1.488
10485SOL     OW32353   3.710   4.098   4.927
10485SOL    HW132354   3.638   4.119   4.862
10485SOL    HW232355   3.690   4.142   5.015
10486SOL     OW32356   5.925   4.754   5.650
10486SOL    HW132357   5.854   4.685   5.642
10486SOL    HW232358   5.883   4.844   5.665
10487SOL     OW32359   5.397   3.705   2.629
10487SOL    HW132360   5.303   3.722   2.599
10487SOL    HW232361   5.397   3.671   2.722
10488SOL     OW32362   0.846   2.123   5.542
10488SOL    HW132363   0.784   2.064   5.490
10488SOL    HW232364   0.903   2.067   5.601
10489SOL     OW32365   5.985   4.658   2.982
10489SOL    HW132366   5.994   4.620   2.890
10489SOL    HW232367   6.052   4.731   2.994
10490SOL     OW32368   5.216   6.530   6.224
10490SOL    HW132369   5.261   6.441   6.226
10490SOL    HW232370   5.126   6.524   6.266
10491SOL     OW32371   2.361   2.045   5.531
10491SOL    HW132372   2.385   2.019   5.624
10491SOL    HW232373   2.275   2.000   5.505
10492SOL     OW32374   3.456   6.495   6.886
10492SOL    HW132375   3.508   6.579   6.898
10492SOL    HW232376   3.372   6.500   6.939
10493SOL     OW32377   3.713   6.336   0.578
10493SOL    HW132378   3.739   6.346   0.674
10493SOL    HW232379   3.674   6.423   0.545
10494SOL     OW32380   0.020   5.667   3.617
10494SOL    HW132381   6.956   5.711   3.655
10494SOL    HW232382   0.048   5.591   3.677
10495SOL     OW32383   6.451   6.521   7.014
10495SOL    HW132384   6.528   6.523   0.061
10495SOL    HW232385   6.482   6.551   6.924
10496SOL     OW32386   0.928   4.021   6.174
10496SOL    HW132387   0.906   4.075   6.256
10496SOL    HW232388   0.957   4.083   6.101
10497SOL     OW32389   4.030   6.639   0.032
10497SOL    HW132390   4.113   6.589   0.007
10497SOL    HW232391   4.053   6.711   0.097
10498SOL     OW32392   3.399   3.880   0.250
10498SOL    HW132393   3.306   3.885   0.216
10498SOL    HW232394   3.449   3.808   0.202
10499SOL     OW32395   4.053   4.810   3.511
10499SOL    HW132396   4.112   4.758   3.449
10499SOL    HW232397   4.044   4.761   3.598
10500SOL     OW32398   1.955   2.714   5.263
10500SOL    HW132399   1.926   2.676   5.351
10500SOL    HW232400   2.044   2.758   5.273
10501SOL     OW32401   3.871   4.901   3.138
10501SOL    HW132402   3.871   4.856   3.048
10501SOL    HW232403   3.836   4.994   3.129
10502SOL     OW32404   3.580   3.044   3.226
10502SOL    HW132405   3.582   2.989   3.142
10502SOL    HW232406   3.590   3.140   3.203
10503SOL     OW32407   6.684   6.330   0.649
10503SOL    HW132408   6.652   6.379   0.730
10503SOL    HW232409   6.613   6.267   0.618
10504SOL     OW32410   1.797   2.900   5.612
10504SOL    HW132411   1.813   2.828   5.679
10504SOL    HW232412   1.723   2.872   5.551
10505SOL     OW32413   5.505   6.546   2.130
10505SOL    HW132414   5.468   6.555   2.223
10505SOL    HW232415   5.552   6.458   2.121
10506SOL     OW32416   0.493   5.094   6.057
10506SOL    HW132417   0.485   5.189   6.027
10506SOL    HW232418   0.402   5.052   6.057
10507SOL     OW32419   1.905   6.442   6.139
10507SOL    HW132420   1.937   6.500   6.215
10507SOL    HW232421   1.917   6.346   6.164
10508SOL     OW32422   2.086   6.191   1.433
10508SOL    HW132423   2.045   6.256   1.369
10508SOL    HW232424   2.183   6.213   1.444
10509SOL     OW32425   4.884   3.683   2.069
10509SOL    HW132426   4.879   3.678   2.169
10509SOL    HW232427   4.901   3.777   2.041
10510SOL     OW32428   5.276   5.975   2.047
10510SOL    HW132429   5.325   6.046   2.097
10510SOL    HW232430   5.310   5.885   2.075
10511SOL     OW32431   3.658   1.820   0.736
10511SOL    HW132432   3.679   1.900   0.680
10511SOL    HW232433   3.573   1.836   0.786
10512SOL     OW32434   3.605   6.950   4.964
10512SOL    HW132435   3.605   7.008   5.045
10512SOL    HW232436   3.584   6.856   4.990
10513SOL     OW32437   3.764   3.395   0.682
10513SOL    HW132438   3.689   3.392   0.748
10513SOL    HW232439   3.844   3.347   0.720
10514SOL     OW32440   1.280   4.627   1.672
10514SOL    HW132441   1.210   4.631   1.743
10514SOL    HW232442   1.239   4.598   1.585
10515SOL     OW32443   2.136   3.511   5.067
10515SOL    HW132444   2.127   3.439   4.998
10515SOL    HW232445   2.060   3.575   5.059
10516SOL     OW32446   5.548   1.921   1.448
10516SOL    HW132447   5.480   1.891   1.381
10516SOL    HW232448   5.501   1.951   1.531
10517SOL     OW32449   6.930   1.964   2.432
10517SOL    HW132450   6.991   2.040   2.408
10517SOL    HW232451   6.964   1.919   2.515
10518SOL     OW32452   0.446   5.562   2.622
10518SOL    HW132453   0.362   5.534   2.576
10518SOL    HW232454   0.423   5.622   2.699
10519SOL     OW32455   1.839   6.295   0.643
10519SOL    HW132456   1.876   6.214   0.689
10519SOL    HW232457   1.906   6.370   0.649
10520SOL     OW32458   3.062   2.902   6.093
10520SOL    HW132459   3.035   2.965   6.020
10520SOL    HW232460   2.987   2.896   6.160
10521SOL     OW32461   5.930   1.962   2.249
10521SOL    HW132462   5.875   1.939   2.168
10521SOL    HW232463   5.901   1.906   2.326
10522SOL     OW32464   4.982   1.346   3.108
10522SOL    HW132465   4.911   1.415   3.119
10522SOL    HW232466   4.976   1.280   3.183
10523SOL     OW32467   0.552   3.939   1.248
10523SOL    HW132468   0.560   4.037   1.270
10523SOL    HW232469   0.523   3.890   1.330
10524SOL     OW32470   5.858   6.561   4.607
10524SOL    HW132471   5.908   6.520   4.683
10524SOL    HW232472   5.923   6.603   4.544
10525SOL     OW32473   5.374   2.153   3.416
10525SOL    HW132474   5.340   2.069   3.458
10525SOL    HW232475   5.332   2.164   3.326
10526SOL     OW32476   1.673   6.218   6.286
10526SOL    HW132477   1.636   6.231   6.194
10526SOL    HW232478   1.761   6.171   6.279
10527SOL     OW32479   0.721   6.506   5.796
10527SOL    HW132480   0.722   6.594   5.748
10527SOL    HW232481   0.769   6.515   5.883
10528SOL     OW32482   2.280   5.969   5.281
10528SOL    HW132483   2.336   5.932   5.208
10528SOL    HW232484   2.195   6.005   5.243
10529SOL     OW32485   6.869   4.781   6.247
10529SOL    HW132486   6.861   4.848   6.322
10529SOL    HW232487   6.919   4.701   6.280
10530SOL     OW32488   5.676   0.437   1.519
10530SOL    HW132489   5.705   0.349   1.481
10530SOL    HW232490   5.685   0.436   1.619
10531SOL     OW32491   3.285   1.229   6.517
10531SOL    HW132492   3.323   1.285   6.590
10531SOL    HW232493   3.357   1.176   6.473
10532SOL     OW32494   4.579   5.510   5.744
10532SOL    HW132495   4.538   5.573   5.678
10532SOL    HW232496   4.649   5.455   5.698
10533SOL     OW32497   4.369   6.056   3.908
10533SOL    HW132498   4.274   6.068   3.935
10533SOL    HW232499   4.382   6.090   3.815
10534SOL     OW32500   0.630   6.112   4.751
10534SOL    HW132501   0.615   6.112   4.850
10534SOL    HW232502   0.595   6.026   4.712
10535SOL     OW32503   4.006   1.615   2.232
10535SOL    HW132504   4.066   1.582   2.305
10535SOL    HW232505   4.033   1.708   2.207
10536SOL     OW32506   5.758   3.481   4.336
10536SOL    HW132507   5.840   3.430   4.312
10536SOL    HW232508   5.711   3.511   4.253
10537SOL     OW32509   2.701   1.443   2.632
10537SOL    HW132510   2.657   1.508   2.693
10537SOL    HW232511   2.636   1.371   2.608
10538SOL     OW32512   6.549   2.592   3.331
10538SOL    HW132513   6.580   2.520   3.270
10538SOL    HW232514   6.558   2.680   3.286
10539SOL     OW32515   6.721   0.456   2.061
10539SOL    HW132516   6.680   0.375   2.103
10539SOL    HW232517   6.710   0.450   1.961
10540SOL     OW32518   1.501   2.603   6.148
10540SOL    HW132519   1.559   2.674   6.111
10540SOL    HW232520   1.494   2.527   6.083
10541SOL     OW32521   3.834   2.569   6.537
10541SOL    HW132522   3.867   2.559   6.443
10541SOL    HW232523   3.740   2.605   6.535
10542SOL     OW32524   3.675   6.187   2.537
10542SOL    HW132525   3.742   6.257   2.514
10542SOL    HW232526   3.674   6.173   2.636
10543SOL     OW32527   1.305   3.023   4.307
10543SOL    HW132528   1.328   3.045   4.402
10543SOL    HW232529   1.335   3.097   4.247
10544SOL     OW32530   2.812   2.210   2.264
10544SOL    HW132531   2.851   2.242   2.178
10544SOL    HW232532   2.721   2.250   2.276
10545SOL     OW32533   0.995   3.369   0.941
10545SOL    HW132534   0.899   3.347   0.956
10545SOL    HW232535   1.004   3.424   0.858
10546SOL     OW32536   1.694   0.467   5.103
10546SOL    HW132537   1.624   0.397   5.090
10546SOL    HW232538   1.782   0.423   5.122
10547SOL     OW32539   3.137   5.662   6.342
10547SOL    HW132540   3.122   5.595   6.268
10547SOL    HW232541   3.052   5.713   6.357
10548SOL     OW32542   1.451   5.125   3.213
10548SOL    HW132543   1.370   5.118   3.156
10548SOL    HW232544   1.445   5.208   3.270
10549SOL     OW32545   0.058   1.459   2.902
10549SOL    HW132546   6.996   1.449   2.962
10549SOL    HW232547   0.033   1.513   2.821
10550SOL     OW32548   0.029   4.413   2.738
10550SOL    HW132549   6.979   4.348   2.771
10550SOL    HW232550   0.018   4.501   2.785
10551SOL     OW32551   4.708   0.473   4.527
10551SOL    HW132552   4.739   0.552   4.581
10551SOL    HW232553   4.721   0.492   4.430
10552SOL     OW32554   2.456   6.989   3.535
10552SOL    HW132555   2.542   6.957   3.497
10552SOL    HW232556   2.438   0.065   3.503
10553SOL     OW32557   5.799   5.386   1.663
10553SOL    HW132558   5.848   5.452   1.606
10553SOL    HW232559   5.772   5.307   1.607
10554SOL     OW32560   5.464   5.806   1.450
10554SOL    HW132561   5.397   5.759   1.507
10554SOL    HW232562   5.417   5.858   1.379
10555SOL     OW32563   3.296   3.115   2.080
10555SOL    HW132564   3.289   3.016   2.089
10555SOL    HW232565   3.255   3.144   1.994
10556SOL     OW32566   2.344   2.153   2.052
10556SOL    HW132567   2.418   2.210   2.088
10556SOL    HW232568   2.361   2.057   2.076
10557SOL     OW32569   0.796   4.252   3.231
10557SOL    HW132570   0.753   4.282   3.316
10557SOL    HW232571   0.821   4.155   3.239
10558SOL     OW32572   4.906   5.292   4.565
10558SOL    HW132573   4.930   5.341   4.481
10558SOL    HW232574   4.970   5.216   4.579
10559SOL     OW32575   3.813   5.686   1.746
10559SOL    HW132576   3.764   5.631   1.677
10559SOL    HW232577   3.847   5.770   1.703
10560SOL     OW32578   5.983   6.862   3.974
10560SOL    HW132579   5.950   6.831   4.063
10560SOL    HW232580   5.909   6.909   3.925
10561SOL     OW32581   0.706   5.742   5.664
10561SOL    HW132582   0.736   5.775   5.753
10561SOL    HW232583   0.760   5.787   5.592
10562SOL     OW32584   2.849   1.125   2.701
10562SOL    HW132585   2.847   1.130   2.602
10562SOL    HW232586   2.914   1.054   2.729
10563SOL     OW32587   1.476   5.146   2.423
10563SOL    HW132588   1.398   5.192   2.465
10563SOL    HW232589   1.529   5.211   2.370
10564SOL     OW32590   5.274   5.801   3.373
10564SOL    HW132591   5.183   5.815   3.333
10564SOL    HW232592   5.268   5.734   3.447
10565SOL     OW32593   6.946   1.084   4.382
10565SOL    HW132594   0.000   1.146   4.415
10565SOL    HW232595   6.920   1.109   4.289
10566SOL     OW32596   3.233   1.160   0.423
10566SOL    HW132597   3.225   1.081   0.482
10566SOL    HW232598   3.280   1.234   0.471
10567SOL     OW32599   3.233   1.685   6.354
10567SOL    HW132600   3.287   1.669   6.437
10567SOL    HW232601   3.293   1.683   6.274
10568SOL     OW32602   6.339   1.513   6.473
10568SOL    HW132603   6.355   1.584   6.543
10568SOL    HW232604   6.242   1.513   6.448
10569SOL     OW32605   3.814   0.451   1.606
10569SOL    HW132606   3.904   0.426   1.570
10569SOL    HW232607   3.823   0.532   1.664
10570SOL     OW32608   1.089   3.830   2.434
10570SOL    HW132609   1.161   3.899   2.440
10570SOL    HW232610   1.062   3.802   2.526
10571SOL     OW32611   0.615   3.932   4.756
10571SOL    HW132612   0.525   3.976   4.755
10571SOL    HW232613   0.666   3.958   4.674
10572SOL     OW32614   7.003   5.617   0.514
10572SOL    HW132615   0.073   5.579   0.482
10572SOL    HW232616   7.017   5.711   0.544
10573SOL     OW32617   5.943   2.070   3.073
10573SOL    HW132618   5.845   2.076   3.055
10573SOL    HW232619   5.959   2.067   3.172
10574SOL     OW32620   5.453   2.379   2.664
10574SOL    HW132621   5.547   2.351   2.683
10574SOL    HW232622   5.425   2.448   2.731
10575SOL     OW32623   4.916   6.932   3.352
10575SOL    HW132624   4.986   6.883   3.301
10575SOL    HW232625   4.886   7.012   3.300
10576SOL     OW32626   1.173   3.324   5.074
10576SOL    HW132627   1.142   3.231   5.053
10576SOL    HW232628   1.096   3.377   5.110
10577SOL     OW32629   4.367   4.855   6.382
10577SOL    HW132630   4.274   4.818   6.390
10577SOL    HW232631   4.401   4.841   6.289
10578SOL     OW32632   1.315   3.126   2.143
10578SOL    HW132633   1.276   3.073   2.218
10578SOL    HW232634   1.321   3.222   2.170
10579SOL     OW32635   0.188   3.247   0.298
10579SOL    HW132636   0.159   3.156   0.328
10579SOL    HW232637   0.287   3.257   0.313
10580SOL     OW32638   4.793   6.495   5.997
10580SOL    HW132639   4.858   6.506   5.921
10580SOL    HW232640   4.700   6.504   5.962
10581SOL     OW32641   3.865   0.431   2.642
10581SOL    HW132642   3.798   0.423   2.715
10581SOL    HW232643   3.950   0.470   2.678
10582SOL     OW32644   0.115   3.767   0.447
10582SOL    HW132645   0.142   3.780   0.352
10582SOL    HW232646   0.112   3.670   0.468
10583SOL     OW32647   3.697   1.890   5.913
10583SOL    HW132648   3.782   1.870   5.864
10583SOL    HW232649   3.628   1.822   5.889
10584SOL     OW32650   6.728   0.672   3.942
10584SOL    HW132651   6.823   0.704   3.951
10584SOL    HW232652   6.728   0.578   3.907
10585SOL     OW32653   1.847   0.901   4.785
10585SOL    HW132654   1.844   0.983   4.729
10585SOL    HW232655   1.777   0.836   4.752
10586SOL     OW32656   4.775   3.464   6.298
10586SOL    HW132657   4.825   3.496   6.218
10586SOL    HW232658   4.838   3.452   6.375
10587SOL     OW32659   1.963   5.245   5.844
10587SOL    HW132660   2.057   5.281   5.844
10587SOL    HW232661   1.966   5.145   5.839
10588SOL     OW32662   0.985   4.566   4.436
10588SOL    HW132663   0.942   4.646   4.394
10588SOL    HW232664   0.949   4.483   4.395
10589SOL     OW32665   6.349   0.723   3.371
10589SOL    HW132666   6.313   0.669   3.447
10589SOL    HW232667   6.283   0.794   3.347
10590SOL     OW32668   6.972   6.074   2.358
10590SOL    HW132669   6.960   5.981   2.325
10590SOL    HW232670   0.047   6.084   2.397
10591SOL     OW32671   6.498   4.296   2.556
10591SOL    HW132672   6.474   4.336   2.644
10591SOL    HW232673   6.598   4.290   2.548
10592SOL     OW32674   6.121   4.201   4.939
10592SOL    HW132675   6.134   4.172   4.844
10592SOL    HW232676   6.183   4.148   4.998
10593SOL     OW32677   3.972   5.642   2.929
10593SOL    HW132678   4.034   5.647   2.851
10593SOL    HW232679   3.961   5.732   2.969
10594SOL     OW32680   3.909   5.883   3.763
10594SOL    HW132681   3.905   5.871   3.664
10594SOL    HW232682   3.970   5.960   3.785
10595SOL     OW32683   6.050   5.474   0.389
10595SOL    HW132684   6.067   5.555   0.333
10595SOL    HW232685   6.039   5.394   0.330
10596SOL     OW32686   6.214   3.802   0.709
10596SOL    HW132687   6.297   3.839   0.667
10596SOL    HW232688   6.158   3.757   0.639
10597SOL     OW32689   1.363   6.787   5.389
10597SOL    HW132690   1.426   6.805   5.313
10597SOL    HW232691   1.282   6.845   5.380
10598SOL     OW32692   2.773   1.585   1.169
10598SOL    HW132693   2.680   1.577   1.204
10598SOL    HW232694   2.837   1.546   1.235
10599SOL     OW32695   0.883   1.781   0.894
10599SOL    HW132696   0.948   1.857   0.901
10599SOL    HW232697   0.792   1.813   0.920
10600SOL     OW32698   4.541   1.414   2.184
10600SOL    HW132699   4.613   1.344   2.184
10600SOL    HW232700   4.467   1.387   2.244
10601SOL     OW32701   1.759   1.933   5.581
10601SOL    HW132702   1.821   1.907   5.655
10601SOL    HW232703   1.682   1.985   5.620
10602SOL     OW32704   6.958   6.784   1.123
10602SOL    HW132705   6.860   6.767   1.129
10602SOL    HW232706   7.001   6.711   1.068
10603SOL     OW32707   5.596   0.214   2.903
10603SOL    HW132708   5.691   0.241   2.890
10603SOL    HW232709   5.537   0.273   2.847
10604SOL     OW32710   5.443   2.030   4.856
10604SOL    HW132711   5.403   1.990   4.939
10604SOL    HW232712   5.540   2.007   4.852
10605SOL     OW32713   4.776   1.444   1.163
10605SOL    HW132714   4.771   1.388   1.246
10605SOL    HW232715   4.840   1.402   1.099
10606SOL     OW32716   5.683   1.469   1.025
10606SOL    HW132717   5.752   1.405   0.990
10606SOL    HW232718   5.619   1.421   1.084
10607SOL     OW32719   1.920   5.146   1.174
10607SOL    HW132720   1.947   5.097   1.257
10607SOL    HW232721   1.999   5.197   1.138
10608SOL     OW32722   5.258   3.999   2.578
10608SOL    HW132723   5.350   3.980   2.614
10608SOL    HW232724   5.245   3.947   2.493
10609SOL     OW32725   5.851   6.261   6.948
10609SOL    HW132726   5.753   6.244   6.960
10609SOL    HW232727   5.869   6.359   6.950
10610SOL     OW32728   0.128   2.374   3.207
10610SOL    HW132729   0.163   2.355   3.115
10610SOL    HW232730   0.063   2.302   3.233
10611SOL     OW32731   4.132   5.529   6.237
10611SOL    HW132732   4.217   5.548   6.188
10611SOL    HW232733   4.125   5.431   6.255
10612SOL     OW32734   5.335   2.489   3.739
10612SOL    HW132735   5.325   2.547   3.658
10612SOL    HW232736   5.429   2.495   3.773
10613SOL     OW32737   5.111   4.821   5.989
10613SOL    HW132738   5.193   4.878   5.989
10613SOL    HW232739   5.128   4.740   6.046
10614SOL     OW32740   4.398   2.081   0.389
10614SOL    HW132741   4.437   1.994   0.359
10614SOL    HW232742   4.419   2.151   0.321
10615SOL     OW32743   3.467   2.685   5.861
10615SOL    HW132744   3.561   2.707   5.836
10615SOL    HW232745   3.449   2.588   5.845
10616SOL     OW32746   1.521   5.654   0.170
10616SOL    HW132747   1.498   5.623   0.077
10616SOL    HW232748   1.495   5.750   0.180
10617SOL     OW32749   2.472   3.342   6.988
10617SOL    HW132750   2.464   3.247   0.000
10617SOL    HW232751   2.432   3.352   6.897
10618SOL     OW32752   0.306   4.767   4.775
10618SOL    HW132753   0.358   4.808   4.700
10618SOL    HW232754   0.209   4.763   4.749
10619SOL     OW32755   1.596   2.319   1.096
10619SOL    HW132756   1.516   2.363   1.135
10619SOL    HW232757   1.667   2.387   1.079
10620SOL     OW32758   4.118   1.183   5.603
10620SOL    HW132759   4.028   1.226   5.613
10620SOL    HW232760   4.114   1.089   5.637
10621SOL     OW32761   1.062   5.242   4.774
10621SOL    HW132762   0.992   5.306   4.805
10621SOL    HW232763   1.021   5.179   4.707
10622SOL     OW32764   4.099   2.265   6.174
10622SOL    HW132765   4.080   2.207   6.094
10622SOL    HW232766   4.138   2.209   6.247
10623SOL     OW32767   5.305   4.884   4.906
10623SOL    HW132768   5.331   4.840   4.992
10623SOL    HW232769   5.307   4.816   4.832
10624SOL     OW32770   0.026   1.538   5.715
10624SOL    HW132771   0.038   1.471   5.788
10624SOL    HW232772   0.114   1.581   5.695
10625SOL     OW32773   6.433   5.227   6.707
10625SOL    HW132774   6.477   5.196   6.623
10625SOL    HW232775   6.486   5.303   6.746
10626SOL     OW32776   5.827   3.827   1.844
10626SOL    HW132777   5.858   3.800   1.935
10626SOL    HW232778   5.729   3.808   1.835
10627SOL     OW32779   5.114   5.440   5.352
10627SOL    HW132780   5.049   5.388   5.408
10627SOL    HW232781   5.065   5.485   5.278
10628SOL     OW32782   2.722   6.112   1.945
10628SOL    HW132783   2.689   6.024   1.980
10628SOL    HW232784   2.821   6.108   1.932
10629SOL     OW32785   4.200   5.833   4.348
10629SOL    HW132786   4.138   5.907   4.371
10629SOL    HW232787   4.291   5.870   4.331
10630SOL     OW32788   4.484   0.918   1.697
10630SOL    HW132789   4.544   0.978   1.644
10630SOL    HW232790   4.500   0.933   1.794
10631SOL     OW32791   3.536   6.249   2.016
10631SOL    HW132792   3.587   6.332   2.039
10631SOL    HW232793   3.531   6.190   2.097
10632SOL     OW32794   5.961   0.752   4.590
10632SOL    HW132795   6.049   0.766   4.544
10632SOL    HW232796   5.928   0.659   4.573
10633SOL     OW32797   2.941   3.377   0.103
10633SOL    HW132798   2.862   3.316   0.101
10633SOL    HW232799   2.919   3.461   0.054
10634SOL     OW32800   1.063   4.315   0.690
10634SOL    HW132801   1.007   4.235   0.668
10634SOL    HW232802   1.143   4.317   0.630
10635SOL     OW32803   3.130   4.383   0.152
10635SOL    HW132804   3.133   4.381   0.052
10635SOL    HW232805   3.070   4.458   0.182
10636SOL     OW32806   0.676   2.418   0.580
10636SOL    HW132807   0.588   2.434   0.625
10636SOL    HW232808   0.745   2.481   0.618
10637SOL     OW32809   1.702   0.032   5.568
10637SOL    HW132810   1.746   0.107   5.617
10637SOL    HW232811   1.607   0.023   5.597
10638SOL     OW32812   5.981   4.497   6.690
10638SOL    HW132813   5.953   4.412   6.734
10638SOL    HW232814   6.081   4.506   6.694
10639SOL     OW32815   6.816   5.150   6.721
10639SOL    HW132816   6.759   5.145   6.803
10639SOL    HW232817   6.757   5.166   6.641
10640SOL     OW32818   4.318   5.580   4.826
10640SOL    HW132819   4.255   5.504   4.814
10640SOL    HW232820   4.404   5.546   4.864
10641SOL     OW32821   1.327   1.364   3.684
10641SOL    HW132822   1.277   1.297   3.737
10641SOL    HW232823   1.287   1.370   3.592
10642SOL     OW32824   6.523   1.848   5.606
10642SOL    HW132825   6.558   1.804   5.523
10642SOL    HW232826   6.492   1.778   5.670
10643SOL     OW32827   3.198   5.505   4.651
10643SOL    HW132828   3.171   5.464   4.564
10643SOL    HW232829   3.133   5.476   4.722
10644SOL     OW32830   1.407   3.848   3.670
10644SOL    HW132831   1.437   3.916   3.737
10644SOL    HW232832   1.471   3.771   3.670
10645SOL     OW32833   1.996   3.241   3.841
10645SOL    HW132834   1.993   3.340   3.824
10645SOL    HW232835   2.022   3.225   3.937
10646SOL     OW32836   5.516   1.402   3.031
10646SOL    HW132837   5.586   1.338   3.061
10646SOL    HW232838   5.559   1.479   2.985
10647SOL     OW32839   4.470   5.950   4.671
10647SOL    HW132840   4.372   5.936   4.662
10647SOL    HW232841   4.492   5.972   4.766
10648SOL     OW32842   4.776   3.200   5.875
10648SOL    HW132843   4.731   3.112   5.863
10648SOL    HW232844   4.737   3.266   5.811
10649SOL     OW32845   6.015   3.422   3.131
10649SOL    HW132846   6.019   3.427   3.031
10649SOL    HW232847   6.095   3.371   3.164
10650SOL     OW32848   0.484   0.640   2.810
10650SOL    HW132849   0.545   0.719   2.812
10650SOL    HW232850   0.527   0.564   2.860
10651SOL     OW32851   2.268   5.685   4.767
10651SOL    HW132852   2.202   5.650   4.833
10651SOL    HW232853   2.360   5.682   4.807
10652SOL     OW32854   3.536   0.242   0.291
10652SOL    HW132855   3.477   0.321   0.271
10652SOL    HW232856   3.497   0.160   0.249
10653SOL     OW32857   5.843   5.878   4.790
10653SOL    HW132858   5.920   5.905   4.732
10653SOL    HW232859   5.856   5.784   4.820
10654SOL     OW32860   0.088   1.753   3.674
10654SOL    HW132861   0.160   1.820   3.655
10654SOL    HW232862   0.118   1.693   3.749
10655SOL     OW32863   6.245   4.721   0.238
10655SOL    HW132864   6.192   4.668   0.304
10655SOL    HW232865   6.192   4.801   0.209
10656SOL     OW32866   5.833   0.685   5.819
10656SOL    HW132867   5.794   0.593   5.827
10656SOL    HW232868   5.905   0.684   5.750
10657SOL     OW32869   4.292   0.153   5.490
10657SOL    HW132870   4.217   0.145   5.424
10657SOL    HW232871   4.303   0.065   5.538
10658SOL     OW32872   1.465   0.888   5.000
10658SOL    HW132873   1.480   0.795   5.033
10658SOL    HW232874   1.552   0.937   4.995
10659SOL     OW32875   0.959   5.633   6.800
10659SOL    HW132876   0.895   5.709   6.808
10659SOL    HW232877   1.043   5.654   6.850
10660SOL     OW32878   6.210   2.092   6.288
10660SOL    HW132879   6.278   2.021   6.274
10660SOL    HW232880   6.119   2.050   6.296
10661SOL     OW32881   3.640   5.477   5.522
10661SOL    HW132882   3.607   5.390   5.561
10661SOL    HW232883   3.567   5.545   5.527
10662SOL     OW32884   3.447   1.843   0.956
10662SOL    HW132885   3.496   1.887   1.032
10662SOL    HW232886   3.352   1.825   0.984
10663SOL     OW32887   6.469   3.178   3.892
10663SOL    HW132888   6.560   3.138   3.885
10663SOL    HW232889   6.468   3.267   3.846
10664SOL     OW32890   0.960   6.346   4.548
10664SOL    HW132891   1.024   6.274   4.576
10664SOL    HW232892   1.004   6.402   4.478
10665SOL     OW32893   4.489   3.699   0.652
10665SOL    HW132894   4.513   3.743   0.739
10665SOL    HW232895   4.390   3.682   0.650
10666SOL     OW32896   5.040   3.555   1.816
10666SOL    HW132897   4.972   3.487   1.844
10666SOL    HW232898   5.021   3.584   1.723
10667SOL     OW32899   5.284   2.935   4.080
10667SOL    HW132900   5.353   2.864   4.097
10667SOL    HW232901   5.276   2.993   4.161
10668SOL     OW32902   3.141   3.051   5.694
10668SOL    HW132903   3.126   3.105   5.777
10668SOL    HW232904   3.221   2.993   5.706
10669SOL     OW32905   6.337   3.032   2.027
10669SOL    HW132906   6.338   2.984   1.939
10669SOL    HW232907   6.248   3.018   2.071
10670SOL     OW32908   4.779   4.901   4.024
10670SOL    HW132909   4.767   4.828   4.091
10670SOL    HW232910   4.855   4.879   3.963
10671SOL     OW32911   1.807   3.220   4.445
10671SOL    HW132912   1.755   3.294   4.401
10671SOL    HW232913   1.905   3.240   4.440
10672SOL     OW32914   6.550   4.974   1.269
10672SOL    HW132915   6.605   4.915   1.328
10672SOL    HW232916   6.498   5.038   1.326
10673SOL     OW32917   3.008   1.005   1.747
10673SOL    HW132918   2.960   0.947   1.813
10673SOL    HW232919   3.024   1.095   1.788
10674SOL     OW32920   4.070   3.186   3.736
10674SOL    HW132921   4.086   3.198   3.638
10674SOL    HW232922   4.006   3.111   3.750
10675SOL     OW32923   3.637   6.116   5.755
10675SOL    HW132924   3.583   6.196   5.782
10675SOL    HW232925   3.712   6.102   5.821
10676SOL     OW32926   1.617   1.161   4.189
10676SOL    HW132927   1.573   1.109   4.115
10676SOL    HW232928   1.595   1.258   4.179
10677SOL     OW32929   0.301   1.464   6.955
10677SOL    HW132930   0.238   1.452   6.879
10677SOL    HW232931   0.261   1.424   0.020
10678SOL     OW32932   3.370   4.873   2.628
10678SOL    HW132933   3.271   4.862   2.622
10678SOL    HW232934   3.408   4.883   2.536
10679SOL     OW32935   5.430   3.851   0.360
10679SOL    HW132936   5.448   3.818   0.452
10679SOL    HW232937   5.420   3.950   0.361
10680SOL     OW32938   4.033   1.707   5.189
10680SOL    HW132939   4.021   1.630   5.252
10680SOL    HW232940   4.118   1.755   5.210
10681SOL     OW32941   2.857   3.289   5.443
10681SOL    HW132942   2.810   3.369   5.405
10681SOL    HW232943   2.823   3.206   5.398
10682SOL     OW32944   5.076   3.208   6.286
10682SOL    HW132945   4.997   3.147   6.287
10682SOL    HW232946   5.146   3.170   6.224
10683SOL     OW32947   1.374   0.452   3.388
10683SOL    HW132948   1.367   0.410   3.297
10683SOL    HW232949   1.442   0.525   3.386
10684SOL     OW32950   4.824   4.184   1.410
10684SOL    HW132951   4.801   4.270   1.455
10684SOL    HW232952   4.745   4.151   1.359
10685SOL     OW32953   0.801   0.629   2.748
10685SOL    HW132954   0.795   0.681   2.663
10685SOL    HW232955   0.851   0.543   2.731
10686SOL     OW32956   2.833   1.898   6.711
10686SOL    HW132957   2.821   1.879   6.809
10686SOL    HW232958   2.852   1.813   6.663
10687SOL     OW32959   0.870   3.001   3.226
10687SOL    HW132960   0.963   2.995   3.190
10687SOL    HW232961   0.821   3.076   3.181
10688SOL     OW32962   4.992   1.251   3.769
10688SOL    HW132963   4.939   1.263   3.685
10688SOL    HW232964   4.929   1.239   3.846
10689SOL     OW32965   1.554   1.152   2.936
10689SOL    HW132966   1.478   1.202   2.894
10689SOL    HW232967   1.612   1.217   2.985
10690SOL     OW32968   1.052   6.638   4.829
10690SOL    HW132969   1.020   6.721   4.784
10690SOL    HW232970   0.980   6.569   4.829
10691SOL     OW32971   3.444   6.685   1.613
10691SOL    HW132972   3.391   6.688   1.528
10691SOL    HW232973   3.523   6.626   1.601
10692SOL     OW32974   2.739   2.324   4.330
10692SOL    HW132975   2.688   2.239   4.314
10692SOL    HW232976   2.758   2.333   4.427
10693SOL     OW32977   1.437   4.509   0.137
10693SOL    HW132978   1.438   4.476   0.231
10693SOL    HW232979   1.374   4.453   0.082
10694SOL     OW32980   5.441   2.096   5.495
10694SOL    HW132981   5.522   2.150   5.519
10694SOL    HW232982   5.395   2.066   5.579
10695SOL     OW32983   4.890   4.940   1.499
10695SOL    HW132984   4.910   4.948   1.597
10695SOL    HW232985   4.858   5.028   1.465
10696SOL     OW32986   6.781   5.061   4.315
10696SOL    HW132987   6.811   5.047   4.221
10696SOL    HW232988   6.731   4.980   4.346
10697SOL     OW32989   2.827   5.050   4.577
10697SOL    HW132990   2.834   4.959   4.536
10697SOL    HW232991   2.813   5.041   4.676
10698SOL     OW32992   4.115   4.582   6.992
10698SOL    HW132993   4.053   4.555   0.048
10698SOL    HW232994   4.163   4.666   0.001
10699SOL     OW32995   4.455   4.012   1.605
10699SOL    HW132996   4.381   4.076   1.630
10699SOL    HW232997   4.540   4.040   1.650
10700SOL     OW32998   5.054   0.390   1.717
10700SOL    HW132999   4.961   0.382   1.680
10700SOL    HW233000   5.116   0.332   1.665
10701SOL     OW33001   3.132   6.467   5.932
10701SOL    HW133002   3.172   6.480   5.841
10701SOL    HW233003   3.135   6.370   5.956
10702SOL     OW33004   5.829   2.704   2.464
10702SOL    HW133005   5.865   2.785   2.510
10702SOL    HW233006   5.766   2.657   2.526
10703SOL     OW33007   0.933   1.931   5.720
10703SOL    HW133008   0.914   1.996   5.793
10703SOL    HW233009   0.861   1.861   5.718
10704SOL     OW33010   5.110   6.830   2.214
10704SOL    HW133011   5.185   6.893   2.234
10704SOL    HW233012   5.030   6.882   2.185
10705SOL     OW33013   4.685   3.746   1.610
10705SOL    HW133014   4.664   3.839   1.641
10705SOL    HW233015   4.770   3.746   1.558
10706SOL     OW33016   2.927   0.762   2.268
10706SOL    HW133017   2.912   0.664   2.281
10706SOL    HW233018   2.974   0.799   2.348
10707SOL     OW33019   3.893   6.859   3.652
10707SOL    HW133020   3.860   6.947   3.687
10707SOL    HW233021   3.964   6.874   3.584
10708SOL     OW33022   4.297   1.179   1.384
10708SOL    HW133023   4.276   1.084   1.360
10708SOL    HW233024   4.383   1.183   1.435
10709SOL     OW33025   5.563   4.154   2.802
10709SOL    HW133026   5.634   4.162   2.871
10709SOL    HW233027   5.474   4.141   2.848
10710SOL     OW33028   4.826   1.326   3.557
10710SOL    HW133029   4.829   1.400   3.490
10710SOL    HW233030   4.799   1.241   3.511
10711SOL     OW33031   2.509   6.370   3.247
10711SOL    HW133032   2.495   6.458   3.292
10711SOL    HW233033   2.554   6.307   3.310
10712SOL     OW33034   5.514   0.790   3.736
10712SOL    HW133035   5.549   0.881   3.716
10712SOL    HW233036   5.478   0.749   3.652
10713SOL     OW33037   0.999   3.672   1.018
10713SOL    HW133038   0.987   3.771   1.016
10713SOL    HW233039   1.010   3.638   0.925
10714SOL     OW33040   3.179   4.049   5.019
10714SOL    HW133041   3.161   4.128   5.077
10714SOL    HW233042   3.265   4.006   5.048
10715SOL     OW33043   6.209   1.003   1.955
10715SOL    HW133044   6.309   0.997   1.956
10715SOL    HW233045   6.174   0.949   1.878
10716SOL     OW33046   5.336   1.013   3.117
10716SOL    HW133047   5.379   0.989   3.204
10716SOL    HW233048   5.304   1.107   3.121
10717SOL     OW33049   3.537   2.970   0.413
10717SOL    HW133050   3.509   2.894   0.355
10717SOL    HW233051   3.583   2.934   0.494
10718SOL     OW33052   1.605   5.308   6.271
10718SOL    HW133053   1.625   5.392   6.323
10718SOL    HW233054   1.518   5.270   6.301
10719SOL     OW33055   0.154   4.649   5.183
10719SOL    HW133056   0.144   4.746   5.206
10719SOL    HW233057   0.177   4.598   5.266
10720SOL     OW33058   6.901   5.529   2.708
10720SOL    HW133059   6.970   5.587   2.753
10720SOL    HW233060   6.851   5.584   2.641
10721SOL     OW33061   5.113   2.725   5.916
10721SOL    HW133062   5.069   2.727   6.005
10721SOL    HW233063   5.100   2.814   5.871
10722SOL     OW33064   0.096   3.767   5.306
10722SOL    HW133065   0.057   3.700   5.242
10722SOL    HW233066   0.163   3.824   5.258
10723SOL     OW33067   5.799   6.001   0.773
10723SOL    HW133068   5.774   6.087   0.728
10723SOL    HW233069   5.829   5.934   0.705
10724SOL     OW33070   0.248   6.338   5.841
10724SOL    HW133071   0.195   6.340   5.757
10724SOL    HW233072   0.219   6.261   5.898
10725SOL     OW33073   2.557   6.653   6.267
10725SOL    HW133074   2.613   6.731   6.239
10725SOL    HW233075   2.567   6.578   6.202
10726SOL     OW33076   3.664   0.628   4.073
10726SOL    HW133077   3.704   0.698   4.132
10726SOL    HW233078   3.731   0.556   4.055
10727SOL     OW33079   2.571   6.104   6.833
10727SOL    HW133080   2.471   6.105   6.840
10727SOL    HW233081   2.608   6.037   6.897
10728SOL     OW33082   5.533   6.008   1.861
10728SOL    HW133083   5.485   6.096   1.866
10728SOL    HW233084   5.468   5.936   1.837
10729SOL     OW33085   6.343   2.130   0.448
10729SOL    HW133086   6.363   2.219   0.408
10729SOL    HW233087   6.355   2.134   0.547
10730SOL     OW33088   4.648   0.525   3.087
10730SOL    HW133089   4.591   0.554   3.164
10730SOL    HW233090   4.625   0.431   3.063
10731SOL     OW33091   3.309   6.965   1.098
10731SOL    HW133092   3.336   0.030   1.048
10731SOL    HW233093   3.209   6.955   1.095
10732SOL     OW33094   0.412   3.245   6.069
10732SOL    HW133095   0.474   3.225   6.145
10732SOL    HW233096   0.443   3.196   5.987
10733SOL     OW33097   5.856   0.394   0.383
10733SOL    HW133098   5.844   0.351   0.294
10733SOL    HW233099   5.816   0.336   0.454
10734SOL     OW33100   5.944   2.866   1.994
10734SOL    HW133101   5.950   2.793   2.062
10734SOL    HW233102   5.993   2.839   1.911
10735SOL     OW33103   0.144   5.377   2.754
10735SOL    HW133104   0.206   5.360   2.678
10735SOL    HW233105   0.064   5.428   2.722
10736SOL     OW33106   2.089   1.434   4.821
10736SOL    HW133107   2.097   1.334   4.817
10736SOL    HW233108   2.161   1.471   4.880
10737SOL     OW33109   6.936   1.804   6.219
10737SOL    HW133110   6.937   1.834   6.124
10737SOL    HW233111   6.842   1.803   6.253
10738SOL     OW33112   3.982   0.208   4.134
10738SOL    HW133113   4.060   0.205   4.072
10738SOL    HW233114   3.913   0.270   4.098
10739SOL     OW33115   2.451   1.764   2.349
10739SOL    HW133116   2.385   1.772   2.274
10739SOL    HW233117   2.512   1.687   2.332
10740SOL     OW33118   4.469   6.040   3.629
10740SOL    HW133119   4.458   5.941   3.617
10740SOL    HW233120   4.550   6.071   3.579
10741SOL     OW33121   2.405   0.409   3.139
10741SOL    HW133122   2.487   0.412   3.196
10741SOL    HW233123   2.417   0.343   3.066
10742SOL     OW33124   6.791   5.944   6.839
10742SOL    HW133125   6.746   5.982   6.919
10742SOL    HW233126   6.771   5.846   6.832
10743SOL     OW33127   3.114   1.334   5.096
10743SOL    HW133128   3.058   1.254   5.118
10743SOL    HW233129   3.101   1.359   5.000
10744SOL     OW33130   6.186   1.425   0.323
10744SOL    HW133131   6.167   1.355   0.254
10744SOL    HW233132   6.133   1.507   0.303
10745SOL     OW33133   0.117   5.874   5.830
10745SOL    HW133134   0.192   5.928   5.791
10745SOL    HW233135   0.097   5.797   5.770
10746SOL     OW33136   1.829   4.368   5.201
10746SOL    HW133137   1.852   4.463   5.221
10746SOL    HW233138   1.872   4.308   5.269
10747SOL     OW33139   2.971   2.203   4.796
10747SOL    HW133140   3.032   2.226   4.871
10747SOL    HW233141   2.884   2.170   4.833
10748SOL     OW33142   5.722   1.247   2.380
10748SOL    HW133143   5.695   1.196   2.461
10748SOL    HW233144   5.819   1.272   2.387
10749SOL     OW33145   3.348   6.985   0.204
10749SOL    HW133146   3.351   6.978   0.304
10749SOL    HW233147   3.262   0.011   0.176
10750SOL     OW33148   4.480   6.251   6.265
10750SOL    HW133149   4.394   6.209   6.292
10750SOL    HW233150   4.537   6.184   6.217
10751SOL     OW33151   2.553   5.450   3.091
10751SOL    HW133152   2.561   5.470   2.993
10751SOL    HW233153   2.468   5.400   3.107
10752SOL     OW33154   5.254   4.963   3.988
10752SOL    HW133155   5.218   5.025   3.917
10752SOL    HW233156   5.278   5.016   4.069
10753SOL     OW33157   5.590   4.212   4.305
10753SOL    HW133158   5.659   4.152   4.345
10753SOL    HW233159   5.512   4.159   4.275
10754SOL     OW33160   1.127   6.964   2.700
10754SOL    HW133161   1.064   6.886   2.700
10754SOL    HW233162   1.213   6.937   2.743
10755SOL     OW33163   6.042   5.472   1.489
10755SOL    HW133164   6.141   5.472   1.499
10755SOL    HW233165   6.009   5.566   1.486
10756SOL     OW33166   0.457   0.078   5.348
10756SOL    HW133167   0.481   0.036   5.435
10756SOL    HW233168   0.360   0.104   5.348
10757SOL     OW33169   3.045   2.986   1.954
10757SOL    HW133170   3.018   2.946   1.866
10757SOL    HW233171   3.124   2.937   1.990
10758SOL     OW33172   0.167   5.230   4.314
10758SOL    HW133173   0.261   5.266   4.313
10758SOL    HW233174   0.168   5.134   4.284
10759SOL     OW33175   6.866   1.033   0.043
10759SOL    HW133176   6.874   1.114   0.101
10759SOL    HW233177   6.787   0.979   0.071
10760SOL     OW33178   5.695   1.782   4.514
10760SOL    HW133179   5.654   1.856   4.461
10760SOL    HW233180   5.637   1.760   4.592
10761SOL     OW33181   3.059   5.283   5.507
10761SOL    HW133182   2.981   5.284   5.570
10761SOL    HW233183   3.093   5.190   5.497
10762SOL     OW33184   3.144   1.422   6.341
10762SOL    HW133185   3.190   1.367   6.411
10762SOL    HW233186   3.195   1.508   6.328
10763SOL     OW33187   4.950   5.972   4.340
10763SOL    HW133188   4.878   5.994   4.406
10763SOL    HW233189   4.927   5.886   4.294
10764SOL     OW33190   4.041   0.053   4.971
10764SOL    HW133191   4.129   0.011   4.992
10764SOL    HW233192   3.985   7.006   4.918
10765SOL     OW33193   6.977   3.621   6.816
10765SOL    HW133194   0.032   3.685   6.842
10765SOL    HW233195   6.888   3.666   6.822
10766SOL     OW33196   3.232   3.276   1.866
10766SOL    HW133197   3.191   3.335   1.797
10766SOL    HW233198   3.330   3.292   1.871
10767SOL     OW33199   4.829   2.150   1.953
10767SOL    HW133200   4.807   2.213   2.027
10767SOL    HW233201   4.758   2.154   1.883
10768SOL     OW33202   5.612   4.674   5.978
10768SOL    HW133203   5.546   4.741   6.010
10768SOL    HW233204   5.696   4.682   6.031
10769SOL     OW33205   1.606   3.408   4.959
10769SOL    HW133206   1.518   3.448   4.984
10769SOL    HW233207   1.668   3.414   5.038
10770SOL     OW33208   4.092   5.620   3.737
10770SOL    HW133209   4.083   5.523   3.759
10770SOL    HW233210   4.032   5.673   3.797
10771SOL     OW33211   2.569   1.837   4.294
10771SOL    HW133212   2.592   1.808   4.387
10771SOL    HW233213   2.560   1.937   4.291
10772SOL     OW33214   5.089   6.088   4.104
10772SOL    HW133215   5.086   6.187   4.120
10772SOL    HW233216   5.039   6.041   4.177
10773SOL     OW33217   5.644   5.323   3.178
10773SOL    HW133218   5.634   5.241   3.121
10773SOL    HW233219   5.619   5.404   3.123
10774SOL     OW33220   0.286   6.902   3.522
10774SOL    HW133221   0.211   6.864   3.468
10774SOL    HW233222   0.371   6.897   3.469
10775SOL     OW33223   0.206   3.237   1.091
10775SOL    HW133224   0.179   3.143   1.071
10775SOL    HW233225   0.299   3.238   1.128
10776SOL     OW33226   1.717   0.317   5.710
10776SOL    HW133227   1.700   0.276   5.800
10776SOL    HW233228   1.739   0.414   5.722
10777SOL     OW33229   2.820   5.653   1.515
10777SOL    HW133230   2.865   5.565   1.531
10777SOL    HW233231   2.723   5.646   1.537
10778SOL     OW33232   5.870   5.638   2.203
10778SOL    HW133233   5.831   5.676   2.119
10778SOL    HW233234   5.859   5.539   2.203
10779SOL     OW33235   5.147   3.151   3.707
10779SOL    HW133236   5.092   3.068   3.719
10779SOL    HW233237   5.186   3.177   3.796
10780SOL     OW33238   6.695   0.465   2.346
10780SOL    HW133239   6.720   0.478   2.250
10780SOL    HW233240   6.775   0.480   2.403
10781SOL     OW33241   3.002   0.015   4.090
10781SOL    HW133242   3.042   0.008   3.999
10781SOL    HW233243   3.072   0.042   4.155
10782SOL     OW33244   6.772   5.429   3.518
10782SOL    HW133245   6.736   5.337   3.501
10782SOL    HW233246   6.798   5.438   3.614
10783SOL     OW33247   6.459   2.509   2.791
10783SOL    HW133248   6.397   2.440   2.830
10783SOL    HW233249   6.486   2.480   2.699
10784SOL     OW33250   1.826   1.992   4.859
10784SOL    HW133251   1.870   2.069   4.906
10784SOL    HW233252   1.792   1.927   4.926
10785SOL     OW33253   0.970   2.870   6.142
10785SOL    HW133254   0.935   2.916   6.060
10785SOL    HW233255   1.069   2.881   6.147
10786SOL     OW33256   6.263   4.226   4.690
10786SOL    HW133257   6.348   4.276   4.710
10786SOL    HW233258   6.285   4.141   4.642
10787SOL     OW33259   1.935   2.250   6.003
10787SOL    HW133260   1.945   2.236   5.904
10787SOL    HW233261   1.838   2.257   6.025
10788SOL     OW33262   5.623   3.853   6.264
10788SOL    HW133263   5.717   3.853   6.232
10788SOL    HW233264   5.621   3.837   6.363
10789SOL     OW33265   4.930   0.821   6.993
10789SOL    HW133266   4.895   0.904   6.951
10789SOL    HW233267   5.030   0.820   6.987
10790SOL     OW33268   5.999   6.451   2.918
10790SOL    HW133269   6.004   6.436   3.017
10790SOL    HW233270   5.967   6.367   2.873
10791SOL     OW33271   0.649   6.039   2.483
10791SOL    HW133272   0.611   5.948   2.495
10791SOL    HW233273   0.598   6.104   2.540
10792SOL     OW33274   3.889   4.925   6.147
10792SOL    HW133275   3.844   4.961   6.229
10792SOL    HW233276   3.825   4.869   6.095
10793SOL     OW33277   5.399   4.148   4.603
10793SOL    HW133278   5.436   4.172   4.693
10793SOL    HW233279   5.348   4.226   4.567
10794SOL     OW33280   3.256   3.364   4.594
10794SOL    HW133281   3.276   3.285   4.652
10794SOL    HW233282   3.244   3.334   4.500
10795SOL     OW33283   6.944   4.841   2.851
10795SOL    HW133284   6.857   4.879   2.819
10795SOL    HW233285   6.930   4.794   2.937
10796SOL     OW33286   0.806   6.464   5.389
10796SOL    HW133287   0.856   6.419   5.463
10796SOL    HW233288   0.788   6.559   5.414
10797SOL     OW33289   4.190   2.887   0.422
10797SOL    HW133290   4.256   2.943   0.372
10797SOL    HW233291   4.103   2.884   0.373
10798SOL     OW33292   5.882   1.262   0.974
10798SOL    HW133293   5.876   1.194   0.901
10798SOL    HW233294   5.893   1.216   1.062
10799SOL     OW33295   5.318   1.513   1.073
10799SOL    HW133296   5.358   1.447   1.137
10799SOL    HW233297   5.378   1.522   0.994
10800SOL     OW33298   6.783   6.652   0.822
10800SOL    HW133299   6.859   6.596   0.788
10800SOL    HW233300   6.710   6.592   0.853
10801SOL     OW33301   2.132   0.658   1.261
10801SOL    HW133302   2.129   0.690   1.356
10801SOL    HW233303   2.061   0.704   1.207
10802SOL     OW33304   5.543   1.763   3.717
10802SOL    HW133305   5.600   1.745   3.798
10802SOL    HW233306   5.465   1.700   3.716
10803SOL     OW33307   2.307   5.077   5.031
10803SOL    HW133308   2.269   5.067   5.123
10803SOL    HW233309   2.321   4.987   4.990
10804SOL     OW33310   6.130   3.565   4.183
10804SOL    HW133311   6.186   3.539   4.104
10804SOL    HW233312   6.110   3.662   4.179
10805SOL     OW33313   6.737   0.071   6.732
10805SOL    HW133314   6.650   0.120   6.730
10805SOL    HW233315   6.806   0.127   6.776
10806SOL     OW33316   1.559   5.340   0.904
10806SOL    HW133317   1.600   5.259   0.862
10806SOL    HW233318   1.462   5.342   0.883
10807SOL     OW33319   3.175   5.328   4.443
10807SOL    HW133320   3.261   5.302   4.486
10807SOL    HW233321   3.123   5.245   4.419
10808SOL     OW33322   1.386   3.589   6.973
10808SOL    HW133323   1.384   3.503   0.007
10808SOL    HW233324   1.404   3.570   6.877
10809SOL     OW33325   1.299   0.934   4.783
10809SOL    HW133326   1.336   0.977   4.701
10809SOL    HW233327   1.370   0.931   4.854
10810SOL     OW33328   6.249   0.818   3.613
10810SOL    HW133329   6.176   0.770   3.661
10810SOL    HW233330   6.232   0.916   3.616
10811SOL     OW33331   5.485   5.724   5.030
10811SOL    HW133332   5.565   5.717   5.089
10811SOL    HW233333   5.491   5.809   4.976
10812SOL     OW33334   0.387   2.868   0.989
10812SOL    HW133335   0.381   2.840   1.085
10812SOL    HW233336   0.298   2.898   0.957
10813SOL     OW33337   1.056   3.946   6.989
10813SOL    HW133338   1.040   4.028   0.027
10813SOL    HW233339   1.119   3.885   0.020
10814SOL     OW33340   3.258   1.913   1.856
10814SOL    HW133341   3.304   1.894   1.943
10814SOL    HW233342   3.187   1.844   1.840
10815SOL     OW33343   5.081   0.822   4.811
10815SOL    HW133344   5.000   0.879   4.795
10815SOL    HW233345   5.078   0.744   4.749
10816SOL     OW33346   3.378   2.968   5.257
10816SOL    HW133347   3.287   2.951   5.219
10816SOL    HW233348   3.399   2.899   5.327
10817SOL     OW33349   1.334   6.278   4.405
10817SOL    HW133350   1.406   6.211   4.386
10817SOL    HW233351   1.362   6.368   4.371
10818SOL     OW33352   4.055   3.955   0.100
10818SOL    HW133353   4.041   3.963   0.198
10818SOL    HW233354   4.152   3.969   0.078
10819SOL     OW33355   6.137   5.540   5.195
10819SOL    HW133356   6.209   5.473   5.178
10819SOL    HW233357   6.068   5.499   5.256
10820SOL     OW33358   1.848   4.924   6.275
10820SOL    HW133359   1.853   5.024   6.276
10820SOL    HW233360   1.920   4.888   6.217
10821SOL     OW33361   4.336   5.376   3.854
10821SOL    HW133362   4.275   5.395   3.778
10821SOL    HW233363   4.364   5.462   3.897
10822SOL     OW33364   5.639   0.393   2.592
10822SOL    HW133365   5.562   0.420   2.649
10822SOL    HW233366   5.717   0.369   2.649
10823SOL     OW33367   5.841   6.653   2.787
10823SOL    HW133368   5.873   6.613   2.873
10823SOL    HW233369   5.824   6.751   2.799
10824SOL     OW33370   1.441   2.465   2.747
10824SOL    HW133371   1.415   2.552   2.704
10824SOL    HW233372   1.537   2.470   2.775
10825SOL     OW33373   0.112   1.275   0.799
10825SOL    HW133374   0.060   1.327   0.867
10825SOL    HW233375   0.181   1.219   0.846
10826SOL     OW33376   6.629   3.308   2.361
10826SOL    HW133377   6.721   3.323   2.324
10826SOL    HW233378   6.587   3.230   2.315
10827SOL     OW33379   0.000   3.190   4.031
10827SOL    HW133380   0.017   3.095   4.005
10827SOL    HW233381   6.952   3.231   3.968
10828SOL     OW33382   6.939   4.091   4.925
10828SOL    HW133383   6.881   4.172   4.922
10828SOL    HW233384   7.003   4.098   5.001
10829SOL     OW33385   3.919   2.954   5.525
10829SOL    HW133386   3.957   2.895   5.595
10829SOL    HW233387   3.840   2.909   5.483
10830SOL     OW33388   5.283   1.921   3.519
10830SOL    HW133389   5.218   1.880   3.582
10830SOL    HW233390   5.286   1.868   3.434
10831SOL     OW33391   4.102   0.023   3.533
10831SOL    HW133392   4.100   0.055   3.438
10831SOL    HW233393   4.194   0.037   3.570
10832SOL     OW33394   6.869   2.929   6.640
10832SOL    HW133395   6.855   3.028   6.639
10832SOL    HW233396   6.965   2.909   6.662
10833SOL     OW33397   0.575   1.292   6.603
10833SOL    HW133398   0.603   1.244   6.686
10833SOL    HW233399   0.641   1.365   6.583
10834SOL     OW33400   6.892   6.301   1.776
10834SOL    HW133401   6.991   6.307   1.788
10834SOL    HW233402   6.869   6.309   1.679
10835SOL     OW33403   6.381   2.588   5.741
10835SOL    HW133404   6.410   2.493   5.752
10835SOL    HW233405   6.349   2.623   5.829
10836SOL     OW33406   6.975   1.614   3.433
10836SOL    HW133407   0.007   1.540   3.387
10836SOL    HW233408   0.019   1.659   3.498
10837SOL     OW33409   6.705   3.037   3.843
10837SOL    HW133410   6.729   3.003   3.934
10837SOL    HW233411   6.786   3.079   3.801
10838SOL     OW33412   0.285   6.449   2.664
10838SOL    HW133413   0.334   6.491   2.740
10838SOL    HW233414   0.186   6.457   2.680
10839SOL     OW33415   4.809   2.714   0.193
10839SOL    HW133416   4.895   2.701   0.243
10839SOL    HW233417   4.828   2.761   0.106
10840SOL     OW33418   2.823   0.473   2.358
10840SOL    HW133419   2.870   0.386   2.375
10840SOL    HW233420   2.729   0.466   2.391
10841SOL     OW33421   2.160   5.289   4.957
10841SOL    HW133422   2.225   5.215   4.971
10841SOL    HW233423   2.080   5.255   4.907
10842SOL     OW33424   6.917   4.629   1.452
10842SOL    HW133425   6.883   4.649   1.544
10842SOL    HW233426   6.997   4.569   1.458
10843SOL     OW33427   2.877   1.440   1.735
10843SOL    HW133428   2.890   1.346   1.702
10843SOL    HW233429   2.863   1.439   1.834
10844SOL     OW33430   1.953   5.158   4.438
10844SOL    HW133431   1.998   5.244   4.462
10844SOL    HW233432   1.973   5.089   4.508
10845SOL     OW33433   3.851   0.852   4.210
10845SOL    HW133434   3.863   0.896   4.121
10845SOL    HW233435   3.913   0.894   4.276
10846SOL     OW33436   5.464   6.644   6.179
10846SOL    HW133437   5.487   6.656   6.082
10846SOL    HW233438   5.377   6.594   6.186
10847SOL     OW33439   3.622   0.136   6.937
10847SOL    HW133440   3.700   0.153   6.997
10847SOL    HW233441   3.637   0.183   6.850
10848SOL     OW33442   1.726   3.121   1.902
10848SOL    HW133443   1.667   3.057   1.951
10848SOL    HW233444   1.723   3.210   1.947
10849SOL     OW33445   1.362   6.486   3.609
10849SOL    HW133446   1.293   6.558   3.616
10849SOL    HW233447   1.428   6.509   3.538
10850SOL     OW33448   4.715   4.525   0.459
10850SOL    HW133449   4.664   4.439   0.458
10850SOL    HW233450   4.777   4.527   0.537
10851SOL     OW33451   1.496   4.821   0.674
10851SOL    HW133452   1.564   4.791   0.607
10851SOL    HW233453   1.407   4.780   0.653
10852SOL     OW33454   3.234   1.044   1.964
10852SOL    HW133455   3.188   1.025   2.050
10852SOL    HW233456   3.263   0.957   1.922
10853SOL     OW33457   3.693   0.969   6.255
10853SOL    HW133458   3.710   0.873   6.274
10853SOL    HW233459   3.676   0.982   6.157
10854SOL     OW33460   3.120   5.839   5.919
10854SOL    HW133461   3.127   5.744   5.889
10854SOL    HW233462   3.193   5.859   5.984
10855SOL     OW33463   4.346   1.091   6.955
10855SOL    HW133464   4.416   1.023   6.931
10855SOL    HW233465   4.384   1.156   0.003
10856SOL     OW33466   0.562   0.830   0.780
10856SOL    HW133467   0.595   0.923   0.760
10856SOL    HW233468   0.623   0.763   0.738
10857SOL     OW33469   0.057   2.024   2.043
10857SOL    HW133470   6.994   2.051   1.990
10857SOL    HW233471   0.037   1.939   2.092
10858SOL     OW33472   2.016   6.320   2.115
10858SOL    HW133473   1.995   6.317   2.213
10858SOL    HW233474   1.965   6.247   2.068
10859SOL     OW33475   1.754   4.488   3.736
10859SOL    HW133476   1.849   4.457   3.745
10859SOL    HW233477   1.751   4.570   3.679
10860SOL     OW33478   0.083   3.461   2.939
10860SOL    HW133479   0.017   3.392   2.967
10860SOL    HW233480   0.035   3.544   2.909
10861SOL     OW33481   4.545   3.251   5.497
10861SOL    HW133482   4.498   3.187   5.437
10861SOL    HW233483   4.490   3.266   5.580
10862SOL     OW33484   1.379   0.764   5.771
10862SOL    HW133485   1.325   0.771   5.855
10862SOL    HW233486   1.450   0.835   5.771
10863SOL     OW33487   1.952   6.627   4.073
10863SOL    HW133488   1.900   6.553   4.030
10863SOL    HW233489   1.994   6.594   4.157
10864SOL     OW33490   3.538   6.432   3.391
10864SOL    HW133491   3.473   6.504   3.367
10864SOL    HW233492   3.497   6.372   3.460
10865SOL     OW33493   6.676   1.050   5.984
10865SOL    HW133494   6.753   1.099   5.942
10865SOL    HW233495   6.703   0.956   6.003
10866SOL     OW33496   5.804   4.733   6.798
10866SOL    HW133497   5.823   4.639   6.768
10866SOL    HW233498   5.850   4.798   6.737
10867SOL     OW33499   3.182   2.017   7.012
10867SOL    HW133500   3.183   2.073   6.929
10867SOL    HW233501   3.206   1.923   6.990
10868SOL     OW33502   1.389   2.237   3.582
10868SOL    HW133503   1.444   2.271   3.659
10868SOL    HW233504   1.448   2.186   3.519
10869NA      NA33505   6.320   2.332   5.303
10870NA      NA33506   4.439   4.503   5.257
10871NA      NA33507   2.119   3.362   1.820
10872NA      NA33508   5.025   3.473   5.045
10873NA      NA33509   4.081   2.326   5.241
10874NA      NA33510   3.584   4.975   1.820
10875NA      NA33511   6.730   6.637   4.908
10876NA      NA33512   3.824   3.371   5.074
10877NA      NA33513   4.787   6.108   5.957
10878NA      NA33514   2.451   0.005   4.905
10879NA      NA33515   0.119   4.875   2.733
10880NA      NA33516   2.034   0.458   2.226
10881NA      NA33517   3.774   4.498   1.400
10882NA      NA33518   3.841   3.750   3.020
   7.01747   7.01747   7.01747
