Generated by trjconv : CNT in water t=  63.00000
33518
    1C        C    1   2.841   2.765   4.746
    1C        C    2   2.893   2.718   4.869
    1C        C    3   2.835   2.769   4.986
    1C        C    4   2.848   2.773   4.258
    1C        C    5   2.900   2.725   4.380
    1C        C    6   2.846   2.769   4.503
    1C        C    7   3.009   2.634   4.625
    1C        C    8   2.894   2.717   4.625
    1C        C    9   3.072   2.598   4.746
    1C        C   10   3.006   2.633   4.866
    1C        C   11   3.179   2.491   4.979
    1C        C   12   3.059   2.562   4.975
    1C        C   13   2.847   2.770   3.771
    1C        C   14   2.900   2.723   3.893
    1C        C   15   2.846   2.769   4.015
    1C        C   16   3.020   2.647   4.135
    1C        C   17   2.899   2.720   4.137
    1C        C   18   3.082   2.619   4.259
    1C        C   19   3.015   2.643   4.381
    1C        C   20   3.204   2.552   4.504
    1C        C   21   3.072   2.600   4.503
    1C        C   22   3.275   2.533   4.625
    1C        C   23   3.204   2.546   4.747
    1C        C   24   3.409   2.487   4.865
    1C        C   25   3.267   2.504   4.867
    1C        C   26   3.485   2.477   4.983
    1C        C   27   2.850   2.764   3.281
    1C        C   28   2.906   2.722   3.404
    1C        C   29   2.852   2.770   3.525
    1C        C   30   3.013   2.636   3.648
    1C        C   31   2.901   2.723   3.649
    1C        C   32   3.072   2.599   3.771
    1C        C   33   3.012   2.638   3.893
    1C        C   34   3.207   2.549   4.016
    1C        C   35   3.074   2.598   4.014
    1C        C   36   3.276   2.537   4.138
    1C        C   37   3.210   2.559   4.261
    1C        C   38   3.413   2.504   4.381
    1C        C   39   3.275   2.533   4.383
    1C        C   40   3.482   2.503   4.503
    1C        C   41   3.413   2.502   4.626
    1C        C   42   3.628   2.480   4.744
    1C        C   43   3.485   2.482   4.745
    1C        C   44   3.701   2.495   4.863
    1C        C   45   3.624   2.487   4.980
    1C        C   46   2.838   2.754   2.792
    1C        C   47   2.897   2.713   2.914
    1C        C   48   2.846   2.762   3.037
    1C        C   49   3.011   2.627   3.160
    1C        C   50   2.898   2.713   3.159
    1C        C   51   3.078   2.600   3.281
    1C        C   52   3.020   2.639   3.404
    1C        C   53   3.202   2.535   3.526
    1C        C   54   3.076   2.600   3.527
    1C        C   55   3.270   2.516   3.649
    1C        C   56   3.202   2.543   3.770
    1C        C   57   3.410   2.501   3.893
    1C        C   58   3.272   2.530   3.892
    1C        C   59   3.483   2.495   4.014
    1C        C   60   3.414   2.505   4.137
    1C        C   61   3.625   2.499   4.259
    1C        C   62   3.484   2.494   4.259
    1C        C   63   3.696   2.508   4.381
    1C        C   64   3.624   2.503   4.502
    1C        C   65   3.833   2.540   4.622
    1C        C   66   3.698   2.499   4.622
    1C        C   67   3.902   2.566   4.743
    1C        C   68   3.838   2.530   4.863
    1C        C   69   4.051   2.582   4.976
    1C        C   70   3.921   2.530   4.976
    1C        C   71   2.825   2.737   2.308
    1C        C   72   2.883   2.693   2.429
    1C        C   73   2.833   2.744   2.550
    1C        C   74   3.011   2.627   2.672
    1C        C   75   2.891   2.702   2.672
    1C        C   76   3.071   2.588   2.794
    1C        C   77   3.007   2.626   2.914
    1C        C   78   3.201   2.542   3.039
    1C        C   79   3.070   2.593   3.036
    1C        C   80   3.274   2.525   3.159
    1C        C   81   3.207   2.543   3.282
    1C        C   82   3.411   2.498   3.404
    1C        C   83   3.271   2.513   3.405
    1C        C   84   3.480   2.496   3.527
    1C        C   85   3.409   2.495   3.649
    1C        C   86   3.622   2.501   3.771
    1C        C   87   3.481   2.493   3.771
    1C        C   88   3.693   2.513   3.893
    1C        C   89   3.624   2.508   4.016
    1C        C   90   3.831   2.557   4.136
    1C        C   91   3.695   2.516   4.137
    1C        C   92   3.896   2.579   4.259
    1C        C   93   3.832   2.546   4.381
    1C        C   94   4.024   2.638   4.503
    1C        C   95   3.901   2.569   4.502
    1C        C   96   4.090   2.675   4.623
    1C        C   97   4.026   2.635   4.742
    1C        C   98   4.188   2.770   4.863
    1C        C   99   4.094   2.662   4.865
    1C        C  100   4.222   2.838   4.980
    1C        C  101   2.832   2.742   2.069
    1C        C  102   2.991   2.596   2.190
    1C        C  103   2.876   2.681   2.187
    1C        C  104   3.064   2.576   2.310
    1C        C  105   3.001   2.615   2.431
    1C        C  106   3.197   2.525   2.552
    1C        C  107   3.069   2.583   2.551
    1C        C  108   3.269   2.516   2.673
    1C        C  109   3.202   2.535   2.796
    1C        C  110   3.410   2.493   2.915
    1C        C  111   3.270   2.516   2.918
    1C        C  112   3.481   2.485   3.036
    1C        C  113   3.412   2.493   3.159
    1C        C  114   3.623   2.493   3.279
    1C        C  115   3.482   2.491   3.281
    1C        C  116   3.693   2.508   3.401
    1C        C  117   3.621   2.507   3.523
    1C        C  118   3.824   2.552   3.646
    1C        C  119   3.688   2.512   3.647
    1C        C  120   3.892   2.577   3.768
    1C        C  121   3.830   2.547   3.891
    1C        C  122   4.021   2.643   4.011
    1C        C  123   3.897   2.576   4.013
    1C        C  124   4.079   2.678   4.135
    1C        C  125   4.024   2.640   4.260
    1C        C  126   4.196   2.764   4.377
    1C        C  127   4.084   2.678   4.382
    1C        C  128   4.244   2.820   4.497
    1C        C  129   4.195   2.768   4.619
    1C        C  130   4.323   2.938   4.741
    1C        C  131   4.242   2.821   4.742
    1C        C  132   4.358   3.008   4.859
    1C        C  133   4.288   2.960   4.970
    1C        C  134   3.169   2.463   2.080
    1C        C  135   3.038   2.513   2.084
    1C        C  136   3.256   2.471   2.189
    1C        C  137   3.193   2.516   2.307
    1C        C  138   3.402   2.477   2.428
    1C        C  139   3.263   2.501   2.429
    1C        C  140   3.476   2.480   2.548
    1C        C  141   3.409   2.497   2.671
    1C        C  142   3.622   2.493   2.790
    1C        C  143   3.481   2.491   2.793
    1C        C  144   3.692   2.499   2.912
    1C        C  145   3.622   2.497   3.035
    1C        C  146   3.830   2.541   3.157
    1C        C  147   3.694   2.502   3.157
    1C        C  148   3.896   2.570   3.279
    1C        C  149   3.829   2.546   3.401
    1C        C  150   4.019   2.634   3.523
    1C        C  151   3.892   2.571   3.524
    1C        C  152   4.078   2.674   3.644
    1C        C  153   4.019   2.639   3.768
    1C        C  154   4.188   2.771   3.887
    1C        C  155   4.078   2.682   3.888
    1C        C  156   4.239   2.818   4.010
    1C        C  157   4.187   2.768   4.132
    1C        C  158   4.328   2.927   4.253
    1C        C  159   4.239   2.818   4.254
    1C        C  160   4.372   2.986   4.374
    1C        C  161   4.335   2.928   4.497
    1C        C  162   4.439   3.115   4.617
    1C        C  163   4.367   2.993   4.619
    1C        C  164   4.472   3.182   4.737
    1C        C  165   4.442   3.122   4.861
    1C        C  166   4.513   3.325   4.973
    1C        C  167   4.480   3.190   4.977
    1C        C  168   3.478   2.439   2.072
    1C        C  169   3.397   2.457   2.185
    1C        C  170   3.612   2.464   2.309
    1C        C  171   3.470   2.458   2.305
    1C        C  172   3.687   2.485   2.426
    1C        C  173   3.617   2.480   2.549
    1C        C  174   3.829   2.534   2.667
    1C        C  175   3.691   2.501   2.667
    1C        C  176   3.894   2.561   2.789
    1C        C  177   3.829   2.534   2.912
    1C        C  178   4.020   2.628   3.033
    1C        C  179   3.894   2.564   3.034
    1C        C  180   4.082   2.666   3.155
    1C        C  181   4.021   2.636   3.278
    1C        C  182   4.191   2.759   3.397
    1C        C  183   4.081   2.671   3.401
    1C        C  184   4.236   2.811   3.521
    1C        C  185   4.190   2.761   3.645
    1C        C  186   4.338   2.918   3.766
    1C        C  187   4.245   2.812   3.765
    1C        C  188   4.375   2.981   3.887
    1C        C  189   4.331   2.926   4.009
    1C        C  190   4.441   3.107   4.129
    1C        C  191   4.373   2.983   4.131
    1C        C  192   4.472   3.171   4.251
    1C        C  193   4.439   3.110   4.374
    1C        C  194   4.508   3.314   4.493
    1C        C  195   4.465   3.180   4.494
    1C        C  196   4.525   3.388   4.613
    1C        C  197   4.513   3.318   4.735
    1C        C  198   4.549   3.537   4.850
    1C        C  199   4.530   3.395   4.853
    1C        C  200   4.585   3.620   4.961
    1C        C  201   3.617   2.419   2.072
    1C        C  202   3.823   2.511   2.182
    1C        C  203   3.689   2.460   2.189
    1C        C  204   3.895   2.535   2.303
    1C        C  205   3.825   2.518   2.424
    1C        C  206   4.019   2.615   2.543
    1C        C  207   3.895   2.548   2.543
    1C        C  208   4.078   2.659   2.664
    1C        C  209   4.021   2.623   2.788
    1C        C  210   4.194   2.747   2.905
    1C        C  211   4.080   2.663   2.910
    1C        C  212   4.252   2.790   3.027
    1C        C  213   4.199   2.745   3.150
    1C        C  214   4.328   2.913   3.269
    1C        C  215   4.246   2.798   3.273
    1C        C  216   4.366   2.970   3.393
    1C        C  217   4.331   2.915   3.519
    1C        C  218   4.434   3.101   3.639
    1C        C  219   4.374   2.973   3.641
    1C        C  220   4.460   3.171   3.758
    1C        C  221   4.443   3.105   3.882
    1C        C  222   4.498   3.307   4.005
    1C        C  223   4.470   3.168   4.005
    1C        C  224   4.510   3.380   4.125
    1C        C  225   4.505   3.308   4.247
    1C        C  226   4.520   3.521   4.366
    1C        C  227   4.516   3.380   4.368
    1C        C  228   4.520   3.596   4.486
    1C        C  229   4.533   3.529   4.609
    1C        C  230   4.500   3.745   4.726
    1C        C  231   4.532   3.606   4.727
    1C        C  232   4.496   3.820   4.846
    1C        C  233   4.548   3.755   4.958
    1C        C  234   4.014   2.610   2.066
    1C        C  235   3.893   2.541   2.065
    1C        C  236   4.083   2.643   2.182
    1C        C  237   4.020   2.604   2.302
    1C        C  238   4.195   2.734   2.419
    1C        C  239   4.083   2.646   2.421
    1C        C  240   4.250   2.786   2.539
    1C        C  241   4.191   2.744   2.660
    1C        C  242   4.333   2.903   2.784
    1C        C  243   4.240   2.796   2.781
    1C        C  244   4.373   2.963   2.905
    1C        C  245   4.335   2.903   3.027
    1C        C  246   4.439   3.093   3.150
    1C        C  247   4.374   2.968   3.147
    1C        C  248   4.469   3.157   3.272
    1C        C  249   4.433   3.094   3.394
    1C        C  250   4.492   3.300   3.514
    1C        C  251   4.459   3.163   3.514
    1C        C  252   4.502   3.373   3.634
    1C        C  253   4.496   3.308   3.759
    1C        C  254   4.526   3.515   3.878
    1C        C  255   4.513   3.374   3.882
    1C        C  256   4.521   3.589   3.998
    1C        C  257   4.517   3.521   4.122
    1C        C  258   4.494   3.731   4.241
    1C        C  259   4.516   3.592   4.244
    1C        C  260   4.474   3.803   4.361
    1C        C  261   4.488   3.734   4.483
    1C        C  262   4.422   3.940   4.602
    1C        C  263   4.470   3.807   4.603
    1C        C  264   4.398   4.010   4.723
    1C        C  265   4.437   3.948   4.843
    1C        C  266   4.320   4.132   4.958
    1C        C  267   4.393   4.013   4.959
    1C        C  268   4.266   2.772   2.065
    1C        C  269   4.198   2.726   2.179
    1C        C  270   4.346   2.886   2.297
    1C        C  271   4.252   2.779   2.298
    1C        C  272   4.382   2.950   2.417
    1C        C  273   4.344   2.892   2.540
    1C        C  274   4.447   3.079   2.659
    1C        C  275   4.380   2.955   2.661
    1C        C  276   4.470   3.149   2.779
    1C        C  277   4.436   3.089   2.902
    1C        C  278   4.500   3.290   3.024
    1C        C  279   4.466   3.153   3.025
    1C        C  280   4.502   3.363   3.145
    1C        C  281   4.497   3.295   3.269
    1C        C  282   4.517   3.507   3.387
    1C        C  283   4.510   3.366   3.390
    1C        C  284   4.516   3.579   3.508
    1C        C  285   4.513   3.514   3.634
    1C        C  286   4.493   3.725   3.752
    1C        C  287   4.514   3.585   3.756
    1C        C  288   4.480   3.796   3.873
    1C        C  289   4.498   3.728   3.996
    1C        C  290   4.427   3.929   4.118
    1C        C  291   4.478   3.798   4.117
    1C        C  292   4.390   3.996   4.237
    1C        C  293   4.423   3.935   4.360
    1C        C  294   4.324   4.127   4.476
    1C        C  295   4.391   4.003   4.480
    1C        C  296   4.283   4.189   4.596
    1C        C  297   4.324   4.132   4.719
    1C        C  298   4.198   4.311   4.836
    1C        C  299   4.283   4.196   4.839
    1C        C  300   4.174   4.406   4.941
    1C        C  301   4.358   2.876   2.059
    1C        C  302   4.465   3.068   2.174
    1C        C  303   4.395   2.943   2.177
    1C        C  304   4.480   3.140   2.296
    1C        C  305   4.452   3.073   2.417
    1C        C  306   4.506   3.283   2.534
    1C        C  307   4.474   3.145   2.537
    1C        C  308   4.510   3.357   2.655
    1C        C  309   4.500   3.287   2.777
    1C        C  310   4.524   3.497   2.896
    1C        C  311   4.515   3.356   2.900
    1C        C  312   4.522   3.569   3.017
    1C        C  313   4.513   3.504   3.143
    1C        C  314   4.487   3.716   3.262
    1C        C  315   4.509   3.576   3.264
    1C        C  316   4.475   3.786   3.384
    1C        C  317   4.490   3.718   3.507
    1C        C  318   4.428   3.924   3.629
    1C        C  319   4.472   3.790   3.628
    1C        C  320   4.395   3.990   3.749
    1C        C  321   4.423   3.925   3.872
    1C        C  322   4.316   4.107   3.991
    1C        C  323   4.396   3.990   3.994
    1C        C  324   4.279   4.173   4.111
    1C        C  325   4.319   4.118   4.234
    1C        C  326   4.186   4.288   4.352
    1C        C  327   4.280   4.183   4.354
    1C        C  328   4.139   4.345   4.473
    1C        C  329   4.192   4.297   4.595
    1C        C  330   4.024   4.435   4.715
    1C        C  331   4.134   4.344   4.714
    1C        C  332   3.966   4.489   4.832
    1C        C  333   4.051   4.474   4.942
    1C        C  334   4.556   3.264   2.064
    1C        C  335   4.534   3.126   2.062
    1C        C  336   4.547   3.348   2.176
    1C        C  337   4.521   3.276   2.294
    1C        C  338   4.525   3.493   2.409
    1C        C  339   4.526   3.352   2.413
    1C        C  340   4.515   3.566   2.530
    1C        C  341   4.519   3.498   2.654
    1C        C  342   4.488   3.709   2.772
    1C        C  343   4.513   3.570   2.775
    1C        C  344   4.472   3.778   2.894
    1C        C  345   4.494   3.707   3.014
    1C        C  346   4.418   3.908   3.139
    1C        C  347   4.466   3.775   3.135
    1C        C  348   4.389   3.977   3.259
    1C        C  349   4.427   3.919   3.381
    1C        C  350   4.321   4.102   3.502
    1C        C  351   4.398   3.983   3.504
    1C        C  352   4.276   4.163   3.621
    1C        C  353   4.318   4.108   3.745
    1C        C  354   4.175   4.263   3.868
    1C        C  355   4.269   4.158   3.868
    1C        C  356   4.126   4.319   3.988
    1C        C  357   4.182   4.276   4.110
    1C        C  358   4.009   4.403   4.231
    1C        C  359   4.130   4.330   4.230
    1C        C  360   3.950   4.443   4.353
    1C        C  361   4.022   4.424   4.473
    1C        C  362   3.831   4.518   4.591
    1C        C  363   3.963   4.471   4.592
    1C        C  364   3.761   4.552   4.710
    1C        C  365   3.835   4.540   4.830
    1C        C  366   3.628   4.582   4.954
    1C        C  367   3.766   4.569   4.949
    1C        C  368   4.511   3.562   2.051
    1C        C  369   4.524   3.487   2.169
    1C        C  370   4.505   3.704   2.286
    1C        C  371   4.516   3.564   2.287
    1C        C  372   4.485   3.776   2.406
    1C        C  373   4.495   3.706   2.528
    1C        C  374   4.425   3.909   2.648
    1C        C  375   4.475   3.777   2.648
    1C        C  376   4.387   3.971   2.769
    1C        C  377   4.419   3.909   2.893
    1C        C  378   4.314   4.091   3.012
    1C        C  379   4.389   3.971   3.016
    1C        C  380   4.274   4.151   3.133
    1C        C  381   4.310   4.095   3.257
    1C        C  382   4.174   4.255   3.376
    1C        C  383   4.274   4.154   3.380
    1C        C  384   4.121   4.303   3.498
    1C        C  385   4.175   4.261   3.622
    1C        C  386   4.008   4.390   3.743
    1C        C  387   4.125   4.310   3.744
    1C        C  388   3.948   4.433   3.864
    1C        C  389   4.011   4.401   3.987
    1C        C  390   3.817   4.491   4.106
    1C        C  391   3.946   4.432   4.108
    1C        C  392   3.750   4.511   4.228
    1C        C  393   3.818   4.493   4.350
    1C        C  394   3.615   4.549   4.476
    1C        C  395   3.754   4.524   4.473
    1C        C  396   3.544   4.562   4.597
    1C        C  397   3.621   4.565   4.716
    1C        C  398   3.411   4.554   4.840
    1C        C  399   3.550   4.576   4.838
    1C        C  400   3.339   4.519   4.955
    1C        C  401   4.498   3.700   2.046
    1C        C  402   4.452   3.911   2.165
    1C        C  403   4.491   3.775   2.164
    1C        C  404   4.412   3.977   2.284
    1C        C  405   4.441   3.910   2.405
    1C        C  406   4.317   4.087   2.524
    1C        C  407   4.398   3.972   2.524
    1C        C  408   4.274   4.145   2.646
    1C        C  409   4.315   4.092   2.770
    1C        C  410   4.172   4.250   2.889
    1C        C  411   4.272   4.151   2.891
    1C        C  412   4.121   4.298   3.012
    1C        C  413   4.176   4.254   3.134
    1C        C  414   4.003   4.380   3.249
    1C        C  415   4.121   4.302   3.254
    1C        C  416   3.944   4.415   3.373
    1C        C  417   4.002   4.378   3.496
    1C        C  418   3.816   4.475   3.620
    1C        C  419   3.944   4.414   3.620
    1C        C  420   3.745   4.499   3.740
    1C        C  421   3.816   4.483   3.861
    1C        C  422   3.612   4.536   3.986
    1C        C  423   3.751   4.512   3.983
    1C        C  424   3.542   4.541   4.108
    1C        C  425   3.611   4.538   4.231
    1C        C  426   3.401   4.543   4.355
    1C        C  427   3.543   4.547   4.355
    1C        C  428   3.332   4.546   4.478
    1C        C  429   3.403   4.556   4.600
    1C        C  430   3.195   4.510   4.721
    1C        C  431   3.334   4.540   4.722
    1C        C  432   3.121   4.494   4.841
    1C        C  433   3.202   4.498   4.956
    1C        C  434   4.384   4.120   2.050
    1C        C  435   4.449   3.997   2.055
    1C        C  436   4.303   4.161   2.161
    1C        C  437   4.331   4.094   2.283
    1C        C  438   4.182   4.251   2.401
    1C        C  439   4.278   4.148   2.403
    1C        C  440   4.123   4.295   2.522
    1C        C  441   4.176   4.247   2.644
    1C        C  442   4.005   4.375   2.763
    1C        C  443   4.123   4.297   2.765
    1C        C  444   3.942   4.410   2.885
    1C        C  445   4.003   4.376   3.008
    1C        C  446   3.814   4.481   3.129
    1C        C  447   3.939   4.416   3.128
    1C        C  448   3.750   4.500   3.254
    1C        C  449   3.814   4.470   3.376
    1C        C  450   3.609   4.523   3.496
    1C        C  451   3.747   4.496   3.498
    1C        C  452   3.539   4.536   3.619
    1C        C  453   3.608   4.534   3.742
    1C        C  454   3.399   4.542   3.865
    1C        C  455   3.540   4.549   3.864
    1C        C  456   3.330   4.538   3.988
    1C        C  457   3.401   4.545   4.111
    1C        C  458   3.192   4.509   4.235
    1C        C  459   3.331   4.537   4.233
    1C        C  460   3.128   4.481   4.358
    1C        C  461   3.195   4.511   4.478
    1C        C  462   2.995   4.437   4.603
    1C        C  463   3.125   4.491   4.599
    1C        C  464   2.928   4.403   4.722
    1C        C  465   2.989   4.439   4.846
    1C        C  466   2.793   4.344   4.956
    1C        C  467   2.908   4.424   4.963
    1C        C  468   4.124   4.286   2.041
    1C        C  469   4.187   4.244   2.159
    1C        C  470   4.006   4.369   2.280
    1C        C  471   4.128   4.296   2.278
    1C        C  472   3.940   4.404   2.399
    1C        C  473   4.002   4.367   2.521
    1C        C  474   3.809   4.460   2.642
    1C        C  475   3.938   4.402   2.642
    1C        C  476   3.741   4.482   2.764
    1C        C  477   3.811   4.462   2.885
    1C        C  478   3.606   4.519   3.012
    1C        C  479   3.744   4.492   3.006
    1C        C  480   3.534   4.524   3.134
    1C        C  481   3.610   4.518   3.253
    1C        C  482   3.396   4.533   3.376
    1C        C  483   3.537   4.527   3.375
    1C        C  484   3.326   4.529   3.499
    1C        C  485   3.398   4.542   3.620
    1C        C  486   3.191   4.499   3.745
    1C        C  487   3.329   4.533   3.743
    1C        C  488   3.126   4.477   3.868
    1C        C  489   3.193   4.503   3.989
    1C        C  490   3.007   4.407   4.114
    1C        C  491   3.128   4.481   4.113
    1C        C  492   2.946   4.376   4.237
    1C        C  493   2.999   4.422   4.360
    1C        C  494   2.826   4.303   4.482
    1C        C  495   2.936   4.392   4.483
    1C        C  496   2.766   4.261   4.603
    1C        C  497   2.816   4.315   4.724
    1C        C  498   2.670   4.158   4.843
    1C        C  499   2.751   4.274   4.842
    1C        C  500   2.599   4.115   4.956
    1C        C  501   4.006   4.360   2.040
    1C        C  502   3.816   4.465   2.155
    1C        C  503   3.941   4.400   2.158
    1C        C  504   3.745   4.486   2.276
    1C        C  505   3.808   4.454   2.398
    1C        C  506   3.602   4.506   2.520
    1C        C  507   3.741   4.478   2.520
    1C        C  508   3.533   4.518   2.643
    1C        C  509   3.603   4.511   2.765
    1C        C  510   3.395   4.526   2.887
    1C        C  511   3.536   4.520   2.889
    1C        C  512   3.323   4.522   3.008
    1C        C  513   3.393   4.528   3.131
    1C        C  514   3.188   4.489   3.254
    1C        C  515   3.325   4.522   3.255
    1C        C  516   3.122   4.470   3.377
    1C        C  517   3.189   4.493   3.499
    1C        C  518   3.000   4.405   3.623
    1C        C  519   3.124   4.473   3.623
    1C        C  520   2.944   4.368   3.747
    1C        C  521   3.006   4.403   3.869
    1C        C  522   2.836   4.279   3.995
    1C        C  523   2.947   4.367   3.993
    1C        C  524   2.782   4.236   4.118
    1C        C  525   2.833   4.291   4.238
    1C        C  526   2.691   4.138   4.364
    1C        C  527   2.777   4.250   4.361
    1C        C  528   2.651   4.077   4.485
    1C        C  529   2.686   4.145   4.603
    1C        C  530   2.582   3.958   4.730
    1C        C  531   2.645   4.086   4.725
    1C        C  532   2.543   3.899   4.853
    1C        C  533   2.526   3.996   4.957
    1C        C  534   3.619   4.558   2.040
    1C        C  535   3.749   4.509   2.040
    1C        C  536   3.535   4.532   2.153
    1C        C  537   3.605   4.512   2.275
    1C        C  538   3.394   4.516   2.400
    1C        C  539   3.535   4.522   2.397
    1C        C  540   3.323   4.508   2.522
    1C        C  541   3.391   4.516   2.646
    1C        C  542   3.182   4.489   2.766
    1C        C  543   3.320   4.517   2.767
    1C        C  544   3.116   4.466   2.889
    1C        C  545   3.187   4.481   3.010
    1C        C  546   2.994   4.397   3.132
    1C        C  547   3.121   4.461   3.132
    1C        C  548   2.938   4.359   3.256
    1C        C  549   2.998   4.402   3.376
    1C        C  550   2.829   4.280   3.507
    1C        C  551   2.941   4.366   3.500
    1C        C  552   2.781   4.230   3.630
    1C        C  553   2.833   4.281   3.752
    1C        C  554   2.699   4.117   3.873
    1C        C  555   2.782   4.232   3.874
    1C        C  556   2.664   4.059   3.997
    1C        C  557   2.699   4.122   4.118
    1C        C  558   2.598   3.944   4.243
    1C        C  559   2.658   4.071   4.243
    1C        C  560   2.570   3.877   4.364
    1C        C  561   2.587   3.951   4.484
    1C        C  562   2.535   3.750   4.612
    1C        C  563   2.568   3.887   4.608
    1C        C  564   2.522   3.681   4.734
    1C        C  565   2.523   3.757   4.854
    1C        C  566   2.525   3.545   4.976
    1C        C  567   2.526   3.684   4.974
    1C        C  568   3.329   4.473   2.040
    1C        C  569   3.394   4.513   2.157
    1C        C  570   3.183   4.475   2.278
    1C        C  571   3.322   4.507   2.280
    1C        C  572   3.114   4.463   2.401
    1C        C  573   3.184   4.481   2.523
    1C        C  574   2.987   4.404   2.646
    1C        C  575   3.114   4.464   2.644
    1C        C  576   2.930   4.359   2.768
    1C        C  577   2.994   4.394   2.889
    1C        C  578   2.823   4.271   3.016
    1C        C  579   2.931   4.362   3.011
    1C        C  580   2.777   4.221   3.139
    1C        C  581   2.826   4.273   3.261
    1C        C  582   2.695   4.114   3.382
    1C        C  583   2.779   4.227   3.386
    1C        C  584   2.654   4.058   3.506
    1C        C  585   2.692   4.121   3.626
    1C        C  586   2.592   3.937   3.753
    1C        C  587   2.657   4.062   3.750
    1C        C  588   2.561   3.875   3.877
    1C        C  589   2.596   3.935   4.000
    1C        C  590   2.533   3.736   4.126
    1C        C  591   2.568   3.873   4.124
    1C        C  592   2.522   3.669   4.250
    1C        C  593   2.534   3.741   4.371
    1C        C  594   2.510   3.532   4.497
    1C        C  595   2.524   3.673   4.494
    1C        C  596   2.514   3.462   4.619
    1C        C  597   2.515   3.539   4.738
    1C        C  598   2.533   3.327   4.862
    1C        C  599   2.525   3.468   4.859
    1C        C  600   2.530   3.248   4.978
    1C        C  601   3.197   4.432   2.043
    1C        C  602   2.981   4.391   2.161
    1C        C  603   3.117   4.436   2.158
    1C        C  604   2.923   4.360   2.286
    1C        C  605   2.987   4.401   2.404
    1C        C  606   2.820   4.269   2.526
    1C        C  607   2.926   4.362   2.525
    1C        C  608   2.771   4.216   2.648
    1C        C  609   2.821   4.270   2.769
    1C        C  610   2.688   4.110   2.894
    1C        C  611   2.773   4.223   2.893
    1C        C  612   2.652   4.049   3.016
    1C        C  613   2.687   4.112   3.138
    1C        C  614   2.589   3.927   3.266
    1C        C  615   2.654   4.053   3.262
    1C        C  616   2.567   3.863   3.390
    1C        C  617   2.594   3.930   3.512
    1C        C  618   2.528   3.730   3.638
    1C        C  619   2.564   3.867   3.634
    1C        C  620   2.520   3.663   3.762
    1C        C  621   2.525   3.738   3.882
    1C        C  622   2.509   3.527   4.008
    1C        C  623   2.517   3.668   4.004
    1C        C  624   2.516   3.455   4.130
    1C        C  625   2.512   3.528   4.251
    1C        C  626   2.535   3.321   4.379
    1C        C  627   2.507   3.460   4.375
    1C        C  628   2.557   3.250   4.499
    1C        C  629   2.537   3.323   4.618
    1C        C  630   2.596   3.121   4.745
    1C        C  631   2.552   3.256   4.742
    1C        C  632   2.614   3.048   4.866
    1C        C  633   2.558   3.110   4.982
    1C        C  634   2.785   4.301   2.054
    1C        C  635   2.894   4.389   2.048
    1C        C  636   2.748   4.228   2.167
    1C        C  637   2.807   4.277   2.286
    1C        C  638   2.677   4.106   2.410
    1C        C  639   2.764   4.217   2.407
    1C        C  640   2.639   4.045   2.531
    1C        C  641   2.685   4.104   2.651
    1C        C  642   2.584   3.920   2.776
    1C        C  643   2.648   4.046   2.774
    1C        C  644   2.555   3.858   2.899
    1C        C  645   2.587   3.923   3.021
    1C        C  646   2.526   3.723   3.147
    1C        C  647   2.564   3.859   3.145
    1C        C  648   2.514   3.655   3.270
    1C        C  649   2.529   3.728   3.391
    1C        C  650   2.510   3.521   3.517
    1C        C  651   2.515   3.662   3.515
    1C        C  652   2.514   3.451   3.640
    1C        C  653   2.507   3.522   3.762
    1C        C  654   2.533   3.317   3.889
    1C        C  655   2.504   3.456   3.886
    1C        C  656   2.555   3.251   4.012
    1C        C  657   2.536   3.316   4.136
    1C        C  658   2.609   3.118   4.255
    1C        C  659   2.554   3.249   4.259
    1C        C  660   2.640   3.058   4.379
    1C        C  661   2.608   3.119   4.502
    1C        C  662   2.712   2.937   4.623
    1C        C  663   2.634   3.055   4.626
    1C        C  664   2.751   2.876   4.744
    1C        C  665   2.695   2.930   4.863
    1C        C  666   2.737   2.868   4.981
    1C        C  667   2.682   4.021   2.050
    1C        C  668   2.689   4.100   2.165
    1C        C  669   2.588   3.913   2.291
    1C        C  670   2.650   4.041   2.287
    1C        C  671   2.560   3.845   2.411
    1C        C  672   2.585   3.915   2.531
    1C        C  673   2.518   3.716   2.660
    1C        C  674   2.561   3.850   2.655
    1C        C  675   2.506   3.648   2.783
    1C        C  676   2.526   3.720   2.903
    1C        C  677   2.511   3.510   3.027
    1C        C  678   2.516   3.651   3.026
    1C        C  679   2.511   3.442   3.151
    1C        C  680   2.509   3.514   3.272
    1C        C  681   2.531   3.307   3.397
    1C        C  682   2.512   3.447   3.397
    1C        C  683   2.549   3.242   3.521
    1C        C  684   2.537   3.312   3.644
    1C        C  685   2.609   3.117   3.768
    1C        C  686   2.553   3.247   3.768
    1C        C  687   2.641   3.054   3.890
    1C        C  688   2.608   3.120   4.011
    1C        C  689   2.712   2.934   4.137
    1C        C  690   2.637   3.054   4.133
    1C        C  691   2.756   2.879   4.260
    1C        C  692   2.713   2.937   4.382
    1C        C  693   2.753   2.876   4.503
    1C        C  694   2.625   3.893   2.055
    1C        C  695   2.522   3.706   2.174
    1C        C  696   2.576   3.837   2.173
    1C        C  697   2.500   3.639   2.296
    1C        C  698   2.522   3.709   2.417
    1C        C  699   2.484   3.503   2.543
    1C        C  700   2.500   3.644   2.540
    1C        C  701   2.504   3.433   2.664
    1C        C  702   2.495   3.507   2.783
    1C        C  703   2.526   3.298   2.909
    1C        C  704   2.506   3.437   2.906
    1C        C  705   2.546   3.231   3.032
    1C        C  706   2.531   3.302   3.153
    1C        C  707   2.600   3.104   3.276
    1C        C  708   2.548   3.236   3.276
    1C        C  709   2.631   3.046   3.401
    1C        C  710   2.604   3.112   3.523
    1C        C  711   2.712   2.932   3.646
    1C        C  712   2.635   3.051   3.647
    1C        C  713   2.754   2.877   3.769
    1C        C  714   2.716   2.935   3.892
    1C        C  715   2.756   2.878   4.015
    1C        C  716   2.450   3.500   2.063
    1C        C  717   2.497   3.632   2.058
    1C        C  718   2.471   3.422   2.181
    1C        C  719   2.488   3.497   2.300
    1C        C  720   2.508   3.289   2.421
    1C        C  721   2.486   3.428   2.423
    1C        C  722   2.530   3.220   2.542
    1C        C  723   2.524   3.293   2.663
    1C        C  724   2.598   3.097   2.788
    1C        C  725   2.544   3.228   2.787
    1C        C  726   2.630   3.037   2.912
    1C        C  727   2.603   3.102   3.034
    1C        C  728   2.714   2.922   3.159
    1C        C  729   2.633   3.038   3.156
    1C        C  730   2.755   2.869   3.284
    1C        C  731   2.707   2.927   3.403
    1C        C  732   2.757   2.874   3.525
    1C        C  733   2.489   3.195   2.070
    1C        C  734   2.490   3.280   2.181
    1C        C  735   2.592   3.089   2.300
    1C        C  736   2.527   3.216   2.302
    1C        C  737   2.626   3.025   2.421
    1C        C  738   2.595   3.095   2.540
    1C        C  739   2.696   2.912   2.667
    1C        C  740   2.624   3.033   2.664
    1C        C  741   2.742   2.858   2.789
    1C        C  742   2.702   2.915   2.912
    1C        C  743   2.749   2.864   3.035
    1C        C  744   2.533   3.063   2.070
    1C        C  745   2.680   2.897   2.182
    1C        C  746   2.608   3.019   2.179
    1C        C  747   2.726   2.839   2.303
    1C        C  748   2.691   2.900   2.425
    1C        C  749   2.736   2.847   2.548
    1C        C  750   2.733   2.840   2.066
    1C        C  751   3.661   2.314   1.978
    1C        O  752   3.669   2.194   2.017
    1C        O  753   3.637   2.323   1.840
    1C        C  754   4.616   3.065   1.955
    1C        O  755   4.571   3.016   1.848
    1C        O  756   4.751   3.044   1.985
    1C        C  757   4.427   4.209   1.940
    1C        O  758   4.475   4.326   1.949
    1C        O  759   4.371   4.169   1.818
    1C        C  760   3.604   4.687   1.968
    1C        O  761   3.646   4.786   2.035
    1C        O  762   3.529   4.707   1.851
    1C        C  763   2.875   4.512   1.967
    1C        O  764   2.932   4.528   1.855
    1C        O  765   2.763   4.590   1.997
    1C        C  766   2.335   3.469   1.975
    1C        O  767   2.363   3.471   1.852
    1C        O  768   2.199   3.482   2.002
    1C        C  769   4.719   3.595   5.018
    1C        O  770   4.739   3.598   5.143
    1C        O  771   4.841   3.624   4.955
    1C        C  772   4.284   4.461   5.023
    1C        O  773   4.301   4.439   5.145
    1C        O  774   4.392   4.535   4.974
    1C        C  775   4.138   2.497   5.060
    1C        O  776   4.201   2.396   5.018
    1C        O  777   4.149   2.530   5.196
    1C        C  778   2.908   4.527   5.069
    1C        O  779   2.883   4.648   5.042
    1C        O  780   2.916   4.506   5.208
    1C        C  781   2.465   3.028   5.063
    1C        O  782   2.342   3.041   5.042
    1C        O  783   2.490   3.010   5.199
    1C        C  784   2.410   3.986   5.049
    1C        O  785   2.291   4.016   5.020
    1C        O  786   2.425   3.974   5.187
    1C        C  787   2.953   2.439   1.988
    1C        O  788   2.995   2.434   1.869
    1C        O  789   2.864   2.341   2.030
    1C        C  790   3.166   2.359   5.044
    1C        O  791   3.112   2.264   4.981
    1C        O  792   3.205   2.332   5.176
    1C        H  793   4.272   3.029   5.050
    1C        H  794   4.250   2.778   5.064
    1C        H  795   4.537   3.134   5.048
    1C        H  796   4.547   3.371   5.063
    1C        H  797   4.558   3.808   5.051
    1C        H  798   4.399   3.966   5.054
    1C        H  799   4.263   4.147   5.048
    1C        H  800   4.032   4.545   5.020
    1C        H  801   3.828   4.621   5.018
    1C        H  802   3.586   4.563   5.051
    1C        H  803   3.385   4.494   5.048
    1C        H  804   3.156   4.453   5.041
    1C        H  805   3.894   2.471   5.061
    1C        H  806   3.673   2.443   5.064
    1C        H  807   3.004   2.566   5.067
    1C        H  808   3.437   2.517   5.070
    1C        H  809   2.894   2.764   5.075
    1C        H  810   2.667   2.869   5.062
    1C        H  811   2.472   3.280   5.062
    1C        H  812   2.468   3.502   5.056
    1C        H  813   2.540   3.737   5.066
    1C        H  814   2.598   4.180   5.041
    1C        H  815   2.728   4.352   5.041
    1C        H  816   2.677   2.836   1.975
    1C        H  817   2.836   2.687   1.977
    1C        H  818   3.218   2.455   1.985
    1C        H  819   3.438   2.446   1.973
    1C        H  820   3.847   2.527   1.969
    1C        H  821   4.035   2.668   1.978
    1C        H  822   4.266   2.703   1.983
    1C        H  823   4.397   2.909   1.965
    1C        H  824   4.564   3.314   1.969
    1C        H  825   4.495   3.515   1.956
    1C        H  826   4.511   3.749   1.952
    1C        H  827   3.799   4.514   1.945
    1C        H  828   3.979   4.406   1.947
    1C        H  829   4.190   4.309   1.960
    1C        H  830   4.480   3.954   1.961
    1C        H  831   2.635   3.839   1.963
    1C        H  832   2.664   4.075   1.960
    1C        H  833   2.721   4.297   1.968
    1C        H  834   3.366   4.496   1.942
    1C        H  835   3.184   4.347   1.980
    1C        H  836   2.515   2.990   1.994
    1C        H  837   2.400   3.206   2.011
    1C        H  838   2.510   3.679   1.962
    2V3OU   H29  839   2.801   3.543   1.120
    2V3OU   C27  840   2.782   3.507   1.225
    2V3OU   H27  841   2.727   3.571   1.298
    2V3OU   H28  842   2.725   3.411   1.216
    2V3OU   O11  843   2.909   3.478   1.283
    2V3OU   C15  844   2.919   3.389   1.388
    2V3OU   C13  845   3.049   3.371   1.439
    2V3OU   C14  846   3.072   3.265   1.528
    2V3OU   C16  847   2.969   3.180   1.567
    2V3OU    H6  848   2.994   3.098   1.636
    2V3OU   C12  849   3.211   3.231   1.564
    2V3OU    O2  850   3.239   3.120   1.613
    2V3OU   C10  851   3.323   3.310   1.511
    2V3OU    C8  852   3.456   3.271   1.524
    2V3OU   O10  853   3.480   3.155   1.591
    2V3OU   H26  854   3.392   3.117   1.602
    2V3OU    C6  855   3.566   3.349   1.476
    2V3OU    C5  856   3.540   3.466   1.405
    2V3OU    C4  857   3.702   3.288   1.472
    2V3OU    H4  858   3.724   3.218   1.557
    2V3OU    H5  859   3.707   3.226   1.377
    2V3OU    C2  860   3.815   3.391   1.465
    2V3OU    O6  861   3.804   3.480   1.576
    2V3OU   H21  862   3.762   3.563   1.551
    2V3OU    C3  863   3.780   3.494   1.357
    2V3OU    H2  864   3.859   3.573   1.353
    2V3OU    H3  865   3.786   3.441   1.258
    2V3OU   C25  866   3.952   3.325   1.449
    2V3OU    O7  867   3.999   3.296   1.340
    2V3OU   C26  868   4.035   3.291   1.572
    2V3OU   H22  869   4.072   3.385   1.621
    2V3OU   H23  870   4.122   3.227   1.544
    2V3OU    O8  871   3.966   3.214   1.669
    2V3OU   H24  872   3.918   3.268   1.734
    2V3OU    C1  873   3.645   3.564   1.361
    2V3OU    H1  874   3.625   3.616   1.263
    2V3OU    O3  875   3.657   3.659   1.467
    2V3OU   C19  876   3.615   3.794   1.448
    2V3OU    H9  877   3.518   3.804   1.391
    2V3OU    O4  878   3.717   3.844   1.364
    2V3OU   C20  879   3.847   3.874   1.416
    2V3OU   H10  880   3.900   3.774   1.428
    2V3OU   C24  881   3.611   3.856   1.588
    2V3OU   H16  882   3.546   3.799   1.659
    2V3OU   H17  883   3.572   3.960   1.580
    2V3OU   C23  884   3.750   3.876   1.648
    2V3OU   H15  885   3.792   3.771   1.660
    2V3OU    N1  886   3.738   3.950   1.772
    2V3OU   H19  887   3.810   3.916   1.833
    2V3OU   H20  888   3.645   3.927   1.800
    2V3OU   C21  889   3.852   3.944   1.552
    2V3OU   H11  890   3.956   3.929   1.594
    2V3OU    O5  891   3.827   4.083   1.544
    2V3OU   H18  892   3.780   4.101   1.627
    2V3OU   C22  893   3.915   3.949   1.302
    2V3OU   H12  894   3.862   4.047   1.289
    2V3OU   H13  895   3.905   3.893   1.206
    2V3OU   H14  896   4.025   3.957   1.322
    2V3OU   C11  897   3.156   3.471   1.422
    2V3OU    O1  898   3.129   3.582   1.370
    2V3OU    C9  899   3.297   3.430   1.439
    2V3OU    C7  900   3.403   3.504   1.389
    2V3OU    O9  901   3.383   3.619   1.315
    2V3OU   H25  902   3.287   3.625   1.310
    2V3OU   C17  903   2.814   3.311   1.441
    2V3OU    H7  904   2.714   3.336   1.406
    2V3OU   C18  905   2.839   3.201   1.523
    2V3OU    H8  906   2.749   3.155   1.567
    3SOL     OW  907   0.886   3.103   0.654
    3SOL    HW1  908   0.942   3.183   0.677
    3SOL    HW2  909   0.806   3.133   0.602
    4SOL     OW  910   5.567   0.604   1.989
    4SOL    HW1  911   5.642   0.669   2.004
    4SOL    HW2  912   5.554   0.589   1.891
    5SOL     OW  913   3.512   3.036   0.904
    5SOL    HW1  914   3.573   2.981   0.961
    5SOL    HW2  915   3.438   3.072   0.961
    6SOL     OW  916   2.843   1.974   1.334
    6SOL    HW1  917   2.835   1.922   1.250
    6SOL    HW2  918   2.937   2.007   1.344
    7SOL     OW  919   6.121   0.912   1.560
    7SOL    HW1  920   6.032   0.873   1.580
    7SOL    HW2  921   6.165   0.940   1.646
    8SOL     OW  922   2.607   1.740   4.016
    8SOL    HW1  923   2.603   1.836   3.990
    8SOL    HW2  924   2.679   1.726   4.084
    9SOL     OW  925   1.099   3.654   5.911
    9SOL    HW1  926   1.188   3.661   5.956
    9SOL    HW2  927   1.105   3.692   5.818
   10SOL     OW  928   0.050   4.011   0.078
   10SOL    HW1  929   7.015   4.070   0.134
   10SOL    HW2  930   7.014   3.957   0.016
   11SOL     OW  931   4.211   6.474   6.934
   11SOL    HW1  932   4.246   6.555   6.888
   11SOL    HW2  933   4.268   6.454   7.014
   12SOL     OW  934   5.827   6.184   2.397
   12SOL    HW1  935   5.801   6.264   2.343
   12SOL    HW2  936   5.764   6.174   2.474
   13SOL     OW  937   2.227   6.757   3.286
   13SOL    HW1  938   2.315   6.790   3.321
   13SOL    HW2  939   2.192   6.822   3.218
   14SOL     OW  940   3.016   6.718   1.788
   14SOL    HW1  941   2.936   6.663   1.764
   14SOL    HW2  942   3.066   6.743   1.705
   15SOL     OW  943   1.337   6.439   6.383
   15SOL    HW1  944   1.261   6.472   6.327
   15SOL    HW2  945   1.314   6.448   6.480
   16SOL     OW  946   6.297   1.616   6.127
   16SOL    HW1  947   6.310   1.680   6.051
   16SOL    HW2  948   6.255   1.532   6.093
   17SOL     OW  949   4.961   6.201   3.898
   17SOL    HW1  950   4.925   6.293   3.884
   17SOL    HW2  951   4.972   6.155   3.810
   18SOL     OW  952   1.576   1.601   6.619
   18SOL    HW1  953   1.626   1.636   6.698
   18SOL    HW2  954   1.521   1.522   6.646
   19SOL     OW  955   0.717   0.234   1.856
   19SOL    HW1  956   0.646   0.237   1.785
   19SOL    HW2  957   0.768   0.149   1.849
   20SOL     OW  958   3.132   1.554   4.567
   20SOL    HW1  959   3.145   1.561   4.468
   20SOL    HW2  960   3.047   1.600   4.593
   21SOL     OW  961   2.791   2.481   1.055
   21SOL    HW1  962   2.781   2.580   1.047
   21SOL    HW2  963   2.863   2.449   0.994
   22SOL     OW  964   1.135   0.495   6.160
   22SOL    HW1  965   1.231   0.504   6.184
   22SOL    HW2  966   1.096   0.415   6.205
   23SOL     OW  967   4.003   6.337   4.373
   23SOL    HW1  968   4.089   6.319   4.327
   23SOL    HW2  969   3.942   6.388   4.312
   24SOL     OW  970   4.195   1.433   4.534
   24SOL    HW1  971   4.196   1.450   4.632
   24SOL    HW2  972   4.257   1.357   4.512
   25SOL     OW  973   3.060   5.426   0.834
   25SOL    HW1  974   3.156   5.442   0.856
   25SOL    HW2  975   3.029   5.494   0.768
   26SOL     OW  976   6.322   1.597   2.426
   26SOL    HW1  977   6.315   1.643   2.338
   26SOL    HW2  978   6.408   1.622   2.470
   27SOL     OW  979   6.163   6.294   2.343
   27SOL    HW1  980   6.224   6.349   2.401
   27SOL    HW2  981   6.135   6.349   2.264
   28SOL     OW  982   3.327   0.444   0.388
   28SOL    HW1  983   3.269   0.365   0.410
   28SOL    HW2  984   3.271   0.526   0.382
   29SOL     OW  985   3.925   2.535   1.693
   29SOL    HW1  986   4.014   2.581   1.694
   29SOL    HW2  987   3.906   2.502   1.600
   30SOL     OW  988   3.955   0.764   4.611
   30SOL    HW1  989   3.889   0.830   4.647
   30SOL    HW2  990   3.957   0.769   4.512
   31SOL     OW  991   0.488   0.866   5.571
   31SOL    HW1  992   0.510   0.933   5.642
   31SOL    HW2  993   0.529   0.778   5.594
   32SOL     OW  994   0.053   2.142   1.880
   32SOL    HW1  995   0.067   2.084   1.799
   32SOL    HW2  996   0.122   2.118   1.949
   33SOL     OW  997   1.449   1.918   5.237
   33SOL    HW1  998   1.362   1.869   5.230
   33SOL    HW2  999   1.467   1.966   5.151
   34SOL     OW 1000   1.054   0.463   4.859
   34SOL    HW1 1001   1.125   0.527   4.889
   34SOL    HW2 1002   1.061   0.449   4.761
   35SOL     OW 1003   4.362   1.463   6.151
   35SOL    HW1 1004   4.360   1.370   6.114
   35SOL    HW2 1005   4.452   1.483   6.188
   36SOL     OW 1006   1.546   1.608   5.684
   36SOL    HW1 1007   1.535   1.703   5.712
   36SOL    HW2 1008   1.639   1.577   5.702
   37SOL     OW 1009   2.490   6.602   1.600
   37SOL    HW1 1010   2.530   6.522   1.644
   37SOL    HW2 1011   2.563   6.660   1.564
   38SOL     OW 1012   0.364   5.826   2.829
   38SOL    HW1 1013   0.295   5.754   2.844
   38SOL    HW2 1014   0.387   5.830   2.732
   39SOL     OW 1015   6.773   3.319   5.727
   39SOL    HW1 1016   6.757   3.331   5.629
   39SOL    HW2 1017   6.872   3.313   5.743
   40SOL     OW 1018   6.780   0.820   1.328
   40SOL    HW1 1019   6.747   0.914   1.342
   40SOL    HW2 1020   6.867   0.808   1.377
   41SOL     OW 1021   1.218   6.992   5.620
   41SOL    HW1 1022   1.271   6.919   5.579
   41SOL    HW2 1023   1.126   6.959   5.642
   42SOL     OW 1024   3.624   0.376   0.036
   42SOL    HW1 1025   3.683   0.449   0.072
   42SOL    HW2 1026   3.579   0.330   0.113
   43SOL     OW 1027   5.422   5.335   5.208
   43SOL    HW1 1028   5.359   5.330   5.130
   43SOL    HW2 1029   5.397   5.411   5.267
   44SOL     OW 1030   0.968   3.362   6.288
   44SOL    HW1 1031   0.881   3.410   6.289
   44SOL    HW2 1032   1.037   3.418   6.334
   45SOL     OW 1033   3.183   0.628   1.876
   45SOL    HW1 1034   3.270   0.584   1.856
   45SOL    HW2 1035   3.109   0.577   1.831
   46SOL     OW 1036   1.602   4.405   3.797
   46SOL    HW1 1037   1.526   4.430   3.857
   46SOL    HW2 1038   1.689   4.430   3.841
   47SOL     OW 1039   6.481   4.520   3.352
   47SOL    HW1 1040   6.383   4.501   3.348
   47SOL    HW2 1041   6.527   4.474   3.277
   48SOL     OW 1042   1.063   2.219   5.612
   48SOL    HW1 1043   1.066   2.315   5.640
   48SOL    HW2 1044   1.146   2.196   5.561
   49SOL     OW 1045   4.779   2.380   0.453
   49SOL    HW1 1046   4.810   2.350   0.543
   49SOL    HW2 1047   4.734   2.469   0.461
   50SOL     OW 1048   6.528   4.006   4.384
   50SOL    HW1 1049   6.577   4.078   4.433
   50SOL    HW2 1050   6.575   3.919   4.396
   51SOL     OW 1051   3.359   5.395   2.888
   51SOL    HW1 1052   3.265   5.381   2.920
   51SOL    HW2 1053   3.379   5.493   2.884
   52SOL     OW 1054   1.183   2.331   1.383
   52SOL    HW1 1055   1.282   2.323   1.375
   52SOL    HW2 1056   1.147   2.251   1.432
   53SOL     OW 1057   5.000   6.921   4.119
   53SOL    HW1 1058   4.971   6.988   4.188
   53SOL    HW2 1059   5.085   6.953   4.076
   54SOL     OW 1060   4.033   5.602   5.707
   54SOL    HW1 1061   3.994   5.625   5.618
   54SOL    HW2 1062   3.959   5.580   5.771
   55SOL     OW 1063   4.068   2.473   0.572
   55SOL    HW1 1064   4.024   2.385   0.554
   55SOL    HW2 1065   4.030   2.513   0.655
   56SOL     OW 1066   0.806   6.999   1.913
   56SOL    HW1 1067   0.740   6.925   1.918
   56SOL    HW2 1068   0.891   6.971   1.957
   57SOL     OW 1069   5.911   0.827   0.839
   57SOL    HW1 1070   5.928   0.923   0.818
   57SOL    HW2 1071   5.935   0.771   0.760
   58SOL     OW 1072   6.958   6.372   6.855
   58SOL    HW1 1073   6.981   6.384   6.951
   58SOL    HW2 1074   6.897   6.445   6.825
   59SOL     OW 1075   1.154   0.047   4.889
   59SOL    HW1 1076   1.144   0.124   4.953
   59SOL    HW2 1077   1.242   0.002   4.906
   60SOL     OW 1078   4.800   6.752   4.794
   60SOL    HW1 1079   4.889   6.724   4.758
   60SOL    HW2 1080   4.762   6.825   4.736
   61SOL     OW 1081   4.183   0.222   4.484
   61SOL    HW1 1082   4.136   0.142   4.446
   61SOL    HW2 1083   4.127   0.304   4.468
   62SOL     OW 1084   1.975   1.092   4.723
   62SOL    HW1 1085   2.031   1.026   4.673
   62SOL    HW2 1086   1.884   1.097   4.682
   63SOL     OW 1087   6.665   3.327   3.171
   63SOL    HW1 1088   6.719   3.243   3.171
   63SOL    HW2 1089   6.646   3.354   3.076
   64SOL     OW 1090   6.799   2.692   5.742
   64SOL    HW1 1091   6.871   2.658   5.801
   64SOL    HW2 1092   6.765   2.617   5.685
   65SOL     OW 1093   6.899   4.668   6.363
   65SOL    HW1 1094   6.941   4.629   6.281
   65SOL    HW2 1095   6.968   4.673   6.436
   66SOL     OW 1096   2.835   1.353   0.593
   66SOL    HW1 1097   2.773   1.350   0.516
   66SOL    HW2 1098   2.835   1.445   0.633
   67SOL     OW 1099   5.359   6.032   4.448
   67SOL    HW1 1100   5.452   6.068   4.449
   67SOL    HW2 1101   5.299   6.095   4.398
   68SOL     OW 1102   5.659   2.345   5.921
   68SOL    HW1 1103   5.740   2.302   5.962
   68SOL    HW2 1104   5.669   2.445   5.926
   69SOL     OW 1105   2.892   3.208   6.125
   69SOL    HW1 1106   2.872   3.302   6.152
   69SOL    HW2 1107   2.816   3.149   6.151
   70SOL     OW 1108   0.331   4.949   1.934
   70SOL    HW1 1109   0.356   4.955   1.837
   70SOL    HW2 1110   0.236   4.918   1.942
   71SOL     OW 1111   1.419   2.425   3.200
   71SOL    HW1 1112   1.475   2.501   3.232
   71SOL    HW2 1113   1.391   2.442   3.105
   72SOL     OW 1114   3.566   5.877   4.231
   72SOL    HW1 1115   3.486   5.924   4.195
   72SOL    HW2 1116   3.649   5.916   4.191
   73SOL     OW 1117   4.390   2.692   0.075
   73SOL    HW1 1118   4.334   2.611   0.093
   73SOL    HW2 1119   4.424   2.729   0.162
   74SOL     OW 1120   5.283   5.743   5.846
   74SOL    HW1 1121   5.240   5.663   5.887
   74SOL    HW2 1122   5.382   5.741   5.863
   75SOL     OW 1123   4.002   5.231   5.714
   75SOL    HW1 1124   3.918   5.251   5.663
   75SOL    HW2 1125   3.985   5.246   5.812
   76SOL     OW 1126   2.814   2.959   1.255
   76SOL    HW1 1127   2.732   2.952   1.312
   76SOL    HW2 1128   2.803   3.032   1.189
   77SOL     OW 1129   5.515   5.241   6.632
   77SOL    HW1 1130   5.582   5.316   6.639
   77SOL    HW2 1131   5.555   5.157   6.670
   78SOL     OW 1132   6.540   6.396   6.118
   78SOL    HW1 1133   6.489   6.404   6.203
   78SOL    HW2 1134   6.490   6.440   6.043
   79SOL     OW 1135   2.955   0.238   0.178
   79SOL    HW1 1136   2.920   0.201   0.264
   79SOL    HW2 1137   2.883   0.236   0.109
   80SOL     OW 1138   0.265   1.656   4.058
   80SOL    HW1 1139   0.207   1.617   3.986
   80SOL    HW2 1140   0.324   1.585   4.096
   81SOL     OW 1141   1.029   0.322   3.919
   81SOL    HW1 1142   1.000   0.259   3.846
   81SOL    HW2 1143   0.971   0.403   3.918
   82SOL     OW 1144   0.175   4.498   5.375
   82SOL    HW1 1145   0.214   4.533   5.290
   82SOL    HW2 1146   0.107   4.563   5.409
   83SOL     OW 1147   7.020   6.802   0.169
   83SOL    HW1 1148   6.968   6.841   0.245
   83SOL    HW2 1149   6.960   6.790   0.090
   84SOL     OW 1150   6.183   3.798   1.777
   84SOL    HW1 1151   6.183   3.882   1.724
   84SOL    HW2 1152   6.222   3.724   1.723
   85SOL     OW 1153   0.109   2.730   5.646
   85SOL    HW1 1154   0.009   2.728   5.653
   85SOL    HW2 1155   0.143   2.817   5.683
   86SOL     OW 1156   0.941   0.979   5.695
   86SOL    HW1 1157   0.931   0.972   5.794
   86SOL    HW2 1158   0.995   1.060   5.672
   87SOL     OW 1159   4.135   0.927   1.200
   87SOL    HW1 1160   4.144   0.975   1.113
   87SOL    HW2 1161   4.180   0.838   1.194
   88SOL     OW 1162   5.000   0.506   0.855
   88SOL    HW1 1163   4.923   0.455   0.892
   88SOL    HW2 1164   4.997   0.600   0.889
   89SOL     OW 1165   1.613   2.330   5.929
   89SOL    HW1 1166   1.553   2.389   5.874
   89SOL    HW2 1167   1.700   2.376   5.944
   90SOL     OW 1168   5.946   6.516   3.370
   90SOL    HW1 1169   5.960   6.418   3.355
   90SOL    HW2 1170   5.966   6.566   3.286
   91SOL     OW 1171   4.790   4.671   4.766
   91SOL    HW1 1172   4.798   4.580   4.808
   91SOL    HW2 1173   4.818   4.667   4.670
   92SOL     OW 1174   3.085   5.666   1.240
   92SOL    HW1 1175   3.171   5.686   1.287
   92SOL    HW2 1176   3.040   5.752   1.215
   93SOL     OW 1177   3.541   5.209   5.783
   93SOL    HW1 1178   3.559   5.138   5.852
   93SOL    HW2 1179   3.621   5.219   5.724
   94SOL     OW 1180   2.482   6.213   0.517
   94SOL    HW1 1181   2.522   6.127   0.549
   94SOL    HW2 1182   2.469   6.210   0.418
   95SOL     OW 1183   6.717   0.496   4.747
   95SOL    HW1 1184   6.634   0.543   4.774
   95SOL    HW2 1185   6.797   0.547   4.779
   96SOL     OW 1186   1.830   0.239   5.420
   96SOL    HW1 1187   1.794   0.213   5.330
   96SOL    HW2 1188   1.754   0.255   5.483
   97SOL     OW 1189   6.214   3.421   5.268
   97SOL    HW1 1190   6.185   3.326   5.280
   97SOL    HW2 1191   6.313   3.427   5.277
   98SOL     OW 1192   5.912   2.566   6.086
   98SOL    HW1 1193   5.997   2.514   6.078
   98SOL    HW2 1194   5.904   2.603   6.179
   99SOL     OW 1195   4.282   1.990   1.044
   99SOL    HW1 1196   4.241   1.907   1.082
   99SOL    HW2 1197   4.283   1.984   0.945
  100SOL     OW 1198   6.566   5.242   6.130
  100SOL    HW1 1199   6.532   5.223   6.038
  100SOL    HW2 1200   6.624   5.324   6.128
  101SOL     OW 1201   0.933   6.376   3.573
  101SOL    HW1 1202   0.989   6.457   3.562
  101SOL    HW2 1203   0.905   6.367   3.669
  102SOL     OW 1204   4.989   6.925   3.367
  102SOL    HW1 1205   4.923   6.881   3.428
  102SOL    HW2 1206   4.959   6.916   3.272
  103SOL     OW 1207   3.931   1.844   1.054
  103SOL    HW1 1208   3.844   1.848   1.102
  103SOL    HW2 1209   3.987   1.770   1.091
  104SOL     OW 1210   0.270   5.792   2.081
  104SOL    HW1 1211   0.330   5.766   2.156
  104SOL    HW2 1212   0.193   5.846   2.116
  105SOL     OW 1213   4.949   1.312   5.583
  105SOL    HW1 1214   4.887   1.290   5.658
  105SOL    HW2 1215   5.039   1.336   5.620
  106SOL     OW 1216   2.930   6.348   6.778
  106SOL    HW1 1217   2.939   6.308   6.869
  106SOL    HW2 1218   2.838   6.330   6.742
  107SOL     OW 1219   2.408   3.489   1.139
  107SOL    HW1 1220   2.352   3.427   1.194
  107SOL    HW2 1221   2.382   3.584   1.160
  108SOL     OW 1222   4.868   4.572   5.590
  108SOL    HW1 1223   4.935   4.534   5.525
  108SOL    HW2 1224   4.914   4.635   5.652
  109SOL     OW 1225   6.490   0.970   1.062
  109SOL    HW1 1226   6.452   0.967   1.155
  109SOL    HW2 1227   6.590   0.975   1.068
  110SOL     OW 1228   4.295   5.847   5.614
  110SOL    HW1 1229   4.196   5.832   5.607
  110SOL    HW2 1230   4.317   5.938   5.580
  111SOL     OW 1231   3.686   1.000   3.506
  111SOL    HW1 1232   3.664   1.042   3.418
  111SOL    HW2 1233   3.665   0.903   3.503
  112SOL     OW 1234   0.818   0.685   6.318
  112SOL    HW1 1235   0.763   0.768   6.330
  112SOL    HW2 1236   0.908   0.699   6.359
  113SOL     OW 1237   0.286   5.117   3.781
  113SOL    HW1 1238   0.265   5.197   3.724
  113SOL    HW2 1239   0.330   5.047   3.726
  114SOL     OW 1240   0.358   6.859   6.876
  114SOL    HW1 1241   0.450   6.898   6.873
  114SOL    HW2 1242   0.318   6.874   6.966
  115SOL     OW 1243   5.280   1.083   4.925
  115SOL    HW1 1244   5.265   1.003   4.983
  115SOL    HW2 1245   5.360   1.134   4.958
  116SOL     OW 1246   6.187   4.590   2.231
  116SOL    HW1 1247   6.228   4.570   2.320
  116SOL    HW2 1248   6.259   4.597   2.162
  117SOL     OW 1249   1.300   6.932   6.801
  117SOL    HW1 1250   1.381   6.874   6.809
  117SOL    HW2 1251   1.308   6.991   6.721
  118SOL     OW 1252   1.446   0.715   2.284
  118SOL    HW1 1253   1.347   0.723   2.290
  118SOL    HW2 1254   1.487   0.805   2.268
  119SOL     OW 1255   6.711   3.097   6.244
  119SOL    HW1 1256   6.645   3.146   6.301
  119SOL    HW2 1257   6.789   3.156   6.225
  120SOL     OW 1258   5.772   6.412   1.061
  120SOL    HW1 1259   5.730   6.380   0.976
  120SOL    HW2 1260   5.826   6.494   1.042
  121SOL     OW 1261   2.643   3.026   5.896
  121SOL    HW1 1262   2.662   3.123   5.886
  121SOL    HW2 1263   2.654   2.999   5.992
  122SOL     OW 1264   0.482   3.227   4.592
  122SOL    HW1 1265   0.562   3.254   4.646
  122SOL    HW2 1266   0.423   3.306   4.578
  123SOL     OW 1267   1.078   1.771   1.460
  123SOL    HW1 1268   1.003   1.770   1.527
  123SOL    HW2 1269   1.156   1.820   1.499
  124SOL     OW 1270   4.795   3.187   0.914
  124SOL    HW1 1271   4.735   3.267   0.917
  124SOL    HW2 1272   4.767   3.121   0.983
  125SOL     OW 1273   2.159   3.374   1.728
  125SOL    HW1 1274   2.238   3.399   1.783
  125SOL    HW2 1275   2.099   3.314   1.782
  126SOL     OW 1276   3.116   4.877   1.618
  126SOL    HW1 1277   3.069   4.831   1.694
  126SOL    HW2 1278   3.067   4.961   1.595
  127SOL     OW 1279   0.504   6.038   6.066
  127SOL    HW1 1280   0.512   6.049   5.967
  127SOL    HW2 1281   0.470   5.946   6.087
  128SOL     OW 1282   4.495   2.529   1.572
  128SOL    HW1 1283   4.583   2.484   1.589
  128SOL    HW2 1284   4.508   2.600   1.503
  129SOL     OW 1285   2.755   3.792   6.464
  129SOL    HW1 1286   2.792   3.714   6.514
  129SOL    HW2 1287   2.776   3.876   6.513
  130SOL     OW 1288   1.536   2.022   4.723
  130SOL    HW1 1289   1.583   2.104   4.689
  130SOL    HW2 1290   1.457   2.003   4.666
  131SOL     OW 1291   5.026   1.779   2.983
  131SOL    HW1 1292   5.058   1.854   2.925
  131SOL    HW2 1293   5.042   1.692   2.937
  132SOL     OW 1294   0.639   2.231   0.592
  132SOL    HW1 1295   0.689   2.302   0.643
  132SOL    HW2 1296   0.554   2.270   0.555
  133SOL     OW 1297   6.600   5.120   2.415
  133SOL    HW1 1298   6.575   5.037   2.364
  133SOL    HW2 1299   6.536   5.133   2.491
  134SOL     OW 1300   0.290   3.369   2.856
  134SOL    HW1 1301   0.270   3.286   2.909
  134SOL    HW2 1302   0.204   3.410   2.825
  135SOL     OW 1303   5.050   1.419   4.147
  135SOL    HW1 1304   5.002   1.343   4.103
  135SOL    HW2 1305   4.991   1.459   4.217
  136SOL     OW 1306   5.674   4.658   5.151
  136SOL    HW1 1307   5.755   4.635   5.096
  136SOL    HW2 1308   5.670   4.599   5.231
  137SOL     OW 1309   4.197   0.264   5.860
  137SOL    HW1 1310   4.222   0.173   5.827
  137SOL    HW2 1311   4.104   0.286   5.829
  138SOL     OW 1312   6.843   5.091   4.725
  138SOL    HW1 1313   6.870   5.175   4.772
  138SOL    HW2 1314   6.843   5.106   4.626
  139SOL     OW 1315   3.692   5.400   5.379
  139SOL    HW1 1316   3.662   5.484   5.424
  139SOL    HW2 1317   3.746   5.424   5.298
  140SOL     OW 1318   6.092   4.337   4.394
  140SOL    HW1 1319   6.061   4.277   4.467
  140SOL    HW2 1320   6.055   4.306   4.306
  141SOL     OW 1321   1.638   1.985   3.745
  141SOL    HW1 1322   1.545   1.948   3.754
  141SOL    HW2 1323   1.634   2.070   3.692
  142SOL     OW 1324   1.756   5.262   1.339
  142SOL    HW1 1325   1.754   5.173   1.292
  142SOL    HW2 1326   1.696   5.259   1.418
  143SOL     OW 1327   5.788   4.073   1.747
  143SOL    HW1 1328   5.693   4.106   1.743
  143SOL    HW2 1329   5.814   4.058   1.842
  144SOL     OW 1330   2.742   6.851   6.995
  144SOL    HW1 1331   2.763   6.867   0.070
  144SOL    HW2 1332   2.799   6.776   6.961
  145SOL     OW 1333   0.054   5.695   0.832
  145SOL    HW1 1334   7.000   5.637   0.864
  145SOL    HW2 1335   0.080   5.667   0.739
  146SOL     OW 1336   5.895   5.031   0.632
  146SOL    HW1 1337   5.959   4.955   0.623
  146SOL    HW2 1338   5.940   5.116   0.606
  147SOL     OW 1339   6.114   2.032   0.949
  147SOL    HW1 1340   6.201   2.045   0.996
  147SOL    HW2 1341   6.049   2.100   0.980
  148SOL     OW 1342   1.115   5.269   5.591
  148SOL    HW1 1343   1.204   5.262   5.637
  148SOL    HW2 1344   1.052   5.201   5.629
  149SOL     OW 1345   3.103   1.007   5.560
  149SOL    HW1 1346   3.125   0.932   5.623
  149SOL    HW2 1347   3.019   0.985   5.510
  150SOL     OW 1348   0.061   5.385   6.641
  150SOL    HW1 1349   6.985   5.390   6.662
  150SOL    HW2 1350   0.114   5.395   6.726
  151SOL     OW 1351   4.086   1.458   1.547
  151SOL    HW1 1352   4.008   1.432   1.491
  151SOL    HW2 1353   4.056   1.469   1.642
  152SOL     OW 1354   3.495   1.188   4.302
  152SOL    HW1 1355   3.548   1.167   4.220
  152SOL    HW2 1356   3.521   1.127   4.376
  153SOL     OW 1357   2.399   1.098   3.319
  153SOL    HW1 1358   2.448   1.113   3.404
  153SOL    HW2 1359   2.454   1.132   3.242
  154SOL     OW 1360   0.059   2.079   2.739
  154SOL    HW1 1361   6.983   2.058   2.727
  154SOL    HW2 1362   0.108   2.055   2.655
  155SOL     OW 1363   0.201   1.056   3.349
  155SOL    HW1 1364   0.122   1.019   3.397
  155SOL    HW2 1365   0.171   1.121   3.280
  156SOL     OW 1366   6.455   1.834   0.956
  156SOL    HW1 1367   6.425   1.850   1.050
  156SOL    HW2 1368   6.456   1.735   0.938
  157SOL     OW 1369   5.725   3.605   2.474
  157SOL    HW1 1370   5.732   3.526   2.414
  157SOL    HW2 1371   5.673   3.677   2.428
  158SOL     OW 1372   1.506   1.142   3.437
  158SOL    HW1 1373   1.423   1.149   3.383
  158SOL    HW2 1374   1.545   1.234   3.450
  159SOL     OW 1375   5.055   3.955   2.060
  159SOL    HW1 1376   4.958   3.980   2.063
  159SOL    HW2 1377   5.100   3.984   2.145
  160SOL     OW 1378   6.624   4.214   5.823
  160SOL    HW1 1379   6.696   4.192   5.889
  160SOL    HW2 1380   6.563   4.135   5.813
  161SOL     OW 1381   3.223   4.905   4.881
  161SOL    HW1 1382   3.167   4.868   4.955
  161SOL    HW2 1383   3.178   4.986   4.842
  162SOL     OW 1384   4.422   5.938   1.307
  162SOL    HW1 1385   4.337   5.939   1.360
  162SOL    HW2 1386   4.412   5.875   1.230
  163SOL     OW 1387   4.410   0.929   2.159
  163SOL    HW1 1388   4.462   1.014   2.170
  163SOL    HW2 1389   4.464   0.863   2.108
  164SOL     OW 1390   5.473   3.216   0.899
  164SOL    HW1 1391   5.491   3.315   0.898
  164SOL    HW2 1392   5.376   3.200   0.919
  165SOL     OW 1393   5.122   3.882   6.575
  165SOL    HW1 1394   5.028   3.900   6.547
  165SOL    HW2 1395   5.177   3.965   6.563
  166SOL     OW 1396   1.009   0.406   1.813
  166SOL    HW1 1397   1.040   0.500   1.799
  166SOL    HW2 1398   0.944   0.402   1.889
  167SOL     OW 1399   6.587   2.987   0.342
  167SOL    HW1 1400   6.668   3.018   0.292
  167SOL    HW2 1401   6.529   2.932   0.281
  168SOL     OW 1402   2.257   5.608   0.957
  168SOL    HW1 1403   2.305   5.658   0.885
  168SOL    HW2 1404   2.167   5.649   0.972
  169SOL     OW 1405   1.741   6.386   1.724
  169SOL    HW1 1406   1.734   6.429   1.814
  169SOL    HW2 1407   1.825   6.415   1.679
  170SOL     OW 1408   0.388   1.844   3.248
  170SOL    HW1 1409   0.375   1.771   3.316
  170SOL    HW2 1410   0.418   1.927   3.294
  171SOL     OW 1411   3.511   3.428   6.738
  171SOL    HW1 1412   3.573   3.383   6.802
  171SOL    HW2 1413   3.562   3.458   6.657
  172SOL     OW 1414   0.413   2.951   6.250
  172SOL    HW1 1415   0.372   2.943   6.159
  172SOL    HW2 1416   0.491   3.014   6.245
  173SOL     OW 1417   0.514   6.129   5.765
  173SOL    HW1 1418   0.544   6.106   5.673
  173SOL    HW2 1419   0.584   6.184   5.810
  174SOL     OW 1420   2.824   5.297   3.702
  174SOL    HW1 1421   2.766   5.347   3.766
  174SOL    HW2 1422   2.844   5.354   3.623
  175SOL     OW 1423   1.046   5.701   2.657
  175SOL    HW1 1424   1.071   5.604   2.666
  175SOL    HW2 1425   1.024   5.738   2.747
  176SOL     OW 1426   2.340   5.043   1.002
  176SOL    HW1 1427   2.303   5.042   1.095
  176SOL    HW2 1428   2.272   5.006   0.938
  177SOL     OW 1429   4.792   1.972   2.393
  177SOL    HW1 1430   4.888   1.950   2.380
  177SOL    HW2 1431   4.762   1.942   2.483
  178SOL     OW 1432   5.793   5.032   6.352
  178SOL    HW1 1433   5.696   5.046   6.333
  178SOL    HW2 1434   5.809   5.030   6.450
  179SOL     OW 1435   2.601   0.056   0.766
  179SOL    HW1 1436   2.535   0.129   0.785
  179SOL    HW2 1437   2.557   7.008   0.709
  180SOL     OW 1438   0.904   2.385   6.966
  180SOL    HW1 1439   0.930   2.327   6.890
  180SOL    HW2 1440   0.826   2.344   7.015
  181SOL     OW 1441   3.164   2.820   5.200
  181SOL    HW1 1442   3.194   2.877   5.277
  181SOL    HW2 1443   3.131   2.879   5.127
  182SOL     OW 1444   4.418   2.357   4.884
  182SOL    HW1 1445   4.426   2.257   4.885
  182SOL    HW2 1446   4.334   2.384   4.932
  183SOL     OW 1447   5.175   1.526   2.084
  183SOL    HW1 1448   5.098   1.486   2.134
  183SOL    HW2 1449   5.232   1.453   2.047
  184SOL     OW 1450   0.541   4.682   2.978
  184SOL    HW1 1451   0.548   4.771   2.934
  184SOL    HW2 1452   0.462   4.633   2.942
  185SOL     OW 1453   2.062   4.025   6.250
  185SOL    HW1 1454   2.153   4.063   6.232
  185SOL    HW2 1455   1.996   4.063   6.185
  186SOL     OW 1456   5.854   0.044   3.109
  186SOL    HW1 1457   5.839   0.091   3.196
  186SOL    HW2 1458   5.951   0.023   3.098
  187SOL     OW 1459   5.607   0.973   3.926
  187SOL    HW1 1460   5.648   0.889   3.963
  187SOL    HW2 1461   5.679   1.040   3.910
  188SOL     OW 1462   6.373   2.135   3.875
  188SOL    HW1 1463   6.333   2.098   3.791
  188SOL    HW2 1464   6.414   2.060   3.928
  189SOL     OW 1465   2.345   4.353   2.686
  189SOL    HW1 1466   2.404   4.388   2.613
  189SOL    HW2 1467   2.313   4.261   2.662
  190SOL     OW 1468   3.422   0.989   5.662
  190SOL    HW1 1469   3.398   0.938   5.579
  190SOL    HW2 1470   3.403   1.086   5.648
  191SOL     OW 1471   4.933   6.047   6.427
  191SOL    HW1 1472   4.971   6.139   6.431
  191SOL    HW2 1473   4.956   6.005   6.339
  192SOL     OW 1474   6.583   0.405   1.424
  192SOL    HW1 1475   6.563   0.501   1.406
  192SOL    HW2 1476   6.678   0.385   1.400
  193SOL     OW 1477   5.404   4.319   6.949
  193SOL    HW1 1478   5.456   4.387   7.000
  193SOL    HW2 1479   5.363   4.254   7.013
  194SOL     OW 1480   3.915   0.473   3.876
  194SOL    HW1 1481   3.880   0.543   3.939
  194SOL    HW2 1482   3.845   0.451   3.808
  195SOL     OW 1483   0.251   5.696   3.555
  195SOL    HW1 1484   0.176   5.653   3.504
  195SOL    HW2 1485   0.253   5.794   3.534
  196SOL     OW 1486   0.824   1.562   0.459
  196SOL    HW1 1487   0.914   1.603   0.452
  196SOL    HW2 1488   0.754   1.633   0.451
  197SOL     OW 1489   1.551   0.962   0.638
  197SOL    HW1 1490   1.537   0.878   0.690
  197SOL    HW2 1491   1.641   1.000   0.659
  198SOL     OW 1492   3.060   1.951   3.661
  198SOL    HW1 1493   3.152   1.958   3.699
  198SOL    HW2 1494   3.032   1.855   3.660
  199SOL     OW 1495   1.115   2.524   4.072
  199SOL    HW1 1496   1.015   2.533   4.077
  199SOL    HW2 1497   1.141   2.504   3.977
  200SOL     OW 1498   6.843   2.735   0.111
  200SOL    HW1 1499   6.937   2.702   0.117
  200SOL    HW2 1500   6.806   2.713   0.021
  201SOL     OW 1501   0.812   1.016   6.411
  201SOL    HW1 1502   0.776   1.069   6.488
  201SOL    HW2 1503   0.737   0.990   6.350
  202SOL     OW 1504   4.437   6.732   0.555
  202SOL    HW1 1505   4.525   6.746   0.510
  202SOL    HW2 1506   4.444   6.761   0.650
  203SOL     OW 1507   6.123   3.109   6.068
  203SOL    HW1 1508   6.176   3.076   5.990
  203SOL    HW2 1509   6.087   3.200   6.047
  204SOL     OW 1510   6.647   1.325   5.478
  204SOL    HW1 1511   6.632   1.414   5.436
  204SOL    HW2 1512   6.570   1.302   5.538
  205SOL     OW 1513   1.319   3.123   2.756
  205SOL    HW1 1514   1.395   3.079   2.707
  205SOL    HW2 1515   1.240   3.130   2.696
  206SOL     OW 1516   0.602   3.574   0.255
  206SOL    HW1 1517   0.632   3.662   0.218
  206SOL    HW2 1518   0.516   3.588   0.305
  207SOL     OW 1519   5.745   2.461   4.507
  207SOL    HW1 1520   5.704   2.397   4.573
  207SOL    HW2 1521   5.737   2.554   4.542
  208SOL     OW 1522   1.406   4.051   4.515
  208SOL    HW1 1523   1.319   4.002   4.519
  208SOL    HW2 1524   1.468   4.002   4.453
  209SOL     OW 1525   6.530   4.266   2.903
  209SOL    HW1 1526   6.504   4.260   2.807
  209SOL    HW2 1527   6.513   4.178   2.948
  210SOL     OW 1528   4.422   2.854   0.298
  210SOL    HW1 1529   4.439   2.818   0.390
  210SOL    HW2 1530   4.333   2.900   0.296
  211SOL     OW 1531   6.907   1.540   3.044
  211SOL    HW1 1532   6.836   1.544   2.974
  211SOL    HW2 1533   6.889   1.609   3.114
  212SOL     OW 1534   2.190   3.798   2.298
  212SOL    HW1 1535   2.122   3.737   2.258
  212SOL    HW2 1536   2.278   3.751   2.303
  213SOL     OW 1537   1.477   5.460   1.292
  213SOL    HW1 1538   1.516   5.387   1.237
  213SOL    HW2 1539   1.466   5.542   1.236
  214SOL     OW 1540   5.022   6.110   1.752
  214SOL    HW1 1541   5.111   6.138   1.789
  214SOL    HW2 1542   5.026   6.014   1.724
  215SOL     OW 1543   2.674   5.198   3.232
  215SOL    HW1 1544   2.728   5.132   3.285
  215SOL    HW2 1545   2.729   5.232   3.155
  216SOL     OW 1546   0.926   6.806   2.432
  216SOL    HW1 1547   0.903   6.732   2.369
  216SOL    HW2 1548   0.847   6.825   2.491
  217SOL     OW 1549   1.688   4.530   6.066
  217SOL    HW1 1550   1.728   4.500   5.979
  217SOL    HW2 1551   1.593   4.501   6.070
  218SOL     OW 1552   1.518   1.658   5.154
  218SOL    HW1 1553   1.537   1.633   5.249
  218SOL    HW2 1554   1.567   1.742   5.131
  219SOL     OW 1555   4.272   1.894   0.724
  219SOL    HW1 1556   4.238   1.803   0.749
  219SOL    HW2 1557   4.366   1.887   0.690
  220SOL     OW 1558   2.845   6.927   0.768
  220SOL    HW1 1559   2.757   6.964   0.736
  220SOL    HW2 1560   2.843   6.828   0.764
  221SOL     OW 1561   5.198   5.178   2.126
  221SOL    HW1 1562   5.201   5.146   2.031
  221SOL    HW2 1563   5.141   5.117   2.180
  222SOL     OW 1564   2.190   5.083   6.544
  222SOL    HW1 1565   2.113   5.026   6.513
  222SOL    HW2 1566   2.155   5.172   6.574
  223SOL     OW 1567   5.944   2.960   5.050
  223SOL    HW1 1568   5.902   2.874   5.022
  223SOL    HW2 1569   6.042   2.957   5.029
  224SOL     OW 1570   2.228   1.187   6.355
  224SOL    HW1 1571   2.286   1.237   6.291
  224SOL    HW2 1572   2.195   1.249   6.426
  225SOL     OW 1573   4.161   6.208   5.629
  225SOL    HW1 1574   4.250   6.184   5.589
  225SOL    HW2 1575   4.097   6.133   5.616
  226SOL     OW 1576   1.138   2.452   0.104
  226SOL    HW1 1577   1.061   2.467   0.041
  226SOL    HW2 1578   1.219   2.500   0.071
  227SOL     OW 1579   1.410   3.874   1.330
  227SOL    HW1 1580   1.402   3.898   1.234
  227SOL    HW2 1581   1.485   3.808   1.342
  228SOL     OW 1582   1.239   0.208   2.302
  228SOL    HW1 1583   1.208   0.272   2.233
  228SOL    HW2 1584   1.247   0.254   2.390
  229SOL     OW 1585   4.153   6.105   5.901
  229SOL    HW1 1586   4.123   6.183   5.956
  229SOL    HW2 1587   4.179   6.136   5.810
  230SOL     OW 1588   5.384   5.841   5.370
  230SOL    HW1 1589   5.445   5.893   5.430
  230SOL    HW2 1590   5.356   5.898   5.293
  231SOL     OW 1591   5.040   1.709   6.731
  231SOL    HW1 1592   5.021   1.648   6.653
  231SOL    HW2 1593   5.139   1.720   6.741
  232SOL     OW 1594   1.400   1.926   5.728
  232SOL    HW1 1595   1.460   1.940   5.650
  232SOL    HW2 1596   1.408   2.004   5.791
  233SOL     OW 1597   3.328   1.818   3.220
  233SOL    HW1 1598   3.307   1.916   3.228
  233SOL    HW2 1599   3.369   1.799   3.131
  234SOL     OW 1600   4.486   0.997   0.188
  234SOL    HW1 1601   4.567   0.995   0.247
  234SOL    HW2 1602   4.486   0.916   0.129
  235SOL     OW 1603   4.849   3.012   3.398
  235SOL    HW1 1604   4.935   3.045   3.437
  235SOL    HW2 1605   4.868   2.958   3.315
  236SOL     OW 1606   4.506   4.949   6.065
  236SOL    HW1 1607   4.592   4.952   6.013
  236SOL    HW2 1608   4.479   5.042   6.091
  237SOL     OW 1609   6.223   3.181   2.861
  237SOL    HW1 1610   6.141   3.237   2.857
  237SOL    HW2 1611   6.216   3.106   2.795
  238SOL     OW 1612   6.627   1.630   0.613
  238SOL    HW1 1613   6.563   1.705   0.596
  238SOL    HW2 1614   6.718   1.657   0.582
  239SOL     OW 1615   1.411   3.390   0.469
  239SOL    HW1 1616   1.350   3.311   0.462
  239SOL    HW2 1617   1.429   3.410   0.565
  240SOL     OW 1618   5.635   3.223   3.235
  240SOL    HW1 1619   5.656   3.234   3.332
  240SOL    HW2 1620   5.718   3.233   3.181
  241SOL     OW 1621   3.214   1.762   4.048
  241SOL    HW1 1622   3.301   1.752   4.097
  241SOL    HW2 1623   3.195   1.677   3.997
  242SOL     OW 1624   3.304   3.579   2.969
  242SOL    HW1 1625   3.316   3.656   2.906
  242SOL    HW2 1626   3.390   3.564   3.019
  243SOL     OW 1627   4.213   2.521   6.081
  243SOL    HW1 1628   4.148   2.493   6.010
  243SOL    HW2 1629   4.299   2.548   6.038
  244SOL     OW 1630   4.941   3.498   5.280
  244SOL    HW1 1631   4.988   3.574   5.325
  244SOL    HW2 1632   4.864   3.534   5.227
  245SOL     OW 1633   3.806   1.550   2.912
  245SOL    HW1 1634   3.715   1.569   2.874
  245SOL    HW2 1635   3.867   1.521   2.839
  246SOL     OW 1636   6.583   1.726   2.263
  246SOL    HW1 1637   6.574   1.638   2.310
  246SOL    HW2 1638   6.549   1.799   2.321
  247SOL     OW 1639   1.755   1.110   1.379
  247SOL    HW1 1640   1.657   1.091   1.384
  247SOL    HW2 1641   1.777   1.186   1.441
  248SOL     OW 1642   1.647   2.519   2.162
  248SOL    HW1 1643   1.620   2.534   2.067
  248SOL    HW2 1644   1.743   2.544   2.173
  249SOL     OW 1645   5.063   5.680   5.191
  249SOL    HW1 1646   5.066   5.601   5.252
  249SOL    HW2 1647   5.051   5.763   5.246
  250SOL     OW 1648   4.199   2.809   0.793
  250SOL    HW1 1649   4.251   2.844   0.872
  250SOL    HW2 1650   4.238   2.847   0.709
  251SOL     OW 1651   4.055   4.101   5.752
  251SOL    HW1 1652   4.099   4.170   5.695
  251SOL    HW2 1653   4.024   4.143   5.838
  252SOL     OW 1654   6.505   6.409   5.410
  252SOL    HW1 1655   6.556   6.326   5.392
  252SOL    HW2 1656   6.438   6.424   5.337
  253SOL     OW 1657   3.684   6.212   6.363
  253SOL    HW1 1658   3.633   6.297   6.358
  253SOL    HW2 1659   3.690   6.172   6.271
  254SOL     OW 1660   5.528   2.483   4.925
  254SOL    HW1 1661   5.449   2.431   4.955
  254SOL    HW2 1662   5.499   2.574   4.895
  255SOL     OW 1663   1.814   4.089   6.052
  255SOL    HW1 1664   1.851   3.997   6.044
  255SOL    HW2 1665   1.715   4.087   6.035
  256SOL     OW 1666   5.059   2.471   5.040
  256SOL    HW1 1667   5.149   2.490   5.078
  256SOL    HW2 1668   5.068   2.408   4.963
  257SOL     OW 1669   4.889   0.018   2.669
  257SOL    HW1 1670   4.802   0.030   2.622
  257SOL    HW2 1671   4.962   0.063   2.617
  258SOL     OW 1672   1.823   2.810   5.474
  258SOL    HW1 1673   1.732   2.769   5.484
  258SOL    HW2 1674   1.892   2.744   5.502
  259SOL     OW 1675   3.865   7.012   3.999
  259SOL    HW1 1676   3.828   7.014   4.092
  259SOL    HW2 1677   3.894   6.919   3.977
  260SOL     OW 1678   3.663   5.448   3.747
  260SOL    HW1 1679   3.704   5.364   3.711
  260SOL    HW2 1680   3.617   5.497   3.673
  261SOL     OW 1681   4.059   4.892   0.266
  261SOL    HW1 1682   4.135   4.904   0.331
  261SOL    HW2 1683   4.094   4.899   0.173
  262SOL     OW 1684   1.766   3.957   6.453
  262SOL    HW1 1685   1.783   3.963   6.551
  262SOL    HW2 1686   1.671   3.984   6.434
  263SOL     OW 1687   1.197   6.104   3.923
  263SOL    HW1 1688   1.226   6.182   3.867
  263SOL    HW2 1689   1.183   6.135   4.017
  264SOL     OW 1690   6.901   3.521   6.760
  264SOL    HW1 1691   6.820   3.580   6.751
  264SOL    HW2 1692   6.959   3.555   6.834
  265SOL     OW 1693   6.463   6.912   4.175
  265SOL    HW1 1694   6.529   6.907   4.250
  265SOL    HW2 1695   6.427   6.821   4.156
  266SOL     OW 1696   3.512   0.632   5.795
  266SOL    HW1 1697   3.500   0.718   5.845
  266SOL    HW2 1698   3.609   0.607   5.795
  267SOL     OW 1699   1.482   0.988   4.393
  267SOL    HW1 1700   1.519   0.991   4.300
  267SOL    HW2 1701   1.408   0.921   4.397
  268SOL     OW 1702   3.512   1.541   1.545
  268SOL    HW1 1703   3.591   1.572   1.491
  268SOL    HW2 1704   3.456   1.480   1.489
  269SOL     OW 1705   4.539   1.839   0.230
  269SOL    HW1 1706   4.605   1.909   0.203
  269SOL    HW2 1707   4.515   1.783   0.151
  270SOL     OW 1708   5.759   7.008   0.275
  270SOL    HW1 1709   5.839   6.966   0.232
  270SOL    HW2 1710   5.770   0.086   0.274
  271SOL     OW 1711   1.348   3.202   6.035
  271SOL    HW1 1712   1.316   3.111   6.060
  271SOL    HW2 1713   1.371   3.253   6.118
  272SOL     OW 1714   2.844   6.609   4.054
  272SOL    HW1 1715   2.918   6.629   3.990
  272SOL    HW2 1716   2.881   6.603   4.146
  273SOL     OW 1717   1.676   4.899   6.347
  273SOL    HW1 1718   1.717   4.812   6.319
  273SOL    HW2 1719   1.662   4.898   6.446
  274SOL     OW 1720   4.910   1.968   3.731
  274SOL    HW1 1721   4.915   2.061   3.695
  274SOL    HW2 1722   4.881   1.906   3.657
  275SOL     OW 1723   6.455   6.488   2.175
  275SOL    HW1 1724   6.391   6.495   2.252
  275SOL    HW2 1725   6.502   6.400   2.179
  276SOL     OW 1726   0.603   1.293   4.607
  276SOL    HW1 1727   0.641   1.376   4.646
  276SOL    HW2 1728   0.674   1.223   4.602
  277SOL     OW 1729   1.861   3.841   1.172
  277SOL    HW1 1730   1.906   3.912   1.118
  277SOL    HW2 1731   1.833   3.879   1.261
  278SOL     OW 1732   0.494   2.931   2.192
  278SOL    HW1 1733   0.573   2.893   2.241
  278SOL    HW2 1734   0.494   2.898   2.098
  279SOL     OW 1735   6.022   1.978   4.129
  279SOL    HW1 1736   6.109   1.936   4.155
  279SOL    HW2 1737   6.033   2.026   4.042
  280SOL     OW 1738   1.923   4.335   2.098
  280SOL    HW1 1739   1.936   4.248   2.052
  280SOL    HW2 1740   1.828   4.341   2.131
  281SOL     OW 1741   2.270   4.576   1.302
  281SOL    HW1 1742   2.181   4.532   1.298
  281SOL    HW2 1743   2.340   4.509   1.328
  282SOL     OW 1744   3.163   2.365   6.037
  282SOL    HW1 1745   3.130   2.427   6.108
  282SOL    HW2 1746   3.113   2.384   5.952
  283SOL     OW 1747   4.454   2.620   5.973
  283SOL    HW1 1748   4.486   2.668   5.892
  283SOL    HW2 1749   4.529   2.569   6.014
  284SOL     OW 1750   1.206   3.503   3.981
  284SOL    HW1 1751   1.154   3.562   4.042
  284SOL    HW2 1752   1.211   3.411   4.020
  285SOL     OW 1753   5.573   4.688   4.504
  285SOL    HW1 1754   5.585   4.767   4.444
  285SOL    HW2 1755   5.511   4.622   4.460
  286SOL     OW 1756   2.892   3.517   6.483
  286SOL    HW1 1757   2.859   3.526   6.577
  286SOL    HW2 1758   2.904   3.421   6.460
  287SOL     OW 1759   1.625   3.510   0.002
  287SOL    HW1 1760   1.659   3.601   0.026
  287SOL    HW2 1761   1.540   3.491   0.052
  288SOL     OW 1762   4.991   3.072   0.260
  288SOL    HW1 1763   5.053   3.139   0.219
  288SOL    HW2 1764   4.922   3.046   0.192
  289SOL     OW 1765   3.084   4.800   6.312
  289SOL    HW1 1766   3.038   4.759   6.391
  289SOL    HW2 1767   3.094   4.731   6.240
  290SOL     OW 1768   0.464   1.458   5.159
  290SOL    HW1 1769   0.513   1.409   5.087
  290SOL    HW2 1770   0.468   1.557   5.142
  291SOL     OW 1771   0.178   2.520   2.822
  291SOL    HW1 1772   0.244   2.446   2.814
  291SOL    HW2 1773   0.224   2.603   2.854
  292SOL     OW 1774   2.273   6.976   4.167
  292SOL    HW1 1775   2.262   6.924   4.082
  292SOL    HW2 1776   2.189   6.972   4.220
  293SOL     OW 1777   3.620   4.889   3.478
  293SOL    HW1 1778   3.708   4.873   3.433
  293SOL    HW2 1779   3.547   4.889   3.410
  294SOL     OW 1780   4.655   0.078   6.765
  294SOL    HW1 1781   4.585   0.008   6.752
  294SOL    HW2 1782   4.619   0.167   6.736
  295SOL     OW 1783   5.200   6.910   3.731
  295SOL    HW1 1784   5.278   6.956   3.775
  295SOL    HW2 1785   5.219   6.898   3.634
  296SOL     OW 1786   2.360   1.611   3.447
  296SOL    HW1 1787   2.301   1.629   3.368
  296SOL    HW2 1788   2.304   1.578   3.523
  297SOL     OW 1789   1.999   4.512   3.241
  297SOL    HW1 1790   2.017   4.424   3.285
  297SOL    HW2 1791   2.060   4.581   3.278
  298SOL     OW 1792   6.218   5.294   0.348
  298SOL    HW1 1793   6.239   5.219   0.285
  298SOL    HW2 1794   6.260   5.277   0.436
  299SOL     OW 1795   6.379   2.499   4.477
  299SOL    HW1 1796   6.290   2.522   4.516
  299SOL    HW2 1797   6.390   2.546   4.390
  300SOL     OW 1798   6.438   0.169   2.232
  300SOL    HW1 1799   6.352   0.204   2.269
  300SOL    HW2 1800   6.433   0.070   2.224
  301SOL     OW 1801   5.161   3.657   5.947
  301SOL    HW1 1802   5.145   3.752   5.921
  301SOL    HW2 1803   5.119   3.640   6.036
  302SOL     OW 1804   1.198   0.018   3.605
  302SOL    HW1 1805   1.195   6.996   3.515
  302SOL    HW2 1806   1.287   0.001   3.648
  303SOL     OW 1807   6.067   6.688   3.151
  303SOL    HW1 1808   6.024   6.643   3.073
  303SOL    HW2 1809   5.999   6.741   3.201
  304SOL     OW 1810   2.920   6.962   3.232
  304SOL    HW1 1811   2.940   7.011   3.148
  304SOL    HW2 1812   2.979   6.882   3.239
  305SOL     OW 1813   1.295   3.791   1.808
  305SOL    HW1 1814   1.354   3.711   1.795
  305SOL    HW2 1815   1.219   3.767   1.868
  306SOL     OW 1816   2.676   0.253   3.429
  306SOL    HW1 1817   2.760   0.291   3.391
  306SOL    HW2 1818   2.599   0.278   3.371
  307SOL     OW 1819   3.529   0.100   1.141
  307SOL    HW1 1820   3.479   0.164   1.083
  307SOL    HW2 1821   3.602   0.149   1.189
  308SOL     OW 1822   0.680   4.944   4.783
  308SOL    HW1 1823   0.656   5.015   4.717
  308SOL    HW2 1824   0.775   4.917   4.769
  309SOL     OW 1825   4.059   5.174   5.228
  309SOL    HW1 1826   4.013   5.170   5.317
  309SOL    HW2 1827   4.148   5.129   5.235
  310SOL     OW 1828   0.812   6.647   6.113
  310SOL    HW1 1829   0.851   6.731   6.151
  310SOL    HW2 1830   0.847   6.568   6.164
  311SOL     OW 1831   0.484   0.232   1.534
  311SOL    HW1 1832   0.512   0.171   1.460
  311SOL    HW2 1833   0.402   0.196   1.578
  312SOL     OW 1834   3.698   1.729   4.543
  312SOL    HW1 1835   3.599   1.716   4.539
  312SOL    HW2 1836   3.742   1.640   4.558
  313SOL     OW 1837   0.270   4.796   1.400
  313SOL    HW1 1838   0.342   4.734   1.369
  313SOL    HW2 1839   0.198   4.800   1.332
  314SOL     OW 1840   3.062   6.204   1.306
  314SOL    HW1 1841   3.013   6.160   1.381
  314SOL    HW2 1842   2.996   6.236   1.237
  315SOL     OW 1843   1.055   3.104   2.863
  315SOL    HW1 1844   1.130   3.043   2.890
  315SOL    HW2 1845   0.973   3.080   2.914
  316SOL     OW 1846   2.228   3.010   4.358
  316SOL    HW1 1847   2.249   2.928   4.412
  316SOL    HW2 1848   2.202   3.084   4.420
  317SOL     OW 1849   6.493   1.504   0.107
  317SOL    HW1 1850   6.463   1.600   0.103
  317SOL    HW2 1851   6.438   1.450   0.043
  318SOL     OW 1852   2.258   5.063   1.260
  318SOL    HW1 1853   2.315   5.118   1.320
  318SOL    HW2 1854   2.165   5.061   1.294
  319SOL     OW 1855   1.381   0.280   0.347
  319SOL    HW1 1856   1.474   0.313   0.333
  319SOL    HW2 1857   1.333   0.340   0.412
  320SOL     OW 1858   5.177   3.703   0.656
  320SOL    HW1 1859   5.148   3.759   0.578
  320SOL    HW2 1860   5.128   3.616   0.654
  321SOL     OW 1861   1.976   1.536   1.190
  321SOL    HW1 1862   2.040   1.537   1.114
  321SOL    HW2 1863   1.913   1.458   1.179
  322SOL     OW 1864   3.230   3.040   4.746
  322SOL    HW1 1865   3.169   3.096   4.689
  322SOL    HW2 1866   3.201   3.045   4.841
  323SOL     OW 1867   0.427   3.950   2.064
  323SOL    HW1 1868   0.493   3.955   2.138
  323SOL    HW2 1869   0.357   4.020   2.076
  324SOL     OW 1870   0.652   3.176   4.383
  324SOL    HW1 1871   0.575   3.204   4.440
  324SOL    HW2 1872   0.734   3.226   4.410
  325SOL     OW 1873   2.448   2.608   3.279
  325SOL    HW1 1874   2.388   2.536   3.316
  325SOL    HW2 1875   2.405   2.697   3.292
  326SOL     OW 1876   2.468   4.609   5.583
  326SOL    HW1 1877   2.509   4.665   5.655
  326SOL    HW2 1878   2.368   4.614   5.590
  327SOL     OW 1879   6.447   5.325   5.683
  327SOL    HW1 1880   6.380   5.344   5.613
  327SOL    HW2 1881   6.537   5.310   5.641
  328SOL     OW 1882   2.796   5.754   2.076
  328SOL    HW1 1883   2.821   5.755   2.173
  328SOL    HW2 1884   2.708   5.708   2.065
  329SOL     OW 1885   3.444   3.228   2.350
  329SOL    HW1 1886   3.403   3.160   2.411
  329SOL    HW2 1887   3.416   3.320   2.380
  330SOL     OW 1888   3.787   1.123   1.859
  330SOL    HW1 1889   3.710   1.180   1.829
  330SOL    HW2 1890   3.755   1.055   1.925
  331SOL     OW 1891   5.831   5.125   5.946
  331SOL    HW1 1892   5.797   5.031   5.942
  331SOL    HW2 1893   5.774   5.183   5.887
  332SOL     OW 1894   4.458   1.898   3.362
  332SOL    HW1 1895   4.371   1.877   3.316
  332SOL    HW2 1896   4.529   1.837   3.326
  333SOL     OW 1897   4.033   6.241   6.920
  333SOL    HW1 1898   4.099   6.168   6.906
  333SOL    HW2 1899   4.076   6.330   6.903
  334SOL     OW 1900   4.568   6.744   2.748
  334SOL    HW1 1901   4.581   6.801   2.668
  334SOL    HW2 1902   4.563   6.648   2.720
  335SOL     OW 1903   3.056   6.571   3.183
  335SOL    HW1 1904   3.086   6.618   3.266
  335SOL    HW2 1905   3.066   6.633   3.105
  336SOL     OW 1906   2.994   0.436   5.117
  336SOL    HW1 1907   2.976   0.471   5.025
  336SOL    HW2 1908   3.085   0.396   5.120
  337SOL     OW 1909   0.508   4.231   1.161
  337SOL    HW1 1910   0.574   4.273   1.098
  337SOL    HW2 1911   0.437   4.185   1.108
  338SOL     OW 1912   2.935   2.284   1.671
  338SOL    HW1 1913   2.960   2.349   1.742
  338SOL    HW2 1914   3.005   2.283   1.600
  339SOL     OW 1915   4.131   0.605   2.954
  339SOL    HW1 1916   4.182   0.530   2.911
  339SOL    HW2 1917   4.194   0.663   3.006
  340SOL     OW 1918   4.930   3.637   4.565
  340SOL    HW1 1919   4.904   3.559   4.621
  340SOL    HW2 1920   4.848   3.689   4.539
  341SOL     OW 1921   5.371   4.618   5.232
  341SOL    HW1 1922   5.423   4.687   5.182
  341SOL    HW2 1923   5.290   4.661   5.273
  342SOL     OW 1924   5.300   3.527   0.424
  342SOL    HW1 1925   5.366   3.574   0.483
  342SOL    HW2 1926   5.318   3.429   0.424
  343SOL     OW 1927   2.514   0.627   3.288
  343SOL    HW1 1928   2.438   0.692   3.277
  343SOL    HW2 1929   2.506   0.554   3.220
  344SOL     OW 1930   3.596   5.375   6.924
  344SOL    HW1 1931   3.678   5.428   6.904
  344SOL    HW2 1932   3.620   5.278   6.929
  345SOL     OW 1933   0.975   6.740   5.924
  345SOL    HW1 1934   0.909   6.683   5.973
  345SOL    HW2 1935   0.930   6.786   5.848
  346SOL     OW 1936   2.889   0.252   4.164
  346SOL    HW1 1937   2.832   0.248   4.246
  346SOL    HW2 1938   2.830   0.264   4.084
  347SOL     OW 1939   4.717   6.110   6.017
  347SOL    HW1 1940   4.691   6.194   6.065
  347SOL    HW2 1941   4.644   6.043   6.025
  348SOL     OW 1942   3.116   5.804   2.503
  348SOL    HW1 1943   3.058   5.813   2.585
  348SOL    HW2 1944   3.158   5.713   2.503
  349SOL     OW 1945   2.098   4.963   1.717
  349SOL    HW1 1946   2.122   4.866   1.714
  349SOL    HW2 1947   2.008   4.976   1.677
  350SOL     OW 1948   4.296   2.920   1.048
  350SOL    HW1 1949   4.211   2.903   1.097
  350SOL    HW2 1950   4.292   3.009   1.003
  351SOL     OW 1951   3.238   1.660   0.408
  351SOL    HW1 1952   3.229   1.702   0.317
  351SOL    HW2 1953   3.243   1.732   0.477
  352SOL     OW 1954   3.910   1.424   6.414
  352SOL    HW1 1955   3.872   1.453   6.326
  352SOL    HW2 1956   3.946   1.503   6.463
  353SOL     OW 1957   2.031   0.072   1.384
  353SOL    HW1 1958   2.033   0.125   1.299
  353SOL    HW2 1959   2.031   0.135   1.462
  354SOL     OW 1960   4.921   1.543   2.219
  354SOL    HW1 1961   4.939   1.622   2.161
  354SOL    HW2 1962   4.877   1.471   2.166
  355SOL     OW 1963   1.734   1.426   1.942
  355SOL    HW1 1964   1.744   1.357   1.870
  355SOL    HW2 1965   1.646   1.472   1.932
  356SOL     OW 1966   3.890   6.186   2.839
  356SOL    HW1 1967   3.920   6.259   2.778
  356SOL    HW2 1968   3.903   6.214   2.934
  357SOL     OW 1969   1.805   4.551   5.810
  357SOL    HW1 1970   1.871   4.489   5.852
  357SOL    HW2 1971   1.854   4.629   5.768
  358SOL     OW 1972   5.218   1.748   2.243
  358SOL    HW1 1973   5.180   1.669   2.195
  358SOL    HW2 1974   5.229   1.824   2.180
  359SOL     OW 1975   1.430   2.152   1.234
  359SOL    HW1 1976   1.485   2.154   1.151
  359SOL    HW2 1977   1.489   2.164   1.314
  360SOL     OW 1978   4.288   6.311   1.032
  360SOL    HW1 1979   4.358   6.251   1.070
  360SOL    HW2 1980   4.276   6.390   1.092
  361SOL     OW 1981   3.755   0.375   3.272
  361SOL    HW1 1982   3.833   0.413   3.322
  361SOL    HW2 1983   3.741   0.428   3.188
  362SOL     OW 1984   3.016   3.839   0.725
  362SOL    HW1 1985   3.098   3.896   0.736
  362SOL    HW2 1986   3.030   3.775   0.649
  363SOL     OW 1987   4.220   4.712   3.799
  363SOL    HW1 1988   4.234   4.666   3.887
  363SOL    HW2 1989   4.160   4.791   3.812
  364SOL     OW 1990   1.770   6.165   5.855
  364SOL    HW1 1991   1.711   6.213   5.920
  364SOL    HW2 1992   1.714   6.108   5.795
  365SOL     OW 1993   4.814   6.778   2.837
  365SOL    HW1 1994   4.722   6.754   2.805
  365SOL    HW2 1995   4.863   6.826   2.764
  366SOL     OW 1996   4.899   6.605   0.373
  366SOL    HW1 1997   4.895   6.662   0.455
  366SOL    HW2 1998   4.994   6.587   0.350
  367SOL     OW 1999   4.739   1.849   1.510
  367SOL    HW1 2000   4.825   1.823   1.467
  367SOL    HW2 2001   4.754   1.928   1.570
  368SOL     OW 2002   1.667   5.119   5.814
  368SOL    HW1 2003   1.574   5.151   5.831
  368SOL    HW2 2004   1.729   5.160   5.881
  369SOL     OW 2005   0.574   3.478   1.340
  369SOL    HW1 2006   0.484   3.442   1.318
  369SOL    HW2 2007   0.603   3.444   1.430
  370SOL     OW 2008   3.612   1.372   6.417
  370SOL    HW1 2009   3.704   1.389   6.453
  370SOL    HW2 2010   3.563   1.458   6.408
  371SOL     OW 2011   4.118   2.982   6.036
  371SOL    HW1 2012   4.056   2.973   5.959
  371SOL    HW2 2013   4.091   2.918   6.108
  372SOL     OW 2014   1.355   5.170   6.994
  372SOL    HW1 2015   1.317   5.087   0.013
  372SOL    HW2 2016   1.449   5.153   6.966
  373SOL     OW 2017   6.811   6.643   0.857
  373SOL    HW1 2018   6.790   6.727   0.907
  373SOL    HW2 2019   6.897   6.604   0.893
  374SOL     OW 2020   3.866   0.989   1.190
  374SOL    HW1 2021   3.845   0.933   1.110
  374SOL    HW2 2022   3.961   1.021   1.184
  375SOL     OW 2023   7.002   4.215   1.841
  375SOL    HW1 2024   6.930   4.149   1.820
  375SOL    HW2 2025   6.969   4.281   1.908
  376SOL     OW 2026   2.129   3.162   4.599
  376SOL    HW1 2027   2.175   3.169   4.687
  376SOL    HW2 2028   2.043   3.213   4.602
  377SOL     OW 2029   4.568   1.790   4.553
  377SOL    HW1 2030   4.647   1.758   4.605
  377SOL    HW2 2031   4.583   1.884   4.522
  378SOL     OW 2032   4.696   2.648   4.122
  378SOL    HW1 2033   4.667   2.642   4.217
  378SOL    HW2 2034   4.624   2.614   4.062
  379SOL     OW 2035   6.993   2.813   1.494
  379SOL    HW1 2036   0.022   2.898   1.475
  379SOL    HW2 2037   0.013   2.738   1.444
  380SOL     OW 2038   1.385   2.169   0.249
  380SOL    HW1 2039   1.479   2.136   0.242
  380SOL    HW2 2040   1.383   2.251   0.307
  381SOL     OW 2041   3.391   3.975   0.297
  381SOL    HW1 2042   3.405   4.071   0.277
  381SOL    HW2 2043   3.479   3.927   0.296
  382SOL     OW 2044   1.860   5.077   0.632
  382SOL    HW1 2045   1.903   5.052   0.718
  382SOL    HW2 2046   1.764   5.049   0.633
  383SOL     OW 2047   6.490   2.130   0.054
  383SOL    HW1 2048   6.537   2.178   7.002
  383SOL    HW2 2049   6.508   2.176   0.141
  384SOL     OW 2050   2.091   5.298   5.017
  384SOL    HW1 2051   2.021   5.254   4.961
  384SOL    HW2 2052   2.050   5.328   5.104
  385SOL     OW 2053   5.048   5.410   1.451
  385SOL    HW1 2054   5.026   5.379   1.358
  385SOL    HW2 2055   4.971   5.462   1.488
  386SOL     OW 2056   2.750   6.615   4.882
  386SOL    HW1 2057   2.811   6.691   4.862
  386SOL    HW2 2058   2.800   6.529   4.880
  387SOL     OW 2059   6.901   6.980   5.978
  387SOL    HW1 2060   6.908   6.975   6.078
  387SOL    HW2 2061   6.838   0.032   5.953
  388SOL     OW 2062   0.106   2.228   4.931
  388SOL    HW1 2063   0.084   2.134   4.903
  388SOL    HW2 2064   0.065   2.292   4.865
  389SOL     OW 2065   5.197   4.621   1.804
  389SOL    HW1 2066   5.237   4.693   1.746
  389SOL    HW2 2067   5.269   4.579   1.859
  390SOL     OW 2068   3.797   2.508   6.991
  390SOL    HW1 2069   3.767   2.533   6.899
  390SOL    HW2 2070   3.860   2.578   0.004
  391SOL     OW 2071   3.426   4.129   3.669
  391SOL    HW1 2072   3.510   4.080   3.692
  391SOL    HW2 2073   3.377   4.153   3.753
  392SOL     OW 2074   1.486   3.945   1.580
  392SOL    HW1 2075   1.474   4.036   1.620
  392SOL    HW2 2076   1.441   3.941   1.490
  393SOL     OW 2077   1.405   5.603   1.067
  393SOL    HW1 2078   1.417   5.696   1.033
  393SOL    HW2 2079   1.313   5.593   1.106
  394SOL     OW 2080   6.184   1.100   6.854
  394SOL    HW1 2081   6.121   1.168   6.817
  394SOL    HW2 2082   6.248   1.072   6.784
  395SOL     OW 2083   5.825   4.731   0.476
  395SOL    HW1 2084   5.878   4.728   0.561
  395SOL    HW2 2085   5.839   4.818   0.430
  396SOL     OW 2086   1.337   0.380   1.429
  396SOL    HW1 2087   1.416   0.320   1.417
  396SOL    HW2 2088   1.256   0.336   1.391
  397SOL     OW 2089   4.123   1.947   4.494
  397SOL    HW1 2090   4.047   2.000   4.532
  397SOL    HW2 2091   4.121   1.954   4.394
  398SOL     OW 2092   0.215   0.809   3.179
  398SOL    HW1 2093   0.226   0.886   3.243
  398SOL    HW2 2094   0.304   0.789   3.137
  399SOL     OW 2095   5.842   5.676   3.861
  399SOL    HW1 2096   5.812   5.770   3.879
  399SOL    HW2 2097   5.811   5.617   3.936
  400SOL     OW 2098   6.275   6.780   3.563
  400SOL    HW1 2099   6.249   6.761   3.658
  400SOL    HW2 2100   6.327   6.702   3.528
  401SOL     OW 2101   1.028   5.363   5.191
  401SOL    HW1 2102   0.958   5.432   5.169
  401SOL    HW2 2103   0.984   5.284   5.233
  402SOL     OW 2104   5.706   1.824   3.837
  402SOL    HW1 2105   5.778   1.765   3.874
  402SOL    HW2 2106   5.630   1.767   3.805
  403SOL     OW 2107   2.825   1.949   5.361
  403SOL    HW1 2108   2.738   1.953   5.312
  403SOL    HW2 2109   2.809   1.966   5.459
  404SOL     OW 2110   3.202   5.842   3.465
  404SOL    HW1 2111   3.277   5.826   3.529
  404SOL    HW2 2112   3.237   5.839   3.371
  405SOL     OW 2113   2.836   5.205   4.434
  405SOL    HW1 2114   2.885   5.262   4.367
  405SOL    HW2 2115   2.874   5.113   4.433
  406SOL     OW 2116   0.180   0.377   6.134
  406SOL    HW1 2117   0.198   0.440   6.058
  406SOL    HW2 2118   0.182   0.283   6.100
  407SOL     OW 2119   2.285   2.954   4.087
  407SOL    HW1 2120   2.283   2.991   4.180
  407SOL    HW2 2121   2.352   2.880   4.082
  408SOL     OW 2122   2.041   2.371   2.769
  408SOL    HW1 2123   2.046   2.355   2.868
  408SOL    HW2 2124   2.039   2.469   2.751
  409SOL     OW 2125   0.373   2.756   2.894
  409SOL    HW1 2126   0.394   2.845   2.852
  409SOL    HW2 2127   0.456   2.720   2.937
  410SOL     OW 2128   1.820   2.582   1.543
  410SOL    HW1 2129   1.801   2.679   1.531
  410SOL    HW2 2130   1.912   2.561   1.510
  411SOL     OW 2131   6.415   1.963   0.592
  411SOL    HW1 2132   6.407   1.872   0.552
  411SOL    HW2 2133   6.324   2.001   0.607
  412SOL     OW 2134   1.715   5.183   2.850
  412SOL    HW1 2135   1.712   5.112   2.780
  412SOL    HW2 2136   1.797   5.239   2.836
  413SOL     OW 2137   6.454   5.091   1.876
  413SOL    HW1 2138   6.460   5.084   1.777
  413SOL    HW2 2139   6.503   5.173   1.906
  414SOL     OW 2140   2.269   0.170   3.471
  414SOL    HW1 2141   2.215   0.194   3.390
  414SOL    HW2 2142   2.319   0.250   3.504
  415SOL     OW 2143   5.464   1.719   6.509
  415SOL    HW1 2144   5.504   1.796   6.559
  415SOL    HW2 2145   5.537   1.660   6.474
  416SOL     OW 2146   5.854   3.193   5.853
  416SOL    HW1 2147   5.944   3.232   5.876
  416SOL    HW2 2148   5.785   3.230   5.915
  417SOL     OW 2149   2.001   2.242   6.173
  417SOL    HW1 2150   2.071   2.231   6.103
  417SOL    HW2 2151   1.970   2.337   6.174
  418SOL     OW 2152   3.532   6.839   5.223
  418SOL    HW1 2153   3.535   6.739   5.216
  418SOL    HW2 2154   3.438   6.868   5.239
  419SOL     OW 2155   5.991   0.636   0.650
  419SOL    HW1 2156   6.015   0.539   0.656
  419SOL    HW2 2157   6.064   0.687   0.606
  420SOL     OW 2158   3.655   6.427   0.626
  420SOL    HW1 2159   3.677   6.501   0.564
  420SOL    HW2 2160   3.568   6.446   0.673
  421SOL     OW 2161   4.784   4.230   2.338
  421SOL    HW1 2162   4.715   4.286   2.382
  421SOL    HW2 2163   4.866   4.285   2.321
  422SOL     OW 2164   4.693   2.040   1.701
  422SOL    HW1 2165   4.688   2.113   1.633
  422SOL    HW2 2166   4.615   2.049   1.764
  423SOL     OW 2167   3.193   1.013   6.182
  423SOL    HW1 2168   3.191   0.941   6.251
  423SOL    HW2 2169   3.154   1.097   6.220
  424SOL     OW 2170   1.889   3.934   4.422
  424SOL    HW1 2171   1.951   3.933   4.344
  424SOL    HW2 2172   1.942   3.935   4.507
  425SOL     OW 2173   3.669   1.375   0.061
  425SOL    HW1 2174   3.692   1.439   7.009
  425SOL    HW2 2175   3.583   1.403   0.104
  426SOL     OW 2176   2.927   1.987   4.467
  426SOL    HW1 2177   2.941   2.026   4.558
  426SOL    HW2 2178   2.830   1.989   4.444
  427SOL     OW 2179   5.059   2.073   3.403
  427SOL    HW1 2180   4.982   2.070   3.467
  427SOL    HW2 2181   5.141   2.037   3.449
  428SOL     OW 2182   2.673   2.356   6.634
  428SOL    HW1 2183   2.705   2.285   6.571
  428SOL    HW2 2184   2.575   2.370   6.621
  429SOL     OW 2185   0.670   5.957   3.787
  429SOL    HW1 2186   0.671   5.873   3.840
  429SOL    HW2 2187   0.583   6.005   3.802
  430SOL     OW 2188   1.981   0.218   4.658
  430SOL    HW1 2189   1.899   0.163   4.642
  430SOL    HW2 2190   1.956   0.306   4.698
  431SOL     OW 2191   2.841   1.614   1.017
  431SOL    HW1 2192   2.804   1.593   0.927
  431SOL    HW2 2193   2.914   1.682   1.009
  432SOL     OW 2194   4.788   1.526   1.256
  432SOL    HW1 2195   4.752   1.537   1.348
  432SOL    HW2 2196   4.715   1.494   1.195
  433SOL     OW 2197   1.967   4.529   0.706
  433SOL    HW1 2198   1.904   4.499   0.635
  433SOL    HW2 2199   2.055   4.483   0.695
  434SOL     OW 2200   4.227   5.459   3.230
  434SOL    HW1 2201   4.244   5.378   3.175
  434SOL    HW2 2202   4.291   5.531   3.204
  435SOL     OW 2203   3.776   2.806   6.047
  435SOL    HW1 2204   3.837   2.815   6.126
  435SOL    HW2 2205   3.823   2.840   5.965
  436SOL     OW 2206   5.339   5.912   1.612
  436SOL    HW1 2207   5.366   5.913   1.708
  436SOL    HW2 2208   5.244   5.881   1.604
  437SOL     OW 2209   6.572   1.435   5.068
  437SOL    HW1 2210   6.545   1.518   5.019
  437SOL    HW2 2211   6.491   1.380   5.088
  438SOL     OW 2212   0.628   4.394   2.749
  438SOL    HW1 2213   0.529   4.391   2.763
  438SOL    HW2 2214   0.649   4.444   2.665
  439SOL     OW 2215   0.109   0.628   5.405
  439SOL    HW1 2216   0.048   0.638   5.483
  439SOL    HW2 2217   0.202   0.611   5.438
  440SOL     OW 2218   4.529   1.904   0.679
  440SOL    HW1 2219   4.576   1.853   0.607
  440SOL    HW2 2220   4.595   1.929   0.750
  441SOL     OW 2221   0.185   4.709   2.235
  441SOL    HW1 2222   0.147   4.781   2.293
  441SOL    HW2 2223   0.247   4.652   2.289
  442SOL     OW 2224   4.280   3.564   5.162
  442SOL    HW1 2225   4.307   3.646   5.211
  442SOL    HW2 2226   4.270   3.488   5.227
  443SOL     OW 2227   4.895   2.827   3.176
  443SOL    HW1 2228   4.962   2.754   3.160
  443SOL    HW2 2229   4.867   2.866   3.088
  444SOL     OW 2230   3.749   2.009   1.502
  444SOL    HW1 2231   3.695   1.945   1.558
  444SOL    HW2 2232   3.764   2.094   1.553
  445SOL     OW 2233   2.407   5.348   2.912
  445SOL    HW1 2234   2.331   5.320   2.853
  445SOL    HW2 2235   2.375   5.359   3.006
  446SOL     OW 2236   6.619   6.901   1.989
  446SOL    HW1 2237   6.657   6.916   2.080
  446SOL    HW2 2238   6.617   6.988   1.940
  447SOL     OW 2239   5.762   3.953   0.331
  447SOL    HW1 2240   5.699   3.944   0.408
  447SOL    HW2 2241   5.853   3.975   0.365
  448SOL     OW 2242   3.395   6.365   3.785
  448SOL    HW1 2243   3.397   6.461   3.811
  448SOL    HW2 2244   3.301   6.340   3.760
  449SOL     OW 2245   1.000   3.938   4.236
  449SOL    HW1 2246   1.020   4.035   4.248
  449SOL    HW2 2247   1.047   3.904   4.154
  450SOL     OW 2248   6.813   4.218   3.126
  450SOL    HW1 2249   6.843   4.264   3.210
  450SOL    HW2 2250   6.880   4.149   3.100
  451SOL     OW 2251   1.385   2.069   0.673
  451SOL    HW1 2252   1.354   2.028   0.587
  451SOL    HW2 2253   1.468   2.024   0.704
  452SOL     OW 2254   4.215   5.452   2.162
  452SOL    HW1 2255   4.305   5.446   2.205
  452SOL    HW2 2256   4.151   5.496   2.226
  453SOL     OW 2257   3.987   1.390   0.095
  453SOL    HW1 2258   3.967   1.488   0.093
  453SOL    HW2 2259   3.930   1.343   0.027
  454SOL     OW 2260   0.325   3.448   4.550
  454SOL    HW1 2261   0.240   3.417   4.593
  454SOL    HW2 2262   0.332   3.548   4.559
  455SOL     OW 2263   5.401   5.230   6.074
  455SOL    HW1 2264   5.436   5.308   6.022
  455SOL    HW2 2265   5.303   5.220   6.057
  456SOL     OW 2266   2.066   0.536   2.796
  456SOL    HW1 2267   2.097   0.631   2.787
  456SOL    HW2 2268   2.139   0.481   2.836
  457SOL     OW 2269   2.345   6.537   0.013
  457SOL    HW1 2270   2.396   6.527   0.098
  457SOL    HW2 2271   2.294   6.623   0.015
  458SOL     OW 2272   3.875   1.397   3.174
  458SOL    HW1 2273   3.837   1.399   3.266
  458SOL    HW2 2274   3.816   1.449   3.112
  459SOL     OW 2275   3.385   0.574   3.145
  459SOL    HW1 2276   3.434   0.492   3.115
  459SOL    HW2 2277   3.429   0.611   3.226
  460SOL     OW 2278   0.768   1.672   6.113
  460SOL    HW1 2279   0.753   1.769   6.094
  460SOL    HW2 2280   0.847   1.640   6.062
  461SOL     OW 2281   1.208   6.288   5.612
  461SOL    HW1 2282   1.166   6.205   5.575
  461SOL    HW2 2283   1.175   6.304   5.705
  462SOL     OW 2284   3.013   3.969   4.871
  462SOL    HW1 2285   2.943   3.916   4.919
  462SOL    HW2 2286   3.059   3.911   4.804
  463SOL     OW 2287   5.851   5.939   3.404
  463SOL    HW1 2288   5.765   5.988   3.392
  463SOL    HW2 2289   5.888   5.914   3.315
  464SOL     OW 2290   4.379   5.468   5.170
  464SOL    HW1 2291   4.458   5.443   5.225
  464SOL    HW2 2292   4.308   5.508   5.229
  465SOL     OW 2293   0.434   4.585   0.003
  465SOL    HW1 2294   0.527   4.568   0.035
  465SOL    HW2 2295   0.388   4.498   7.008
  466SOL     OW 2296   4.038   5.075   4.075
  466SOL    HW1 2297   3.969   5.136   4.038
  466SOL    HW2 2298   4.098   5.126   4.137
  467SOL     OW 2299   6.543   0.642   1.918
  467SOL    HW1 2300   6.525   0.576   1.845
  467SOL    HW2 2301   6.608   0.603   1.983
  468SOL     OW 2302   2.576   6.078   6.026
  468SOL    HW1 2303   2.653   6.070   6.090
  468SOL    HW2 2304   2.575   6.170   5.987
  469SOL     OW 2305   3.088   4.802   5.075
  469SOL    HW1 2306   3.142   4.792   5.158
  469SOL    HW2 2307   3.019   4.730   5.071
  470SOL     OW 2308   1.719   4.912   3.324
  470SOL    HW1 2309   1.792   4.953   3.269
  470SOL    HW2 2310   1.732   4.813   3.328
  471SOL     OW 2311   1.837   1.813   3.645
  471SOL    HW1 2312   1.762   1.873   3.674
  471SOL    HW2 2313   1.803   1.749   3.576
  472SOL     OW 2314   5.360   3.990   6.700
  472SOL    HW1 2315   5.393   3.994   6.605
  472SOL    HW2 2316   5.408   4.059   6.754
  473SOL     OW 2317   5.050   3.408   2.565
  473SOL    HW1 2318   5.106   3.484   2.535
  473SOL    HW2 2319   4.974   3.395   2.501
  474SOL     OW 2320   5.113   5.367   3.842
  474SOL    HW1 2321   5.075   5.392   3.753
  474SOL    HW2 2322   5.090   5.438   3.909
  475SOL     OW 2323   5.796   1.421   1.096
  475SOL    HW1 2324   5.876   1.480   1.106
  475SOL    HW2 2325   5.716   1.465   1.138
  476SOL     OW 2326   1.180   3.870   0.105
  476SOL    HW1 2327   1.151   3.808   0.177
  476SOL    HW2 2328   1.112   3.942   0.093
  477SOL     OW 2329   0.538   5.422   2.810
  477SOL    HW1 2330   0.525   5.468   2.723
  477SOL    HW2 2331   0.550   5.490   2.883
  478SOL     OW 2332   6.267   6.038   2.910
  478SOL    HW1 2333   6.361   6.010   2.891
  478SOL    HW2 2334   6.257   6.056   3.008
  479SOL     OW 2335   2.921   3.399   2.826
  479SOL    HW1 2336   2.994   3.426   2.764
  479SOL    HW2 2337   2.832   3.423   2.787
  480SOL     OW 2338   0.777   0.926   2.309
  480SOL    HW1 2339   0.854   0.943   2.247
  480SOL    HW2 2340   0.792   0.839   2.357
  481SOL     OW 2341   5.796   7.018   0.926
  481SOL    HW1 2342   5.871   6.956   0.902
  481SOL    HW2 2343   5.833   0.087   0.946
  482SOL     OW 2344   3.871   4.930   2.795
  482SOL    HW1 2345   3.864   4.866   2.718
  482SOL    HW2 2346   3.814   4.899   2.870
  483SOL     OW 2347   5.895   1.054   3.947
  483SOL    HW1 2348   5.956   0.986   3.906
  483SOL    HW2 2349   5.870   1.025   4.040
  484SOL     OW 2350   1.763   4.969   3.580
  484SOL    HW1 2351   1.685   4.957   3.643
  484SOL    HW2 2352   1.732   4.957   3.486
  485SOL     OW 2353   5.213   2.022   0.988
  485SOL    HW1 2354   5.156   1.997   1.066
  485SOL    HW2 2355   5.164   2.004   0.903
  486SOL     OW 2356   5.778   0.155   5.835
  486SOL    HW1 2357   5.801   0.126   5.742
  486SOL    HW2 2358   5.747   0.250   5.834
  487SOL     OW 2359   0.365   0.708   6.644
  487SOL    HW1 2360   0.354   0.616   6.681
  487SOL    HW2 2361   0.294   0.768   6.680
  488SOL     OW 2362   2.074   5.935   3.560
  488SOL    HW1 2363   2.079   5.896   3.652
  488SOL    HW2 2364   1.999   6.001   3.557
  489SOL     OW 2365   3.005   5.056   5.325
  489SOL    HW1 2366   3.070   5.099   5.387
  489SOL    HW2 2367   3.045   4.973   5.286
  490SOL     OW 2368   1.567   3.437   4.702
  490SOL    HW1 2369   1.605   3.476   4.618
  490SOL    HW2 2370   1.584   3.498   4.778
  491SOL     OW 2371   5.813   2.934   0.943
  491SOL    HW1 2372   5.811   2.910   1.040
  491SOL    HW2 2373   5.825   2.851   0.888
  492SOL     OW 2374   1.473   2.503   5.789
  492SOL    HW1 2375   1.488   2.479   5.693
  492SOL    HW2 2376   1.377   2.487   5.813
  493SOL     OW 2377   1.944   5.886   4.379
  493SOL    HW1 2378   2.008   5.816   4.346
  493SOL    HW2 2379   1.915   5.943   4.303
  494SOL     OW 2380   3.002   0.875   4.545
  494SOL    HW1 2381   2.992   0.863   4.644
  494SOL    HW2 2382   2.924   0.928   4.510
  495SOL     OW 2383   3.666   4.258   0.019
  495SOL    HW1 2384   3.749   4.308   0.044
  495SOL    HW2 2385   3.688   4.163   7.020
  496SOL     OW 2386   5.090   1.032   3.257
  496SOL    HW1 2387   5.073   1.121   3.301
  496SOL    HW2 2388   5.187   1.025   3.235
  497SOL     OW 2389   4.361   2.193   0.694
  497SOL    HW1 2390   4.396   2.233   0.778
  497SOL    HW2 2391   4.347   2.095   0.707
  498SOL     OW 2392   0.217   0.724   1.193
  498SOL    HW1 2393   0.236   0.816   1.226
  498SOL    HW2 2394   0.187   0.667   1.269
  499SOL     OW 2395   3.104   6.129   0.104
  499SOL    HW1 2396   3.147   6.132   0.014
  499SOL    HW2 2397   3.022   6.185   0.104
  500SOL     OW 2398   5.610   1.963   6.077
  500SOL    HW1 2399   5.593   1.921   6.167
  500SOL    HW2 2400   5.553   2.045   6.069
  501SOL     OW 2401   2.110   1.632   4.964
  501SOL    HW1 2402   2.155   1.631   4.874
  501SOL    HW2 2403   2.059   1.546   4.976
  502SOL     OW 2404   2.544   4.070   6.819
  502SOL    HW1 2405   2.451   4.048   6.790
  502SOL    HW2 2406   2.544   4.156   6.870
  503SOL     OW 2407   3.380   5.174   1.351
  503SOL    HW1 2408   3.380   5.093   1.293
  503SOL    HW2 2409   3.333   5.249   1.304
  504SOL     OW 2410   6.140   6.716   0.442
  504SOL    HW1 2411   6.136   6.805   0.486
  504SOL    HW2 2412   6.233   6.682   0.444
  505SOL     OW 2413   5.878   4.835   5.428
  505SOL    HW1 2414   5.790   4.879   5.446
  505SOL    HW2 2415   5.866   4.736   5.429
  506SOL     OW 2416   3.253   4.892   2.770
  506SOL    HW1 2417   3.311   4.962   2.811
  506SOL    HW2 2418   3.308   4.835   2.709
  507SOL     OW 2419   3.447   0.438   1.985
  507SOL    HW1 2420   3.426   0.392   1.899
  507SOL    HW2 2421   3.365   0.443   2.042
  508SOL     OW 2422   0.521   4.732   3.561
  508SOL    HW1 2423   0.517   4.633   3.545
  508SOL    HW2 2424   0.597   4.753   3.622
  509SOL     OW 2425   4.218   0.173   6.336
  509SOL    HW1 2426   4.268   0.130   6.410
  509SOL    HW2 2427   4.164   0.250   6.372
  510SOL     OW 2428   6.582   4.350   0.586
  510SOL    HW1 2429   6.532   4.301   0.657
  510SOL    HW2 2430   6.518   4.381   0.515
  511SOL     OW 2431   0.841   1.370   6.949
  511SOL    HW1 2432   0.833   1.426   0.010
  511SOL    HW2 2433   0.804   1.420   6.871
  512SOL     OW 2434   0.442   2.583   3.966
  512SOL    HW1 2435   0.362   2.643   3.960
  512SOL    HW2 2436   0.430   2.521   4.043
  513SOL     OW 2437   5.509   6.786   2.864
  513SOL    HW1 2438   5.591   6.832   2.898
  513SOL    HW2 2439   5.507   6.792   2.764
  514SOL     OW 2440   4.893   1.377   4.915
  514SOL    HW1 2441   4.963   1.321   4.958
  514SOL    HW2 2442   4.910   1.474   4.936
  515SOL     OW 2443   3.353   0.921   6.934
  515SOL    HW1 2444   3.453   0.929   6.928
  515SOL    HW2 2445   3.319   0.869   6.856
  516SOL     OW 2446   1.752   5.882   1.835
  516SOL    HW1 2447   1.754   5.879   1.735
  516SOL    HW2 2448   1.659   5.904   1.866
  517SOL     OW 2449   3.727   5.391   1.663
  517SOL    HW1 2450   3.670   5.428   1.736
  517SOL    HW2 2451   3.718   5.448   1.581
  518SOL     OW 2452   2.144   5.722   4.302
  518SOL    HW1 2453   2.189   5.633   4.301
  518SOL    HW2 2454   2.211   5.794   4.280
  519SOL     OW 2455   6.661   0.287   2.300
  519SOL    HW1 2456   6.576   0.239   2.276
  519SOL    HW2 2457   6.685   0.269   2.395
  520SOL     OW 2458   2.190   4.831   0.869
  520SOL    HW1 2459   2.177   4.805   0.965
  520SOL    HW2 2460   2.125   4.782   0.812
  521SOL     OW 2461   6.204   5.697   5.832
  521SOL    HW1 2462   6.276   5.714   5.900
  521SOL    HW2 2463   6.156   5.783   5.812
  522SOL     OW 2464   3.665   3.940   0.218
  522SOL    HW1 2465   3.669   3.965   0.121
  522SOL    HW2 2466   3.729   3.997   0.269
  523SOL     OW 2467   1.735   6.729   6.551
  523SOL    HW1 2468   1.707   6.792   6.623
  523SOL    HW2 2469   1.656   6.704   6.495
  524SOL     OW 2470   0.111   1.197   0.729
  524SOL    HW1 2471   0.120   1.295   0.750
  524SOL    HW2 2472   0.042   1.157   0.788
  525SOL     OW 2473   0.550   2.801   3.425
  525SOL    HW1 2474   0.470   2.861   3.428
  525SOL    HW2 2475   0.577   2.778   3.518
  526SOL     OW 2476   4.549   0.388   4.220
  526SOL    HW1 2477   4.497   0.349   4.296
  526SOL    HW2 2478   4.596   0.314   4.170
  527SOL     OW 2479   0.559   1.126   1.176
  527SOL    HW1 2480   0.512   1.063   1.115
  527SOL    HW2 2481   0.505   1.209   1.187
  528SOL     OW 2482   0.120   2.583   4.278
  528SOL    HW1 2483   0.179   2.540   4.209
  528SOL    HW2 2484   0.026   2.550   4.266
  529SOL     OW 2485   1.625   0.709   6.008
  529SOL    HW1 2486   1.644   0.698   5.910
  529SOL    HW2 2487   1.695   0.768   6.049
  530SOL     OW 2488   3.022   4.828   1.120
  530SOL    HW1 2489   3.029   4.735   1.083
  530SOL    HW2 2490   3.036   4.825   1.219
  531SOL     OW 2491   1.118   0.327   6.768
  531SOL    HW1 2492   1.167   0.339   6.855
  531SOL    HW2 2493   1.136   0.405   6.709
  532SOL     OW 2494   2.884   1.141   5.975
  532SOL    HW1 2495   2.825   1.155   5.896
  532SOL    HW2 2496   2.978   1.168   5.952
  533SOL     OW 2497   4.149   0.120   4.176
  533SOL    HW1 2498   4.115   0.046   4.233
  533SOL    HW2 2499   4.077   0.187   4.160
  534SOL     OW 2500   1.727   4.091   1.906
  534SOL    HW1 2501   1.759   4.058   1.995
  534SOL    HW2 2502   1.647   4.150   1.919
  535SOL     OW 2503   5.276   4.157   4.287
  535SOL    HW1 2504   5.260   4.065   4.250
  535SOL    HW2 2505   5.373   4.181   4.277
  536SOL     OW 2506   6.386   6.298   1.424
  536SOL    HW1 2507   6.408   6.376   1.484
  536SOL    HW2 2508   6.465   6.277   1.366
  537SOL     OW 2509   2.657   1.779   2.426
  537SOL    HW1 2510   2.701   1.831   2.353
  537SOL    HW2 2511   2.597   1.841   2.478
  538SOL     OW 2512   3.745   4.781   5.258
  538SOL    HW1 2513   3.827   4.726   5.280
  538SOL    HW2 2514   3.675   4.721   5.219
  539SOL     OW 2515   2.254   0.256   6.588
  539SOL    HW1 2516   2.231   0.165   6.621
  539SOL    HW2 2517   2.354   0.266   6.583
  540SOL     OW 2518   1.786   0.726   5.152
  540SOL    HW1 2519   1.874   0.711   5.197
  540SOL    HW2 2520   1.781   0.821   5.121
  541SOL     OW 2521   5.390   6.134   3.775
  541SOL    HW1 2522   5.339   6.097   3.697
  541SOL    HW2 2523   5.448   6.063   3.815
  542SOL     OW 2524   3.830   6.374   6.058
  542SOL    HW1 2525   3.786   6.318   5.987
  542SOL    HW2 2526   3.830   6.470   6.029
  543SOL     OW 2527   5.952   2.863   3.615
  543SOL    HW1 2528   5.963   2.956   3.651
  543SOL    HW2 2529   5.881   2.816   3.668
  544SOL     OW 2530   1.193   3.328   1.165
  544SOL    HW1 2531   1.225   3.369   1.251
  544SOL    HW2 2532   1.186   3.229   1.175
  545SOL     OW 2533   6.560   5.526   0.813
  545SOL    HW1 2534   6.519   5.615   0.794
  545SOL    HW2 2535   6.638   5.539   0.875
  546SOL     OW 2536   0.257   4.214   1.900
  546SOL    HW1 2537   0.177   4.211   1.841
  546SOL    HW2 2538   0.232   4.185   1.993
  547SOL     OW 2539   4.527   0.322   6.689
  547SOL    HW1 2540   4.497   0.358   6.778
  547SOL    HW2 2541   4.456   0.338   6.621
  548SOL     OW 2542   3.984   3.244   0.188
  548SOL    HW1 2543   3.913   3.262   0.256
  548SOL    HW2 2544   4.073   3.238   0.233
  549SOL     OW 2545   5.344   1.941   2.869
  549SOL    HW1 2546   5.253   1.936   2.828
  549SOL    HW2 2547   5.413   1.917   2.800
  550SOL     OW 2548   7.001   5.833   3.735
  550SOL    HW1 2549   6.912   5.792   3.716
  550SOL    HW2 2550   0.041   5.764   3.773
  551SOL     OW 2551   5.788   0.307   0.263
  551SOL    HW1 2552   5.725   0.329   0.338
  551SOL    HW2 2553   5.778   0.374   0.190
  552SOL     OW 2554   0.704   7.002   4.950
  552SOL    HW1 2555   0.729   0.075   4.930
  552SOL    HW2 2556   0.786   6.944   4.948
  553SOL     OW 2557   3.639   2.491   6.318
  553SOL    HW1 2558   3.638   2.423   6.245
  553SOL    HW2 2559   3.637   2.445   6.407
  554SOL     OW 2560   6.474   5.675   0.567
  554SOL    HW1 2561   6.456   5.579   0.545
  554SOL    HW2 2562   6.445   5.733   0.491
  555SOL     OW 2563   2.658   3.512   5.432
  555SOL    HW1 2564   2.563   3.490   5.412
  555SOL    HW2 2565   2.662   3.583   5.503
  556SOL     OW 2566   6.308   6.818   3.062
  556SOL    HW1 2567   6.366   6.829   3.143
  556SOL    HW2 2568   6.239   6.748   3.079
  557SOL     OW 2569   5.411   4.252   6.409
  557SOL    HW1 2570   5.366   4.340   6.427
  557SOL    HW2 2571   5.482   4.266   6.340
  558SOL     OW 2572   3.725   3.819   2.453
  558SOL    HW1 2573   3.793   3.887   2.479
  558SOL    HW2 2574   3.683   3.781   2.535
  559SOL     OW 2575   6.938   0.769   6.739
  559SOL    HW1 2576   6.896   0.713   6.811
  559SOL    HW2 2577   6.898   0.746   6.650
  560SOL     OW 2578   6.867   2.722   4.179
  560SOL    HW1 2579   6.820   2.745   4.264
  560SOL    HW2 2580   6.945   2.783   4.167
  561SOL     OW 2581   0.432   3.817   0.370
  561SOL    HW1 2582   0.357   3.750   0.366
  561SOL    HW2 2583   0.480   3.807   0.457
  562SOL     OW 2584   4.313   6.289   4.040
  562SOL    HW1 2585   4.359   6.258   3.957
  562SOL    HW2 2586   4.338   6.384   4.058
  563SOL     OW 2587   1.307   1.158   4.110
  563SOL    HW1 2588   1.307   1.229   4.039
  563SOL    HW2 2589   1.319   1.068   4.067
  564SOL     OW 2590   6.087   1.960   6.337
  564SOL    HW1 2591   6.060   1.895   6.408
  564SOL    HW2 2592   6.058   1.925   6.248
  565SOL     OW 2593   3.715   3.283   3.509
  565SOL    HW1 2594   3.742   3.363   3.562
  565SOL    HW2 2595   3.735   3.200   3.561
  566SOL     OW 2596   2.541   1.602   3.784
  566SOL    HW1 2597   2.441   1.592   3.789
  566SOL    HW2 2598   2.577   1.620   3.875
  567SOL     OW 2599   2.317   2.838   5.513
  567SOL    HW1 2600   2.386   2.828   5.441
  567SOL    HW2 2601   2.340   2.916   5.570
  568SOL     OW 2602   0.753   6.581   6.976
  568SOL    HW1 2603   0.848   6.555   6.959
  568SOL    HW2 2604   0.695   6.545   6.903
  569SOL     OW 2605   5.822   3.388   6.785
  569SOL    HW1 2606   5.813   3.382   6.685
  569SOL    HW2 2607   5.752   3.450   6.821
  570SOL     OW 2608   3.570   0.306   6.029
  570SOL    HW1 2609   3.667   0.299   6.004
  570SOL    HW2 2610   3.543   0.402   6.026
  571SOL     OW 2611   2.406   4.737   1.860
  571SOL    HW1 2612   2.419   4.734   1.959
  571SOL    HW2 2613   2.459   4.665   1.817
  572SOL     OW 2614   3.038   0.864   4.820
  572SOL    HW1 2615   3.093   0.944   4.800
  572SOL    HW2 2616   3.042   0.845   4.919
  573SOL     OW 2617   0.548   0.826   5.200
  573SOL    HW1 2618   0.518   0.771   5.277
  573SOL    HW2 2619   0.615   0.775   5.145
  574SOL     OW 2620   2.306   0.980   5.969
  574SOL    HW1 2621   2.231   1.024   6.017
  574SOL    HW2 2622   2.393   1.013   6.006
  575SOL     OW 2623   3.982   4.128   6.811
  575SOL    HW1 2624   3.970   4.169   6.901
  575SOL    HW2 2625   4.012   4.033   6.821
  576SOL     OW 2626   1.427   0.834   3.080
  576SOL    HW1 2627   1.522   0.864   3.080
  576SOL    HW2 2628   1.396   0.819   2.986
  577SOL     OW 2629   0.389   0.767   1.529
  577SOL    HW1 2630   0.384   0.855   1.483
  577SOL    HW2 2631   0.318   0.761   1.599
  578SOL     OW 2632   3.417   6.606   6.652
  578SOL    HW1 2633   3.418   6.675   6.724
  578SOL    HW2 2634   3.327   6.606   6.607
  579SOL     OW 2635   1.051   3.609   1.913
  579SOL    HW1 2636   1.131   3.572   1.959
  579SOL    HW2 2637   1.008   3.679   1.971
  580SOL     OW 2638   4.591   4.994   4.603
  580SOL    HW1 2639   4.598   5.083   4.559
  580SOL    HW2 2640   4.670   4.938   4.577
  581SOL     OW 2641   2.061   2.360   4.223
  581SOL    HW1 2642   2.143   2.302   4.218
  581SOL    HW2 2643   2.066   2.416   4.306
  582SOL     OW 2644   5.937   4.604   4.784
  582SOL    HW1 2645   6.033   4.578   4.767
  582SOL    HW2 2646   5.877   4.539   4.737
  583SOL     OW 2647   3.745   6.120   5.582
  583SOL    HW1 2648   3.663   6.115   5.524
  583SOL    HW2 2649   3.747   6.042   5.644
  584SOL     OW 2650   4.034   0.304   5.417
  584SOL    HW1 2651   4.019   0.382   5.356
  584SOL    HW2 2652   4.126   0.309   5.455
  585SOL     OW 2653   3.407   6.764   1.810
  585SOL    HW1 2654   3.343   6.836   1.782
  585SOL    HW2 2655   3.378   6.677   1.772
  586SOL     OW 2656   3.761   0.028   0.776
  586SOL    HW1 2657   3.706   0.106   0.747
  586SOL    HW2 2658   3.719   7.007   0.856
  587SOL     OW 2659   4.566   1.474   2.239
  587SOL    HW1 2660   4.537   1.564   2.205
  587SOL    HW2 2661   4.661   1.478   2.270
  588SOL     OW 2662   1.696   4.798   2.953
  588SOL    HW1 2663   1.703   4.717   3.011
  588SOL    HW2 2664   1.761   4.868   2.985
  589SOL     OW 2665   3.331   5.429   0.905
  589SOL    HW1 2666   3.353   5.516   0.949
  589SOL    HW2 2667   3.402   5.406   0.839
  590SOL     OW 2668   2.992   2.075   6.808
  590SOL    HW1 2669   2.947   2.164   6.804
  590SOL    HW2 2670   3.088   2.087   6.835
  591SOL     OW 2671   2.796   6.675   3.768
  591SOL    HW1 2672   2.854   6.732   3.710
  591SOL    HW2 2673   2.763   6.728   3.846
  592SOL     OW 2674   4.342   2.430   4.428
  592SOL    HW1 2675   4.244   2.449   4.429
  592SOL    HW2 2676   4.364   2.377   4.346
  593SOL     OW 2677   1.961   1.557   6.608
  593SOL    HW1 2678   1.920   1.611   6.682
  593SOL    HW2 2679   1.911   1.471   6.599
  594SOL     OW 2680   4.627   1.361   3.299
  594SOL    HW1 2681   4.595   1.299   3.370
  594SOL    HW2 2682   4.655   1.308   3.219
  595SOL     OW 2683   6.095   4.879   2.906
  595SOL    HW1 2684   6.122   4.865   3.001
  595SOL    HW2 2685   6.030   4.808   2.879
  596SOL     OW 2686   6.600   4.923   4.413
  596SOL    HW1 2687   6.642   5.012   4.393
  596SOL    HW2 2688   6.519   4.911   4.356
  597SOL     OW 2689   3.504   1.617   6.461
  597SOL    HW1 2690   3.532   1.695   6.518
  597SOL    HW2 2691   3.408   1.628   6.436
  598SOL     OW 2692   3.507   3.909   3.209
  598SOL    HW1 2693   3.493   3.989   3.268
  598SOL    HW2 2694   3.425   3.893   3.155
  599SOL     OW 2695   1.569   5.247   1.547
  599SOL    HW1 2696   1.572   5.254   1.646
  599SOL    HW2 2697   1.474   5.240   1.516
  600SOL     OW 2698   6.910   3.502   5.567
  600SOL    HW1 2699   6.921   3.596   5.602
  600SOL    HW2 2700   6.895   3.440   5.644
  601SOL     OW 2701   0.361   6.409   5.855
  601SOL    HW1 2702   0.387   6.419   5.759
  601SOL    HW2 2703   0.438   6.437   5.913
  602SOL     OW 2704   1.856   0.768   3.676
  602SOL    HW1 2705   1.827   0.864   3.679
  602SOL    HW2 2706   1.786   0.711   3.719
  603SOL     OW 2707   1.968   1.524   4.147
  603SOL    HW1 2708   2.025   1.519   4.064
  603SOL    HW2 2709   1.964   1.433   4.189
  604SOL     OW 2710   5.788   2.861   1.254
  604SOL    HW1 2711   5.764   2.956   1.274
  604SOL    HW2 2712   5.709   2.803   1.271
  605SOL     OW 2713   6.200   6.393   1.109
  605SOL    HW1 2714   6.183   6.473   1.166
  605SOL    HW2 2715   6.117   6.337   1.104
  606SOL     OW 2716   3.779   6.874   4.901
  606SOL    HW1 2717   3.751   6.779   4.912
  606SOL    HW2 2718   3.775   6.921   4.990
  607SOL     OW 2719   1.809   2.879   6.124
  607SOL    HW1 2720   1.829   2.812   6.052
  607SOL    HW2 2721   1.710   2.880   6.141
  608SOL     OW 2722   3.295   1.364   6.265
  608SOL    HW1 2723   3.351   1.414   6.199
  608SOL    HW2 2724   3.354   1.309   6.324
  609SOL     OW 2725   3.832   3.126   2.431
  609SOL    HW1 2726   3.760   3.183   2.393
  609SOL    HW2 2727   3.883   3.082   2.357
  610SOL     OW 2728   4.847   3.384   1.518
  610SOL    HW1 2729   4.899   3.308   1.556
  610SOL    HW2 2730   4.779   3.349   1.453
  611SOL     OW 2731   4.218   1.444   2.845
  611SOL    HW1 2732   4.265   1.402   2.768
  611SOL    HW2 2733   4.265   1.421   2.930
  612SOL     OW 2734   4.948   5.016   3.550
  612SOL    HW1 2735   4.979   4.925   3.579
  612SOL    HW2 2736   4.911   5.065   3.628
  613SOL     OW 2737   3.873   4.744   6.185
  613SOL    HW1 2738   3.896   4.723   6.280
  613SOL    HW2 2739   3.918   4.829   6.158
  614SOL     OW 2740   2.423   6.651   5.908
  614SOL    HW1 2741   2.396   6.746   5.923
  614SOL    HW2 2742   2.399   6.597   5.989
  615SOL     OW 2743   0.305   4.632   2.843
  615SOL    HW1 2744   0.318   4.533   2.851
  615SOL    HW2 2745   0.210   4.652   2.822
  616SOL     OW 2746   6.029   3.225   3.703
  616SOL    HW1 2747   6.114   3.269   3.731
  616SOL    HW2 2748   5.993   3.171   3.779
  617SOL     OW 2749   3.503   6.449   5.758
  617SOL    HW1 2750   3.565   6.393   5.814
  617SOL    HW2 2751   3.413   6.451   5.801
  618SOL     OW 2752   1.513   0.644   3.686
  618SOL    HW1 2753   1.577   0.720   3.700
  618SOL    HW2 2754   1.505   0.592   3.771
  619SOL     OW 2755   0.742   2.127   6.452
  619SOL    HW1 2756   0.797   2.203   6.486
  619SOL    HW2 2757   0.728   2.060   6.525
  620SOL     OW 2758   4.254   3.497   0.732
  620SOL    HW1 2759   4.250   3.578   0.791
  620SOL    HW2 2760   4.309   3.519   0.651
  621SOL     OW 2761   6.938   5.945   0.636
  621SOL    HW1 2762   6.984   5.863   0.671
  621SOL    HW2 2763   6.844   5.921   0.610
  622SOL     OW 2764   0.631   0.645   6.690
  622SOL    HW1 2765   0.537   0.665   6.664
  622SOL    HW2 2766   0.679   0.730   6.712
  623SOL     OW 2767   0.144   5.371   5.031
  623SOL    HW1 2768   0.196   5.435   5.087
  623SOL    HW2 2769   0.144   5.281   5.075
  624SOL     OW 2770   1.015   1.774   1.183
  624SOL    HW1 2771   0.943   1.837   1.158
  624SOL    HW2 2772   1.048   1.795   1.275
  625SOL     OW 2773   1.510   1.334   3.017
  625SOL    HW1 2774   1.467   1.395   2.950
  625SOL    HW2 2775   1.487   1.239   2.994
  626SOL     OW 2776   3.100   6.391   4.624
  626SOL    HW1 2777   3.182   6.369   4.678
  626SOL    HW2 2778   3.024   6.412   4.685
  627SOL     OW 2779   5.422   6.954   0.176
  627SOL    HW1 2780   5.509   6.939   0.130
  627SOL    HW2 2781   5.366   6.871   0.171
  628SOL     OW 2782   5.699   4.382   3.086
  628SOL    HW1 2783   5.757   4.353   3.010
  628SOL    HW2 2784   5.657   4.301   3.129
  629SOL     OW 2785   1.262   6.630   1.345
  629SOL    HW1 2786   1.259   6.730   1.338
  629SOL    HW2 2787   1.347   6.597   1.305
  630SOL     OW 2788   3.091   1.797   1.061
  630SOL    HW1 2789   3.103   1.867   1.131
  630SOL    HW2 2790   3.178   1.783   1.013
  631SOL     OW 2791   2.612   0.301   4.751
  631SOL    HW1 2792   2.602   0.400   4.761
  631SOL    HW2 2793   2.526   0.262   4.716
  632SOL     OW 2794   3.079   0.411   1.073
  632SOL    HW1 2795   3.020   0.410   0.993
  632SOL    HW2 2796   3.048   0.480   1.138
  633SOL     OW 2797   2.418   6.610   5.265
  633SOL    HW1 2798   2.462   6.601   5.354
  633SOL    HW2 2799   2.351   6.537   5.254
  634SOL     OW 2800   2.892   5.474   1.839
  634SOL    HW1 2801   2.792   5.477   1.836
  634SOL    HW2 2802   2.929   5.499   1.750
  635SOL     OW 2803   2.826   0.340   3.112
  635SOL    HW1 2804   2.894   0.284   3.066
  635SOL    HW2 2805   2.735   0.301   3.097
  636SOL     OW 2806   4.527   5.368   0.074
  636SOL    HW1 2807   4.436   5.368   0.115
  636SOL    HW2 2808   4.533   5.298   0.004
  637SOL     OW 2809   6.058   4.307   0.226
  637SOL    HW1 2810   6.045   4.406   0.219
  637SOL    HW2 2811   6.130   4.279   0.162
  638SOL     OW 2812   5.419   1.267   3.110
  638SOL    HW1 2813   5.399   1.278   3.208
  638SOL    HW2 2814   5.413   1.356   3.065
  639SOL     OW 2815   4.807   4.122   2.086
  639SOL    HW1 2816   4.801   4.148   2.183
  639SOL    HW2 2817   4.720   4.142   2.042
  640SOL     OW 2818   2.124   3.230   5.598
  640SOL    HW1 2819   2.171   3.145   5.573
  640SOL    HW2 2820   2.058   3.211   5.671
  641SOL     OW 2821   0.296   5.970   5.719
  641SOL    HW1 2822   0.255   5.941   5.805
  641SOL    HW2 2823   0.370   6.035   5.737
  642SOL     OW 2824   1.439   4.892   6.184
  642SOL    HW1 2825   1.472   4.843   6.104
  642SOL    HW2 2826   1.513   4.903   6.250
  643SOL     OW 2827   6.010   6.052   5.042
  643SOL    HW1 2828   5.953   5.978   5.007
  643SOL    HW2 2829   6.072   6.016   5.112
  644SOL     OW 2830   2.353   5.800   2.033
  644SOL    HW1 2831   2.312   5.834   2.118
  644SOL    HW2 2832   2.374   5.878   1.974
  645SOL     OW 2833   6.414   2.365   2.888
  645SOL    HW1 2834   6.374   2.426   2.956
  645SOL    HW2 2835   6.456   2.287   2.934
  646SOL     OW 2836   1.066   2.577   4.396
  646SOL    HW1 2837   1.128   2.555   4.320
  646SOL    HW2 2838   1.112   2.560   4.483
  647SOL     OW 2839   5.251   3.139   0.130
  647SOL    HW1 2840   5.285   3.139   0.224
  647SOL    HW2 2841   5.285   3.058   0.082
  648SOL     OW 2842   4.821   2.230   4.047
  648SOL    HW1 2843   4.898   2.178   4.011
  648SOL    HW2 2844   4.787   2.292   3.977
  649SOL     OW 2845   4.351   4.512   1.852
  649SOL    HW1 2846   4.381   4.432   1.903
  649SOL    HW2 2847   4.415   4.530   1.777
  650SOL     OW 2848   5.194   4.179   0.698
  650SOL    HW1 2849   5.109   4.130   0.676
  650SOL    HW2 2850   5.184   4.276   0.675
  651SOL     OW 2851   0.913   6.412   6.201
  651SOL    HW1 2852   0.934   6.324   6.161
  651SOL    HW2 2853   0.819   6.411   6.237
  652SOL     OW 2854   5.108   1.546   2.883
  652SOL    HW1 2855   5.090   1.495   2.967
  652SOL    HW2 2856   5.057   1.505   2.808
  653SOL     OW 2857   3.488   5.064   2.798
  653SOL    HW1 2858   3.497   5.158   2.767
  653SOL    HW2 2859   3.542   5.004   2.740
  654SOL     OW 2860   6.430   5.621   6.441
  654SOL    HW1 2861   6.399   5.563   6.517
  654SOL    HW2 2862   6.519   5.662   6.464
  655SOL     OW 2863   0.398   1.302   0.008
  655SOL    HW1 2864   0.374   1.228   6.967
  655SOL    HW2 2865   0.335   1.302   0.086
  656SOL     OW 2866   2.227   6.145   1.289
  656SOL    HW1 2867   2.226   6.046   1.304
  656SOL    HW2 2868   2.182   6.165   1.201
  657SOL     OW 2869   3.833   1.581   6.983
  657SOL    HW1 2870   3.894   1.655   6.955
  657SOL    HW2 2871   3.772   1.612   0.034
  658SOL     OW 2872   3.841   5.357   6.258
  658SOL    HW1 2873   3.858   5.455   6.249
  658SOL    HW2 2874   3.891   5.321   6.336
  659SOL     OW 2875   3.997   0.391   5.701
  659SOL    HW1 2876   3.911   0.340   5.709
  659SOL    HW2 2877   3.991   0.456   5.626
  660SOL     OW 2878   3.823   5.577   3.291
  660SOL    HW1 2879   3.844   5.557   3.387
  660SOL    HW2 2880   3.853   5.500   3.234
  661SOL     OW 2881   5.971   5.696   2.759
  661SOL    HW1 2882   6.056   5.745   2.739
  661SOL    HW2 2883   5.991   5.614   2.811
  662SOL     OW 2884   3.846   1.489   0.380
  662SOL    HW1 2885   3.911   1.426   0.337
  662SOL    HW2 2886   3.804   1.546   0.310
  663SOL     OW 2887   1.781   4.764   4.957
  663SOL    HW1 2888   1.798   4.667   4.944
  663SOL    HW2 2889   1.683   4.779   4.971
  664SOL     OW 2890   5.609   0.494   6.683
  664SOL    HW1 2891   5.684   0.442   6.726
  664SOL    HW2 2892   5.530   0.494   6.744
  665SOL     OW 2893   1.167   4.587   2.199
  665SOL    HW1 2894   1.266   4.585   2.188
  665SOL    HW2 2895   1.131   4.669   2.155
  666SOL     OW 2896   4.531   1.333   1.330
  666SOL    HW1 2897   4.587   1.347   1.412
  666SOL    HW2 2898   4.460   1.404   1.327
  667SOL     OW 2899   1.160   0.026   2.752
  667SOL    HW1 2900   1.126   0.014   2.659
  667SOL    HW2 2901   1.117   0.107   2.793
  668SOL     OW 2902   5.652   3.429   0.569
  668SOL    HW1 2903   5.603   3.515   0.555
  668SOL    HW2 2904   5.601   3.372   0.633
  669SOL     OW 2905   5.060   1.795   2.644
  669SOL    HW1 2906   5.053   1.723   2.575
  669SOL    HW2 2907   5.131   1.860   2.617
  670SOL     OW 2908   3.583   2.123   3.017
  670SOL    HW1 2909   3.582   2.223   3.024
  670SOL    HW2 2910   3.489   2.088   3.022
  671SOL     OW 2911   2.475   6.514   1.974
  671SOL    HW1 2912   2.552   6.458   1.944
  671SOL    HW2 2913   2.389   6.468   1.951
  672SOL     OW 2914   1.016   0.113   2.092
  672SOL    HW1 2915   1.092   0.159   2.046
  672SOL    HW2 2916   1.041   0.018   2.111
  673SOL     OW 2917   5.936   7.016   6.541
  673SOL    HW1 2918   5.960   6.976   6.452
  673SOL    HW2 2919   5.871   0.068   6.528
  674SOL     OW 2920   5.213   0.504   3.926
  674SOL    HW1 2921   5.257   0.544   3.846
  674SOL    HW2 2922   5.118   0.484   3.905
  675SOL     OW 2923   0.370   3.702   3.098
  675SOL    HW1 2924   0.464   3.732   3.116
  675SOL    HW2 2925   0.347   3.721   3.002
  676SOL     OW 2926   2.263   6.325   6.072
  676SOL    HW1 2927   2.232   6.230   6.080
  676SOL    HW2 2928   2.212   6.382   6.137
  677SOL     OW 2929   5.598   1.840   1.172
  677SOL    HW1 2930   5.563   1.866   1.262
  677SOL    HW2 2931   5.690   1.802   1.182
  678SOL     OW 2932   0.908   5.102   3.639
  678SOL    HW1 2933   0.955   5.164   3.577
  678SOL    HW2 2934   0.892   5.015   3.593
  679SOL     OW 2935   4.571   1.902   5.115
  679SOL    HW1 2936   4.557   1.813   5.071
  679SOL    HW2 2937   4.539   1.898   5.209
  680SOL     OW 2938   6.353   6.038   3.986
  680SOL    HW1 2939   6.388   6.000   4.072
  680SOL    HW2 2940   6.292   6.114   4.005
  681SOL     OW 2941   4.704   4.149   2.801
  681SOL    HW1 2942   4.748   4.090   2.733
  681SOL    HW2 2943   4.766   4.162   2.878
  682SOL     OW 2944   0.289   1.550   3.002
  682SOL    HW1 2945   0.328   1.460   2.982
  682SOL    HW2 2946   0.352   1.621   2.969
  683SOL     OW 2947   3.128   4.403   1.288
  683SOL    HW1 2948   3.188   4.350   1.228
  683SOL    HW2 2949   3.143   4.376   1.383
  684SOL     OW 2950   6.593   1.308   5.763
  684SOL    HW1 2951   6.657   1.383   5.747
  684SOL    HW2 2952   6.643   1.221   5.762
  685SOL     OW 2953   2.777   6.943   2.811
  685SOL    HW1 2954   2.814   6.945   2.718
  685SOL    HW2 2955   2.707   7.013   2.820
  686SOL     OW 2956   3.876   0.841   4.933
  686SOL    HW1 2957   3.882   0.932   4.892
  686SOL    HW2 2958   3.966   0.812   4.964
  687SOL     OW 2959   0.227   1.438   3.583
  687SOL    HW1 2960   0.135   1.414   3.613
  687SOL    HW2 2961   0.288   1.444   3.663
  688SOL     OW 2962   5.824   1.449   0.122
  688SOL    HW1 2963   5.857   1.519   0.060
  688SOL    HW2 2964   5.901   1.395   0.157
  689SOL     OW 2965   1.618   5.751   6.858
  689SOL    HW1 2966   1.602   5.838   6.904
  689SOL    HW2 2967   1.563   5.747   6.775
  690SOL     OW 2968   5.625   4.149   3.181
  690SOL    HW1 2969   5.637   4.058   3.141
  690SOL    HW2 2970   5.645   4.146   3.278
  691SOL     OW 2971   6.093   1.611   1.404
  691SOL    HW1 2972   6.047   1.522   1.395
  691SOL    HW2 2973   6.174   1.613   1.346
  692SOL     OW 2974   1.648   0.574   4.817
  692SOL    HW1 2975   1.688   0.657   4.778
  692SOL    HW2 2976   1.720   0.508   4.835
  693SOL     OW 2977   5.919   4.955   3.186
  693SOL    HW1 2978   5.935   4.862   3.219
  693SOL    HW2 2979   6.006   5.004   3.184
  694SOL     OW 2980   4.501   6.050   4.807
  694SOL    HW1 2981   4.547   6.112   4.871
  694SOL    HW2 2982   4.473   6.101   4.725
  695SOL     OW 2983   4.779   6.973   3.952
  695SOL    HW1 2984   4.845   6.924   4.008
  695SOL    HW2 2985   4.827   0.012   3.888
  696SOL     OW 2986   5.620   4.184   2.577
  696SOL    HW1 2987   5.619   4.283   2.592
  696SOL    HW2 2988   5.713   4.154   2.557
  697SOL     OW 2989   1.420   6.218   1.886
  697SOL    HW1 2990   1.330   6.236   1.924
  697SOL    HW2 2991   1.487   6.281   1.925
  698SOL     OW 2992   5.654   5.950   6.551
  698SOL    HW1 2993   5.638   5.972   6.647
  698SOL    HW2 2994   5.642   6.033   6.496
  699SOL     OW 2995   3.417   3.198   0.686
  699SOL    HW1 2996   3.432   3.295   0.663
  699SOL    HW2 2997   3.432   3.185   0.784
  700SOL     OW 2998   4.051   6.776   4.990
  700SOL    HW1 2999   3.959   6.811   4.973
  700SOL    HW2 3000   4.109   6.849   5.026
  701SOL     OW 3001   4.562   5.311   1.164
  701SOL    HW1 3002   4.594   5.282   1.074
  701SOL    HW2 3003   4.556   5.232   1.225
  702SOL     OW 3004   4.228   0.826   4.699
  702SOL    HW1 3005   4.148   0.766   4.704
  702SOL    HW2 3006   4.286   0.799   4.622
  703SOL     OW 3007   2.910   2.711   0.250
  703SOL    HW1 3008   2.862   2.699   0.164
  703SOL    HW2 3009   2.936   2.807   0.260
  704SOL     OW 3010   3.469   1.592   5.416
  704SOL    HW1 3011   3.498   1.571   5.510
  704SOL    HW2 3012   3.487   1.688   5.396
  705SOL     OW 3013   0.329   6.215   5.413
  705SOL    HW1 3014   0.387   6.156   5.469
  705SOL    HW2 3015   0.277   6.159   5.348
  706SOL     OW 3016   3.515   1.116   4.678
  706SOL    HW1 3017   3.534   1.059   4.758
  706SOL    HW2 3018   3.572   1.085   4.601
  707SOL     OW 3019   2.724   5.363   4.183
  707SOL    HW1 3020   2.654   5.335   4.249
  707SOL    HW2 3021   2.738   5.462   4.189
  708SOL     OW 3022   4.874   5.966   4.059
  708SOL    HW1 3023   4.839   6.057   4.083
  708SOL    HW2 3024   4.971   5.960   4.086
  709SOL     OW 3025   2.332   0.800   1.217
  709SOL    HW1 3026   2.245   0.751   1.226
  709SOL    HW2 3027   2.314   0.896   1.198
  710SOL     OW 3028   5.233   3.176   1.934
  710SOL    HW1 3029   5.134   3.185   1.927
  710SOL    HW2 3030   5.260   3.082   1.914
  711SOL     OW 3031   0.281   1.630   0.374
  711SOL    HW1 3032   0.361   1.648   0.318
  711SOL    HW2 3033   0.270   1.531   0.385
  712SOL     OW 3034   4.965   3.782   0.009
  712SOL    HW1 3035   4.878   3.746   0.043
  712SOL    HW2 3036   5.003   3.718   6.964
  713SOL     OW 3037   4.299   3.829   5.282
  713SOL    HW1 3038   4.290   3.929   5.282
  713SOL    HW2 3039   4.391   3.805   5.313
  714SOL     OW 3040   5.358   5.901   2.937
  714SOL    HW1 3041   5.367   5.850   3.023
  714SOL    HW2 3042   5.424   5.866   2.871
  715SOL     OW 3043   6.189   4.569   5.425
  715SOL    HW1 3044   6.265   4.612   5.376
  715SOL    HW2 3045   6.224   4.499   5.487
  716SOL     OW 3046   3.069   2.159   3.391
  716SOL    HW1 3047   3.003   2.149   3.316
  716SOL    HW2 3048   3.020   2.179   3.476
  717SOL     OW 3049   5.143   5.116   3.997
  717SOL    HW1 3050   5.102   5.198   3.958
  717SOL    HW2 3051   5.237   5.136   4.025
  718SOL     OW 3052   5.932   2.356   5.178
  718SOL    HW1 3053   5.852   2.412   5.199
  718SOL    HW2 3054   5.946   2.289   5.252
  719SOL     OW 3055   5.141   6.545   3.436
  719SOL    HW1 3056   5.158   6.470   3.372
  719SOL    HW2 3057   5.044   6.570   3.433
  720SOL     OW 3058   2.789   1.342   1.098
  720SOL    HW1 3059   2.802   1.437   1.070
  720SOL    HW2 3060   2.752   1.339   1.191
  721SOL     OW 3061   6.972   2.572   2.041
  721SOL    HW1 3062   6.912   2.603   2.115
  721SOL    HW2 3063   7.010   2.652   1.993
  722SOL     OW 3064   4.943   5.951   0.832
  722SOL    HW1 3065   4.907   5.948   0.739
  722SOL    HW2 3066   4.956   6.046   0.860
  723SOL     OW 3067   2.352   0.221   4.640
  723SOL    HW1 3068   2.306   0.275   4.710
  723SOL    HW2 3069   2.322   0.125   4.647
  724SOL     OW 3070   0.900   1.944   4.472
  724SOL    HW1 3071   0.814   1.939   4.422
  724SOL    HW2 3072   0.889   1.901   4.562
  725SOL     OW 3073   1.895   4.513   2.976
  725SOL    HW1 3074   1.958   4.530   3.051
  725SOL    HW2 3075   1.823   4.450   3.006
  726SOL     OW 3076   1.548   3.718   1.134
  726SOL    HW1 3077   1.629   3.776   1.134
  726SOL    HW2 3078   1.569   3.631   1.179
  727SOL     OW 3079   3.576   5.197   4.542
  727SOL    HW1 3080   3.640   5.145   4.599
  727SOL    HW2 3081   3.622   5.228   4.459
  728SOL     OW 3082   6.662   2.965   3.713
  728SOL    HW1 3083   6.619   2.881   3.680
  728SOL    HW2 3084   6.685   2.955   3.810
  729SOL     OW 3085   0.710   4.343   1.027
  729SOL    HW1 3086   0.783   4.284   1.060
  729SOL    HW2 3087   0.730   4.438   1.051
  730SOL     OW 3088   4.158   1.363   3.251
  730SOL    HW1 3089   4.071   1.406   3.223
  730SOL    HW2 3090   4.178   1.287   3.189
  731SOL     OW 3091   4.463   4.656   4.201
  731SOL    HW1 3092   4.547   4.646   4.148
  731SOL    HW2 3093   4.486   4.683   4.295
  732SOL     OW 3094   3.743   0.715   5.113
  732SOL    HW1 3095   3.681   0.783   5.152
  732SOL    HW2 3096   3.792   0.753   5.035
  733SOL     OW 3097   6.235   5.272   3.605
  733SOL    HW1 3098   6.211   5.341   3.673
  733SOL    HW2 3099   6.180   5.285   3.523
  734SOL     OW 3100   6.233   6.899   2.546
  734SOL    HW1 3101   6.198   6.899   2.452
  734SOL    HW2 3102   6.327   6.933   2.546
  735SOL     OW 3103   4.358   0.098   2.066
  735SOL    HW1 3104   4.430   0.094   2.135
  735SOL    HW2 3105   4.395   0.135   1.981
  736SOL     OW 3106   2.220   1.586   3.719
  736SOL    HW1 3107   2.146   1.625   3.775
  736SOL    HW2 3108   2.210   1.487   3.716
  737SOL     OW 3109   3.572   1.110   6.438
  737SOL    HW1 3110   3.567   1.210   6.446
  737SOL    HW2 3111   3.631   1.086   6.362
  738SOL     OW 3112   2.141   4.673   0.176
  738SOL    HW1 3113   2.054   4.722   0.187
  738SOL    HW2 3114   2.217   4.736   0.193
  739SOL     OW 3115   2.118   0.006   3.670
  739SOL    HW1 3116   2.156   0.041   3.584
  739SOL    HW2 3117   2.161   0.052   3.747
  740SOL     OW 3118   4.937   3.609   3.113
  740SOL    HW1 3119   5.010   3.662   3.158
  740SOL    HW2 3120   4.907   3.536   3.175
  741SOL     OW 3121   3.057   1.119   3.008
  741SOL    HW1 3122   3.085   1.086   3.098
  741SOL    HW2 3123   2.971   1.075   2.982
  742SOL     OW 3124   2.152   5.986   1.628
  742SOL    HW1 3125   2.075   5.946   1.579
  742SOL    HW2 3126   2.139   6.085   1.636
  743SOL     OW 3127   0.819   6.282   2.855
  743SOL    HW1 3128   0.919   6.272   2.855
  743SOL    HW2 3129   0.785   6.272   2.761
  744SOL     OW 3130   5.133   1.685   0.050
  744SOL    HW1 3131   5.071   1.693   6.993
  744SOL    HW2 3132   5.163   1.590   0.059
  745SOL     OW 3133   2.451   6.654   4.610
  745SOL    HW1 3134   2.406   6.641   4.522
  745SOL    HW2 3135   2.466   6.565   4.653
  746SOL     OW 3136   0.195   5.044   4.660
  746SOL    HW1 3137   0.161   5.135   4.684
  746SOL    HW2 3138   0.236   5.047   4.568
  747SOL     OW 3139   4.685   5.820   2.694
  747SOL    HW1 3140   4.681   5.829   2.595
  747SOL    HW2 3141   4.779   5.831   2.725
  748SOL     OW 3142   5.717   5.092   1.334
  748SOL    HW1 3143   5.765   5.152   1.397
  748SOL    HW2 3144   5.718   4.998   1.370
  749SOL     OW 3145   5.055   4.513   4.877
  749SOL    HW1 3146   4.974   4.457   4.861
  749SOL    HW2 3147   5.058   4.588   4.810
  750SOL     OW 3148   2.266   2.016   2.677
  750SOL    HW1 3149   2.190   1.995   2.616
  750SOL    HW2 3150   2.248   1.979   2.768
  751SOL     OW 3151   3.388   0.652   0.785
  751SOL    HW1 3152   3.312   0.708   0.752
  751SOL    HW2 3153   3.375   0.633   0.883
  752SOL     OW 3154   3.738   2.777   5.173
  752SOL    HW1 3155   3.638   2.773   5.177
  752SOL    HW2 3156   3.773   2.707   5.111
  753SOL     OW 3157   3.657   4.129   4.136
  753SOL    HW1 3158   3.661   4.114   4.235
  753SOL    HW2 3159   3.742   4.097   4.094
  754SOL     OW 3160   5.419   0.390   0.420
  754SOL    HW1 3161   5.458   0.301   0.442
  754SOL    HW2 3162   5.320   0.381   0.409
  755SOL     OW 3163   4.470   4.470   5.373
  755SOL    HW1 3164   4.441   4.468   5.277
  755SOL    HW2 3165   4.476   4.377   5.409
  756SOL     OW 3166   2.331   4.946   6.326
  756SOL    HW1 3167   2.289   4.998   6.400
  756SOL    HW2 3168   2.326   4.999   6.241
  757SOL     OW 3169   2.011   5.985   1.913
  757SOL    HW1 3170   1.921   5.945   1.895
  757SOL    HW2 3171   2.071   5.971   1.834
  758SOL     OW 3172   4.989   0.762   4.351
  758SOL    HW1 3173   5.020   0.838   4.407
  758SOL    HW2 3174   5.050   0.684   4.364
  759SOL     OW 3175   0.508   3.609   3.783
  759SOL    HW1 3176   0.457   3.539   3.834
  759SOL    HW2 3177   0.582   3.566   3.732
  760SOL     OW 3178   6.719   4.952   3.455
  760SOL    HW1 3179   6.688   4.867   3.413
  760SOL    HW2 3180   6.680   4.961   3.546
  761SOL     OW 3181   4.912   5.218   6.551
  761SOL    HW1 3182   4.863   5.235   6.466
  761SOL    HW2 3183   5.010   5.215   6.534
  762SOL     OW 3184   3.799   6.076   3.314
  762SOL    HW1 3185   3.742   6.105   3.237
  762SOL    HW2 3186   3.748   6.012   3.371
  763SOL     OW 3187   5.272   0.456   0.723
  763SOL    HW1 3188   5.182   0.477   0.762
  763SOL    HW2 3189   5.332   0.419   0.793
  764SOL     OW 3190   5.510   6.823   5.527
  764SOL    HW1 3191   5.559   6.785   5.605
  764SOL    HW2 3192   5.419   6.854   5.557
  765SOL     OW 3193   6.404   6.827   0.268
  765SOL    HW1 3194   6.458   6.872   0.198
  765SOL    HW2 3195   6.447   6.840   0.357
  766SOL     OW 3196   2.820   1.554   4.341
  766SOL    HW1 3197   2.820   1.585   4.437
  766SOL    HW2 3198   2.911   1.569   4.302
  767SOL     OW 3199   6.601   5.600   4.115
  767SOL    HW1 3200   6.644   5.690   4.119
  767SOL    HW2 3201   6.515   5.601   4.165
  768SOL     OW 3202   2.040   5.354   3.159
  768SOL    HW1 3203   2.001   5.349   3.068
  768SOL    HW2 3204   1.985   5.415   3.216
  769SOL     OW 3205   3.033   2.079   5.495
  769SOL    HW1 3206   3.034   2.177   5.478
  769SOL    HW2 3207   2.982   2.032   5.423
  770SOL     OW 3208   1.380   5.152   6.119
  770SOL    HW1 3209   1.388   5.153   6.019
  770SOL    HW2 3210   1.376   5.057   6.150
  771SOL     OW 3211   1.337   5.043   2.734
  771SOL    HW1 3212   1.363   4.949   2.711
  771SOL    HW2 3213   1.298   5.045   2.826
  772SOL     OW 3214   5.466   4.422   0.390
  772SOL    HW1 3215   5.522   4.488   0.440
  772SOL    HW2 3216   5.480   4.331   0.429
  773SOL     OW 3217   1.956   4.228   3.838
  773SOL    HW1 3218   1.931   4.194   3.929
  773SOL    HW2 3219   1.928   4.324   3.830
  774SOL     OW 3220   2.253   0.965   3.573
  774SOL    HW1 3221   2.352   0.977   3.579
  774SOL    HW2 3222   2.209   1.053   3.556
  775SOL     OW 3223   1.263   4.708   2.933
  775SOL    HW1 3224   1.288   4.800   2.965
  775SOL    HW2 3225   1.346   4.655   2.916
  776SOL     OW 3226   2.406   5.323   5.965
  776SOL    HW1 3227   2.487   5.339   5.908
  776SOL    HW2 3228   2.339   5.395   5.948
  777SOL     OW 3229   2.088   3.440   6.139
  777SOL    HW1 3230   2.124   3.530   6.164
  777SOL    HW2 3231   2.087   3.381   6.219
  778SOL     OW 3232   3.179   5.558   6.828
  778SOL    HW1 3233   3.205   5.525   6.737
  778SOL    HW2 3234   3.248   5.529   6.894
  779SOL     OW 3235   6.140   2.123   2.983
  779SOL    HW1 3236   6.122   2.212   2.940
  779SOL    HW2 3237   6.226   2.086   2.947
  780SOL     OW 3238   6.730   2.024   5.201
  780SOL    HW1 3239   6.693   2.116   5.189
  780SOL    HW2 3240   6.828   2.025   5.180
  781SOL     OW 3241   0.191   4.513   6.405
  781SOL    HW1 3242   0.285   4.542   6.394
  781SOL    HW2 3243   0.147   4.569   6.476
  782SOL     OW 3244   1.811   3.655   5.489
  782SOL    HW1 3245   1.819   3.744   5.444
  782SOL    HW2 3246   1.813   3.582   5.420
  783SOL     OW 3247   6.244   4.886   6.602
  783SOL    HW1 3248   6.230   4.964   6.540
  783SOL    HW2 3249   6.341   4.869   6.614
  784SOL     OW 3250   2.309   6.245   0.740
  784SOL    HW1 3251   2.313   6.321   0.805
  784SOL    HW2 3252   2.377   6.259   0.668
  785SOL     OW 3253   0.588   1.137   4.343
  785SOL    HW1 3254   0.597   1.064   4.411
  785SOL    HW2 3255   0.563   1.096   4.255
  786SOL     OW 3256   5.997   0.764   3.878
  786SOL    HW1 3257   6.069   0.834   3.879
  786SOL    HW2 3258   6.023   0.688   3.937
  787SOL     OW 3259   2.337   0.236   1.540
  787SOL    HW1 3260   2.428   0.201   1.517
  787SOL    HW2 3261   2.282   0.163   1.581
  788SOL     OW 3262   2.152   2.800   1.969
  788SOL    HW1 3263   2.247   2.775   1.955
  788SOL    HW2 3264   2.093   2.731   1.928
  789SOL     OW 3265   4.097   4.833   2.632
  789SOL    HW1 3266   4.085   4.909   2.568
  789SOL    HW2 3267   4.120   4.750   2.581
  790SOL     OW 3268   0.337   3.303   2.092
  790SOL    HW1 3269   0.238   3.317   2.089
  790SOL    HW2 3270   0.365   3.250   2.013
  791SOL     OW 3271   3.095   6.982   3.721
  791SOL    HW1 3272   3.089   0.015   3.805
  791SOL    HW2 3273   3.003   6.966   3.685
  792SOL     OW 3274   2.205   0.438   0.759
  792SOL    HW1 3275   2.178   0.524   0.802
  792SOL    HW2 3276   2.240   0.457   0.667
  793SOL     OW 3277   2.480   6.385   4.564
  793SOL    HW1 3278   2.404   6.347   4.511
  793SOL    HW2 3279   2.564   6.379   4.511
  794SOL     OW 3280   3.429   2.970   2.672
  794SOL    HW1 3281   3.507   3.030   2.691
  794SOL    HW2 3282   3.344   3.021   2.685
  795SOL     OW 3283   4.813   0.955   5.924
  795SOL    HW1 3284   4.898   1.005   5.941
  795SOL    HW2 3285   4.747   0.974   5.997
  796SOL     OW 3286   0.370   2.458   0.097
  796SOL    HW1 3287   0.424   2.532   0.138
  796SOL    HW2 3288   0.373   2.378   0.156
  797SOL     OW 3289   3.295   6.624   1.441
  797SOL    HW1 3290   3.279   6.617   1.343
  797SOL    HW2 3291   3.248   6.704   1.478
  798SOL     OW 3292   5.215   5.138   1.249
  798SOL    HW1 3293   5.265   5.098   1.326
  798SOL    HW2 3294   5.266   5.217   1.214
  799SOL     OW 3295   2.627   2.637   5.971
  799SOL    HW1 3296   2.560   2.670   5.904
  799SOL    HW2 3297   2.698   2.706   5.983
  800SOL     OW 3298   5.630   2.819   3.167
  800SOL    HW1 3299   5.568   2.870   3.227
  800SOL    HW2 3300   5.651   2.730   3.209
  801SOL     OW 3301   1.762   5.898   6.608
  801SOL    HW1 3302   1.823   5.852   6.673
  801SOL    HW2 3303   1.750   5.840   6.528
  802SOL     OW 3304   4.639   2.601   6.683
  802SOL    HW1 3305   4.653   2.692   6.722
  802SOL    HW2 3306   4.627   2.535   6.757
  803SOL     OW 3307   2.385   1.987   4.276
  803SOL    HW1 3308   2.401   1.979   4.178
  803SOL    HW2 3309   2.402   1.898   4.320
  804SOL     OW 3310   5.243   0.605   2.783
  804SOL    HW1 3311   5.156   0.558   2.800
  804SOL    HW2 3312   5.311   0.539   2.752
  805SOL     OW 3313   3.671   0.582   4.010
  805SOL    HW1 3314   3.666   0.662   3.950
  805SOL    HW2 3315   3.607   0.512   3.978
  806SOL     OW 3316   3.167   6.250   5.378
  806SOL    HW1 3317   3.141   6.347   5.385
  806SOL    HW2 3318   3.227   6.227   5.455
  807SOL     OW 3319   0.995   6.019   5.868
  807SOL    HW1 3320   1.047   6.021   5.782
  807SOL    HW2 3321   0.898   6.012   5.848
  808SOL     OW 3322   5.260   2.907   5.847
  808SOL    HW1 3323   5.221   2.863   5.766
  808SOL    HW2 3324   5.190   2.965   5.890
  809SOL     OW 3325   3.015   5.691   6.978
  809SOL    HW1 3326   3.093   5.644   6.937
  809SOL    HW2 3327   2.934   5.677   6.921
  810SOL     OW 3328   3.435   3.531   0.320
  810SOL    HW1 3329   3.421   3.453   0.381
  810SOL    HW2 3330   3.364   3.532   0.249
  811SOL     OW 3331   6.188   5.482   4.637
  811SOL    HW1 3332   6.272   5.458   4.588
  811SOL    HW2 3333   6.210   5.506   4.732
  812SOL     OW 3334   1.038   3.667   1.593
  812SOL    HW1 3335   1.086   3.588   1.557
  812SOL    HW2 3336   1.031   3.659   1.693
  813SOL     OW 3337   2.159   1.330   5.282
  813SOL    HW1 3338   2.095   1.348   5.207
  813SOL    HW2 3339   2.109   1.329   5.368
  814SOL     OW 3340   0.756   4.158   2.705
  814SOL    HW1 3341   0.704   4.108   2.774
  814SOL    HW2 3342   0.735   4.256   2.713
  815SOL     OW 3343   4.266   2.176   4.643
  815SOL    HW1 3344   4.322   2.258   4.640
  815SOL    HW2 3345   4.305   2.105   4.584
  816SOL     OW 3346   5.702   3.683   6.614
  816SOL    HW1 3347   5.662   3.593   6.634
  816SOL    HW2 3348   5.784   3.671   6.558
  817SOL     OW 3349   0.291   4.852   6.641
  817SOL    HW1 3350   0.247   4.932   6.598
  817SOL    HW2 3351   0.372   4.826   6.588
  818SOL     OW 3352   0.253   1.832   5.109
  818SOL    HW1 3353   0.185   1.857   5.041
  818SOL    HW2 3354   0.235   1.882   5.194
  819SOL     OW 3355   4.979   3.187   1.651
  819SOL    HW1 3356   4.892   3.147   1.623
  819SOL    HW2 3357   5.052   3.118   1.640
  820SOL     OW 3358   2.656   2.217   5.207
  820SOL    HW1 3359   2.739   2.190   5.157
  820SOL    HW2 3360   2.606   2.135   5.234
  821SOL     OW 3361   5.054   3.142   6.707
  821SOL    HW1 3362   5.111   3.087   6.768
  821SOL    HW2 3363   5.067   3.112   6.613
  822SOL     OW 3364   0.569   4.825   3.279
  822SOL    HW1 3365   0.565   4.798   3.375
  822SOL    HW2 3366   0.652   4.786   3.238
  823SOL     OW 3367   1.905   2.938   4.603
  823SOL    HW1 3368   1.851   3.014   4.568
  823SOL    HW2 3369   1.995   2.971   4.630
  824SOL     OW 3370   4.959   0.117   6.540
  824SOL    HW1 3371   4.981   0.142   6.635
  824SOL    HW2 3372   4.865   0.144   6.520
  825SOL     OW 3373   6.113   5.930   0.855
  825SOL    HW1 3374   6.051   5.970   0.788
  825SOL    HW2 3375   6.067   5.925   0.944
  826SOL     OW 3376   3.737   1.901   0.199
  826SOL    HW1 3377   3.669   1.966   0.234
  826SOL    HW2 3378   3.728   1.892   0.100
  827SOL     OW 3379   3.653   3.506   4.975
  827SOL    HW1 3380   3.720   3.482   4.905
  827SOL    HW2 3381   3.561   3.488   4.940
  828SOL     OW 3382   0.389   6.340   6.399
  828SOL    HW1 3383   0.377   6.415   6.463
  828SOL    HW2 3384   0.318   6.344   6.329
  829SOL     OW 3385   3.819   3.665   2.247
  829SOL    HW1 3386   3.896   3.721   2.216
  829SOL    HW2 3387   3.769   3.714   2.318
  830SOL     OW 3388   6.607   4.571   6.838
  830SOL    HW1 3389   6.577   4.547   6.930
  830SOL    HW2 3390   6.700   4.607   6.842
  831SOL     OW 3391   5.203   1.115   2.086
  831SOL    HW1 3392   5.250   1.163   2.160
  831SOL    HW2 3393   5.136   1.051   2.125
  832SOL     OW 3394   2.967   1.943   4.758
  832SOL    HW1 3395   2.966   1.856   4.807
  832SOL    HW2 3396   3.057   1.985   4.765
  833SOL     OW 3397   4.109   3.164   6.731
  833SOL    HW1 3398   4.051   3.201   6.658
  833SOL    HW2 3399   4.066   3.083   6.771
  834SOL     OW 3400   5.414   2.353   0.475
  834SOL    HW1 3401   5.324   2.376   0.437
  834SOL    HW2 3402   5.447   2.429   0.530
  835SOL     OW 3403   6.918   0.278   4.481
  835SOL    HW1 3404   6.920   0.178   4.479
  835SOL    HW2 3405   6.824   0.310   4.466
  836SOL     OW 3406   5.182   0.600   4.770
  836SOL    HW1 3407   5.251   0.625   4.702
  836SOL    HW2 3408   5.214   0.520   4.822
  837SOL     OW 3409   1.579   0.563   0.086
  837SOL    HW1 3410   1.631   0.517   0.014
  837SOL    HW2 3411   1.572   0.502   0.165
  838SOL     OW 3412   1.459   5.909   3.415
  838SOL    HW1 3413   1.509   5.828   3.385
  838SOL    HW2 3414   1.390   5.933   3.346
  839SOL     OW 3415   1.190   2.265   0.790
  839SOL    HW1 3416   1.252   2.203   0.742
  839SOL    HW2 3417   1.242   2.338   0.834
  840SOL     OW 3418   4.831   4.943   0.935
  840SOL    HW1 3419   4.813   4.846   0.917
  840SOL    HW2 3420   4.745   4.993   0.938
  841SOL     OW 3421   2.428   5.358   6.642
  841SOL    HW1 3422   2.465   5.300   6.570
  841SOL    HW2 3423   2.486   5.350   6.724
  842SOL     OW 3424   3.963   5.652   0.739
  842SOL    HW1 3425   3.992   5.687   0.650
  842SOL    HW2 3426   4.041   5.613   0.787
  843SOL     OW 3427   1.472   0.348   1.934
  843SOL    HW1 3428   1.386   0.394   1.910
  843SOL    HW2 3429   1.536   0.414   1.971
  844SOL     OW 3430   0.018   0.441   1.790
  844SOL    HW1 3431   0.001   0.529   1.835
  844SOL    HW2 3432   7.007   0.367   1.849
  845SOL     OW 3433   3.305   1.546   2.865
  845SOL    HW1 3434   3.316   1.568   2.769
  845SOL    HW2 3435   3.344   1.619   2.921
  846SOL     OW 3436   2.350   2.194   0.903
  846SOL    HW1 3437   2.372   2.286   0.935
  846SOL    HW2 3438   2.432   2.151   0.866
  847SOL     OW 3439   2.714   3.794   1.611
  847SOL    HW1 3440   2.638   3.798   1.547
  847SOL    HW2 3441   2.795   3.836   1.570
  848SOL     OW 3442   6.392   6.120   0.239
  848SOL    HW1 3443   6.437   6.155   0.157
  848SOL    HW2 3444   6.295   6.103   0.220
  849SOL     OW 3445   5.960   2.928   6.569
  849SOL    HW1 3446   6.038   2.866   6.567
  849SOL    HW2 3447   5.993   3.022   6.572
  850SOL     OW 3448   1.346   1.127   4.759
  850SOL    HW1 3449   1.289   1.160   4.834
  850SOL    HW2 3450   1.442   1.145   4.779
  851SOL     OW 3451   5.669   3.370   5.954
  851SOL    HW1 3452   5.571   3.360   5.938
  851SOL    HW2 3453   5.691   3.467   5.965
  852SOL     OW 3454   0.183   4.132   2.151
  852SOL    HW1 3455   0.114   4.064   2.127
  852SOL    HW2 3456   0.176   4.153   2.249
  853SOL     OW 3457   3.040   3.094   0.589
  853SOL    HW1 3458   2.971   3.024   0.568
  853SOL    HW2 3459   3.129   3.064   0.555
  854SOL     OW 3460   6.342   6.593   5.515
  854SOL    HW1 3461   6.407   6.531   5.472
  854SOL    HW2 3462   6.315   6.556   5.604
  855SOL     OW 3463   5.788   1.556   0.483
  855SOL    HW1 3464   5.695   1.522   0.473
  855SOL    HW2 3465   5.853   1.482   0.466
  856SOL     OW 3466   1.878   5.386   2.106
  856SOL    HW1 3467   1.890   5.479   2.069
  856SOL    HW2 3468   1.955   5.329   2.076
  857SOL     OW 3469   0.079   5.611   4.775
  857SOL    HW1 3470   0.117   5.568   4.858
  857SOL    HW2 3471   7.009   5.573   4.758
  858SOL     OW 3472   4.540   3.975   0.044
  858SOL    HW1 3473   4.566   4.054   7.010
  858SOL    HW2 3474   4.621   3.918   0.061
  859SOL     OW 3475   5.201   5.892   5.564
  859SOL    HW1 3476   5.265   5.898   5.487
  859SOL    HW2 3477   5.252   5.888   5.650
  860SOL     OW 3478   4.494   2.914   6.407
  860SOL    HW1 3479   4.502   2.822   6.444
  860SOL    HW2 3480   4.457   2.911   6.314
  861SOL     OW 3481   1.620   5.307   2.123
  861SOL    HW1 3482   1.560   5.348   2.192
  861SOL    HW2 3483   1.713   5.340   2.135
  862SOL     OW 3484   0.545   3.841   3.623
  862SOL    HW1 3485   0.518   3.780   3.698
  862SOL    HW2 3486   0.541   3.792   3.536
  863SOL     OW 3487   6.277   0.478   1.281
  863SOL    HW1 3488   6.333   0.396   1.274
  863SOL    HW2 3489   6.254   0.495   1.376
  864SOL     OW 3490   5.887   6.263   3.277
  864SOL    HW1 3491   5.788   6.262   3.267
  864SOL    HW2 3492   5.912   6.221   3.364
  865SOL     OW 3493   1.515   5.806   4.850
  865SOL    HW1 3494   1.551   5.846   4.934
  865SOL    HW2 3495   1.583   5.815   4.777
  866SOL     OW 3496   3.694   0.130   1.539
  866SOL    HW1 3497   3.632   0.055   1.516
  866SOL    HW2 3498   3.740   0.111   1.625
  867SOL     OW 3499   5.910   2.644   5.549
  867SOL    HW1 3500   5.875   2.642   5.643
  867SOL    HW2 3501   5.848   2.698   5.492
  868SOL     OW 3502   0.436   2.384   1.516
  868SOL    HW1 3503   0.535   2.395   1.504
  868SOL    HW2 3504   0.392   2.473   1.523
  869SOL     OW 3505   6.948   4.022   3.027
  869SOL    HW1 3506   6.993   3.952   3.082
  869SOL    HW2 3507   6.967   4.007   2.930
  870SOL     OW 3508   3.458   5.172   2.058
  870SOL    HW1 3509   3.384   5.109   2.080
  870SOL    HW2 3510   3.426   5.237   1.988
  871SOL     OW 3511   4.960   2.142   3.135
  871SOL    HW1 3512   5.006   2.146   3.224
  871SOL    HW2 3513   4.920   2.230   3.114
  872SOL     OW 3514   1.155   2.336   4.887
  872SOL    HW1 3515   1.087   2.405   4.910
  872SOL    HW2 3516   1.216   2.321   4.966
  873SOL     OW 3517   4.077   6.983   6.192
  873SOL    HW1 3518   4.140   0.035   6.217
  873SOL    HW2 3519   4.103   6.899   6.240
  874SOL     OW 3520   5.101   3.460   1.668
  874SOL    HW1 3521   5.099   3.363   1.692
  874SOL    HW2 3522   5.074   3.514   1.747
  875SOL     OW 3523   4.635   5.466   1.620
  875SOL    HW1 3524   4.643   5.385   1.562
  875SOL    HW2 3525   4.583   5.442   1.702
  876SOL     OW 3526   6.677   0.069   0.548
  876SOL    HW1 3527   6.583   0.036   0.544
  876SOL    HW2 3528   6.738   7.016   0.575
  877SOL     OW 3529   1.944   3.725   0.176
  877SOL    HW1 3530   1.846   3.741   0.165
  877SOL    HW2 3531   1.994   3.772   0.102
  878SOL     OW 3532   3.847   6.451   4.185
  878SOL    HW1 3533   3.749   6.432   4.189
  878SOL    HW2 3534   3.861   6.542   4.145
  879SOL     OW 3535   5.521   6.823   6.565
  879SOL    HW1 3536   5.555   6.911   6.600
  879SOL    HW2 3537   5.594   6.776   6.516
  880SOL     OW 3538   3.238   3.172   2.605
  880SOL    HW1 3539   3.149   3.148   2.566
  880SOL    HW2 3540   3.226   3.248   2.669
  881SOL     OW 3541   4.880   1.649   0.480
  881SOL    HW1 3542   4.937   1.684   0.406
  881SOL    HW2 3543   4.864   1.552   0.467
  882SOL     OW 3544   1.522   2.753   4.068
  882SOL    HW1 3545   1.614   2.777   4.098
  882SOL    HW2 3546   1.511   2.775   3.971
  883SOL     OW 3547   2.685   6.974   3.384
  883SOL    HW1 3548   2.757   6.957   3.315
  883SOL    HW2 3549   2.691   0.048   3.415
  884SOL     OW 3550   3.661   3.805   5.689
  884SOL    HW1 3551   3.623   3.879   5.634
  884SOL    HW2 3552   3.758   3.824   5.707
  885SOL     OW 3553   4.223   2.846   6.480
  885SOL    HW1 3554   4.305   2.885   6.437
  885SOL    HW2 3555   4.250   2.781   6.551
  886SOL     OW 3556   3.336   1.310   6.675
  886SOL    HW1 3557   3.346   1.261   6.762
  886SOL    HW2 3558   3.427   1.334   6.640
  887SOL     OW 3559   5.258   1.237   5.306
  887SOL    HW1 3560   5.346   1.228   5.259
  887SOL    HW2 3561   5.239   1.334   5.322
  888SOL     OW 3562   0.114   5.964   2.558
  888SOL    HW1 3563   0.116   5.865   2.567
  888SOL    HW2 3564   0.054   6.003   2.627
  889SOL     OW 3565   0.783   3.809   0.226
  889SOL    HW1 3566   0.878   3.780   0.231
  889SOL    HW2 3567   0.769   3.888   0.285
  890SOL     OW 3568   2.365   5.858   4.235
  890SOL    HW1 3569   2.388   5.950   4.203
  890SOL    HW2 3570   2.442   5.821   4.287
  891SOL     OW 3571   4.678   5.469   2.216
  891SOL    HW1 3572   4.698   5.482   2.313
  891SOL    HW2 3573   4.734   5.531   2.161
  892SOL     OW 3574   2.425   4.488   1.003
  892SOL    HW1 3575   2.483   4.490   0.921
  892SOL    HW2 3576   2.457   4.557   1.067
  893SOL     OW 3577   1.991   6.228   2.920
  893SOL    HW1 3578   1.894   6.216   2.941
  893SOL    HW2 3579   2.011   6.187   2.831
  894SOL     OW 3580   0.804   4.090   1.408
  894SOL    HW1 3581   0.858   4.009   1.429
  894SOL    HW2 3582   0.853   4.172   1.440
  895SOL     OW 3583   0.413   5.853   3.915
  895SOL    HW1 3584   0.395   5.776   3.854
  895SOL    HW2 3585   0.368   5.935   3.880
  896SOL     OW 3586   0.595   0.906   6.294
  896SOL    HW1 3587   0.591   1.002   6.268
  896SOL    HW2 3588   0.529   0.853   6.241
  897SOL     OW 3589   5.030   0.716   0.159
  897SOL    HW1 3590   4.960   0.647   0.174
  897SOL    HW2 3591   5.054   0.759   0.246
  898SOL     OW 3592   4.165   6.966   3.155
  898SOL    HW1 3593   4.217   6.882   3.167
  898SOL    HW2 3594   4.068   6.945   3.151
  899SOL     OW 3595   6.774   5.340   0.362
  899SOL    HW1 3596   6.767   5.260   0.303
  899SOL    HW2 3597   6.818   5.414   0.311
  900SOL     OW 3598   5.613   5.432   0.715
  900SOL    HW1 3599   5.543   5.497   0.745
  900SOL    HW2 3600   5.569   5.358   0.663
  901SOL     OW 3601   1.570   0.613   3.151
  901SOL    HW1 3602   1.568   0.606   3.251
  901SOL    HW2 3603   1.536   0.703   3.124
  902SOL     OW 3604   5.970   2.970   1.648
  902SOL    HW1 3605   5.997   2.925   1.733
  902SOL    HW2 3606   5.872   2.959   1.633
  903SOL     OW 3607   6.807   2.007   1.236
  903SOL    HW1 3608   6.795   1.925   1.181
  903SOL    HW2 3609   6.813   2.087   1.176
  904SOL     OW 3610   3.146   1.063   2.198
  904SOL    HW1 3611   3.193   1.088   2.114
  904SOL    HW2 3612   3.153   1.138   2.264
  905SOL     OW 3613   5.723   2.735   6.426
  905SOL    HW1 3614   5.782   2.657   6.405
  905SOL    HW2 3615   5.772   2.800   6.484
  906SOL     OW 3616   5.546   3.073   6.386
  906SOL    HW1 3617   5.503   2.986   6.410
  906SOL    HW2 3618   5.634   3.057   6.343
  907SOL     OW 3619   5.081   4.288   6.460
  907SOL    HW1 3620   5.036   4.209   6.418
  907SOL    HW2 3621   5.101   4.356   6.389
  908SOL     OW 3622   1.412   4.427   2.908
  908SOL    HW1 3623   1.322   4.400   2.943
  908SOL    HW2 3624   1.431   4.376   2.823
  909SOL     OW 3625   5.486   5.520   6.288
  909SOL    HW1 3626   5.551   5.447   6.307
  909SOL    HW2 3627   5.451   5.557   6.374
  910SOL     OW 3628   2.504   4.686   1.150
  910SOL    HW1 3629   2.416   4.670   1.196
  910SOL    HW2 3630   2.533   4.780   1.167
  911SOL     OW 3631   1.003   5.001   5.981
  911SOL    HW1 3632   0.943   5.059   5.926
  911SOL    HW2 3633   0.954   4.970   6.063
  912SOL     OW 3634   5.525   1.608   4.110
  912SOL    HW1 3635   5.448   1.642   4.164
  912SOL    HW2 3636   5.513   1.510   4.093
  913SOL     OW 3637   5.529   6.818   2.574
  913SOL    HW1 3638   5.621   6.829   2.538
  913SOL    HW2 3639   5.471   6.893   2.542
  914SOL     OW 3640   2.788   6.806   6.640
  914SOL    HW1 3641   2.718   6.735   6.646
  914SOL    HW2 3642   2.773   6.862   6.559
  915SOL     OW 3643   5.579   5.828   0.965
  915SOL    HW1 3644   5.674   5.797   0.962
  915SOL    HW2 3645   5.520   5.759   0.924
  916SOL     OW 3646   1.946   2.760   2.517
  916SOL    HW1 3647   1.944   2.843   2.461
  916SOL    HW2 3648   1.954   2.680   2.458
  917SOL     OW 3649   0.284   6.829   0.624
  917SOL    HW1 3650   0.343   6.748   0.626
  917SOL    HW2 3651   0.250   6.843   0.531
  918SOL     OW 3652   2.684   5.788   0.284
  918SOL    HW1 3653   2.774   5.786   0.241
  918SOL    HW2 3654   2.622   5.843   0.229
  919SOL     OW 3655   5.614   1.786   5.204
  919SOL    HW1 3656   5.561   1.870   5.194
  919SOL    HW2 3657   5.598   1.747   5.294
  920SOL     OW 3658   3.042   5.179   2.260
  920SOL    HW1 3659   2.961   5.121   2.253
  920SOL    HW2 3660   3.033   5.258   2.198
  921SOL     OW 3661   4.762   5.417   5.234
  921SOL    HW1 3662   4.717   5.486   5.290
  921SOL    HW2 3663   4.745   5.326   5.272
  922SOL     OW 3664   3.579   2.870   3.840
  922SOL    HW1 3665   3.673   2.896   3.861
  922SOL    HW2 3666   3.529   2.852   3.925
  923SOL     OW 3667   2.405   3.488   5.353
  923SOL    HW1 3668   2.393   3.574   5.304
  923SOL    HW2 3669   2.316   3.454   5.383
  924SOL     OW 3670   6.867   3.144   1.648
  924SOL    HW1 3671   6.787   3.154   1.589
  924SOL    HW2 3672   6.947   3.186   1.605
  925SOL     OW 3673   0.483   1.715   0.213
  925SOL    HW1 3674   0.541   1.751   0.287
  925SOL    HW2 3675   0.480   1.781   0.139
  926SOL     OW 3676   2.077   2.024   1.827
  926SOL    HW1 3677   2.136   1.968   1.769
  926SOL    HW2 3678   2.133   2.072   1.894
  927SOL     OW 3679   6.436   3.476   4.633
  927SOL    HW1 3680   6.376   3.552   4.607
  927SOL    HW2 3681   6.422   3.399   4.570
  928SOL     OW 3682   3.599   4.763   6.244
  928SOL    HW1 3683   3.606   4.854   6.286
  928SOL    HW2 3684   3.690   4.732   6.217
  929SOL     OW 3685   0.048   1.430   4.913
  929SOL    HW1 3686   0.104   1.347   4.915
  929SOL    HW2 3687   0.105   1.508   4.887
  930SOL     OW 3688   5.037   5.159   5.344
  930SOL    HW1 3689   5.113   5.139   5.405
  930SOL    HW2 3690   5.038   5.255   5.318
  931SOL     OW 3691   6.280   1.056   2.878
  931SOL    HW1 3692   6.182   1.041   2.867
  931SOL    HW2 3693   6.330   0.982   2.832
  932SOL     OW 3694   3.999   0.877   3.674
  932SOL    HW1 3695   4.063   0.800   3.670
  932SOL    HW2 3696   3.996   0.922   3.585
  933SOL     OW 3697   1.596   5.747   2.090
  933SOL    HW1 3698   1.532   5.702   2.153
  933SOL    HW2 3699   1.571   5.843   2.080
  934SOL     OW 3700   1.656   3.249   0.291
  934SOL    HW1 3701   1.681   3.314   0.363
  934SOL    HW2 3702   1.707   3.270   0.208
  935SOL     OW 3703   5.897   2.541   4.952
  935SOL    HW1 3704   5.838   2.622   4.957
  935SOL    HW2 3705   5.882   2.484   5.032
  936SOL     OW 3706   1.924   6.962   5.935
  936SOL    HW1 3707   1.869   6.992   6.013
  936SOL    HW2 3708   2.002   6.908   5.968
  937SOL     OW 3709   3.552   1.803   5.748
  937SOL    HW1 3710   3.475   1.771   5.804
  937SOL    HW2 3711   3.634   1.750   5.771
  938SOL     OW 3712   6.052   5.786   4.850
  938SOL    HW1 3713   6.020   5.879   4.830
  938SOL    HW2 3714   5.975   5.731   4.883
  939SOL     OW 3715   0.705   6.622   5.745
  939SOL    HW1 3716   0.667   6.578   5.826
  939SOL    HW2 3717   0.707   6.721   5.758
  940SOL     OW 3718   1.964   5.151   0.305
  940SOL    HW1 3719   1.986   5.072   0.362
  940SOL    HW2 3720   2.013   5.145   0.219
  941SOL     OW 3721   3.586   0.116   0.405
  941SOL    HW1 3722   3.616   0.044   0.468
  941SOL    HW2 3723   3.517   0.079   0.343
  942SOL     OW 3724   6.743   5.284   0.664
  942SOL    HW1 3725   6.707   5.364   0.713
  942SOL    HW2 3726   6.765   5.310   0.570
  943SOL     OW 3727   3.133   5.613   1.538
  943SOL    HW1 3728   3.169   5.694   1.585
  943SOL    HW2 3729   3.046   5.636   1.494
  944SOL     OW 3730   6.255   6.652   3.841
  944SOL    HW1 3731   6.188   6.723   3.820
  944SOL    HW2 3732   6.246   6.625   3.937
  945SOL     OW 3733   0.618   5.012   6.705
  945SOL    HW1 3734   0.704   5.015   6.755
  945SOL    HW2 3735   0.541   5.015   6.769
  946SOL     OW 3736   5.511   2.033   4.257
  946SOL    HW1 3737   5.609   2.050   4.245
  946SOL    HW2 3738   5.474   2.098   4.323
  947SOL     OW 3739   3.798   4.047   4.396
  947SOL    HW1 3740   3.725   4.093   4.446
  947SOL    HW2 3741   3.880   4.041   4.453
  948SOL     OW 3742   3.762   0.550   3.065
  948SOL    HW1 3743   3.719   0.549   2.974
  948SOL    HW2 3744   3.832   0.621   3.067
  949SOL     OW 3745   3.632   0.049   6.151
  949SOL    HW1 3746   3.570   6.998   6.121
  949SOL    HW2 3747   3.623   0.128   6.091
  950SOL     OW 3748   6.656   0.537   2.580
  950SOL    HW1 3749   6.574   0.593   2.569
  950SOL    HW2 3750   6.732   0.594   2.611
  951SOL     OW 3751   1.740   6.859   2.617
  951SOL    HW1 3752   1.754   6.928   2.687
  951SOL    HW2 3753   1.732   6.769   2.660
  952SOL     OW 3754   3.683   1.099   3.230
  952SOL    HW1 3755   3.763   1.134   3.180
  952SOL    HW2 3756   3.642   1.024   3.177
  953SOL     OW 3757   0.256   4.728   5.982
  953SOL    HW1 3758   0.352   4.699   5.979
  953SOL    HW2 3759   0.226   4.752   5.890
  954SOL     OW 3760   4.785   6.299   2.572
  954SOL    HW1 3761   4.721   6.372   2.548
  954SOL    HW2 3762   4.735   6.226   2.618
  955SOL     OW 3763   1.984   5.290   0.681
  955SOL    HW1 3764   1.933   5.213   0.643
  955SOL    HW2 3765   2.080   5.265   0.690
  956SOL     OW 3766   4.815   0.325   1.010
  956SOL    HW1 3767   4.835   0.372   1.096
  956SOL    HW2 3768   4.812   0.226   1.025
  957SOL     OW 3769   6.193   0.677   2.608
  957SOL    HW1 3770   6.125   0.608   2.633
  957SOL    HW2 3771   6.262   0.636   2.548
  958SOL     OW 3772   5.185   6.705   1.572
  958SOL    HW1 3773   5.168   6.762   1.491
  958SOL    HW2 3774   5.099   6.692   1.621
  959SOL     OW 3775   5.155   6.366   3.244
  959SOL    HW1 3776   5.060   6.333   3.248
  959SOL    HW2 3777   5.199   6.330   3.162
  960SOL     OW 3778   1.626   6.222   6.355
  960SOL    HW1 3779   1.577   6.308   6.366
  960SOL    HW2 3780   1.684   6.207   6.435
  961SOL     OW 3781   3.598   0.638   3.292
  961SOL    HW1 3782   3.662   0.563   3.275
  961SOL    HW2 3783   3.623   0.686   3.376
  962SOL     OW 3784   0.475   0.803   4.824
  962SOL    HW1 3785   0.382   0.799   4.859
  962SOL    HW2 3786   0.526   0.723   4.856
  963SOL     OW 3787   5.359   2.575   0.913
  963SOL    HW1 3788   5.431   2.506   0.922
  963SOL    HW2 3789   5.290   2.543   0.848
  964SOL     OW 3790   3.969   5.688   5.070
  964SOL    HW1 3791   3.959   5.595   5.104
  964SOL    HW2 3792   3.966   5.687   4.970
  965SOL     OW 3793   6.051   2.026   3.424
  965SOL    HW1 3794   5.994   1.967   3.483
  965SOL    HW2 3795   5.992   2.075   3.360
  966SOL     OW 3796   4.819   0.904   4.149
  966SOL    HW1 3797   4.880   0.846   4.202
  966SOL    HW2 3798   4.810   0.993   4.194
  967SOL     OW 3799   4.407   4.375   6.470
  967SOL    HW1 3800   4.431   4.377   6.373
  967SOL    HW2 3801   4.351   4.295   6.489
  968SOL     OW 3802   3.636   0.371   1.468
  968SOL    HW1 3803   3.555   0.383   1.410
  968SOL    HW2 3804   3.642   0.276   1.499
  969SOL     OW 3805   3.026   4.255   6.331
  969SOL    HW1 3806   3.044   4.290   6.239
  969SOL    HW2 3807   3.030   4.155   6.329
  970SOL     OW 3808   4.762   6.916   6.095
  970SOL    HW1 3809   4.808   7.003   6.109
  970SOL    HW2 3810   4.823   6.854   6.044
  971SOL     OW 3811   5.433   3.561   3.347
  971SOL    HW1 3812   5.368   3.601   3.412
  971SOL    HW2 3813   5.411   3.593   3.255
  972SOL     OW 3814   0.160   2.929   0.572
  972SOL    HW1 3815   0.185   2.865   0.499
  972SOL    HW2 3816   0.069   2.906   0.607
  973SOL     OW 3817   0.301   3.409   5.689
  973SOL    HW1 3818   0.234   3.442   5.623
  973SOL    HW2 3819   0.309   3.309   5.682
  974SOL     OW 3820   0.472   4.520   2.533
  974SOL    HW1 3821   0.512   4.606   2.500
  974SOL    HW2 3822   0.435   4.533   2.625
  975SOL     OW 3823   3.018   0.286   2.553
  975SOL    HW1 3824   3.055   0.206   2.506
  975SOL    HW2 3825   3.004   0.359   2.487
  976SOL     OW 3826   0.026   3.298   3.514
  976SOL    HW1 3827   0.097   3.278   3.582
  976SOL    HW2 3828   6.961   3.257   3.544
  977SOL     OW 3829   6.350   1.361   2.044
  977SOL    HW1 3830   6.372   1.459   2.041
  977SOL    HW2 3831   6.341   1.332   2.139
  978SOL     OW 3832   5.113   2.882   1.326
  978SOL    HW1 3833   5.044   2.933   1.274
  978SOL    HW2 3834   5.084   2.787   1.336
  979SOL     OW 3835   0.293   4.150   6.825
  979SOL    HW1 3836   0.196   4.139   6.802
  979SOL    HW2 3837   0.337   4.060   6.826
  980SOL     OW 3838   3.973   1.169   4.961
  980SOL    HW1 3839   3.918   1.194   4.881
  980SOL    HW2 3840   3.914   1.169   5.043
  981SOL     OW 3841   0.468   6.474   5.594
  981SOL    HW1 3842   0.547   6.536   5.591
  981SOL    HW2 3843   0.436   6.456   5.501
  982SOL     OW 3844   6.512   1.161   6.302
  982SOL    HW1 3845   6.515   1.086   6.368
  982SOL    HW2 3846   6.476   1.243   6.347
  983SOL     OW 3847   0.718   4.099   3.230
  983SOL    HW1 3848   0.619   4.098   3.221
  983SOL    HW2 3849   0.743   4.113   3.326
  984SOL     OW 3850   0.781   3.147   3.391
  984SOL    HW1 3851   0.841   3.224   3.416
  984SOL    HW2 3852   0.686   3.179   3.389
  985SOL     OW 3853   6.603   5.635   5.065
  985SOL    HW1 3854   6.581   5.554   5.119
  985SOL    HW2 3855   6.563   5.716   5.108
  986SOL     OW 3856   4.502   5.086   1.308
  986SOL    HW1 3857   4.449   5.105   1.391
  986SOL    HW2 3858   4.550   4.999   1.318
  987SOL     OW 3859   4.808   4.413   4.841
  987SOL    HW1 3860   4.740   4.421   4.914
  987SOL    HW2 3861   4.801   4.323   4.799
  988SOL     OW 3862   2.543   4.548   2.150
  988SOL    HW1 3863   2.498   4.458   2.141
  988SOL    HW2 3864   2.627   4.548   2.097
  989SOL     OW 3865   0.886   2.351   1.145
  989SOL    HW1 3866   0.844   2.300   1.221
  989SOL    HW2 3867   0.909   2.289   1.071
  990SOL     OW 3868   3.781   6.841   4.386
  990SOL    HW1 3869   3.720   6.901   4.439
  990SOL    HW2 3870   3.823   6.775   4.448
  991SOL     OW 3871   0.666   5.255   3.760
  991SOL    HW1 3872   0.732   5.198   3.711
  991SOL    HW2 3873   0.649   5.339   3.708
  992SOL     OW 3874   0.086   2.579   0.155
  992SOL    HW1 3875   0.149   2.518   0.107
  992SOL    HW2 3876   0.006   2.527   0.185
  993SOL     OW 3877   0.897   5.142   0.507
  993SOL    HW1 3878   0.946   5.056   0.496
  993SOL    HW2 3879   0.893   5.167   0.604
  994SOL     OW 3880   3.196   6.750   0.285
  994SOL    HW1 3881   3.163   6.840   0.312
  994SOL    HW2 3882   3.258   6.715   0.356
  995SOL     OW 3883   6.428   3.883   6.005
  995SOL    HW1 3884   6.503   3.836   5.959
  995SOL    HW2 3885   6.406   3.967   5.954
  996SOL     OW 3886   4.438   6.219   4.573
  996SOL    HW1 3887   4.429   6.191   4.477
  996SOL    HW2 3888   4.352   6.258   4.605
  997SOL     OW 3889   1.312   6.619   3.355
  997SOL    HW1 3890   1.391   6.577   3.310
  997SOL    HW2 3891   1.259   6.670   3.288
  998SOL     OW 3892   4.384   0.085   6.112
  998SOL    HW1 3893   4.410   0.180   6.094
  998SOL    HW2 3894   4.311   0.082   6.180
  999SOL     OW 3895   5.129   3.047   2.863
  999SOL    HW1 3896   5.212   3.054   2.918
  999SOL    HW2 3897   5.099   2.952   2.859
 1000SOL     OW 3898   5.297   2.127   1.580
 1000SOL    HW1 3899   5.213   2.112   1.631
 1000SOL    HW2 3900   5.375   2.131   1.642
 1001SOL     OW 3901   2.964   6.656   2.436
 1001SOL    HW1 3902   3.015   6.590   2.381
 1001SOL    HW2 3903   2.941   6.736   2.380
 1002SOL     OW 3904   4.215   2.590   1.392
 1002SOL    HW1 3905   4.203   2.666   1.328
 1002SOL    HW2 3906   4.129   2.539   1.400
 1003SOL     OW 3907   0.829   0.363   3.311
 1003SOL    HW1 3908   0.769   0.305   3.255
 1003SOL    HW2 3909   0.924   0.334   3.299
 1004SOL     OW 3910   5.151   1.297   4.392
 1004SOL    HW1 3911   5.108   1.270   4.307
 1004SOL    HW2 3912   5.213   1.225   4.423
 1005SOL     OW 3913   1.140   4.943   2.371
 1005SOL    HW1 3914   1.237   4.928   2.352
 1005SOL    HW2 3915   1.090   4.951   2.285
 1006SOL     OW 3916   2.221   3.818   1.713
 1006SOL    HW1 3917   2.317   3.798   1.694
 1006SOL    HW2 3918   2.200   3.798   1.808
 1007SOL     OW 3919   4.594   0.994   6.076
 1007SOL    HW1 3920   4.589   1.063   6.149
 1007SOL    HW2 3921   4.505   0.985   6.033
 1008SOL     OW 3922   0.822   5.072   5.337
 1008SOL    HW1 3923   0.786   5.049   5.246
 1008SOL    HW2 3924   0.761   5.138   5.381
 1009SOL     OW 3925   6.752   5.842   6.373
 1009SOL    HW1 3926   6.801   5.757   6.394
 1009SOL    HW2 3927   6.672   5.821   6.316
 1010SOL     OW 3928   3.027   3.686   0.466
 1010SOL    HW1 3929   3.106   3.745   0.448
 1010SOL    HW2 3930   3.004   3.635   0.383
 1011SOL     OW 3931   6.530   5.422   2.787
 1011SOL    HW1 3932   6.501   5.397   2.880
 1011SOL    HW2 3933   6.606   5.364   2.760
 1012SOL     OW 3934   5.566   6.489   2.520
 1012SOL    HW1 3935   5.484   6.474   2.575
 1012SOL    HW2 3936   5.555   6.573   2.467
 1013SOL     OW 3937   6.899   0.026   6.572
 1013SOL    HW1 3938   6.902   0.042   6.473
 1013SOL    HW2 3939   6.810   0.055   6.607
 1014SOL     OW 3940   0.979   4.560   5.426
 1014SOL    HW1 3941   0.929   4.644   5.405
 1014SOL    HW2 3942   0.928   4.481   5.391
 1015SOL     OW 3943   2.165   6.478   0.330
 1015SOL    HW1 3944   2.194   6.383   0.318
 1015SOL    HW2 3945   2.071   6.479   0.365
 1016SOL     OW 3946   6.960   3.904   0.931
 1016SOL    HW1 3947   6.887   3.836   0.940
 1016SOL    HW2 3948   6.957   3.944   0.840
 1017SOL     OW 3949   2.090   1.281   2.286
 1017SOL    HW1 3950   2.028   1.332   2.227
 1017SOL    HW2 3951   2.181   1.323   2.285
 1018SOL     OW 3952   6.144   6.637   4.094
 1018SOL    HW1 3953   6.106   6.555   4.137
 1018SOL    HW2 3954   6.092   6.717   4.123
 1019SOL     OW 3955   6.766   4.154   1.103
 1019SOL    HW1 3956   6.803   4.235   1.147
 1019SOL    HW2 3957   6.838   4.085   1.092
 1020SOL     OW 3958   5.060   1.150   0.822
 1020SOL    HW1 3959   5.082   1.223   0.886
 1020SOL    HW2 3960   5.027   1.190   0.736
 1021SOL     OW 3961   0.880   6.714   0.814
 1021SOL    HW1 3962   0.937   6.780   0.863
 1021SOL    HW2 3963   0.843   6.647   0.878
 1022SOL     OW 3964   2.273   5.634   6.704
 1022SOL    HW1 3965   2.269   5.553   6.646
 1022SOL    HW2 3966   2.363   5.676   6.697
 1023SOL     OW 3967   0.613   1.279   2.702
 1023SOL    HW1 3968   0.648   1.206   2.644
 1023SOL    HW2 3969   0.611   1.365   2.651
 1024SOL     OW 3970   1.700   1.877   4.005
 1024SOL    HW1 3971   1.788   1.891   4.051
 1024SOL    HW2 3972   1.691   1.943   3.930
 1025SOL     OW 3973   5.016   4.327   0.203
 1025SOL    HW1 3974   5.113   4.306   0.194
 1025SOL    HW2 3975   4.999   4.370   0.292
 1026SOL     OW 3976   3.177   2.974   1.906
 1026SOL    HW1 3977   3.208   3.068   1.890
 1026SOL    HW2 3978   3.257   2.913   1.905
 1027SOL     OW 3979   0.103   6.512   0.153
 1027SOL    HW1 3980   0.081   6.607   0.174
 1027SOL    HW2 3981   0.181   6.510   0.089
 1028SOL     OW 3982   1.425   6.151   2.531
 1028SOL    HW1 3983   1.440   6.227   2.595
 1028SOL    HW2 3984   1.427   6.064   2.580
 1029SOL     OW 3985   1.309   0.967   5.474
 1029SOL    HW1 3986   1.234   0.907   5.445
 1029SOL    HW2 3987   1.337   1.025   5.398
 1030SOL     OW 3988   3.621   3.418   0.989
 1030SOL    HW1 3989   3.658   3.461   0.906
 1030SOL    HW2 3990   3.533   3.461   1.012
 1031SOL     OW 3991   3.828   3.260   1.059
 1031SOL    HW1 3992   3.802   3.192   1.127
 1031SOL    HW2 3993   3.748   3.313   1.031
 1032SOL     OW 3994   1.981   1.629   0.544
 1032SOL    HW1 3995   2.039   1.641   0.464
 1032SOL    HW2 3996   2.039   1.607   0.623
 1033SOL     OW 3997   0.261   0.503   2.552
 1033SOL    HW1 3998   0.298   0.530   2.463
 1033SOL    HW2 3999   0.314   0.426   2.588
 1034SOL     OW 4000   3.347   0.747   4.725
 1034SOL    HW1 4001   3.420   0.753   4.793
 1034SOL    HW2 4002   3.271   0.806   4.751
 1035SOL     OW 4003   1.954   1.142   0.029
 1035SOL    HW1 4004   1.857   1.156   0.008
 1035SOL    HW2 4005   1.972   1.045   0.039
 1036SOL     OW 4006   4.740   1.177   1.052
 1036SOL    HW1 4007   4.764   1.159   1.147
 1036SOL    HW2 4008   4.644   1.203   1.045
 1037SOL     OW 4009   1.619   3.563   2.167
 1037SOL    HW1 4010   1.582   3.471   2.180
 1037SOL    HW2 4011   1.608   3.590   2.072
 1038SOL     OW 4012   2.405   6.207   0.255
 1038SOL    HW1 4013   2.456   6.183   0.172
 1038SOL    HW2 4014   2.307   6.205   0.235
 1039SOL     OW 4015   3.557   3.492   3.051
 1039SOL    HW1 4016   3.586   3.583   3.080
 1039SOL    HW2 4017   3.534   3.436   3.130
 1040SOL     OW 4018   3.543   2.006   3.432
 1040SOL    HW1 4019   3.559   1.920   3.385
 1040SOL    HW2 4020   3.627   2.034   3.480
 1041SOL     OW 4021   6.200   6.125   6.850
 1041SOL    HW1 4022   6.238   6.204   6.801
 1041SOL    HW2 4023   6.136   6.158   6.920
 1042SOL     OW 4024   5.471   4.684   3.130
 1042SOL    HW1 4025   5.421   4.768   3.151
 1042SOL    HW2 4026   5.506   4.643   3.214
 1043SOL     OW 4027   2.716   1.835   3.367
 1043SOL    HW1 4028   2.736   1.822   3.464
 1043SOL    HW2 4029   2.798   1.820   3.313
 1044SOL     OW 4030   6.232   4.946   1.660
 1044SOL    HW1 4031   6.153   4.922   1.603
 1044SOL    HW2 4032   6.265   4.864   1.706
 1045SOL     OW 4033   2.092   0.923   1.927
 1045SOL    HW1 4034   2.128   0.859   1.995
 1045SOL    HW2 4035   2.077   0.875   1.841
 1046SOL     OW 4036   3.123   2.014   1.272
 1046SOL    HW1 4037   3.199   2.005   1.338
 1046SOL    HW2 4038   3.100   2.110   1.260
 1047SOL     OW 4039   3.510   0.278   3.314
 1047SOL    HW1 4040   3.604   0.309   3.299
 1047SOL    HW2 4041   3.493   0.272   3.412
 1048SOL     OW 4042   1.128   6.890   2.169
 1048SOL    HW1 4043   1.120   6.791   2.165
 1048SOL    HW2 4044   1.194   6.916   2.240
 1049SOL     OW 4045   3.868   6.676   5.661
 1049SOL    HW1 4046   3.848   6.606   5.593
 1049SOL    HW2 4047   3.954   6.654   5.707
 1050SOL     OW 4048   2.971   6.896   4.033
 1050SOL    HW1 4049   2.913   6.930   3.959
 1050SOL    HW2 4050   2.917   6.892   4.118
 1051SOL     OW 4051   1.708   1.155   5.251
 1051SOL    HW1 4052   1.744   1.239   5.292
 1051SOL    HW2 4053   1.748   1.075   5.296
 1052SOL     OW 4054   3.557   1.212   0.355
 1052SOL    HW1 4055   3.579   1.307   0.333
 1052SOL    HW2 4056   3.467   1.189   0.319
 1053SOL     OW 4057   4.871   1.939   4.465
 1053SOL    HW1 4058   4.909   1.878   4.395
 1053SOL    HW2 4059   4.851   2.028   4.423
 1054SOL     OW 4060   4.118   5.090   6.297
 1054SOL    HW1 4061   4.142   5.022   6.366
 1054SOL    HW2 4062   4.091   5.175   6.342
 1055SOL     OW 4063   4.586   5.754   6.780
 1055SOL    HW1 4064   4.661   5.722   6.837
 1055SOL    HW2 4065   4.507   5.693   6.792
 1056SOL     OW 4066   3.233   3.590   0.096
 1056SOL    HW1 4067   3.242   3.688   0.112
 1056SOL    HW2 4068   3.179   3.575   0.013
 1057SOL     OW 4069   3.070   2.846   6.999
 1057SOL    HW1 4070   3.170   2.852   6.994
 1057SOL    HW2 4071   3.038   2.893   0.060
 1058SOL     OW 4072   2.977   2.125   2.472
 1058SOL    HW1 4073   2.888   2.148   2.512
 1058SOL    HW2 4074   2.964   2.094   2.378
 1059SOL     OW 4075   2.360   6.082   1.986
 1059SOL    HW1 4076   2.418   6.162   2.002
 1059SOL    HW2 4077   2.284   6.083   2.051
 1060SOL     OW 4078   6.288   0.807   5.560
 1060SOL    HW1 4079   6.320   0.860   5.639
 1060SOL    HW2 4080   6.197   0.837   5.534
 1061SOL     OW 4081   0.215   3.646   6.021
 1061SOL    HW1 4082   0.212   3.734   6.069
 1061SOL    HW2 4083   0.212   3.572   6.088
 1062SOL     OW 4084   3.633   5.549   4.462
 1062SOL    HW1 4085   3.602   5.567   4.369
 1062SOL    HW2 4086   3.718   5.496   4.459
 1063SOL     OW 4087   3.505   6.648   4.565
 1063SOL    HW1 4088   3.520   6.552   4.542
 1063SOL    HW2 4089   3.488   6.657   4.663
 1064SOL     OW 4090   1.416   3.199   0.210
 1064SOL    HW1 4091   1.513   3.199   0.234
 1064SOL    HW2 4092   1.381   3.293   0.212
 1065SOL     OW 4093   6.166   0.990   5.062
 1065SOL    HW1 4094   6.264   1.004   5.050
 1065SOL    HW2 4095   6.118   1.020   4.979
 1066SOL     OW 4096   5.315   6.848   0.487
 1066SOL    HW1 4097   5.404   6.818   0.454
 1066SOL    HW2 4098   5.292   6.798   0.571
 1067SOL     OW 4099   2.599   1.594   0.246
 1067SOL    HW1 4100   2.647   1.681   0.241
 1067SOL    HW2 4101   2.547   1.589   0.331
 1068SOL     OW 4102   6.447   3.077   1.348
 1068SOL    HW1 4103   6.376   3.090   1.278
 1068SOL    HW2 4104   6.464   2.979   1.360
 1069SOL     OW 4105   5.982   3.217   2.320
 1069SOL    HW1 4106   5.999   3.296   2.379
 1069SOL    HW2 4107   5.910   3.160   2.360
 1070SOL     OW 4108   0.849   0.431   2.315
 1070SOL    HW1 4109   0.852   0.517   2.264
 1070SOL    HW2 4110   0.816   0.357   2.256
 1071SOL     OW 4111   0.585   3.153   6.227
 1071SOL    HW1 4112   0.599   3.186   6.133
 1071SOL    HW2 4113   0.674   3.138   6.270
 1072SOL     OW 4114   1.428   1.515   2.295
 1072SOL    HW1 4115   1.441   1.509   2.394
 1072SOL    HW2 4116   1.518   1.519   2.250
 1073SOL     OW 4117   5.367   2.676   2.817
 1073SOL    HW1 4118   5.400   2.593   2.772
 1073SOL    HW2 4119   5.430   2.751   2.799
 1074SOL     OW 4120   2.998   5.081   1.494
 1074SOL    HW1 4121   2.993   5.136   1.410
 1074SOL    HW2 4122   2.997   5.142   1.573
 1075SOL     OW 4123   6.308   4.226   6.084
 1075SOL    HW1 4124   6.326   4.302   6.146
 1075SOL    HW2 4125   6.330   4.254   5.990
 1076SOL     OW 4126   1.554   4.828   5.261
 1076SOL    HW1 4127   1.637   4.773   5.256
 1076SOL    HW2 4128   1.571   4.909   5.317
 1077SOL     OW 4129   6.703   6.591   0.597
 1077SOL    HW1 4130   6.751   6.637   0.672
 1077SOL    HW2 4131   6.682   6.497   0.624
 1078SOL     OW 4132   6.129   6.703   4.760
 1078SOL    HW1 4133   6.163   6.618   4.799
 1078SOL    HW2 4134   6.193   6.777   4.779
 1079SOL     OW 4135   0.695   6.761   2.136
 1079SOL    HW1 4136   0.618   6.751   2.074
 1079SOL    HW2 4137   0.781   6.752   2.085
 1080SOL     OW 4138   3.684   6.574   6.987
 1080SOL    HW1 4139   3.752   6.513   0.007
 1080SOL    HW2 4140   3.730   6.656   6.954
 1081SOL     OW 4141   6.377   6.388   3.844
 1081SOL    HW1 4142   6.316   6.322   3.887
 1081SOL    HW2 4143   6.335   6.478   3.845
 1082SOL     OW 4144   3.869   6.868   0.058
 1082SOL    HW1 4145   3.811   6.945   0.082
 1082SOL    HW2 4146   3.873   6.859   6.980
 1083SOL     OW 4147   5.619   4.482   2.274
 1083SOL    HW1 4148   5.712   4.470   2.307
 1083SOL    HW2 4149   5.561   4.410   2.313
 1084SOL     OW 4150   6.025   0.868   5.505
 1084SOL    HW1 4151   6.008   0.963   5.532
 1084SOL    HW2 4152   5.994   0.853   5.412
 1085SOL     OW 4153   2.058   3.962   4.628
 1085SOL    HW1 4154   2.056   4.061   4.614
 1085SOL    HW2 4155   2.102   3.941   4.715
 1086SOL     OW 4156   5.803   5.684   0.385
 1086SOL    HW1 4157   5.836   5.631   0.463
 1086SOL    HW2 4158   5.793   5.780   0.411
 1087SOL     OW 4159   4.202   0.036   5.705
 1087SOL    HW1 4160   4.299   0.012   5.707
 1087SOL    HW2 4161   4.162   0.008   5.618
 1088SOL     OW 4162   6.766   5.196   3.864
 1088SOL    HW1 4163   6.860   5.209   3.833
 1088SOL    HW2 4164   6.733   5.107   3.835
 1089SOL     OW 4165   5.936   5.025   4.125
 1089SOL    HW1 4166   5.944   4.943   4.069
 1089SOL    HW2 4167   5.988   5.013   4.209
 1090SOL     OW 4168   5.616   2.294   5.144
 1090SOL    HW1 4169   5.653   2.387   5.150
 1090SOL    HW2 4170   5.548   2.291   5.070
 1091SOL     OW 4171   1.968   2.692   3.353
 1091SOL    HW1 4172   2.015   2.604   3.353
 1091SOL    HW2 4173   1.904   2.695   3.430
 1092SOL     OW 4174   7.008   6.159   0.479
 1092SOL    HW1 4175   6.955   6.092   0.532
 1092SOL    HW2 4176   0.045   6.212   0.541
 1093SOL     OW 4177   1.508   0.467   2.940
 1093SOL    HW1 4178   1.584   0.426   2.891
 1093SOL    HW2 4179   1.542   0.516   3.020
 1094SOL     OW 4180   0.211   0.242   3.184
 1094SOL    HW1 4181   0.189   0.214   3.278
 1094SOL    HW2 4182   0.148   0.199   3.120
 1095SOL     OW 4183   5.394   2.844   0.556
 1095SOL    HW1 4184   5.454   2.833   0.635
 1095SOL    HW2 4185   5.338   2.762   0.545
 1096SOL     OW 4186   2.226   5.355   1.735
 1096SOL    HW1 4187   2.197   5.324   1.644
 1096SOL    HW2 4188   2.315   5.315   1.757
 1097SOL     OW 4189   2.607   6.133   4.446
 1097SOL    HW1 4190   2.678   6.067   4.423
 1097SOL    HW2 4191   2.553   6.154   4.364
 1098SOL     OW 4192   6.407   3.954   0.635
 1098SOL    HW1 4193   6.456   3.891   0.695
 1098SOL    HW2 4194   6.376   4.033   0.687
 1099SOL     OW 4195   4.724   0.670   6.431
 1099SOL    HW1 4196   4.634   0.688   6.470
 1099SOL    HW2 4197   4.763   0.588   6.474
 1100SOL     OW 4198   4.062   1.677   4.467
 1100SOL    HW1 4199   4.101   1.765   4.493
 1100SOL    HW2 4200   4.130   1.605   4.481
 1101SOL     OW 4201   5.010   3.072   6.227
 1101SOL    HW1 4202   5.036   3.044   6.320
 1101SOL    HW2 4203   4.910   3.072   6.220
 1102SOL     OW 4204   2.947   0.811   3.318
 1102SOL    HW1 4205   2.863   0.848   3.277
 1102SOL    HW2 4206   2.952   0.713   3.300
 1103SOL     OW 4207   3.321   6.051   0.314
 1103SOL    HW1 4208   3.406   6.102   0.302
 1103SOL    HW2 4209   3.253   6.084   0.249
 1104SOL     OW 4210   0.486   2.936   3.787
 1104SOL    HW1 4211   0.388   2.934   3.768
 1104SOL    HW2 4212   0.526   2.847   3.767
 1105SOL     OW 4213   5.265   1.818   6.060
 1105SOL    HW1 4214   5.330   1.783   5.993
 1105SOL    HW2 4215   5.211   1.892   6.020
 1106SOL     OW 4216   6.463   1.460   0.964
 1106SOL    HW1 4217   6.383   1.436   0.909
 1106SOL    HW2 4218   6.453   1.420   1.055
 1107SOL     OW 4219   0.993   1.307   6.540
 1107SOL    HW1 4220   0.947   1.271   6.458
 1107SOL    HW2 4221   0.925   1.345   6.602
 1108SOL     OW 4222   2.299   0.623   4.167
 1108SOL    HW1 4223   2.343   0.538   4.196
 1108SOL    HW2 4224   2.362   0.678   4.113
 1109SOL     OW 4225   4.808   2.562   4.733
 1109SOL    HW1 4226   4.899   2.602   4.741
 1109SOL    HW2 4227   4.750   2.624   4.679
 1110SOL     OW 4228   2.191   0.725   2.122
 1110SOL    HW1 4229   2.262   0.748   2.189
 1110SOL    HW2 4230   2.114   0.682   2.169
 1111SOL     OW 4231   5.944   4.093   6.306
 1111SOL    HW1 4232   5.984   4.175   6.347
 1111SOL    HW2 4233   6.006   4.058   6.236
 1112SOL     OW 4234   5.374   0.728   2.316
 1112SOL    HW1 4235   5.450   0.790   2.337
 1112SOL    HW2 4236   5.370   0.711   2.218
 1113SOL     OW 4237   5.825   3.734   2.075
 1113SOL    HW1 4238   5.831   3.635   2.089
 1113SOL    HW2 4239   5.838   3.780   2.163
 1114SOL     OW 4240   3.425   3.722   4.727
 1114SOL    HW1 4241   3.361   3.651   4.698
 1114SOL    HW2 4242   3.376   3.791   4.781
 1115SOL     OW 4243   2.966   4.696   5.389
 1115SOL    HW1 4244   2.887   4.741   5.347
 1115SOL    HW2 4245   2.971   4.601   5.358
 1116SOL     OW 4246   4.429   0.250   0.092
 1116SOL    HW1 4247   4.359   0.318   0.114
 1116SOL    HW2 4248   4.384   0.165   0.064
 1117SOL     OW 4249   2.734   2.678   1.747
 1117SOL    HW1 4250   2.668   2.751   1.729
 1117SOL    HW2 4251   2.822   2.717   1.773
 1118SOL     OW 4252   4.192   6.104   0.393
 1118SOL    HW1 4253   4.180   6.028   0.329
 1118SOL    HW2 4254   4.103   6.134   0.426
 1119SOL     OW 4255   3.594   4.994   3.893
 1119SOL    HW1 4256   3.625   4.919   3.951
 1119SOL    HW2 4257   3.524   4.961   3.830
 1120SOL     OW 4258   6.666   3.262   1.262
 1120SOL    HW1 4259   6.610   3.195   1.311
 1120SOL    HW2 4260   6.738   3.296   1.323
 1121SOL     OW 4261   6.571   4.635   4.871
 1121SOL    HW1 4262   6.533   4.728   4.880
 1121SOL    HW2 4263   6.657   4.630   4.922
 1122SOL     OW 4264   5.435   2.360   1.446
 1122SOL    HW1 4265   5.515   2.385   1.501
 1122SOL    HW2 4266   5.385   2.287   1.492
 1123SOL     OW 4267   4.104   1.313   3.690
 1123SOL    HW1 4268   4.185   1.362   3.724
 1123SOL    HW2 4269   4.022   1.359   3.724
 1124SOL     OW 4270   2.128   2.415   3.950
 1124SOL    HW1 4271   2.135   2.513   3.935
 1124SOL    HW2 4272   2.096   2.397   4.043
 1125SOL     OW 4273   1.853   3.350   3.824
 1125SOL    HW1 4274   1.922   3.303   3.770
 1125SOL    HW2 4275   1.823   3.433   3.776
 1126SOL     OW 4276   4.408   4.983   4.852
 1126SOL    HW1 4277   4.457   4.960   4.768
 1126SOL    HW2 4278   4.440   5.071   4.887
 1127SOL     OW 4279   6.833   6.904   2.165
 1127SOL    HW1 4280   6.878   6.993   2.166
 1127SOL    HW2 4281   6.900   6.833   2.187
 1128SOL     OW 4282   5.269   0.957   4.641
 1128SOL    HW1 4283   5.273   0.991   4.735
 1128SOL    HW2 4284   5.335   1.008   4.585
 1129SOL     OW 4285   1.250   0.855   0.793
 1129SOL    HW1 4286   1.246   0.954   0.778
 1129SOL    HW2 4287   1.193   0.831   0.870
 1130SOL     OW 4288   2.333   4.744   2.153
 1130SOL    HW1 4289   2.400   4.671   2.139
 1130SOL    HW2 4290   2.242   4.711   2.128
 1131SOL     OW 4291   1.979   5.319   3.959
 1131SOL    HW1 4292   1.965   5.413   3.991
 1131SOL    HW2 4293   1.994   5.320   3.860
 1132SOL     OW 4294   2.039   1.632   2.646
 1132SOL    HW1 4295   1.980   1.552   2.633
 1132SOL    HW2 4296   2.135   1.605   2.632
 1133SOL     OW 4297   0.706   6.875   6.317
 1133SOL    HW1 4298   0.740   6.967   6.336
 1133SOL    HW2 4299   0.768   6.808   6.358
 1134SOL     OW 4300   3.312   5.884   1.807
 1134SOL    HW1 4301   3.410   5.865   1.813
 1134SOL    HW2 4302   3.289   5.908   1.713
 1135SOL     OW 4303   1.493   6.157   3.542
 1135SOL    HW1 4304   1.470   6.069   3.501
 1135SOL    HW2 4305   1.540   6.142   3.629
 1136SOL     OW 4306   1.696   5.439   2.612
 1136SOL    HW1 4307   1.633   5.364   2.636
 1136SOL    HW2 4308   1.723   5.487   2.695
 1137SOL     OW 4309   1.203   5.512   4.690
 1137SOL    HW1 4310   1.226   5.604   4.723
 1137SOL    HW2 4311   1.121   5.479   4.738
 1138SOL     OW 4312   2.145   3.731   4.479
 1138SOL    HW1 4313   2.160   3.828   4.498
 1138SOL    HW2 4314   2.081   3.693   4.546
 1139SOL     OW 4315   2.561   5.120   4.943
 1139SOL    HW1 4316   2.653   5.097   4.974
 1139SOL    HW2 4317   2.547   5.085   4.850
 1140SOL     OW 4318   1.992   2.318   1.268
 1140SOL    HW1 4319   1.992   2.229   1.223
 1140SOL    HW2 4320   2.079   2.331   1.316
 1141SOL     OW 4321   0.166   4.916   6.155
 1141SOL    HW1 4322   0.070   4.931   6.132
 1141SOL    HW2 4323   0.191   4.822   6.132
 1142SOL     OW 4324   1.876   6.182   2.088
 1142SOL    HW1 4325   1.856   6.135   2.174
 1142SOL    HW2 4326   1.929   6.121   2.028
 1143SOL     OW 4327   0.477   3.713   1.951
 1143SOL    HW1 4328   0.475   3.699   1.852
 1143SOL    HW2 4329   0.452   3.808   1.972
 1144SOL     OW 4330   5.848   4.459   0.451
 1144SOL    HW1 4331   5.815   4.552   0.471
 1144SOL    HW2 4332   5.794   4.393   0.502
 1145SOL     OW 4333   5.633   6.888   0.738
 1145SOL    HW1 4334   5.639   6.789   0.752
 1145SOL    HW2 4335   5.679   6.935   0.813
 1146SOL     OW 4336   0.988   0.808   1.432
 1146SOL    HW1 4337   0.924   0.742   1.471
 1146SOL    HW2 4338   0.977   0.811   1.333
 1147SOL     OW 4339   1.736   6.484   1.022
 1147SOL    HW1 4340   1.638   6.463   1.024
 1147SOL    HW2 4341   1.781   6.445   1.102
 1148SOL     OW 4342   3.989   5.966   3.180
 1148SOL    HW1 4343   3.909   6.002   3.227
 1148SOL    HW2 4344   3.960   5.904   3.107
 1149SOL     OW 4345   4.665   3.225   1.403
 1149SOL    HW1 4346   4.566   3.234   1.407
 1149SOL    HW2 4347   4.694   3.150   1.462
 1150SOL     OW 4348   1.474   3.476   0.741
 1150SOL    HW1 4349   1.420   3.468   0.825
 1150SOL    HW2 4350   1.568   3.501   0.764
 1151SOL     OW 4351   6.325   5.130   4.309
 1151SOL    HW1 4352   6.324   5.187   4.227
 1151SOL    HW2 4353   6.397   5.162   4.371
 1152SOL     OW 4354   3.558   6.474   6.384
 1152SOL    HW1 4355   3.512   6.495   6.298
 1152SOL    HW2 4356   3.512   6.522   6.459
 1153SOL     OW 4357   5.495   6.780   2.041
 1153SOL    HW1 4358   5.475   6.877   2.048
 1153SOL    HW2 4359   5.565   6.756   2.108
 1154SOL     OW 4360   2.238   2.892   0.606
 1154SOL    HW1 4361   2.146   2.929   0.617
 1154SOL    HW2 4362   2.248   2.854   0.514
 1155SOL     OW 4363   3.263   6.450   4.423
 1155SOL    HW1 4364   3.267   6.547   4.397
 1155SOL    HW2 4365   3.211   6.441   4.508
 1156SOL     OW 4366   2.773   1.888   3.022
 1156SOL    HW1 4367   2.805   1.931   2.938
 1156SOL    HW2 4368   2.826   1.805   3.040
 1157SOL     OW 4369   3.164   1.194   0.199
 1157SOL    HW1 4370   3.139   1.134   0.123
 1157SOL    HW2 4371   3.172   1.288   0.167
 1158SOL     OW 4372   6.016   4.471   3.035
 1158SOL    HW1 4373   5.938   4.489   3.096
 1158SOL    HW2 4374   5.985   4.476   2.940
 1159SOL     OW 4375   6.592   4.997   0.993
 1159SOL    HW1 4376   6.587   4.906   1.033
 1159SOL    HW2 4377   6.526   5.004   0.918
 1160SOL     OW 4378   5.615   1.899   0.113
 1160SOL    HW1 4379   5.611   1.995   0.142
 1160SOL    HW2 4380   5.696   1.855   0.153
 1161SOL     OW 4381   6.863   4.782   1.288
 1161SOL    HW1 4382   6.874   4.807   1.384
 1161SOL    HW2 4383   6.944   4.812   1.237
 1162SOL     OW 4384   3.103   2.198   4.723
 1162SOL    HW1 4385   3.187   2.199   4.670
 1162SOL    HW2 4386   3.121   2.234   4.815
 1163SOL     OW 4387   5.354   2.957   1.252
 1163SOL    HW1 4388   5.260   2.929   1.269
 1163SOL    HW2 4389   5.416   2.903   1.311
 1164SOL     OW 4390   3.845   2.572   5.715
 1164SOL    HW1 4391   3.791   2.572   5.631
 1164SOL    HW2 4392   3.786   2.595   5.793
 1165SOL     OW 4393   4.051   6.649   3.388
 1165SOL    HW1 4394   4.140   6.657   3.342
 1165SOL    HW2 4395   3.989   6.719   3.351
 1166SOL     OW 4396   2.866   4.806   5.929
 1166SOL    HW1 4397   2.851   4.861   6.011
 1166SOL    HW2 4398   2.795   4.827   5.861
 1167SOL     OW 4399   5.172   4.576   2.491
 1167SOL    HW1 4400   5.176   4.627   2.405
 1167SOL    HW2 4401   5.143   4.637   2.564
 1168SOL     OW 4402   6.895   0.460   2.329
 1168SOL    HW1 4403   6.925   0.538   2.383
 1168SOL    HW2 4404   6.799   0.439   2.351
 1169SOL     OW 4405   4.799   1.253   5.351
 1169SOL    HW1 4406   4.859   1.183   5.311
 1169SOL    HW2 4407   4.845   1.294   5.430
 1170SOL     OW 4408   4.500   5.350   3.129
 1170SOL    HW1 4409   4.511   5.257   3.094
 1170SOL    HW2 4410   4.558   5.362   3.210
 1171SOL     OW 4411   0.200   6.123   0.957
 1171SOL    HW1 4412   0.134   6.184   0.912
 1171SOL    HW2 4413   0.197   6.033   0.912
 1172SOL     OW 4414   6.650   3.668   6.515
 1172SOL    HW1 4415   6.640   3.588   6.456
 1172SOL    HW2 4416   6.599   3.654   6.599
 1173SOL     OW 4417   3.838   1.803   0.527
 1173SOL    HW1 4418   3.907   1.858   0.575
 1173SOL    HW2 4419   3.783   1.862   0.469
 1174SOL     OW 4420   2.213   4.371   0.641
 1174SOL    HW1 4421   2.303   4.341   0.672
 1174SOL    HW2 4422   2.221   4.458   0.592
 1175SOL     OW 4423   3.157   3.106   4.299
 1175SOL    HW1 4424   3.170   3.080   4.204
 1175SOL    HW2 4425   3.222   3.057   4.357
 1176SOL     OW 4426   5.368   3.207   6.044
 1176SOL    HW1 4427   5.358   3.286   6.105
 1176SOL    HW2 4428   5.340   3.124   6.092
 1177SOL     OW 4429   0.988   1.729   4.316
 1177SOL    HW1 4430   0.906   1.695   4.270
 1177SOL    HW2 4431   0.968   1.815   4.361
 1178SOL     OW 4432   4.124   5.794   0.497
 1178SOL    HW1 4433   4.054   5.834   0.556
 1178SOL    HW2 4434   4.080   5.743   0.423
 1179SOL     OW 4435   1.614   6.080   0.176
 1179SOL    HW1 4436   1.522   6.105   0.207
 1179SOL    HW2 4437   1.613   6.065   0.077
 1180SOL     OW 4438   3.533   6.231   0.348
 1180SOL    HW1 4439   3.621   6.200   0.310
 1180SOL    HW2 4440   3.539   6.236   0.447
 1181SOL     OW 4441   6.809   6.228   0.309
 1181SOL    HW1 4442   6.886   6.203   0.368
 1181SOL    HW2 4443   6.844   6.275   0.228
 1182SOL     OW 4444   4.482   4.719   2.548
 1182SOL    HW1 4445   4.568   4.760   2.520
 1182SOL    HW2 4446   4.496   4.623   2.571
 1183SOL     OW 4447   2.327   3.454   5.707
 1183SOL    HW1 4448   2.245   3.510   5.704
 1183SOL    HW2 4449   2.315   3.374   5.648
 1184SOL     OW 4450   0.793   6.844   5.487
 1184SOL    HW1 4451   0.713   6.880   5.439
 1184SOL    HW2 4452   0.824   6.760   5.442
 1185SOL     OW 4453   6.931   1.389   6.849
 1185SOL    HW1 4454   6.879   1.308   6.875
 1185SOL    HW2 4455   6.874   1.470   6.861
 1186SOL     OW 4456   5.957   6.436   4.615
 1186SOL    HW1 4457   6.032   6.433   4.549
 1186SOL    HW2 4458   5.978   6.377   4.693
 1187SOL     OW 4459   6.081   0.825   6.503
 1187SOL    HW1 4460   6.074   0.850   6.406
 1187SOL    HW2 4461   6.154   0.758   6.515
 1188SOL     OW 4462   2.516   0.127   6.319
 1188SOL    HW1 4463   2.554   0.050   6.371
 1188SOL    HW2 4464   2.495   0.202   6.382
 1189SOL     OW 4465   5.527   3.895   3.400
 1189SOL    HW1 4466   5.474   3.865   3.478
 1189SOL    HW2 4467   5.548   3.993   3.409
 1190SOL     OW 4468   2.164   6.290   3.421
 1190SOL    HW1 4469   2.208   6.358   3.363
 1190SOL    HW2 4470   2.211   6.202   3.410
 1191SOL     OW 4471   3.949   6.052   2.422
 1191SOL    HW1 4472   3.912   6.112   2.351
 1191SOL    HW2 4473   3.983   5.968   2.381
 1192SOL     OW 4474   5.772   5.709   3.560
 1192SOL    HW1 4475   5.808   5.777   3.496
 1192SOL    HW2 4476   5.826   5.710   3.644
 1193SOL     OW 4477   6.992   5.604   4.155
 1193SOL    HW1 4478   6.965   5.692   4.116
 1193SOL    HW2 4479   6.981   5.606   4.254
 1194SOL     OW 4480   3.796   0.590   1.139
 1194SOL    HW1 4481   3.861   0.606   1.065
 1194SOL    HW2 4482   3.834   0.623   1.225
 1195SOL     OW 4483   5.610   2.318   3.760
 1195SOL    HW1 4484   5.587   2.285   3.852
 1195SOL    HW2 4485   5.528   2.316   3.703
 1196SOL     OW 4486   6.347   6.428   5.171
 1196SOL    HW1 4487   6.379   6.485   5.096
 1196SOL    HW2 4488   6.247   6.422   5.169
 1197SOL     OW 4489   2.128   6.196   0.247
 1197SOL    HW1 4490   2.062   6.254   0.200
 1197SOL    HW2 4491   2.087   6.106   0.264
 1198SOL     OW 4492   1.670   2.697   6.984
 1198SOL    HW1 4493   1.763   2.667   6.964
 1198SOL    HW2 4494   1.606   2.647   6.925
 1199SOL     OW 4495   5.800   3.946   1.507
 1199SOL    HW1 4496   5.807   3.967   1.604
 1199SOL    HW2 4497   5.705   3.959   1.477
 1200SOL     OW 4498   3.105   3.020   2.153
 1200SOL    HW1 4499   3.027   2.988   2.205
 1200SOL    HW2 4500   3.100   2.984   2.059
 1201SOL     OW 4501   1.956   1.862   4.089
 1201SOL    HW1 4502   1.987   1.951   4.056
 1201SOL    HW2 4503   1.986   1.850   4.183
 1202SOL     OW 4504   0.888   5.414   5.676
 1202SOL    HW1 4505   0.858   5.510   5.670
 1202SOL    HW2 4506   0.987   5.411   5.690
 1203SOL     OW 4507   4.618   6.099   5.570
 1203SOL    HW1 4508   4.602   6.133   5.662
 1203SOL    HW2 4509   4.534   6.103   5.516
 1204SOL     OW 4510   2.090   6.868   2.808
 1204SOL    HW1 4511   2.165   6.831   2.862
 1204SOL    HW2 4512   2.033   6.793   2.775
 1205SOL     OW 4513   5.063   4.165   2.292
 1205SOL    HW1 4514   5.084   4.140   2.387
 1205SOL    HW2 4515   5.033   4.260   2.288
 1206SOL     OW 4516   2.879   3.781   5.025
 1206SOL    HW1 4517   2.864   3.715   4.952
 1206SOL    HW2 4518   2.806   3.848   5.025
 1207SOL     OW 4519   1.466   6.449   2.265
 1207SOL    HW1 4520   1.376   6.418   2.294
 1207SOL    HW2 4521   1.500   6.389   2.193
 1208SOL     OW 4522   3.172   3.861   5.732
 1208SOL    HW1 4523   3.208   3.770   5.714
 1208SOL    HW2 4524   3.131   3.898   5.648
 1209SOL     OW 4525   4.161   6.506   5.543
 1209SOL    HW1 4526   4.109   6.460   5.615
 1209SOL    HW2 4527   4.207   6.587   5.581
 1210SOL     OW 4528   3.161   0.779   2.998
 1210SOL    HW1 4529   3.095   0.846   3.033
 1210SOL    HW2 4530   3.237   0.771   3.063
 1211SOL     OW 4531   1.124   3.376   0.059
 1211SOL    HW1 4532   1.097   3.400   6.987
 1211SOL    HW2 4533   1.073   3.296   0.089
 1212SOL     OW 4534   1.125   6.838   0.436
 1212SOL    HW1 4535   1.076   6.782   0.369
 1212SOL    HW2 4536   1.136   6.931   0.400
 1213SOL     OW 4537   4.932   3.052   1.221
 1213SOL    HW1 4538   4.834   3.036   1.208
 1213SOL    HW2 4539   4.961   3.131   1.167
 1214SOL     OW 4540   0.090   2.332   1.427
 1214SOL    HW1 4541   0.037   2.247   1.425
 1214SOL    HW2 4542   0.167   2.325   1.363
 1215SOL     OW 4543   1.405   5.810   3.658
 1215SOL    HW1 4544   1.320   5.806   3.711
 1215SOL    HW2 4545   1.389   5.861   3.573
 1216SOL     OW 4546   4.469   6.142   1.115
 1216SOL    HW1 4547   4.465   6.074   1.189
 1216SOL    HW2 4548   4.553   6.130   1.064
 1217SOL     OW 4549   3.068   4.443   0.177
 1217SOL    HW1 4550   3.152   4.466   0.129
 1217SOL    HW2 4551   3.087   4.372   0.245
 1218SOL     OW 4552   1.803   4.761   3.828
 1218SOL    HW1 4553   1.773   4.730   3.737
 1218SOL    HW2 4554   1.903   4.764   3.831
 1219SOL     OW 4555   4.447   6.263   2.290
 1219SOL    HW1 4556   4.452   6.251   2.389
 1219SOL    HW2 4557   4.539   6.259   2.251
 1220SOL     OW 4558   1.084   4.594   2.751
 1220SOL    HW1 4559   1.108   4.601   2.654
 1220SOL    HW2 4560   1.165   4.612   2.807
 1221SOL     OW 4561   5.246   4.046   6.281
 1221SOL    HW1 4562   5.304   4.090   6.350
 1221SOL    HW2 4563   5.191   4.115   6.234
 1222SOL     OW 4564   6.407   6.988   6.664
 1222SOL    HW1 4565   6.392   0.061   6.632
 1222SOL    HW2 4566   6.458   6.990   6.750
 1223SOL     OW 4567   3.289   6.239   0.852
 1223SOL    HW1 4568   3.195   6.232   0.818
 1223SOL    HW2 4569   3.343   6.293   0.787
 1224SOL     OW 4570   2.963   0.538   2.360
 1224SOL    HW1 4571   3.013   0.599   2.422
 1224SOL    HW2 4572   2.960   0.578   2.268
 1225SOL     OW 4573   2.819   3.901   5.998
 1225SOL    HW1 4574   2.919   3.897   5.997
 1225SOL    HW2 4575   2.784   3.847   6.074
 1226SOL     OW 4576   1.977   4.867   1.094
 1226SOL    HW1 4577   1.938   4.780   1.064
 1226SOL    HW2 4578   2.063   4.850   1.142
 1227SOL     OW 4579   0.466   3.821   6.127
 1227SOL    HW1 4580   0.499   3.885   6.057
 1227SOL    HW2 4581   0.521   3.738   6.124
 1228SOL     OW 4582   3.504   1.849   6.252
 1228SOL    HW1 4583   3.547   1.865   6.163
 1228SOL    HW2 4584   3.405   1.848   6.242
 1229SOL     OW 4585   3.086   3.940   6.027
 1229SOL    HW1 4586   3.100   4.016   5.964
 1229SOL    HW2 4587   3.175   3.905   6.057
 1230SOL     OW 4588   4.566   0.182   3.305
 1230SOL    HW1 4589   4.590   0.237   3.385
 1230SOL    HW2 4590   4.483   0.130   3.323
 1231SOL     OW 4591   0.969   4.898   4.647
 1231SOL    HW1 4592   0.995   4.913   4.742
 1231SOL    HW2 4593   1.009   4.813   4.614
 1232SOL     OW 4594   2.019   1.891   4.386
 1232SOL    HW1 4595   1.957   1.840   4.445
 1232SOL    HW2 4596   2.110   1.893   4.426
 1233SOL     OW 4597   0.543   2.966   4.693
 1233SOL    HW1 4598   0.615   2.945   4.626
 1233SOL    HW2 4599   0.517   3.062   4.684
 1234SOL     OW 4600   6.523   3.677   4.224
 1234SOL    HW1 4601   6.578   3.718   4.297
 1234SOL    HW2 4602   6.436   3.646   4.262
 1235SOL     OW 4603   0.090   5.135   3.968
 1235SOL    HW1 4604   0.071   5.233   3.964
 1235SOL    HW2 4605   0.146   5.109   3.890
 1236SOL     OW 4606   5.114   1.157   6.310
 1236SOL    HW1 4607   5.161   1.115   6.388
 1236SOL    HW2 4608   5.023   1.188   6.338
 1237SOL     OW 4609   3.054   4.409   6.776
 1237SOL    HW1 4610   2.999   4.475   6.826
 1237SOL    HW2 4611   3.136   4.455   6.741
 1238SOL     OW 4612   1.352   1.394   1.399
 1238SOL    HW1 4613   1.264   1.436   1.376
 1238SOL    HW2 4614   1.403   1.376   1.315
 1239SOL     OW 4615   0.272   6.959   5.928
 1239SOL    HW1 4616   0.371   6.957   5.935
 1239SOL    HW2 4617   0.233   6.885   5.984
 1240SOL     OW 4618   4.365   5.955   1.949
 1240SOL    HW1 4619   4.415   5.893   2.010
 1240SOL    HW2 4620   4.401   6.048   1.960
 1241SOL     OW 4621   6.785   2.931   3.956
 1241SOL    HW1 4622   6.767   2.857   4.020
 1241SOL    HW2 4623   6.882   2.955   3.958
 1242SOL     OW 4624   2.147   3.705   6.166
 1242SOL    HW1 4625   2.079   3.731   6.233
 1242SOL    HW2 4626   2.232   3.756   6.182
 1243SOL     OW 4627   2.857   5.301   5.728
 1243SOL    HW1 4628   2.855   5.282   5.630
 1243SOL    HW2 4629   2.926   5.244   5.771
 1244SOL     OW 4630   0.921   1.098   3.119
 1244SOL    HW1 4631   1.013   1.067   3.096
 1244SOL    HW2 4632   0.871   1.119   3.035
 1245SOL     OW 4633   2.818   2.813   6.035
 1245SOL    HW1 4634   2.892   2.874   6.006
 1245SOL    HW2 4635   2.826   2.794   6.132
 1246SOL     OW 4636   1.265   6.937   1.938
 1246SOL    HW1 4637   1.273   6.843   1.903
 1246SOL    HW2 4638   1.212   6.936   2.023
 1247SOL     OW 4639   1.242   6.949   0.056
 1247SOL    HW1 4640   1.256   6.967   6.980
 1247SOL    HW2 4641   1.162   6.889   0.067
 1248SOL     OW 4642   1.890   6.632   3.518
 1248SOL    HW1 4643   1.924   6.685   3.595
 1248SOL    HW2 4644   1.910   6.680   3.433
 1249SOL     OW 4645   6.221   3.092   3.321
 1249SOL    HW1 4646   6.256   3.015   3.374
 1249SOL    HW2 4647   6.283   3.111   3.245
 1250SOL     OW 4648   0.480   3.696   4.466
 1250SOL    HW1 4649   0.550   3.633   4.434
 1250SOL    HW2 4650   0.480   3.778   4.409
 1251SOL     OW 4651   3.457   6.745   5.773
 1251SOL    HW1 4652   3.508   6.794   5.703
 1251SOL    HW2 4653   3.450   6.648   5.749
 1252SOL     OW 4654   3.475   3.078   6.599
 1252SOL    HW1 4655   3.509   3.018   6.526
 1252SOL    HW2 4656   3.544   3.148   6.619
 1253SOL     OW 4657   4.266   6.690   3.225
 1253SOL    HW1 4658   4.352   6.645   3.250
 1253SOL    HW2 4659   4.239   6.662   3.133
 1254SOL     OW 4660   6.486   2.208   2.411
 1254SOL    HW1 4661   6.569   2.259   2.386
 1254SOL    HW2 4662   6.510   2.133   2.472
 1255SOL     OW 4663   5.725   0.524   0.633
 1255SOL    HW1 4664   5.805   0.584   0.629
 1255SOL    HW2 4665   5.732   0.464   0.712
 1256SOL     OW 4666   4.508   1.981   3.961
 1256SOL    HW1 4667   4.526   1.922   3.883
 1256SOL    HW2 4668   4.464   2.065   3.930
 1257SOL     OW 4669   6.216   1.631   4.405
 1257SOL    HW1 4670   6.154   1.670   4.336
 1257SOL    HW2 4671   6.186   1.538   4.427
 1258SOL     OW 4672   0.109   6.294   3.912
 1258SOL    HW1 4673   0.163   6.377   3.923
 1258SOL    HW2 4674   0.147   6.222   3.970
 1259SOL     OW 4675   4.247   2.087   5.498
 1259SOL    HW1 4676   4.242   1.987   5.500
 1259SOL    HW2 4677   4.207   2.121   5.413
 1260SOL     OW 4678   0.615   1.513   5.636
 1260SOL    HW1 4679   0.710   1.526   5.607
 1260SOL    HW2 4680   0.554   1.533   5.558
 1261SOL     OW 4681   6.131   3.830   0.703
 1261SOL    HW1 4682   6.226   3.803   0.689
 1261SOL    HW2 4683   6.121   3.869   0.795
 1262SOL     OW 4684   5.130   6.194   2.803
 1262SOL    HW1 4685   5.052   6.252   2.824
 1262SOL    HW2 4686   5.121   6.156   2.711
 1263SOL     OW 4687   6.663   2.256   3.388
 1263SOL    HW1 4688   6.727   2.332   3.381
 1263SOL    HW2 4689   6.569   2.291   3.391
 1264SOL     OW 4690   1.105   2.779   5.351
 1264SOL    HW1 4691   1.076   2.846   5.418
 1264SOL    HW2 4692   1.124   2.692   5.397
 1265SOL     OW 4693   5.700   6.873   6.057
 1265SOL    HW1 4694   5.651   6.910   5.978
 1265SOL    HW2 4695   5.638   6.867   6.135
 1266SOL     OW 4696   2.206   1.284   5.890
 1266SOL    HW1 4697   2.125   1.270   5.946
 1266SOL    HW2 4698   2.187   1.355   5.821
 1267SOL     OW 4699   3.797   0.328   2.579
 1267SOL    HW1 4700   3.846   0.384   2.646
 1267SOL    HW2 4701   3.771   0.241   2.621
 1268SOL     OW 4702   3.938   2.954   5.840
 1268SOL    HW1 4703   3.886   3.035   5.810
 1268SOL    HW2 4704   3.983   2.912   5.762
 1269SOL     OW 4705   5.921   1.978   3.753
 1269SOL    HW1 4706   5.961   2.055   3.802
 1269SOL    HW2 4707   5.835   1.951   3.797
 1270SOL     OW 4708   6.285   5.282   2.731
 1270SOL    HW1 4709   6.339   5.366   2.726
 1270SOL    HW2 4710   6.338   5.211   2.777
 1271SOL     OW 4711   1.894   1.264   1.167
 1271SOL    HW1 4712   1.872   1.189   1.229
 1271SOL    HW2 4713   1.831   1.263   1.089
 1272SOL     OW 4714   6.133   2.146   6.695
 1272SOL    HW1 4715   6.136   2.132   6.596
 1272SOL    HW2 4716   6.083   2.231   6.715
 1273SOL     OW 4717   1.551   4.721   5.637
 1273SOL    HW1 4718   1.477   4.762   5.584
 1273SOL    HW2 4719   1.633   4.779   5.631
 1274SOL     OW 4720   0.289   4.628   3.306
 1274SOL    HW1 4721   0.388   4.638   3.295
 1274SOL    HW2 4722   0.243   4.675   3.231
 1275SOL     OW 4723   2.231   1.134   2.670
 1275SOL    HW1 4724   2.148   1.188   2.677
 1275SOL    HW2 4725   2.231   1.082   2.584
 1276SOL     OW 4726   5.658   4.929   3.441
 1276SOL    HW1 4727   5.597   4.920   3.362
 1276SOL    HW2 4728   5.729   4.859   3.438
 1277SOL     OW 4729   0.087   6.018   0.264
 1277SOL    HW1 4730   0.051   6.076   0.337
 1277SOL    HW2 4731   0.178   6.049   0.237
 1278SOL     OW 4732   0.933   5.763   2.932
 1278SOL    HW1 4733   1.021   5.781   2.975
 1278SOL    HW2 4734   0.881   5.849   2.924
 1279SOL     OW 4735   2.910   2.899   1.757
 1279SOL    HW1 4736   2.862   2.982   1.786
 1279SOL    HW2 4737   2.999   2.895   1.804
 1280SOL     OW 4738   2.526   2.464   3.924
 1280SOL    HW1 4739   2.450   2.398   3.921
 1280SOL    HW2 4740   2.609   2.420   3.891
 1281SOL     OW 4741   5.698   6.815   4.861
 1281SOL    HW1 4742   5.769   6.877   4.827
 1281SOL    HW2 4743   5.642   6.862   4.929
 1282SOL     OW 4744   0.464   2.931   1.160
 1282SOL    HW1 4745   0.481   2.970   1.070
 1282SOL    HW2 4746   0.529   2.857   1.177
 1283SOL     OW 4747   6.654   2.137   4.888
 1283SOL    HW1 4748   6.739   2.098   4.854
 1283SOL    HW2 4749   6.593   2.157   4.811
 1284SOL     OW 4750   3.910   2.005   1.822
 1284SOL    HW1 4751   3.902   2.084   1.760
 1284SOL    HW2 4752   3.846   2.015   1.898
 1285SOL     OW 4753   4.566   0.987   4.386
 1285SOL    HW1 4754   4.650   1.027   4.349
 1285SOL    HW2 4755   4.490   1.004   4.323
 1286SOL     OW 4756   5.248   1.444   0.735
 1286SOL    HW1 4757   5.290   1.366   0.689
 1286SOL    HW2 4758   5.270   1.528   0.684
 1287SOL     OW 4759   6.457   4.873   4.969
 1287SOL    HW1 4760   6.534   4.927   4.936
 1287SOL    HW2 4761   6.391   4.858   4.895
 1288SOL     OW 4762   4.930   4.884   0.154
 1288SOL    HW1 4763   4.877   4.835   0.085
 1288SOL    HW2 4764   4.979   4.959   0.111
 1289SOL     OW 4765   6.472   0.029   1.188
 1289SOL    HW1 4766   6.406   6.986   1.148
 1289SOL    HW2 4767   6.549   7.000   1.228
 1290SOL     OW 4768   1.089   6.000   5.608
 1290SOL    HW1 4769   1.142   5.962   5.532
 1290SOL    HW2 4770   1.013   6.054   5.571
 1291SOL     OW 4771   6.270   4.954   3.965
 1291SOL    HW1 4772   6.291   5.044   4.002
 1291SOL    HW2 4773   6.245   4.963   3.868
 1292SOL     OW 4774   1.247   6.668   1.844
 1292SOL    HW1 4775   1.323   6.616   1.804
 1292SOL    HW2 4776   1.180   6.689   1.772
 1293SOL     OW 4777   4.742   0.979   0.372
 1293SOL    HW1 4778   4.710   0.938   0.458
 1293SOL    HW2 4779   4.773   0.907   0.311
 1294SOL     OW 4780   2.032   4.708   5.139
 1294SOL    HW1 4781   2.096   4.785   5.144
 1294SOL    HW2 4782   1.990   4.705   5.049
 1295SOL     OW 4783   6.361   4.222   0.819
 1295SOL    HW1 4784   6.420   4.263   0.889
 1295SOL    HW2 4785   6.308   4.293   0.773
 1296SOL     OW 4786   5.023   0.175   6.083
 1296SOL    HW1 4787   5.040   0.250   6.019
 1296SOL    HW2 4788   4.957   0.204   6.153
 1297SOL     OW 4789   0.101   0.328   1.557
 1297SOL    HW1 4790   0.028   0.266   1.528
 1297SOL    HW2 4791   0.075   0.371   1.643
 1298SOL     OW 4792   5.502   0.499   2.662
 1298SOL    HW1 4793   5.559   0.580   2.658
 1298SOL    HW2 4794   5.547   0.424   2.613
 1299SOL     OW 4795   1.030   3.197   4.282
 1299SOL    HW1 4796   1.014   3.099   4.266
 1299SOL    HW2 4797   1.100   3.208   4.352
 1300SOL     OW 4798   0.432   5.776   1.206
 1300SOL    HW1 4799   0.502   5.714   1.171
 1300SOL    HW2 4800   0.348   5.766   1.151
 1301SOL     OW 4801   6.607   0.397   0.163
 1301SOL    HW1 4802   6.640   0.355   0.248
 1301SOL    HW2 4803   6.623   0.496   0.166
 1302SOL     OW 4804   6.430   6.879   5.280
 1302SOL    HW1 4805   6.367   6.802   5.294
 1302SOL    HW2 4806   6.454   6.884   5.183
 1303SOL     OW 4807   2.943   5.810   1.839
 1303SOL    HW1 4808   3.024   5.811   1.898
 1303SOL    HW2 4809   2.880   5.740   1.872
 1304SOL     OW 4810   0.324   0.510   0.443
 1304SOL    HW1 4811   0.259   0.581   0.415
 1304SOL    HW2 4812   0.401   0.553   0.490
 1305SOL     OW 4813   4.220   4.412   6.028
 1305SOL    HW1 4814   4.261   4.490   5.981
 1305SOL    HW2 4815   4.165   4.359   5.963
 1306SOL     OW 4816   3.442   5.973   3.929
 1306SOL    HW1 4817   3.398   6.002   3.844
 1306SOL    HW2 4818   3.510   5.903   3.909
 1307SOL     OW 4819   2.390   2.704   3.830
 1307SOL    HW1 4820   2.472   2.658   3.866
 1307SOL    HW2 4821   2.376   2.677   3.735
 1308SOL     OW 4822   0.061   3.711   6.557
 1308SOL    HW1 4823   0.040   3.615   6.540
 1308SOL    HW2 4824   0.005   3.769   6.499
 1309SOL     OW 4825   5.964   4.376   6.380
 1309SOL    HW1 4826   5.973   4.325   6.466
 1309SOL    HW2 4827   5.953   4.473   6.400
 1310SOL     OW 4828   1.593   4.433   3.339
 1310SOL    HW1 4829   1.596   4.373   3.419
 1310SOL    HW2 4830   1.563   4.380   3.259
 1311SOL     OW 4831   5.697   5.227   0.250
 1311SOL    HW1 4832   5.784   5.230   0.201
 1311SOL    HW2 4833   5.626   5.191   0.190
 1312SOL     OW 4834   2.586   1.332   5.895
 1312SOL    HW1 4835   2.534   1.301   5.815
 1312SOL    HW2 4836   2.680   1.351   5.868
 1313SOL     OW 4837   6.573   5.783   1.943
 1313SOL    HW1 4838   6.503   5.825   1.999
 1313SOL    HW2 4839   6.629   5.722   1.999
 1314SOL     OW 4840   2.364   1.743   4.374
 1314SOL    HW1 4841   2.433   1.681   4.335
 1314SOL    HW2 4842   2.273   1.704   4.361
 1315SOL     OW 4843   6.314   1.108   2.532
 1315SOL    HW1 4844   6.388   1.148   2.478
 1315SOL    HW2 4845   6.350   1.032   2.586
 1316SOL     OW 4846   5.454   0.290   6.574
 1316SOL    HW1 4847   5.505   0.366   6.615
 1316SOL    HW2 4848   5.408   0.322   6.491
 1317SOL     OW 4849   3.378   3.041   5.777
 1317SOL    HW1 4850   3.323   3.102   5.720
 1317SOL    HW2 4851   3.412   3.091   5.856
 1318SOL     OW 4852   1.917   1.685   6.062
 1318SOL    HW1 4853   1.899   1.731   6.149
 1318SOL    HW2 4854   1.849   1.715   5.995
 1319SOL     OW 4855   6.739   0.225   0.312
 1319SOL    HW1 4856   6.726   0.204   0.409
 1319SOL    HW2 4857   6.697   0.153   0.257
 1320SOL     OW 4858   3.295   3.364   6.201
 1320SOL    HW1 4859   3.266   3.459   6.207
 1320SOL    HW2 4860   3.260   3.313   6.279
 1321SOL     OW 4861   7.004   2.583   0.532
 1321SOL    HW1 4862   6.921   2.639   0.522
 1321SOL    HW2 4863   7.003   2.536   0.620
 1322SOL     OW 4864   3.758   2.271   0.090
 1322SOL    HW1 4865   3.675   2.261   0.035
 1322SOL    HW2 4866   3.807   2.353   0.062
 1323SOL     OW 4867   3.989   6.420   1.420
 1323SOL    HW1 4868   3.991   6.387   1.326
 1323SOL    HW2 4869   4.016   6.516   1.422
 1324SOL     OW 4870   2.670   3.802   6.208
 1324SOL    HW1 4871   2.614   3.720   6.195
 1324SOL    HW2 4872   2.699   3.807   6.304
 1325SOL     OW 4873   3.607   5.646   5.489
 1325SOL    HW1 4874   3.638   5.701   5.411
 1325SOL    HW2 4875   3.515   5.674   5.515
 1326SOL     OW 4876   4.933   1.648   4.907
 1326SOL    HW1 4877   4.919   1.691   4.996
 1326SOL    HW2 4878   4.904   1.711   4.835
 1327SOL     OW 4879   5.247   5.715   2.444
 1327SOL    HW1 4880   5.190   5.699   2.524
 1327SOL    HW2 4881   5.287   5.806   2.449
 1328SOL     OW 4882   1.827   2.478   6.019
 1328SOL    HW1 4883   1.890   2.555   6.016
 1328SOL    HW2 4884   1.760   2.492   6.091
 1329SOL     OW 4885   0.804   2.556   3.771
 1329SOL    HW1 4886   0.868   2.516   3.837
 1329SOL    HW2 4887   0.844   2.551   3.679
 1330SOL     OW 4888   5.913   3.111   2.868
 1330SOL    HW1 4889   5.993   3.067   2.827
 1330SOL    HW2 4890   5.863   3.044   2.922
 1331SOL     OW 4891   4.689   2.348   3.365
 1331SOL    HW1 4892   4.700   2.262   3.415
 1331SOL    HW2 4893   4.713   2.424   3.425
 1332SOL     OW 4894   1.828   5.680   0.585
 1332SOL    HW1 4895   1.916   5.633   0.596
 1332SOL    HW2 4896   1.840   5.778   0.603
 1333SOL     OW 4897   3.073   3.963   3.011
 1333SOL    HW1 4898   3.100   3.992   3.103
 1333SOL    HW2 4899   2.989   3.908   3.016
 1334SOL     OW 4900   6.602   3.396   1.689
 1334SOL    HW1 4901   6.514   3.387   1.734
 1334SOL    HW2 4902   6.600   3.347   1.601
 1335SOL     OW 4903   0.942   2.927   3.431
 1335SOL    HW1 4904   0.925   2.848   3.373
 1335SOL    HW2 4905   0.882   3.002   3.404
 1336SOL     OW 4906   2.046   0.080   5.421
 1336SOL    HW1 4907   1.962   0.132   5.404
 1336SOL    HW2 4908   2.109   0.135   5.476
 1337SOL     OW 4909   0.080   0.092   3.000
 1337SOL    HW1 4910   0.111   0.015   2.944
 1337SOL    HW2 4911   7.014   0.126   2.964
 1338SOL     OW 4912   6.485   4.037   4.900
 1338SOL    HW1 4913   6.454   4.058   4.808
 1338SOL    HW2 4914   6.552   4.105   4.929
 1339SOL     OW 4915   6.244   0.232   0.173
 1339SOL    HW1 4916   6.168   0.261   0.232
 1339SOL    HW2 4917   6.316   0.191   0.229
 1340SOL     OW 4918   3.708   2.711   1.012
 1340SOL    HW1 4919   3.629   2.760   1.049
 1340SOL    HW2 4920   3.739   2.643   1.080
 1341SOL     OW 4921   4.884   6.021   6.981
 1341SOL    HW1 4922   4.798   6.049   0.005
 1341SOL    HW2 4923   4.877   6.040   6.883
 1342SOL     OW 4924   1.930   5.872   1.487
 1342SOL    HW1 4925   1.849   5.927   1.467
 1342SOL    HW2 4926   1.902   5.785   1.528
 1343SOL     OW 4927   5.744   5.770   2.909
 1343SOL    HW1 4928   5.754   5.870   2.916
 1343SOL    HW2 4929   5.820   5.734   2.855
 1344SOL     OW 4930   0.899   0.501   4.492
 1344SOL    HW1 4931   0.855   0.545   4.570
 1344SOL    HW2 4932   0.993   0.533   4.485
 1345SOL     OW 4933   0.650   6.357   0.128
 1345SOL    HW1 4934   0.679   6.442   0.084
 1345SOL    HW2 4935   0.558   6.333   0.096
 1346SOL     OW 4936   3.082   5.069   4.464
 1346SOL    HW1 4937   3.128   5.009   4.529
 1346SOL    HW2 4938   3.149   5.126   4.417
 1347SOL     OW 4939   1.302   0.162   6.639
 1347SOL    HW1 4940   1.381   0.211   6.676
 1347SOL    HW2 4941   1.220   0.218   6.651
 1348SOL     OW 4942   0.693   6.273   5.112
 1348SOL    HW1 4943   0.660   6.201   5.051
 1348SOL    HW2 4944   0.716   6.234   5.201
 1349SOL     OW 4945   5.374   3.587   3.843
 1349SOL    HW1 4946   5.336   3.506   3.798
 1349SOL    HW2 4947   5.344   3.590   3.938
 1350SOL     OW 4948   4.377   4.797   6.988
 1350SOL    HW1 4949   4.449   4.776   6.922
 1350SOL    HW2 4950   4.378   4.730   0.040
 1351SOL     OW 4951   0.516   2.997   5.873
 1351SOL    HW1 4952   0.449   2.969   5.942
 1351SOL    HW2 4953   0.556   3.084   5.900
 1352SOL     OW 4954   6.790   0.755   3.128
 1352SOL    HW1 4955   6.881   0.712   3.134
 1352SOL    HW2 4956   6.737   0.732   3.210
 1353SOL     OW 4957   0.389   0.934   0.429
 1353SOL    HW1 4958   0.469   0.991   0.410
 1353SOL    HW2 4959   0.353   0.898   0.343
 1354SOL     OW 4960   4.725   5.230   2.570
 1354SOL    HW1 4961   4.771   5.317   2.590
 1354SOL    HW2 4962   4.635   5.248   2.531
 1355SOL     OW 4963   5.106   3.134   5.537
 1355SOL    HW1 4964   5.175   3.204   5.549
 1355SOL    HW2 4965   5.145   3.044   5.558
 1356SOL     OW 4966   2.429   3.346   0.154
 1356SOL    HW1 4967   2.485   3.421   0.118
 1356SOL    HW2 4968   2.455   3.328   0.249
 1357SOL     OW 4969   1.602   2.626   5.272
 1357SOL    HW1 4970   1.567   2.719   5.283
 1357SOL    HW2 4971   1.694   2.629   5.233
 1358SOL     OW 4972   2.259   0.131   0.433
 1358SOL    HW1 4973   2.168   0.140   0.474
 1358SOL    HW2 4974   2.260   0.177   0.344
 1359SOL     OW 4975   6.349   4.353   1.204
 1359SOL    HW1 4976   6.414   4.279   1.219
 1359SOL    HW2 4977   6.393   4.441   1.222
 1360SOL     OW 4978   1.935   2.747   0.201
 1360SOL    HW1 4979   1.915   2.839   0.234
 1360SOL    HW2 4980   2.013   2.710   0.251
 1361SOL     OW 4981   6.707   4.189   4.989
 1361SOL    HW1 4982   6.739   4.267   4.937
 1361SOL    HW2 4983   6.784   4.128   5.009
 1362SOL     OW 4984   3.276   3.339   2.843
 1362SOL    HW1 4985   3.301   3.426   2.885
 1362SOL    HW2 4986   3.344   3.270   2.868
 1363SOL     OW 4987   1.123   6.213   4.174
 1363SOL    HW1 4988   1.118   6.312   4.186
 1363SOL    HW2 4989   1.130   6.169   4.264
 1364SOL     OW 4990   4.935   4.093   0.706
 1364SOL    HW1 4991   4.868   4.019   0.716
 1364SOL    HW2 4992   4.921   4.160   0.779
 1365SOL     OW 4993   6.497   3.413   6.567
 1365SOL    HW1 4994   6.450   3.335   6.608
 1365SOL    HW2 4995   6.501   3.488   6.633
 1366SOL     OW 4996   2.656   6.947   5.673
 1366SOL    HW1 4997   2.749   6.985   5.673
 1366SOL    HW2 4998   2.607   6.981   5.754
 1367SOL     OW 4999   2.500   1.552   2.443
 1367SOL    HW1 5000   2.546   1.639   2.422
 1367SOL    HW2 5001   2.473   1.507   2.358
 1368SOL     OW 5002   5.536   6.196   3.062
 1368SOL    HW1 5003   5.563   6.292   3.065
 1368SOL    HW2 5004   5.497   6.170   3.150
 1369SOL     OW 5005   0.907   0.872   2.731
 1369SOL    HW1 5006   0.882   0.932   2.806
 1369SOL    HW2 5007   1.002   0.890   2.704
 1370SOL     OW 5008   2.280   0.693   1.671
 1370SOL    HW1 5009   2.318   0.624   1.610
 1370SOL    HW2 5010   2.336   0.776   1.667
 1371SOL     OW 5011   3.595   0.307   6.592
 1371SOL    HW1 5012   3.502   0.327   6.621
 1371SOL    HW2 5013   3.660   0.346   6.657
 1372SOL     OW 5014   2.948   2.116   2.193
 1372SOL    HW1 5015   3.040   2.102   2.158
 1372SOL    HW2 5016   2.908   2.196   2.149
 1373SOL     OW 5017   1.556   6.038   6.929
 1373SOL    HW1 5018   1.614   6.086   6.864
 1373SOL    HW2 5019   1.461   6.063   6.914
 1374SOL     OW 5020   5.279   4.208   0.168
 1374SOL    HW1 5021   5.232   4.121   0.150
 1374SOL    HW2 5022   5.343   4.196   0.244
 1375SOL     OW 5023   0.871   4.313   5.356
 1375SOL    HW1 5024   0.800   4.324   5.286
 1375SOL    HW2 5025   0.911   4.222   5.349
 1376SOL     OW 5026   4.637   1.257   2.512
 1376SOL    HW1 5027   4.716   1.307   2.548
 1376SOL    HW2 5028   4.596   1.203   2.585
 1377SOL     OW 5029   1.016   4.567   4.251
 1377SOL    HW1 5030   0.964   4.543   4.333
 1377SOL    HW2 5031   0.960   4.551   4.170
 1378SOL     OW 5032   1.833   2.888   6.607
 1378SOL    HW1 5033   1.832   2.862   6.510
 1378SOL    HW2 5034   1.815   2.986   6.616
 1379SOL     OW 5035   4.076   6.045   1.150
 1379SOL    HW1 5036   4.127   6.033   1.235
 1379SOL    HW2 5037   4.038   6.137   1.146
 1380SOL     OW 5038   5.685   5.232   2.880
 1380SOL    HW1 5039   5.734   5.261   2.963
 1380SOL    HW2 5040   5.743   5.168   2.829
 1381SOL     OW 5041   5.737   6.987   1.779
 1381SOL    HW1 5042   5.665   0.018   1.825
 1381SOL    HW2 5043   5.818   6.986   1.837
 1382SOL     OW 5044   0.075   4.660   6.596
 1382SOL    HW1 5045   0.155   4.713   6.626
 1382SOL    HW2 5046   0.033   4.615   6.675
 1383SOL     OW 5047   2.402   0.618   0.286
 1383SOL    HW1 5048   2.492   0.652   0.259
 1383SOL    HW2 5049   2.331   0.669   0.237
 1384SOL     OW 5050   2.151   2.204   2.323
 1384SOL    HW1 5051   2.216   2.217   2.398
 1384SOL    HW2 5052   2.176   2.264   2.247
 1385SOL     OW 5053   5.422   3.032   3.772
 1385SOL    HW1 5054   5.392   3.122   3.803
 1385SOL    HW2 5055   5.453   3.038   3.677
 1386SOL     OW 5056   2.125   2.685   3.973
 1386SOL    HW1 5057   2.217   2.715   3.950
 1386SOL    HW2 5058   2.087   2.746   4.043
 1387SOL     OW 5059   2.940   0.434   4.475
 1387SOL    HW1 5060   2.963   0.462   4.381
 1387SOL    HW2 5061   3.009   0.469   4.538
 1388SOL     OW 5062   5.816   1.569   3.945
 1388SOL    HW1 5063   5.825   1.607   4.037
 1388SOL    HW2 5064   5.788   1.473   3.951
 1389SOL     OW 5065   6.850   0.497   4.045
 1389SOL    HW1 5066   6.936   0.448   4.062
 1389SOL    HW2 5067   6.787   0.436   3.996
 1390SOL     OW 5068   4.553   2.429   2.397
 1390SOL    HW1 5069   4.553   2.329   2.398
 1390SOL    HW2 5070   4.646   2.463   2.410
 1391SOL     OW 5071   5.507   1.579   4.780
 1391SOL    HW1 5072   5.548   1.657   4.827
 1391SOL    HW2 5073   5.492   1.505   4.845
 1392SOL     OW 5074   4.356   6.611   5.333
 1392SOL    HW1 5075   4.448   6.573   5.322
 1392SOL    HW2 5076   4.302   6.551   5.392
 1393SOL     OW 5077   4.717   0.107   0.000
 1393SOL    HW1 5078   4.708   0.090   6.923
 1393SOL    HW2 5079   4.667   0.190   0.025
 1394SOL     OW 5080   4.385   7.010   4.166
 1394SOL    HW1 5081   4.313   0.057   4.174
 1394SOL    HW2 5082   4.359   6.942   4.098
 1395SOL     OW 5083   0.539   5.175   2.396
 1395SOL    HW1 5084   0.524   5.132   2.307
 1395SOL    HW2 5085   0.603   5.252   2.385
 1396SOL     OW 5086   1.399   1.752   3.529
 1396SOL    HW1 5087   1.373   1.813   3.604
 1396SOL    HW2 5088   1.416   1.660   3.565
 1397SOL     OW 5089   1.380   5.199   5.196
 1397SOL    HW1 5090   1.315   5.181   5.270
 1397SOL    HW2 5091   1.383   5.121   5.134
 1398SOL     OW 5092   2.046   6.794   6.533
 1398SOL    HW1 5093   1.953   6.812   6.564
 1398SOL    HW2 5094   2.045   6.774   6.435
 1399SOL     OW 5095   3.853   0.174   6.875
 1399SOL    HW1 5096   3.822   0.266   6.853
 1399SOL    HW2 5097   3.952   0.167   6.858
 1400SOL     OW 5098   0.398   1.034   5.064
 1400SOL    HW1 5099   0.412   1.026   4.965
 1400SOL    HW2 5100   0.456   0.968   5.111
 1401SOL     OW 5101   5.393   0.368   1.845
 1401SOL    HW1 5102   5.300   0.345   1.820
 1401SOL    HW2 5103   5.452   0.366   1.764
 1402SOL     OW 5104   6.402   4.638   2.052
 1402SOL    HW1 5105   6.473   4.592   1.999
 1402SOL    HW2 5106   6.413   4.737   2.045
 1403SOL     OW 5107   2.979   3.636   6.246
 1403SOL    HW1 5108   2.943   3.597   6.330
 1403SOL    HW2 5109   3.079   3.628   6.245
 1404SOL     OW 5110   3.651   6.635   0.404
 1404SOL    HW1 5111   3.705   6.582   0.338
 1404SOL    HW2 5112   3.670   6.733   0.391
 1405SOL     OW 5113   1.030   3.460   0.343
 1405SOL    HW1 5114   0.942   3.452   0.390
 1405SOL    HW2 5115   1.025   3.413   0.255
 1406SOL     OW 5116   2.494   3.063   0.009
 1406SOL    HW1 5117   2.416   3.000   0.010
 1406SOL    HW2 5118   2.477   3.139   0.071
 1407SOL     OW 5119   0.429   2.408   1.105
 1407SOL    HW1 5120   0.332   2.427   1.086
 1407SOL    HW2 5121   0.474   2.492   1.135
 1408SOL     OW 5122   5.538   6.691   0.447
 1408SOL    HW1 5123   5.627   6.662   0.483
 1408SOL    HW2 5124   5.505   6.625   0.380
 1409SOL     OW 5125   6.232   1.557   5.835
 1409SOL    HW1 5126   6.194   1.647   5.859
 1409SOL    HW2 5127   6.176   1.514   5.765
 1410SOL     OW 5128   3.127   0.637   0.400
 1410SOL    HW1 5129   3.088   0.684   0.321
 1410SOL    HW2 5130   3.057   0.623   0.469
 1411SOL     OW 5131   3.597   5.084   6.666
 1411SOL    HW1 5132   3.688   5.121   6.686
 1411SOL    HW2 5133   3.578   5.007   6.725
 1412SOL     OW 5134   2.215   2.202   6.639
 1412SOL    HW1 5135   2.229   2.197   6.541
 1412SOL    HW2 5136   2.130   2.154   6.662
 1413SOL     OW 5137   2.203   1.473   5.673
 1413SOL    HW1 5138   2.272   1.493   5.603
 1413SOL    HW2 5139   2.183   1.557   5.724
 1414SOL     OW 5140   0.822   4.970   1.887
 1414SOL    HW1 5141   0.824   4.977   1.987
 1414SOL    HW2 5142   0.733   4.998   1.853
 1415SOL     OW 5143   3.866   1.761   4.777
 1415SOL    HW1 5144   3.797   1.826   4.807
 1415SOL    HW2 5145   3.827   1.701   4.707
 1416SOL     OW 5146   4.587   0.553   5.234
 1416SOL    HW1 5147   4.604   0.456   5.251
 1416SOL    HW2 5148   4.579   0.568   5.135
 1417SOL     OW 5149   3.293   3.347   4.224
 1417SOL    HW1 5150   3.253   3.435   4.252
 1417SOL    HW2 5151   3.236   3.272   4.257
 1418SOL     OW 5152   2.976   3.671   5.563
 1418SOL    HW1 5153   2.978   3.730   5.643
 1418SOL    HW2 5154   2.994   3.725   5.480
 1419SOL     OW 5155   0.934   6.170   1.783
 1419SOL    HW1 5156   0.864   6.123   1.836
 1419SOL    HW2 5157   0.967   6.110   1.710
 1420SOL     OW 5158   3.124   5.881   2.859
 1420SOL    HW1 5159   3.194   5.816   2.828
 1420SOL    HW2 5160   3.158   5.974   2.851
 1421SOL     OW 5161   1.833   5.641   0.171
 1421SOL    HW1 5162   1.924   5.626   0.211
 1421SOL    HW2 5163   1.798   5.730   0.201
 1422SOL     OW 5164   1.827   3.788   6.881
 1422SOL    HW1 5165   1.785   3.797   6.972
 1422SOL    HW2 5166   1.925   3.770   6.891
 1423SOL     OW 5167   4.224   1.052   4.980
 1423SOL    HW1 5168   4.263   1.131   5.026
 1423SOL    HW2 5169   4.151   1.081   4.919
 1424SOL     OW 5170   6.201   2.367   1.229
 1424SOL    HW1 5171   6.106   2.395   1.211
 1424SOL    HW2 5172   6.254   2.374   1.144
 1425SOL     OW 5173   5.365   0.095   3.527
 1425SOL    HW1 5174   5.298   0.133   3.464
 1425SOL    HW2 5175   5.367   7.016   3.517
 1426SOL     OW 5176   4.106   0.835   0.506
 1426SOL    HW1 5177   4.119   0.867   0.412
 1426SOL    HW2 5178   4.098   0.914   0.567
 1427SOL     OW 5179   1.213   0.765   4.352
 1427SOL    HW1 5180   1.232   0.770   4.450
 1427SOL    HW2 5181   1.190   0.671   4.327
 1428SOL     OW 5182   2.200   3.964   3.736
 1428SOL    HW1 5183   2.221   4.005   3.648
 1428SOL    HW2 5184   2.107   3.927   3.735
 1429SOL     OW 5185   5.583   0.344   2.051
 1429SOL    HW1 5186   5.591   0.421   2.114
 1429SOL    HW2 5187   5.517   0.366   1.979
 1430SOL     OW 5188   2.005   4.247   4.641
 1430SOL    HW1 5189   2.001   4.313   4.566
 1430SOL    HW2 5190   2.069   4.279   4.711
 1431SOL     OW 5191   3.430   1.412   0.221
 1431SOL    HW1 5192   3.406   1.445   0.313
 1431SOL    HW2 5193   3.359   1.439   0.157
 1432SOL     OW 5194   4.424   6.844   2.955
 1432SOL    HW1 5195   4.476   6.807   2.878
 1432SOL    HW2 5196   4.327   6.823   2.943
 1433SOL     OW 5197   3.167   1.499   3.964
 1433SOL    HW1 5198   3.157   1.418   3.906
 1433SOL    HW2 5199   3.220   1.476   4.045
 1434SOL     OW 5200   5.451   3.744   0.937
 1434SOL    HW1 5201   5.363   3.793   0.940
 1434SOL    HW2 5202   5.511   3.780   1.009
 1435SOL     OW 5203   0.827   6.334   4.301
 1435SOL    HW1 5204   0.785   6.254   4.259
 1435SOL    HW2 5205   0.910   6.359   4.251
 1436SOL     OW 5206   5.406   0.902   0.435
 1436SOL    HW1 5207   5.442   0.897   0.528
 1436SOL    HW2 5208   5.454   0.836   0.377
 1437SOL     OW 5209   4.506   1.377   0.506
 1437SOL    HW1 5210   4.539   1.436   0.579
 1437SOL    HW2 5211   4.446   1.429   0.446
 1438SOL     OW 5212   2.179   0.105   2.785
 1438SOL    HW1 5213   2.267   0.105   2.739
 1438SOL    HW2 5214   2.141   0.013   2.786
 1439SOL     OW 5215   0.690   5.229   6.170
 1439SOL    HW1 5216   0.711   5.276   6.256
 1439SOL    HW2 5217   0.615   5.165   6.185
 1440SOL     OW 5218   3.966   3.001   2.235
 1440SOL    HW1 5219   4.046   2.943   2.252
 1440SOL    HW2 5220   3.956   3.014   2.137
 1441SOL     OW 5221   6.275   1.823   5.912
 1441SOL    HW1 5222   6.316   1.877   5.985
 1441SOL    HW2 5223   6.268   1.878   5.829
 1442SOL     OW 5224   5.269   6.132   0.246
 1442SOL    HW1 5225   5.188   6.098   0.198
 1442SOL    HW2 5226   5.291   6.224   0.213
 1443SOL     OW 5227   1.272   2.294   3.682
 1443SOL    HW1 5228   1.307   2.257   3.596
 1443SOL    HW2 5229   1.172   2.295   3.680
 1444SOL     OW 5230   5.199   6.457   5.051
 1444SOL    HW1 5231   5.135   6.501   5.113
 1444SOL    HW2 5232   5.171   6.362   5.037
 1445SOL     OW 5233   6.547   2.025   6.742
 1445SOL    HW1 5234   6.447   2.029   6.737
 1445SOL    HW2 5235   6.575   1.929   6.752
 1446SOL     OW 5236   3.905   5.463   1.330
 1446SOL    HW1 5237   3.957   5.540   1.368
 1446SOL    HW2 5238   3.809   5.470   1.359
 1447SOL     OW 5239   6.434   1.037   5.035
 1447SOL    HW1 5240   6.498   0.968   5.070
 1447SOL    HW2 5241   6.447   1.047   4.936
 1448SOL     OW 5242   5.709   0.410   6.958
 1448SOL    HW1 5243   5.706   0.497   7.008
 1448SOL    HW2 5244   5.803   0.376   6.956
 1449SOL     OW 5245   4.328   5.345   0.827
 1449SOL    HW1 5246   4.229   5.357   0.834
 1449SOL    HW2 5247   4.356   5.264   0.879
 1450SOL     OW 5248   6.085   1.424   4.017
 1450SOL    HW1 5249   6.133   1.511   4.026
 1450SOL    HW2 5250   6.001   1.426   4.072
 1451SOL     OW 5251   1.500   6.604   1.692
 1451SOL    HW1 5252   1.557   6.522   1.705
 1451SOL    HW2 5253   1.558   6.682   1.670
 1452SOL     OW 5254   3.522   0.344   5.721
 1452SOL    HW1 5255   3.489   0.428   5.765
 1452SOL    HW2 5256   3.450   0.305   5.665
 1453SOL     OW 5257   5.231   4.352   4.022
 1453SOL    HW1 5258   5.313   4.337   4.078
 1453SOL    HW2 5259   5.213   4.451   4.016
 1454SOL     OW 5260   5.168   3.891   0.875
 1454SOL    HW1 5261   5.150   3.982   0.836
 1454SOL    HW2 5262   5.162   3.822   0.802
 1455SOL     OW 5263   2.010   2.243   1.702
 1455SOL    HW1 5264   2.080   2.311   1.723
 1455SOL    HW2 5265   2.040   2.154   1.734
 1456SOL     OW 5266   6.289   5.169   5.348
 1456SOL    HW1 5267   6.365   5.138   5.291
 1456SOL    HW2 5268   6.229   5.092   5.367
 1457SOL     OW 5269   1.846   0.779   4.027
 1457SOL    HW1 5270   1.809   0.710   3.965
 1457SOL    HW2 5271   1.932   0.747   4.066
 1458SOL     OW 5272   0.143   5.627   0.086
 1458SOL    HW1 5273   0.219   5.690   0.075
 1458SOL    HW2 5274   0.086   5.657   0.163
 1459SOL     OW 5275   2.940   0.323   1.294
 1459SOL    HW1 5276   2.844   0.300   1.281
 1459SOL    HW2 5277   2.988   0.317   1.207
 1460SOL     OW 5278   0.414   0.132   0.028
 1460SOL    HW1 5279   0.346   0.066   0.058
 1460SOL    HW2 5280   0.457   0.100   6.965
 1461SOL     OW 5281   4.703   5.555   2.491
 1461SOL    HW1 5282   4.772   5.527   2.558
 1461SOL    HW2 5283   4.654   5.635   2.527
 1462SOL     OW 5284   5.681   0.410   5.174
 1462SOL    HW1 5285   5.754   0.475   5.195
 1462SOL    HW2 5286   5.654   0.361   5.257
 1463SOL     OW 5287   0.556   2.305   6.077
 1463SOL    HW1 5288   0.489   2.371   6.111
 1463SOL    HW2 5289   0.632   2.298   6.141
 1464SOL     OW 5290   0.812   0.616   1.502
 1464SOL    HW1 5291   0.771   0.532   1.538
 1464SOL    HW2 5292   0.753   0.653   1.430
 1465SOL     OW 5293   0.971   0.808   3.976
 1465SOL    HW1 5294   0.998   0.859   3.895
 1465SOL    HW2 5295   1.013   0.849   4.057
 1466SOL     OW 5296   6.042   5.324   5.038
 1466SOL    HW1 5297   6.056   5.404   4.980
 1466SOL    HW2 5298   6.003   5.249   4.984
 1467SOL     OW 5299   5.959   3.840   3.828
 1467SOL    HW1 5300   5.918   3.848   3.919
 1467SOL    HW2 5301   6.057   3.826   3.838
 1468SOL     OW 5302   4.644   0.381   2.188
 1468SOL    HW1 5303   4.620   0.284   2.182
 1468SOL    HW2 5304   4.574   0.429   2.241
 1469SOL     OW 5305   0.606   0.837   2.075
 1469SOL    HW1 5306   0.528   0.894   2.046
 1469SOL    HW2 5307   0.655   0.883   2.149
 1470SOL     OW 5308   6.883   0.356   3.146
 1470SOL    HW1 5309   6.881   0.298   3.065
 1470SOL    HW2 5310   6.804   0.335   3.204
 1471SOL     OW 5311   5.764   0.773   1.424
 1471SOL    HW1 5312   5.817   0.705   1.374
 1471SOL    HW2 5313   5.808   0.791   1.513
 1472SOL     OW 5314   4.630   5.444   4.687
 1472SOL    HW1 5315   4.553   5.501   4.659
 1472SOL    HW2 5316   4.614   5.409   4.779
 1473SOL     OW 5317   6.262   3.447   3.221
 1473SOL    HW1 5318   6.294   3.404   3.305
 1473SOL    HW2 5319   6.339   3.487   3.172
 1474SOL     OW 5320   4.435   5.524   2.936
 1474SOL    HW1 5321   4.479   5.614   2.940
 1474SOL    HW2 5322   4.468   5.468   3.012
 1475SOL     OW 5323   6.189   0.184   3.207
 1475SOL    HW1 5324   6.164   0.122   3.133
 1475SOL    HW2 5325   6.227   0.132   3.283
 1476SOL     OW 5326   0.224   2.515   0.965
 1476SOL    HW1 5327   0.139   2.540   0.920
 1476SOL    HW2 5328   0.297   2.577   0.936
 1477SOL     OW 5329   2.317   6.675   4.091
 1477SOL    HW1 5330   2.417   6.684   4.094
 1477SOL    HW2 5331   2.281   6.725   4.012
 1478SOL     OW 5332   6.659   3.657   1.769
 1478SOL    HW1 5333   6.634   3.579   1.712
 1478SOL    HW2 5334   6.584   3.679   1.831
 1479SOL     OW 5335   0.903   5.487   0.600
 1479SOL    HW1 5336   0.921   5.505   0.697
 1479SOL    HW2 5337   0.940   5.398   0.575
 1480SOL     OW 5338   2.226   0.825   0.182
 1480SOL    HW1 5339   2.237   0.921   0.156
 1480SOL    HW2 5340   2.194   0.773   0.104
 1481SOL     OW 5341   0.818   3.540   6.831
 1481SOL    HW1 5342   0.772   3.534   6.743
 1481SOL    HW2 5343   0.790   3.623   6.879
 1482SOL     OW 5344   5.364   0.876   6.411
 1482SOL    HW1 5345   5.388   0.821   6.491
 1482SOL    HW2 5346   5.295   0.827   6.357
 1483SOL     OW 5347   6.543   1.730   6.698
 1483SOL    HW1 5348   6.549   1.713   6.599
 1483SOL    HW2 5349   6.580   1.652   6.748
 1484SOL     OW 5350   6.403   6.807   2.780
 1484SOL    HW1 5351   6.352   6.818   2.865
 1484SOL    HW2 5352   6.393   6.890   2.724
 1485SOL     OW 5353   5.657   3.014   3.922
 1485SOL    HW1 5354   5.641   3.081   3.995
 1485SOL    HW2 5355   5.569   2.978   3.890
 1486SOL     OW 5356   5.053   2.296   1.708
 1486SOL    HW1 5357   5.079   2.339   1.795
 1486SOL    HW2 5358   5.024   2.202   1.725
 1487SOL     OW 5359   6.933   0.616   5.608
 1487SOL    HW1 5360   6.927   0.530   5.659
 1487SOL    HW2 5361   6.991   0.680   5.658
 1488SOL     OW 5362   5.310   1.958   4.087
 1488SOL    HW1 5363   5.234   1.979   4.149
 1488SOL    HW2 5364   5.397   1.970   4.136
 1489SOL     OW 5365   3.887   5.474   4.432
 1489SOL    HW1 5366   3.909   5.483   4.335
 1489SOL    HW2 5367   3.890   5.378   4.458
 1490SOL     OW 5368   2.528   2.541   1.340
 1490SOL    HW1 5369   2.615   2.554   1.389
 1490SOL    HW2 5370   2.453   2.536   1.407
 1491SOL     OW 5371   0.371   2.472   5.275
 1491SOL    HW1 5372   0.310   2.529   5.329
 1491SOL    HW2 5373   0.347   2.480   5.178
 1492SOL     OW 5374   6.431   2.308   0.910
 1492SOL    HW1 5375   6.373   2.388   0.927
 1492SOL    HW2 5376   6.420   2.243   0.985
 1493SOL     OW 5377   6.303   2.476   5.269
 1493SOL    HW1 5378   6.332   2.382   5.290
 1493SOL    HW2 5379   6.224   2.500   5.325
 1494SOL     OW 5380   5.770   1.593   4.242
 1494SOL    HW1 5381   5.747   1.530   4.317
 1494SOL    HW2 5382   5.691   1.603   4.182
 1495SOL     OW 5383   1.055   3.680   2.567
 1495SOL    HW1 5384   1.002   3.601   2.536
 1495SOL    HW2 5385   1.045   3.689   2.667
 1496SOL     OW 5386   1.120   0.642   2.550
 1496SOL    HW1 5387   1.138   0.713   2.618
 1496SOL    HW2 5388   1.157   0.555   2.583
 1497SOL     OW 5389   5.550   5.387   5.680
 1497SOL    HW1 5390   5.525   5.433   5.595
 1497SOL    HW2 5391   5.556   5.454   5.754
 1498SOL     OW 5392   2.368   5.596   0.444
 1498SOL    HW1 5393   2.272   5.600   0.474
 1498SOL    HW2 5394   2.372   5.556   0.352
 1499SOL     OW 5395   0.837   4.082   4.506
 1499SOL    HW1 5396   0.918   4.139   4.518
 1499SOL    HW2 5397   0.821   4.028   4.589
 1500SOL     OW 5398   4.293   6.866   5.483
 1500SOL    HW1 5399   4.326   6.938   5.421
 1500SOL    HW2 5400   4.331   6.778   5.454
 1501SOL     OW 5401   3.959   0.451   0.454
 1501SOL    HW1 5402   3.916   0.362   0.466
 1501SOL    HW2 5403   4.058   0.441   0.461
 1502SOL     OW 5404   0.288   5.850   6.416
 1502SOL    HW1 5405   0.317   5.755   6.428
 1502SOL    HW2 5406   0.199   5.864   6.459
 1503SOL     OW 5407   3.613   4.478   5.668
 1503SOL    HW1 5408   3.529   4.424   5.666
 1503SOL    HW2 5409   3.691   4.419   5.687
 1504SOL     OW 5410   2.584   6.713   4.120
 1504SOL    HW1 5411   2.597   6.810   4.099
 1504SOL    HW2 5412   2.670   6.665   4.107
 1505SOL     OW 5413   4.899   6.872   2.428
 1505SOL    HW1 5414   4.949   6.787   2.414
 1505SOL    HW2 5415   4.946   6.928   2.496
 1506SOL     OW 5416   1.097   6.722   3.141
 1506SOL    HW1 5417   1.018   6.660   3.140
 1506SOL    HW2 5418   1.107   6.764   3.051
 1507SOL     OW 5419   2.483   2.686   0.140
 1507SOL    HW1 5420   2.439   2.691   0.051
 1507SOL    HW2 5421   2.576   2.722   0.134
 1508SOL     OW 5422   4.607   6.697   1.222
 1508SOL    HW1 5423   4.551   6.754   1.162
 1508SOL    HW2 5424   4.583   6.601   1.207
 1509SOL     OW 5425   5.689   1.912   6.398
 1509SOL    HW1 5426   5.691   2.012   6.394
 1509SOL    HW2 5427   5.659   1.882   6.488
 1510SOL     OW 5428   6.673   1.792   3.054
 1510SOL    HW1 5429   6.606   1.829   3.119
 1510SOL    HW2 5430   6.760   1.777   3.100
 1511SOL     OW 5431   1.098   3.122   0.200
 1511SOL    HW1 5432   1.111   3.114   0.299
 1511SOL    HW2 5433   1.180   3.092   0.152
 1512SOL     OW 5434   6.799   1.257   1.709
 1512SOL    HW1 5435   6.813   1.319   1.631
 1512SOL    HW2 5436   6.857   1.286   1.785
 1513SOL     OW 5437   3.118   0.359   2.789
 1513SOL    HW1 5438   3.093   0.322   2.700
 1513SOL    HW2 5439   3.218   0.356   2.800
 1514SOL     OW 5440   4.583   0.705   6.169
 1514SOL    HW1 5441   4.646   0.717   6.246
 1514SOL    HW2 5442   4.545   0.794   6.144
 1515SOL     OW 5443   5.467   5.131   5.427
 1515SOL    HW1 5444   5.434   5.219   5.393
 1515SOL    HW2 5445   5.484   5.136   5.525
 1516SOL     OW 5446   0.662   1.411   0.884
 1516SOL    HW1 5447   0.692   1.506   0.889
 1516SOL    HW2 5448   0.573   1.402   0.929
 1517SOL     OW 5449   3.174   5.456   3.256
 1517SOL    HW1 5450   3.124   5.515   3.320
 1517SOL    HW2 5451   3.189   5.366   3.299
 1518SOL     OW 5452   0.624   5.041   0.670
 1518SOL    HW1 5453   0.689   5.006   0.602
 1518SOL    HW2 5454   0.666   5.116   0.721
 1519SOL     OW 5455   0.498   3.890   0.871
 1519SOL    HW1 5456   0.444   3.925   0.948
 1519SOL    HW2 5457   0.494   3.955   0.795
 1520SOL     OW 5458   1.611   2.617   3.239
 1520SOL    HW1 5459   1.638   2.692   3.299
 1520SOL    HW2 5460   1.692   2.581   3.192
 1521SOL     OW 5461   2.273   4.384   5.317
 1521SOL    HW1 5462   2.343   4.319   5.346
 1521SOL    HW2 5463   2.314   4.474   5.304
 1522SOL     OW 5464   1.197   1.945   6.291
 1522SOL    HW1 5465   1.157   2.023   6.340
 1522SOL    HW2 5466   1.146   1.862   6.315
 1523SOL     OW 5467   5.505   1.478   0.895
 1523SOL    HW1 5468   5.469   1.388   0.920
 1523SOL    HW2 5469   5.444   1.521   0.829
 1524SOL     OW 5470   6.957   1.090   1.427
 1524SOL    HW1 5471   6.957   1.188   1.446
 1524SOL    HW2 5472   6.890   1.045   1.486
 1525SOL     OW 5473   5.063   1.520   5.901
 1525SOL    HW1 5474   5.020   1.609   5.915
 1525SOL    HW2 5475   5.069   1.472   5.988
 1526SOL     OW 5476   6.264   1.273   0.176
 1526SOL    HW1 5477   6.285   1.358   0.224
 1526SOL    HW2 5478   6.318   1.268   0.092
 1527SOL     OW 5479   3.094   1.751   5.955
 1527SOL    HW1 5480   3.086   1.851   5.959
 1527SOL    HW2 5481   3.014   1.709   5.997
 1528SOL     OW 5482   5.399   5.155   4.023
 1528SOL    HW1 5483   5.413   5.199   4.112
 1528SOL    HW2 5484   5.418   5.222   3.950
 1529SOL     OW 5485   2.272   6.953   5.775
 1529SOL    HW1 5486   2.342   6.948   5.846
 1529SOL    HW2 5487   2.233   6.862   5.761
 1530SOL     OW 5488   2.703   6.783   1.474
 1530SOL    HW1 5489   2.751   6.707   1.430
 1530SOL    HW2 5490   2.727   6.786   1.571
 1531SOL     OW 5491   5.930   0.613   6.582
 1531SOL    HW1 5492   5.965   0.702   6.551
 1531SOL    HW2 5493   5.830   0.618   6.588
 1532SOL     OW 5494   2.844   2.482   5.427
 1532SOL    HW1 5495   2.898   2.409   5.386
 1532SOL    HW2 5496   2.886   2.570   5.408
 1533SOL     OW 5497   4.875   2.734   0.039
 1533SOL    HW1 5498   4.858   2.830   0.060
 1533SOL    HW2 5499   4.805   2.677   0.081
 1534SOL     OW 5500   6.884   0.187   1.915
 1534SOL    HW1 5501   6.787   0.181   1.891
 1534SOL    HW2 5502   6.894   0.193   2.014
 1535SOL     OW 5503   5.398   4.512   4.381
 1535SOL    HW1 5504   5.356   4.593   4.341
 1535SOL    HW2 5505   5.329   4.442   4.397
 1536SOL     OW 5506   3.496   6.148   2.860
 1536SOL    HW1 5507   3.436   6.150   2.781
 1536SOL    HW2 5508   3.580   6.199   2.840
 1537SOL     OW 5509   2.971   5.749   4.583
 1537SOL    HW1 5510   3.056   5.721   4.537
 1537SOL    HW2 5511   2.970   5.712   4.676
 1538SOL     OW 5512   3.292   5.451   6.598
 1538SOL    HW1 5513   3.374   5.485   6.551
 1538SOL    HW2 5514   3.211   5.476   6.545
 1539SOL     OW 5515   3.139   6.324   1.671
 1539SOL    HW1 5516   3.084   6.255   1.625
 1539SOL    HW2 5517   3.079   6.394   1.710
 1540SOL     OW 5518   6.089   7.018   5.360
 1540SOL    HW1 5519   5.994   7.006   5.332
 1540SOL    HW2 5520   6.119   6.938   5.412
 1541SOL     OW 5521   5.118   1.442   0.977
 1541SOL    HW1 5522   5.151   1.455   0.884
 1541SOL    HW2 5523   5.191   1.401   1.033
 1542SOL     OW 5524   6.839   6.430   1.359
 1542SOL    HW1 5525   6.823   6.374   1.441
 1542SOL    HW2 5526   6.835   6.372   1.278
 1543SOL     OW 5527   3.618   3.702   3.364
 1543SOL    HW1 5528   3.593   3.778   3.304
 1543SOL    HW2 5529   3.683   3.642   3.317
 1544SOL     OW 5530   3.150   3.461   2.629
 1544SOL    HW1 5531   3.175   3.452   2.725
 1544SOL    HW2 5532   3.219   3.516   2.582
 1545SOL     OW 5533   0.048   0.474   4.619
 1545SOL    HW1 5534   0.003   0.529   4.689
 1545SOL    HW2 5535   7.001   0.425   4.565
 1546SOL     OW 5536   6.296   6.493   6.279
 1546SOL    HW1 5537   6.233   6.486   6.202
 1546SOL    HW2 5538   6.247   6.470   6.364
 1547SOL     OW 5539   3.380   5.498   0.246
 1547SOL    HW1 5540   3.374   5.452   0.335
 1547SOL    HW2 5541   3.310   5.569   0.240
 1548SOL     OW 5542   6.229   4.106   3.802
 1548SOL    HW1 5543   6.318   4.075   3.769
 1548SOL    HW2 5544   6.207   4.059   3.887
 1549SOL     OW 5545   7.009   2.492   0.803
 1549SOL    HW1 5546   6.926   2.438   0.818
 1549SOL    HW2 5547   6.997   2.582   0.845
 1550SOL     OW 5548   2.481   5.021   2.841
 1550SOL    HW1 5549   2.484   5.037   2.939
 1550SOL    HW2 5550   2.574   5.016   2.805
 1551SOL     OW 5551   0.355   2.247   1.303
 1551SOL    HW1 5552   0.383   2.311   1.231
 1551SOL    HW2 5553   0.388   2.281   1.392
 1552SOL     OW 5554   0.918   6.739   1.988
 1552SOL    HW1 5555   0.939   6.725   1.891
 1552SOL    HW2 5556   0.986   6.692   2.044
 1553SOL     OW 5557   5.349   1.152   6.066
 1553SOL    HW1 5558   5.411   1.075   6.079
 1553SOL    HW2 5559   5.262   1.133   6.111
 1554SOL     OW 5560   2.614   2.122   0.827
 1554SOL    HW1 5561   2.656   2.147   0.914
 1554SOL    HW2 5562   2.680   2.135   0.753
 1555SOL     OW 5563   4.116   1.288   0.324
 1555SOL    HW1 5564   4.065   1.330   0.249
 1555SOL    HW2 5565   4.212   1.278   0.298
 1556SOL     OW 5566   3.508   1.822   0.407
 1556SOL    HW1 5567   3.486   1.827   0.504
 1556SOL    HW2 5568   3.475   1.736   0.370
 1557SOL     OW 5569   1.502   3.067   0.546
 1557SOL    HW1 5570   1.430   3.020   0.495
 1557SOL    HW2 5571   1.527   3.151   0.498
 1558SOL     OW 5572   5.270   2.826   6.126
 1558SOL    HW1 5573   5.212   2.750   6.154
 1558SOL    HW2 5574   5.275   2.830   6.027
 1559SOL     OW 5575   2.556   6.202   3.661
 1559SOL    HW1 5576   2.571   6.300   3.666
 1559SOL    HW2 5577   2.532   6.176   3.567
 1560SOL     OW 5578   4.103   3.116   1.149
 1560SOL    HW1 5579   4.045   3.044   1.111
 1560SOL    HW2 5580   4.054   3.164   1.222
 1561SOL     OW 5581   5.629   6.206   0.545
 1561SOL    HW1 5582   5.709   6.235   0.597
 1561SOL    HW2 5583   5.546   6.227   0.596
 1562SOL     OW 5584   2.693   0.577   2.497
 1562SOL    HW1 5585   2.777   0.586   2.443
 1562SOL    HW2 5586   2.633   0.510   2.453
 1563SOL     OW 5587   1.947   3.158   4.167
 1563SOL    HW1 5588   1.945   3.060   4.150
 1563SOL    HW2 5589   2.007   3.202   4.101
 1564SOL     OW 5590   0.547   1.845   2.838
 1564SOL    HW1 5591   0.553   1.783   2.917
 1564SOL    HW2 5592   0.621   1.912   2.843
 1565SOL     OW 5593   4.803   1.585   5.453
 1565SOL    HW1 5594   4.772   1.496   5.487
 1565SOL    HW2 5595   4.723   1.641   5.429
 1566SOL     OW 5596   0.116   3.537   3.412
 1566SOL    HW1 5597   0.076   3.454   3.452
 1566SOL    HW2 5598   0.043   3.593   3.374
 1567SOL     OW 5599   5.650   0.247   4.807
 1567SOL    HW1 5600   5.724   0.198   4.762
 1567SOL    HW2 5601   5.681   0.339   4.832
 1568SOL     OW 5602   2.219   4.807   1.182
 1568SOL    HW1 5603   2.234   4.735   1.249
 1568SOL    HW2 5604   2.248   4.895   1.220
 1569SOL     OW 5605   2.513   1.244   2.578
 1569SOL    HW1 5606   2.551   1.325   2.621
 1569SOL    HW2 5607   2.418   1.232   2.606
 1570SOL     OW 5608   2.649   5.550   6.445
 1570SOL    HW1 5609   2.692   5.480   6.501
 1570SOL    HW2 5610   2.704   5.565   6.363
 1571SOL     OW 5611   6.978   2.672   4.489
 1571SOL    HW1 5612   0.026   2.654   4.419
 1571SOL    HW2 5613   0.000   2.714   4.568
 1572SOL     OW 5614   2.275   6.296   2.995
 1572SOL    HW1 5615   2.218   6.229   3.044
 1572SOL    HW2 5616   2.368   6.294   3.032
 1573SOL     OW 5617   5.214   5.555   0.247
 1573SOL    HW1 5618   5.208   5.487   0.320
 1573SOL    HW2 5619   5.265   5.635   0.280
 1574SOL     OW 5620   1.168   4.349   2.997
 1574SOL    HW1 5621   1.092   4.335   2.935
 1574SOL    HW2 5622   1.146   4.309   3.086
 1575SOL     OW 5623   6.987   2.389   0.321
 1575SOL    HW1 5624   6.989   2.475   0.372
 1575SOL    HW2 5625   0.037   2.327   0.355
 1576SOL     OW 5626   1.838   5.626   1.637
 1576SOL    HW1 5627   1.764   5.617   1.703
 1576SOL    HW2 5628   1.923   5.649   1.684
 1577SOL     OW 5629   4.680   6.122   3.849
 1577SOL    HW1 5630   4.758   6.064   3.872
 1577SOL    HW2 5631   4.694   6.214   3.887
 1578SOL     OW 5632   4.966   1.783   1.373
 1578SOL    HW1 5633   5.013   1.782   1.461
 1578SOL    HW2 5634   4.978   1.695   1.327
 1579SOL     OW 5635   1.889   3.183   1.675
 1579SOL    HW1 5636   1.808   3.175   1.619
 1579SOL    HW2 5637   1.938   3.268   1.652
 1580SOL     OW 5638   2.890   3.565   3.284
 1580SOL    HW1 5639   2.874   3.608   3.196
 1580SOL    HW2 5640   2.934   3.630   3.346
 1581SOL     OW 5641   6.079   4.093   4.621
 1581SOL    HW1 5642   6.083   4.131   4.713
 1581SOL    HW2 5643   6.131   4.007   4.618
 1582SOL     OW 5644   4.677   6.104   5.228
 1582SOL    HW1 5645   4.747   6.050   5.181
 1582SOL    HW2 5646   4.719   6.187   5.266
 1583SOL     OW 5647   1.217   5.748   5.207
 1583SOL    HW1 5648   1.209   5.652   5.181
 1583SOL    HW2 5649   1.313   5.775   5.207
 1584SOL     OW 5650   0.326   4.128   0.512
 1584SOL    HW1 5651   0.403   4.109   0.573
 1584SOL    HW2 5652   0.260   4.054   0.518
 1585SOL     OW 5653   5.004   6.678   4.243
 1585SOL    HW1 5654   4.921   6.676   4.300
 1585SOL    HW2 5655   5.010   6.767   4.197
 1586SOL     OW 5656   2.964   5.811   3.081
 1586SOL    HW1 5657   2.882   5.817   3.024
 1586SOL    HW2 5658   3.045   5.832   3.026
 1587SOL     OW 5659   3.196   6.554   6.499
 1587SOL    HW1 5660   3.188   6.499   6.416
 1587SOL    HW2 5661   3.115   6.541   6.556
 1588SOL     OW 5662   6.428   1.958   3.215
 1588SOL    HW1 5663   6.387   1.881   3.265
 1588SOL    HW2 5664   6.381   2.042   3.239
 1589SOL     OW 5665   0.066   3.271   4.551
 1589SOL    HW1 5666   0.120   3.203   4.502
 1589SOL    HW2 5667   7.017   3.307   4.491
 1590SOL     OW 5668   5.974   0.987   3.158
 1590SOL    HW1 5669   6.024   0.913   3.203
 1590SOL    HW2 5670   5.884   0.998   3.200
 1591SOL     OW 5671   1.190   5.955   0.476
 1591SOL    HW1 5672   1.274   5.997   0.512
 1591SOL    HW2 5673   1.177   5.982   0.381
 1592SOL     OW 5674   0.436   3.493   5.921
 1592SOL    HW1 5675   0.402   3.454   5.835
 1592SOL    HW2 5676   0.365   3.550   5.962
 1593SOL     OW 5677   3.871   6.200   1.232
 1593SOL    HW1 5678   3.778   6.221   1.259
 1593SOL    HW2 5679   3.886   6.101   1.235
 1594SOL     OW 5680   5.410   0.821   2.819
 1594SOL    HW1 5681   5.462   0.795   2.900
 1594SOL    HW2 5682   5.335   0.756   2.806
 1595SOL     OW 5683   1.114   3.170   6.629
 1595SOL    HW1 5684   1.140   3.077   6.657
 1595SOL    HW2 5685   1.014   3.178   6.629
 1596SOL     OW 5686   5.172   4.563   3.378
 1596SOL    HW1 5687   5.191   4.660   3.366
 1596SOL    HW2 5688   5.073   4.548   3.379
 1597SOL     OW 5689   3.272   5.671   0.692
 1597SOL    HW1 5690   3.279   5.622   0.605
 1597SOL    HW2 5691   3.194   5.733   0.690
 1598SOL     OW 5692   1.294   4.235   6.289
 1598SOL    HW1 5693   1.252   4.174   6.221
 1598SOL    HW2 5694   1.339   4.179   6.359
 1599SOL     OW 5695   4.617   5.651   3.701
 1599SOL    HW1 5696   4.659   5.690   3.783
 1599SOL    HW2 5697   4.687   5.639   3.631
 1600SOL     OW 5698   4.175   0.632   1.606
 1600SOL    HW1 5699   4.119   0.707   1.572
 1600SOL    HW2 5700   4.115   0.559   1.639
 1601SOL     OW 5701   6.493   1.144   4.777
 1601SOL    HW1 5702   6.533   1.101   4.696
 1601SOL    HW2 5703   6.457   1.234   4.752
 1602SOL     OW 5704   4.687   5.794   3.954
 1602SOL    HW1 5705   4.748   5.859   3.998
 1602SOL    HW2 5706   4.692   5.706   4.001
 1603SOL     OW 5707   3.145   4.861   2.386
 1603SOL    HW1 5708   3.149   4.899   2.478
 1603SOL    HW2 5709   3.072   4.792   2.381
 1604SOL     OW 5710   4.322   5.036   2.835
 1604SOL    HW1 5711   4.392   4.997   2.894
 1604SOL    HW2 5712   4.342   5.133   2.818
 1605SOL     OW 5713   4.875   5.013   0.615
 1605SOL    HW1 5714   4.913   5.006   0.708
 1605SOL    HW2 5715   4.775   5.013   0.620
 1606SOL     OW 5716   3.236   5.804   4.823
 1606SOL    HW1 5717   3.273   5.794   4.915
 1606SOL    HW2 5718   3.156   5.746   4.812
 1607SOL     OW 5719   4.898   4.221   3.659
 1607SOL    HW1 5720   4.856   4.250   3.573
 1607SOL    HW2 5721   4.881   4.124   3.673
 1608SOL     OW 5722   5.582   2.575   3.523
 1608SOL    HW1 5723   5.634   2.597   3.606
 1608SOL    HW2 5724   5.542   2.484   3.531
 1609SOL     OW 5725   1.636   0.255   0.915
 1609SOL    HW1 5726   1.630   0.158   0.938
 1609SOL    HW2 5727   1.553   0.302   0.946
 1610SOL     OW 5728   5.703   6.430   0.717
 1610SOL    HW1 5729   5.606   6.414   0.700
 1610SOL    HW2 5730   5.747   6.343   0.741
 1611SOL     OW 5731   1.493   4.094   6.927
 1611SOL    HW1 5732   1.515   4.085   0.003
 1611SOL    HW2 5733   1.447   4.011   6.896
 1612SOL     OW 5734   4.249   1.117   2.493
 1612SOL    HW1 5735   4.302   1.202   2.493
 1612SOL    HW2 5736   4.152   1.139   2.482
 1613SOL     OW 5737   0.202   5.394   2.607
 1613SOL    HW1 5738   0.173   5.342   2.527
 1613SOL    HW2 5739   0.292   5.362   2.637
 1614SOL     OW 5740   6.617   1.411   6.099
 1614SOL    HW1 5741   6.553   1.411   6.176
 1614SOL    HW2 5742   6.581   1.469   6.026
 1615SOL     OW 5743   6.962   3.775   5.684
 1615SOL    HW1 5744   0.039   3.774   5.706
 1615SOL    HW2 5745   6.946   3.832   5.604
 1616SOL     OW 5746   0.526   0.601   3.960
 1616SOL    HW1 5747   0.529   0.501   3.962
 1616SOL    HW2 5748   0.489   0.634   4.047
 1617SOL     OW 5749   6.954   5.440   3.717
 1617SOL    HW1 5750   0.002   5.452   3.787
 1617SOL    HW2 5751   6.994   5.455   3.627
 1618SOL     OW 5752   3.701   5.529   2.778
 1618SOL    HW1 5753   3.688   5.490   2.687
 1618SOL    HW2 5754   3.670   5.464   2.847
 1619SOL     OW 5755   0.924   4.318   6.703
 1619SOL    HW1 5756   0.961   4.379   6.633
 1619SOL    HW2 5757   0.926   4.224   6.669
 1620SOL     OW 5758   3.098   6.632   3.786
 1620SOL    HW1 5759   3.191   6.602   3.809
 1620SOL    HW2 5760   3.094   6.732   3.785
 1621SOL     OW 5761   4.701   5.396   0.782
 1621SOL    HW1 5762   4.681   5.412   0.686
 1621SOL    HW2 5763   4.658   5.467   0.837
 1622SOL     OW 5764   6.220   4.644   4.214
 1622SOL    HW1 5765   6.262   4.555   4.231
 1622SOL    HW2 5766   6.176   4.644   4.125
 1623SOL     OW 5767   0.232   2.471   3.457
 1623SOL    HW1 5768   0.290   2.488   3.537
 1623SOL    HW2 5769   0.179   2.388   3.470
 1624SOL     OW 5770   3.909   3.178   0.596
 1624SOL    HW1 5771   3.826   3.130   0.569
 1624SOL    HW2 5772   3.898   3.276   0.579
 1625SOL     OW 5773   0.508   6.509   0.339
 1625SOL    HW1 5774   0.424   6.468   0.304
 1625SOL    HW2 5775   0.577   6.438   0.353
 1626SOL     OW 5776   2.293   1.838   1.810
 1626SOL    HW1 5777   2.352   1.902   1.858
 1626SOL    HW2 5778   2.349   1.778   1.752
 1627SOL     OW 5779   4.052   2.083   5.861
 1627SOL    HW1 5780   3.976   2.041   5.811
 1627SOL    HW2 5781   4.045   2.061   5.958
 1628SOL     OW 5782   5.356   6.843   0.907
 1628SOL    HW1 5783   5.448   6.882   0.906
 1628SOL    HW2 5784   5.341   6.795   0.994
 1629SOL     OW 5785   1.617   0.254   3.725
 1629SOL    HW1 5786   1.707   0.211   3.721
 1629SOL    HW2 5787   1.624   0.343   3.771
 1630SOL     OW 5788   0.656   3.611   6.073
 1630SOL    HW1 5789   0.620   3.556   5.998
 1630SOL    HW2 5790   0.696   3.696   6.037
 1631SOL     OW 5791   5.699   3.086   0.622
 1631SOL    HW1 5792   5.698   3.151   0.546
 1631SOL    HW2 5793   5.720   3.135   0.707
 1632SOL     OW 5794   6.624   6.005   2.283
 1632SOL    HW1 5795   6.555   5.997   2.355
 1632SOL    HW2 5796   6.711   6.032   2.323
 1633SOL     OW 5797   5.186   3.601   4.491
 1633SOL    HW1 5798   5.198   3.502   4.486
 1633SOL    HW2 5799   5.089   3.622   4.499
 1634SOL     OW 5800   0.921   3.391   5.823
 1634SOL    HW1 5801   0.932   3.489   5.813
 1634SOL    HW2 5802   0.972   3.360   5.904
 1635SOL     OW 5803   3.453   0.026   3.604
 1635SOL    HW1 5804   3.376   0.085   3.628
 1635SOL    HW2 5805   3.526   0.038   3.672
 1636SOL     OW 5806   6.491   5.662   1.187
 1636SOL    HW1 5807   6.395   5.688   1.201
 1636SOL    HW2 5808   6.535   5.727   1.126
 1637SOL     OW 5809   1.580   1.433   2.549
 1637SOL    HW1 5810   1.508   1.498   2.575
 1637SOL    HW2 5811   1.542   1.341   2.547
 1638SOL     OW 5812   5.145   2.188   2.256
 1638SOL    HW1 5813   5.057   2.212   2.217
 1638SOL    HW2 5814   5.171   2.256   2.325
 1639SOL     OW 5815   5.041   2.353   2.016
 1639SOL    HW1 5816   5.005   2.439   2.050
 1639SOL    HW2 5817   4.980   2.278   2.041
 1640SOL     OW 5818   5.720   0.817   6.716
 1640SOL    HW1 5819   5.736   0.797   6.813
 1640SOL    HW2 5820   5.769   0.900   6.690
 1641SOL     OW 5821   6.185   1.625   2.677
 1641SOL    HW1 5822   6.232   1.618   2.589
 1641SOL    HW2 5823   6.128   1.544   2.690
 1642SOL     OW 5824   0.220   3.419   6.182
 1642SOL    HW1 5825   0.196   3.331   6.140
 1642SOL    HW2 5826   0.304   3.408   6.236
 1643SOL     OW 5827   2.054   5.617   3.814
 1643SOL    HW1 5828   2.083   5.701   3.860
 1643SOL    HW2 5829   1.957   5.624   3.792
 1644SOL     OW 5830   6.504   1.968   1.827
 1644SOL    HW1 5831   6.477   2.064   1.838
 1644SOL    HW2 5832   6.565   1.959   1.749
 1645SOL     OW 5833   2.523   0.637   5.064
 1645SOL    HW1 5834   2.493   0.697   5.139
 1645SOL    HW2 5835   2.612   0.599   5.086
 1646SOL     OW 5836   0.949   5.347   1.178
 1646SOL    HW1 5837   1.034   5.298   1.198
 1646SOL    HW2 5838   0.875   5.281   1.164
 1647SOL     OW 5839   6.033   2.954   4.767
 1647SOL    HW1 5840   6.074   2.864   4.780
 1647SOL    HW2 5841   6.082   3.004   4.696
 1648SOL     OW 5842   5.875   5.979   1.977
 1648SOL    HW1 5843   5.936   5.980   1.898
 1648SOL    HW2 5844   5.817   5.897   1.973
 1649SOL     OW 5845   3.966   1.647   3.571
 1649SOL    HW1 5846   3.876   1.633   3.612
 1649SOL    HW2 5847   4.008   1.558   3.553
 1650SOL     OW 5848   3.085   2.850   5.615
 1650SOL    HW1 5849   3.018   2.924   5.610
 1650SOL    HW2 5850   3.177   2.887   5.602
 1651SOL     OW 5851   0.994   2.236   3.701
 1651SOL    HW1 5852   0.921   2.276   3.645
 1651SOL    HW2 5853   1.005   2.140   3.675
 1652SOL     OW 5854   0.465   3.759   1.637
 1652SOL    HW1 5855   0.560   3.789   1.626
 1652SOL    HW2 5856   0.424   3.744   1.547
 1653SOL     OW 5857   0.407   4.442   1.964
 1653SOL    HW1 5858   0.347   4.361   1.963
 1653SOL    HW2 5859   0.502   4.413   1.967
 1654SOL     OW 5860   0.108   3.769   1.842
 1654SOL    HW1 5861   0.130   3.740   1.935
 1654SOL    HW2 5862   0.181   3.739   1.780
 1655SOL     OW 5863   0.622   0.771   5.921
 1655SOL    HW1 5864   0.640   0.688   5.869
 1655SOL    HW2 5865   0.699   0.834   5.910
 1656SOL     OW 5866   2.108   4.105   3.506
 1656SOL    HW1 5867   2.161   4.095   3.422
 1656SOL    HW2 5868   2.155   4.167   3.569
 1657SOL     OW 5869   0.606   0.243   5.611
 1657SOL    HW1 5870   0.560   0.208   5.529
 1657SOL    HW2 5871   0.539   0.285   5.671
 1658SOL     OW 5872   4.970   6.498   6.143
 1658SOL    HW1 5873   4.890   6.471   6.198
 1658SOL    HW2 5874   4.940   6.526   6.052
 1659SOL     OW 5875   4.154   6.664   5.786
 1659SOL    HW1 5876   4.243   6.688   5.748
 1659SOL    HW2 5877   4.134   6.724   5.864
 1660SOL     OW 5878   2.246   0.575   1.914
 1660SOL    HW1 5879   2.226   0.636   1.991
 1660SOL    HW2 5880   2.260   0.628   1.831
 1661SOL     OW 5881   4.778   4.003   2.579
 1661SOL    HW1 5882   4.803   3.907   2.586
 1661SOL    HW2 5883   4.739   4.021   2.488
 1662SOL     OW 5884   0.254   2.028   3.775
 1662SOL    HW1 5885   0.258   1.962   3.700
 1662SOL    HW2 5886   0.160   2.031   3.811
 1663SOL     OW 5887   5.368   4.019   1.100
 1663SOL    HW1 5888   5.393   4.077   1.023
 1663SOL    HW2 5889   5.426   4.042   1.179
 1664SOL     OW 5890   1.765   0.372   6.095
 1664SOL    HW1 5891   1.676   0.327   6.089
 1664SOL    HW2 5892   1.753   0.471   6.101
 1665SOL     OW 5893   2.915   4.417   6.529
 1665SOL    HW1 5894   2.933   4.341   6.467
 1665SOL    HW2 5895   2.913   4.382   6.623
 1666SOL     OW 5896   4.887   6.692   6.650
 1666SOL    HW1 5897   4.917   6.775   6.603
 1666SOL    HW2 5898   4.960   6.660   6.710
 1667SOL     OW 5899   0.106   5.619   0.578
 1667SOL    HW1 5900   0.148   5.697   0.531
 1667SOL    HW2 5901   0.128   5.535   0.527
 1668SOL     OW 5902   5.980   3.001   2.056
 1668SOL    HW1 5903   6.049   3.073   2.069
 1668SOL    HW2 5904   6.019   2.928   2.001
 1669SOL     OW 5905   6.764   2.955   5.680
 1669SOL    HW1 5906   6.830   2.966   5.605
 1669SOL    HW2 5907   6.772   2.863   5.717
 1670SOL     OW 5908   3.168   4.427   5.616
 1670SOL    HW1 5909   3.147   4.421   5.519
 1670SOL    HW2 5910   3.086   4.454   5.666
 1671SOL     OW 5911   5.930   2.575   0.336
 1671SOL    HW1 5912   5.869   2.544   0.409
 1671SOL    HW2 5913   5.990   2.647   0.370
 1672SOL     OW 5914   0.404   1.944   1.381
 1672SOL    HW1 5915   0.458   1.997   1.446
 1672SOL    HW2 5916   0.342   2.005   1.331
 1673SOL     OW 5917   1.174   0.567   4.563
 1673SOL    HW1 5918   1.219   0.482   4.536
 1673SOL    HW2 5919   1.217   0.601   4.647
 1674SOL     OW 5920   5.041   2.233   2.589
 1674SOL    HW1 5921   5.007   2.263   2.678
 1674SOL    HW2 5922   4.967   2.188   2.539
 1675SOL     OW 5923   5.101   0.323   1.832
 1675SOL    HW1 5924   5.078   0.414   1.866
 1675SOL    HW2 5925   5.028   0.291   1.771
 1676SOL     OW 5926   0.839   2.212   3.923
 1676SOL    HW1 5927   0.882   2.228   3.834
 1676SOL    HW2 5928   0.761   2.273   3.934
 1677SOL     OW 5929   3.413   3.132   2.999
 1677SOL    HW1 5930   3.447   3.154   3.091
 1677SOL    HW2 5931   3.362   3.046   3.002
 1678SOL     OW 5932   0.887   0.455   0.363
 1678SOL    HW1 5933   0.860   0.360   0.346
 1678SOL    HW2 5934   0.878   0.508   0.279
 1679SOL     OW 5935   6.406   1.282   6.952
 1679SOL    HW1 5936   6.442   1.189   6.959
 1679SOL    HW2 5937   6.378   1.300   6.857
 1680SOL     OW 5938   5.715   2.766   2.889
 1680SOL    HW1 5939   5.667   2.770   2.976
 1680SOL    HW2 5940   5.670   2.826   2.823
 1681SOL     OW 5941   3.804   6.261   4.557
 1681SOL    HW1 5942   3.877   6.268   4.490
 1681SOL    HW2 5943   3.817   6.330   4.629
 1682SOL     OW 5944   3.992   0.434   4.460
 1682SOL    HW1 5945   3.973   0.491   4.540
 1682SOL    HW2 5946   3.965   0.482   4.377
 1683SOL     OW 5947   6.550   2.772   3.078
 1683SOL    HW1 5948   6.593   2.846   3.130
 1683SOL    HW2 5949   6.620   2.725   3.024
 1684SOL     OW 5950   2.727   5.174   1.570
 1684SOL    HW1 5951   2.729   5.116   1.651
 1684SOL    HW2 5952   2.645   5.153   1.516
 1685SOL     OW 5953   0.016   1.341   5.764
 1685SOL    HW1 5954   0.110   1.305   5.764
 1685SOL    HW2 5955   7.011   1.363   5.670
 1686SOL     OW 5956   3.678   5.410   2.180
 1686SOL    HW1 5957   3.628   5.325   2.194
 1686SOL    HW2 5958   3.616   5.487   2.190
 1687SOL     OW 5959   5.165   4.196   1.022
 1687SOL    HW1 5960   5.196   4.261   0.952
 1687SOL    HW2 5961   5.130   4.247   1.101
 1688SOL     OW 5962   1.964   0.256   3.593
 1688SOL    HW1 5963   1.974   0.321   3.667
 1688SOL    HW2 5964   2.008   0.291   3.511
 1689SOL     OW 5965   4.348   0.679   1.842
 1689SOL    HW1 5966   4.257   0.685   1.882
 1689SOL    HW2 5967   4.341   0.672   1.743
 1690SOL     OW 5968   6.739   4.882   4.141
 1690SOL    HW1 5969   6.833   4.876   4.107
 1690SOL    HW2 5970   6.724   4.972   4.182
 1691SOL     OW 5971   4.275   2.823   5.314
 1691SOL    HW1 5972   4.213   2.817   5.392
 1691SOL    HW2 5973   4.318   2.734   5.299
 1692SOL     OW 5974   5.296   5.103   1.526
 1692SOL    HW1 5975   5.355   5.183   1.536
 1692SOL    HW2 5976   5.201   5.129   1.538
 1693SOL     OW 5977   5.053   6.945   6.225
 1693SOL    HW1 5978   5.039   0.012   6.180
 1693SOL    HW2 5979   5.053   6.957   6.324
 1694SOL     OW 5980   4.734   1.719   6.412
 1694SOL    HW1 5981   4.703   1.796   6.467
 1694SOL    HW2 5982   4.655   1.669   6.377
 1695SOL     OW 5983   4.220   0.592   5.750
 1695SOL    HW1 5984   4.299   0.534   5.729
 1695SOL    HW2 5985   4.136   0.542   5.728
 1696SOL     OW 5986   4.004   6.644   0.604
 1696SOL    HW1 5987   3.979   6.699   0.684
 1696SOL    HW2 5988   3.974   6.691   0.521
 1697SOL     OW 5989   4.436   2.784   1.718
 1697SOL    HW1 5990   4.483   2.695   1.709
 1697SOL    HW2 5991   4.498   2.849   1.761
 1698SOL     OW 5992   4.343   1.545   1.408
 1698SOL    HW1 5993   4.265   1.506   1.456
 1698SOL    HW2 5994   4.373   1.628   1.454
 1699SOL     OW 5995   1.868   0.586   0.841
 1699SOL    HW1 5996   1.854   0.646   0.763
 1699SOL    HW2 5997   1.964   0.590   0.870
 1700SOL     OW 5998   5.196   3.285   2.746
 1700SOL    HW1 5999   5.158   3.205   2.792
 1700SOL    HW2 6000   5.126   3.324   2.685
 1701SOL     OW 6001   0.555   5.390   4.844
 1701SOL    HW1 6002   0.616   5.464   4.817
 1701SOL    HW2 6003   0.580   5.307   4.793
 1702SOL     OW 6004   2.472   2.692   6.542
 1702SOL    HW1 6005   2.471   2.599   6.578
 1702SOL    HW2 6006   2.384   2.713   6.499
 1703SOL     OW 6007   1.227   2.198   1.818
 1703SOL    HW1 6008   1.223   2.111   1.867
 1703SOL    HW2 6009   1.322   2.217   1.793
 1704SOL     OW 6010   2.724   2.979   6.910
 1704SOL    HW1 6011   2.764   3.070   6.901
 1704SOL    HW2 6012   2.636   2.986   6.958
 1705SOL     OW 6013   4.474   3.169   0.555
 1705SOL    HW1 6014   4.561   3.161   0.604
 1705SOL    HW2 6015   4.489   3.210   0.465
 1706SOL     OW 6016   6.035   1.842   6.593
 1706SOL    HW1 6017   6.124   1.823   6.634
 1706SOL    HW2 6018   5.982   1.757   6.588
 1707SOL     OW 6019   3.746   1.331   2.044
 1707SOL    HW1 6020   3.770   1.255   1.983
 1707SOL    HW2 6021   3.828   1.359   2.095
 1708SOL     OW 6022   2.702   4.847   1.983
 1708SOL    HW1 6023   2.729   4.751   1.984
 1708SOL    HW2 6024   2.744   4.892   1.904
 1709SOL     OW 6025   5.114   4.690   0.858
 1709SOL    HW1 6026   5.200   4.688   0.807
 1709SOL    HW2 6027   5.125   4.747   0.940
 1710SOL     OW 6028   4.885   3.275   2.356
 1710SOL    HW1 6029   4.791   3.252   2.330
 1710SOL    HW2 6030   4.934   3.191   2.382
 1711SOL     OW 6031   3.988   5.576   0.376
 1711SOL    HW1 6032   3.895   5.601   0.403
 1711SOL    HW2 6033   4.022   5.505   0.437
 1712SOL     OW 6034   0.411   1.857   2.070
 1712SOL    HW1 6035   0.383   1.761   2.075
 1712SOL    HW2 6036   0.509   1.862   2.048
 1713SOL     OW 6037   2.839   1.762   2.662
 1713SOL    HW1 6038   2.937   1.766   2.641
 1713SOL    HW2 6039   2.792   1.711   2.589
 1714SOL     OW 6040   2.726   4.083   0.951
 1714SOL    HW1 6041   2.717   4.154   0.881
 1714SOL    HW2 6042   2.780   4.118   1.027
 1715SOL     OW 6043   0.846   5.886   0.621
 1715SOL    HW1 6044   0.920   5.890   0.688
 1715SOL    HW2 6045   0.776   5.821   0.652
 1716SOL     OW 6046   4.770   1.242   2.804
 1716SOL    HW1 6047   4.855   1.238   2.750
 1716SOL    HW2 6048   4.749   1.337   2.825
 1717SOL     OW 6049   3.807   6.302   3.481
 1717SOL    HW1 6050   3.742   6.278   3.553
 1717SOL    HW2 6051   3.813   6.226   3.415
 1718SOL     OW 6052   1.983   3.405   1.533
 1718SOL    HW1 6053   1.950   3.499   1.525
 1718SOL    HW2 6054   2.061   3.403   1.596
 1719SOL     OW 6055   1.598   5.843   3.104
 1719SOL    HW1 6056   1.681   5.838   3.049
 1719SOL    HW2 6057   1.519   5.853   3.043
 1720SOL     OW 6058   0.746   3.223   5.390
 1720SOL    HW1 6059   0.714   3.134   5.421
 1720SOL    HW2 6060   0.835   3.244   5.432
 1721SOL     OW 6061   1.690   2.671   0.420
 1721SOL    HW1 6062   1.723   2.761   0.392
 1721SOL    HW2 6063   1.628   2.635   0.350
 1722SOL     OW 6064   2.160   2.520   3.579
 1722SOL    HW1 6065   2.079   2.496   3.525
 1722SOL    HW2 6066   2.166   2.461   3.659
 1723SOL     OW 6067   5.646   4.222   1.233
 1723SOL    HW1 6068   5.673   4.249   1.325
 1723SOL    HW2 6069   5.575   4.284   1.200
 1724SOL     OW 6070   4.965   2.356   0.879
 1724SOL    HW1 6071   4.916   2.442   0.893
 1724SOL    HW2 6072   5.063   2.370   0.894
 1725SOL     OW 6073   2.039   6.486   5.904
 1725SOL    HW1 6074   2.008   6.391   5.895
 1725SOL    HW2 6075   2.081   6.499   5.993
 1726SOL     OW 6076   4.825   4.489   2.830
 1726SOL    HW1 6077   4.876   4.517   2.911
 1726SOL    HW2 6078   4.885   4.439   2.768
 1727SOL     OW 6079   3.371   3.898   2.937
 1727SOL    HW1 6080   3.420   3.985   2.937
 1727SOL    HW2 6081   3.281   3.911   2.978
 1728SOL     OW 6082   5.892   2.354   4.127
 1728SOL    HW1 6083   5.851   2.445   4.135
 1728SOL    HW2 6084   5.974   2.350   4.184
 1729SOL     OW 6085   1.173   2.467   2.445
 1729SOL    HW1 6086   1.262   2.432   2.475
 1729SOL    HW2 6087   1.101   2.416   2.491
 1730SOL     OW 6088   2.393   6.499   4.986
 1730SOL    HW1 6089   2.414   6.402   5.002
 1730SOL    HW2 6090   2.447   6.556   5.047
 1731SOL     OW 6091   5.187   4.615   3.969
 1731SOL    HW1 6092   5.148   4.697   4.011
 1731SOL    HW2 6093   5.127   4.582   3.896
 1732SOL     OW 6094   3.220   3.153   5.567
 1732SOL    HW1 6095   3.245   3.248   5.546
 1732SOL    HW2 6096   3.127   3.152   5.605
 1733SOL     OW 6097   1.855   2.756   6.359
 1733SOL    HW1 6098   1.844   2.825   6.287
 1733SOL    HW2 6099   1.804   2.674   6.334
 1734SOL     OW 6100   0.011   3.145   1.002
 1734SOL    HW1 6101   6.939   3.147   1.038
 1734SOL    HW2 6102   0.009   3.139   0.903
 1735SOL     OW 6103   3.335   5.218   6.706
 1735SOL    HW1 6104   3.302   5.311   6.689
 1735SOL    HW2 6105   3.433   5.214   6.687
 1736SOL     OW 6106   5.013   2.395   6.446
 1736SOL    HW1 6107   5.076   2.443   6.386
 1736SOL    HW2 6108   4.992   2.305   6.408
 1737SOL     OW 6109   3.157   0.757   5.722
 1737SOL    HW1 6110   3.207   0.792   5.801
 1737SOL    HW2 6111   3.180   0.661   5.708
 1738SOL     OW 6112   1.357   3.724   2.212
 1738SOL    HW1 6113   1.455   3.705   2.218
 1738SOL    HW2 6114   1.343   3.813   2.169
 1739SOL     OW 6115   5.105   5.968   3.038
 1739SOL    HW1 6116   5.191   5.963   2.986
 1739SOL    HW2 6117   5.111   5.908   3.118
 1740SOL     OW 6118   0.054   3.213   4.822
 1740SOL    HW1 6119   0.040   3.255   4.733
 1740SOL    HW2 6120   0.151   3.216   4.846
 1741SOL     OW 6121   0.948   2.523   4.870
 1741SOL    HW1 6122   0.994   2.567   4.947
 1741SOL    HW2 6123   0.851   2.548   4.872
 1742SOL     OW 6124   6.691   6.636   0.133
 1742SOL    HW1 6125   6.638   6.640   0.049
 1742SOL    HW2 6126   6.633   6.606   0.209
 1743SOL     OW 6127   1.823   2.439   1.786
 1743SOL    HW1 6128   1.888   2.374   1.746
 1743SOL    HW2 6129   1.797   2.507   1.718
 1744SOL     OW 6130   3.427   2.255   5.513
 1744SOL    HW1 6131   3.463   2.210   5.595
 1744SOL    HW2 6132   3.364   2.194   5.466
 1745SOL     OW 6133   6.632   6.408   0.816
 1745SOL    HW1 6134   6.549   6.376   0.862
 1745SOL    HW2 6135   6.667   6.489   0.863
 1746SOL     OW 6136   2.559   4.617   3.192
 1746SOL    HW1 6137   2.506   4.563   3.257
 1746SOL    HW2 6138   2.543   4.583   3.099
 1747SOL     OW 6139   4.049   0.333   2.140
 1747SOL    HW1 6140   4.115   0.366   2.074
 1747SOL    HW2 6141   4.062   0.380   2.227
 1748SOL     OW 6142   6.870   2.144   4.330
 1748SOL    HW1 6143   6.870   2.233   4.376
 1748SOL    HW2 6144   6.919   2.078   4.386
 1749SOL     OW 6145   6.649   5.412   1.691
 1749SOL    HW1 6146   6.604   5.357   1.761
 1749SOL    HW2 6147   6.747   5.393   1.692
 1750SOL     OW 6148   3.214   0.821   0.699
 1750SOL    HW1 6149   3.304   0.843   0.661
 1750SOL    HW2 6150   3.157   0.903   0.698
 1751SOL     OW 6151   5.493   3.684   4.840
 1751SOL    HW1 6152   5.533   3.601   4.801
 1751SOL    HW2 6153   5.409   3.706   4.790
 1752SOL     OW 6154   6.998   0.662   2.472
 1752SOL    HW1 6155   0.021   0.650   2.561
 1752SOL    HW2 6156   0.002   0.750   2.433
 1753SOL     OW 6157   0.006   2.076   1.369
 1753SOL    HW1 6158   0.083   2.058   1.308
 1753SOL    HW2 6159   6.944   2.036   1.329
 1754SOL     OW 6160   3.232   5.495   3.662
 1754SOL    HW1 6161   3.149   5.533   3.704
 1754SOL    HW2 6162   3.299   5.475   3.734
 1755SOL     OW 6163   6.480   0.272   5.137
 1755SOL    HW1 6164   6.451   0.234   5.225
 1755SOL    HW2 6165   6.536   0.204   5.089
 1756SOL     OW 6166   4.659   5.838   1.071
 1756SOL    HW1 6167   4.609   5.877   0.994
 1756SOL    HW2 6168   4.597   5.782   1.126
 1757SOL     OW 6169   2.761   4.791   5.236
 1757SOL    HW1 6170   2.667   4.759   5.244
 1757SOL    HW2 6171   2.815   4.725   5.184
 1758SOL     OW 6172   1.297   6.300   3.778
 1758SOL    HW1 6173   1.247   6.381   3.810
 1758SOL    HW2 6174   1.290   6.294   3.679
 1759SOL     OW 6175   1.074   5.636   0.259
 1759SOL    HW1 6176   1.115   5.630   0.349
 1759SOL    HW2 6177   0.974   5.627   0.267
 1760SOL     OW 6178   6.585   1.675   4.745
 1760SOL    HW1 6179   6.528   1.727   4.681
 1760SOL    HW2 6180   6.543   1.675   4.835
 1761SOL     OW 6181   5.347   1.288   3.360
 1761SOL    HW1 6182   5.309   1.251   3.445
 1761SOL    HW2 6183   5.334   1.388   3.358
 1762SOL     OW 6184   0.972   1.451   5.888
 1762SOL    HW1 6185   0.986   1.518   5.961
 1762SOL    HW2 6186   0.997   1.491   5.800
 1763SOL     OW 6187   1.411   5.114   3.489
 1763SOL    HW1 6188   1.483   5.156   3.544
 1763SOL    HW2 6189   1.367   5.185   3.434
 1764SOL     OW 6190   0.812   6.008   2.950
 1764SOL    HW1 6191   0.719   5.970   2.950
 1764SOL    HW2 6192   0.808   6.105   2.929
 1765SOL     OW 6193   5.468   4.114   2.106
 1765SOL    HW1 6194   5.540   4.045   2.092
 1765SOL    HW2 6195   5.475   4.151   2.198
 1766SOL     OW 6196   4.754   4.575   4.261
 1766SOL    HW1 6197   4.725   4.480   4.267
 1766SOL    HW2 6198   4.700   4.630   4.324
 1767SOL     OW 6199   0.591   5.086   1.798
 1767SOL    HW1 6200   0.542   5.167   1.767
 1767SOL    HW2 6201   0.536   5.004   1.782
 1768SOL     OW 6202   4.556   4.459   2.382
 1768SOL    HW1 6203   4.484   4.521   2.352
 1768SOL    HW2 6204   4.575   4.473   2.479
 1769SOL     OW 6205   5.084   0.158   1.218
 1769SOL    HW1 6206   5.000   0.155   1.272
 1769SOL    HW2 6207   5.138   0.076   1.234
 1770SOL     OW 6208   1.731   5.325   0.294
 1770SOL    HW1 6209   1.793   5.247   0.301
 1770SOL    HW2 6210   1.713   5.363   0.385
 1771SOL     OW 6211   1.652   3.220   5.950
 1771SOL    HW1 6212   1.556   3.243   5.964
 1771SOL    HW2 6213   1.672   3.133   5.995
 1772SOL     OW 6214   2.015   3.990   2.858
 1772SOL    HW1 6215   2.035   3.934   2.778
 1772SOL    HW2 6216   2.071   4.073   2.855
 1773SOL     OW 6217   2.181   6.160   5.630
 1773SOL    HW1 6218   2.146   6.106   5.554
 1773SOL    HW2 6219   2.249   6.107   5.681
 1774SOL     OW 6220   5.504   5.769   1.383
 1774SOL    HW1 6221   5.459   5.826   1.452
 1774SOL    HW2 6222   5.450   5.686   1.369
 1775SOL     OW 6223   1.422   6.054   0.539
 1775SOL    HW1 6224   1.424   6.143   0.494
 1775SOL    HW2 6225   1.496   5.997   0.504
 1776SOL     OW 6226   4.647   3.454   5.869
 1776SOL    HW1 6227   4.603   3.436   5.782
 1776SOL    HW2 6228   4.746   3.438   5.861
 1777SOL     OW 6229   4.438   6.199   6.912
 1777SOL    HW1 6230   4.415   6.252   6.994
 1777SOL    HW2 6231   4.459   6.261   6.837
 1778SOL     OW 6232   6.043   0.135   3.909
 1778SOL    HW1 6233   5.972   0.170   3.848
 1778SOL    HW2 6234   6.001   0.088   3.987
 1779SOL     OW 6235   5.631   0.737   4.554
 1779SOL    HW1 6236   5.531   0.745   4.559
 1779SOL    HW2 6237   5.663   0.673   4.623
 1780SOL     OW 6238   2.437   6.107   5.306
 1780SOL    HW1 6239   2.504   6.105   5.380
 1780SOL    HW2 6240   2.432   6.017   5.263
 1781SOL     OW 6241   3.830   0.826   5.693
 1781SOL    HW1 6242   3.751   0.853   5.748
 1781SOL    HW2 6243   3.823   0.867   5.602
 1782SOL     OW 6244   4.977   1.119   2.353
 1782SOL    HW1 6245   4.885   1.114   2.315
 1782SOL    HW2 6246   5.013   1.026   2.366
 1783SOL     OW 6247   1.982   4.415   6.329
 1783SOL    HW1 6248   1.913   4.353   6.291
 1783SOL    HW2 6249   2.070   4.397   6.285
 1784SOL     OW 6250   2.628   6.276   1.213
 1784SOL    HW1 6251   2.557   6.239   1.153
 1784SOL    HW2 6252   2.623   6.230   1.302
 1785SOL     OW 6253   1.563   6.471   4.654
 1785SOL    HW1 6254   1.553   6.533   4.732
 1785SOL    HW2 6255   1.590   6.380   4.687
 1786SOL     OW 6256   0.594   6.080   1.640
 1786SOL    HW1 6257   0.524   6.015   1.670
 1786SOL    HW2 6258   0.550   6.158   1.595
 1787SOL     OW 6259   1.837   2.753   5.871
 1787SOL    HW1 6260   1.768   2.774   5.802
 1787SOL    HW2 6261   1.908   2.695   5.830
 1788SOL     OW 6262   4.079   3.837   0.241
 1788SOL    HW1 6263   4.009   3.768   0.221
 1788SOL    HW2 6264   4.164   3.811   0.195
 1789SOL     OW 6265   5.530   2.706   2.047
 1789SOL    HW1 6266   5.529   2.657   1.960
 1789SOL    HW2 6267   5.618   2.753   2.058
 1790SOL     OW 6268   1.721   1.864   5.089
 1790SOL    HW1 6269   1.772   1.862   5.003
 1790SOL    HW2 6270   1.783   1.884   5.164
 1791SOL     OW 6271   5.153   0.363   3.576
 1791SOL    HW1 6272   5.141   0.455   3.538
 1791SOL    HW2 6273   5.127   0.295   3.507
 1792SOL     OW 6274   6.634   2.449   6.389
 1792SOL    HW1 6275   6.631   2.361   6.436
 1792SOL    HW2 6276   6.644   2.522   6.457
 1793SOL     OW 6277   6.773   1.713   5.259
 1793SOL    HW1 6278   6.828   1.684   5.181
 1793SOL    HW2 6279   6.761   1.813   5.256
 1794SOL     OW 6280   0.509   1.456   6.393
 1794SOL    HW1 6281   0.514   1.553   6.418
 1794SOL    HW2 6282   0.598   1.426   6.358
 1795SOL     OW 6283   5.484   4.959   1.032
 1795SOL    HW1 6284   5.546   4.901   1.086
 1795SOL    HW2 6285   5.527   4.981   0.944
 1796SOL     OW 6286   6.000   0.165   0.961
 1796SOL    HW1 6287   6.095   0.162   0.928
 1796SOL    HW2 6288   6.000   0.180   1.060
 1797SOL     OW 6289   2.962   5.840   5.817
 1797SOL    HW1 6290   2.946   5.744   5.797
 1797SOL    HW2 6291   2.879   5.892   5.799
 1798SOL     OW 6292   2.156   3.737   5.359
 1798SOL    HW1 6293   2.109   3.649   5.368
 1798SOL    HW2 6294   2.200   3.760   5.446
 1799SOL     OW 6295   3.077   1.490   2.236
 1799SOL    HW1 6296   3.164   1.516   2.195
 1799SOL    HW2 6297   3.002   1.513   2.174
 1800SOL     OW 6298   6.250   3.056   5.843
 1800SOL    HW1 6299   6.201   3.103   5.769
 1800SOL    HW2 6300   6.349   3.065   5.828
 1801SOL     OW 6301   0.436   1.316   2.899
 1801SOL    HW1 6302   0.443   1.232   2.952
 1801SOL    HW2 6303   0.505   1.316   2.827
 1802SOL     OW 6304   5.935   4.661   4.051
 1802SOL    HW1 6305   5.892   4.659   4.141
 1802SOL    HW2 6306   5.885   4.600   3.989
 1803SOL     OW 6307   6.846   0.005   4.098
 1803SOL    HW1 6308   6.873   7.011   4.003
 1803SOL    HW2 6309   6.777   0.077   4.103
 1804SOL     OW 6310   1.635   2.543   6.217
 1804SOL    HW1 6311   1.571   2.482   6.263
 1804SOL    HW2 6312   1.585   2.618   6.173
 1805SOL     OW 6313   6.483   4.613   0.454
 1805SOL    HW1 6314   6.422   4.588   0.378
 1805SOL    HW2 6315   6.521   4.704   0.438
 1806SOL     OW 6316   0.789   1.909   1.461
 1806SOL    HW1 6317   0.798   1.894   1.363
 1806SOL    HW2 6318   0.712   1.855   1.497
 1807SOL     OW 6319   6.123   2.972   2.725
 1807SOL    HW1 6320   6.156   2.902   2.788
 1807SOL    HW2 6321   6.176   2.968   2.640
 1808SOL     OW 6322   5.486   0.944   6.157
 1808SOL    HW1 6323   5.478   0.929   6.255
 1808SOL    HW2 6324   5.459   0.862   6.108
 1809SOL     OW 6325   5.276   0.530   5.690
 1809SOL    HW1 6326   5.271   0.448   5.747
 1809SOL    HW2 6327   5.243   0.509   5.598
 1810SOL     OW 6328   1.336   1.261   4.530
 1810SOL    HW1 6329   1.268   1.213   4.475
 1810SOL    HW2 6330   1.370   1.200   4.602
 1811SOL     OW 6331   2.865   5.773   2.334
 1811SOL    HW1 6332   2.962   5.789   2.320
 1811SOL    HW2 6333   2.850   5.736   2.425
 1812SOL     OW 6334   3.914   0.056   6.569
 1812SOL    HW1 6335   3.836   0.072   6.631
 1812SOL    HW2 6336   3.890   0.085   6.477
 1813SOL     OW 6337   4.951   3.921   1.644
 1813SOL    HW1 6338   4.906   3.831   1.638
 1813SOL    HW2 6339   4.882   3.993   1.644
 1814SOL     OW 6340   6.381   5.759   0.840
 1814SOL    HW1 6341   6.418   5.781   0.750
 1814SOL    HW2 6342   6.362   5.844   0.890
 1815SOL     OW 6343   6.339   4.950   1.167
 1815SOL    HW1 6344   6.395   5.029   1.192
 1815SOL    HW2 6345   6.296   4.966   1.078
 1816SOL     OW 6346   4.503   5.255   4.926
 1816SOL    HW1 6347   4.420   5.306   4.950
 1816SOL    HW2 6348   4.584   5.309   4.949
 1817SOL     OW 6349   6.888   2.910   3.445
 1817SOL    HW1 6350   6.813   2.959   3.491
 1817SOL    HW2 6351   6.850   2.832   3.396
 1818SOL     OW 6352   2.511   1.390   0.627
 1818SOL    HW1 6353   2.487   1.386   0.530
 1818SOL    HW2 6354   2.554   1.304   0.654
 1819SOL     OW 6355   0.860   4.427   1.680
 1819SOL    HW1 6356   0.818   4.348   1.726
 1819SOL    HW2 6357   0.864   4.409   1.582
 1820SOL     OW 6358   4.058   0.272   5.085
 1820SOL    HW1 6359   4.043   0.256   4.988
 1820SOL    HW2 6360   4.000   0.348   5.116
 1821SOL     OW 6361   3.591   1.442   2.557
 1821SOL    HW1 6362   3.627   1.349   2.571
 1821SOL    HW2 6363   3.494   1.443   2.578
 1822SOL     OW 6364   1.564   3.777   4.030
 1822SOL    HW1 6365   1.653   3.817   4.010
 1822SOL    HW2 6366   1.530   3.730   3.949
 1823SOL     OW 6367   3.894   6.874   3.271
 1823SOL    HW1 6368   3.822   6.853   3.206
 1823SOL    HW2 6369   3.882   6.968   3.305
 1824SOL     OW 6370   4.418   3.192   1.725
 1824SOL    HW1 6371   4.500   3.246   1.705
 1824SOL    HW2 6372   4.439   3.126   1.797
 1825SOL     OW 6373   0.726   3.816   6.945
 1825SOL    HW1 6374   0.773   3.904   6.931
 1825SOL    HW2 6375   0.720   3.796   0.021
 1826SOL     OW 6376   3.600   2.697   0.571
 1826SOL    HW1 6377   3.611   2.655   0.481
 1826SOL    HW2 6378   3.677   2.671   0.629
 1827SOL     OW 6379   5.264   4.595   0.420
 1827SOL    HW1 6380   5.301   4.683   0.450
 1827SOL    HW2 6381   5.340   4.535   0.392
 1828SOL     OW 6382   2.279   4.817   4.463
 1828SOL    HW1 6383   2.190   4.835   4.422
 1828SOL    HW2 6384   2.275   4.730   4.513
 1829SOL     OW 6385   2.411   6.012   1.711
 1829SOL    HW1 6386   2.376   6.045   1.799
 1829SOL    HW2 6387   2.334   5.982   1.655
 1830SOL     OW 6388   4.570   1.208   6.231
 1830SOL    HW1 6389   4.488   1.230   6.283
 1830SOL    HW2 6390   4.617   1.292   6.204
 1831SOL     OW 6391   3.480   4.469   0.362
 1831SOL    HW1 6392   3.461   4.562   0.331
 1831SOL    HW2 6393   3.429   4.404   0.306
 1832SOL     OW 6394   1.602   3.624   5.658
 1832SOL    HW1 6395   1.611   3.542   5.714
 1832SOL    HW2 6396   1.663   3.618   5.579
 1833SOL     OW 6397   5.758   0.574   0.147
 1833SOL    HW1 6398   5.850   0.610   0.159
 1833SOL    HW2 6399   5.702   0.600   0.226
 1834SOL     OW 6400   1.281   3.745   6.496
 1834SOL    HW1 6401   1.201   3.805   6.503
 1834SOL    HW2 6402   1.338   3.757   6.578
 1835SOL     OW 6403   6.673   6.872   1.281
 1835SOL    HW1 6404   6.746   6.814   1.317
 1835SOL    HW2 6405   6.588   6.819   1.276
 1836SOL     OW 6406   5.721   1.730   2.747
 1836SOL    HW1 6407   5.686   1.691   2.832
 1836SOL    HW2 6408   5.679   1.819   2.730
 1837SOL     OW 6409   1.808   2.259   0.191
 1837SOL    HW1 6410   1.768   2.230   0.278
 1837SOL    HW2 6411   1.896   2.303   0.207
 1838SOL     OW 6412   4.621   0.373   0.561
 1838SOL    HW1 6413   4.590   0.327   0.478
 1838SOL    HW2 6414   4.657   0.306   0.625
 1839SOL     OW 6415   6.575   0.585   6.769
 1839SOL    HW1 6416   6.495   0.550   6.817
 1839SOL    HW2 6417   6.554   0.593   6.671
 1840SOL     OW 6418   4.130   0.088   4.746
 1840SOL    HW1 6419   4.133   0.122   4.652
 1840SOL    HW2 6420   4.052   0.130   4.793
 1841SOL     OW 6421   1.591   0.821   1.415
 1841SOL    HW1 6422   1.624   0.727   1.420
 1841SOL    HW2 6423   1.515   0.826   1.351
 1842SOL     OW 6424   6.888   5.081   1.737
 1842SOL    HW1 6425   6.901   5.088   1.836
 1842SOL    HW2 6426   6.924   5.164   1.694
 1843SOL     OW 6427   2.644   1.231   6.923
 1843SOL    HW1 6428   2.552   1.218   6.887
 1843SOL    HW2 6429   2.701   1.277   6.855
 1844SOL     OW 6430   5.388   3.066   6.731
 1844SOL    HW1 6431   5.405   2.999   6.659
 1844SOL    HW2 6432   5.400   3.022   6.821
 1845SOL     OW 6433   0.833   2.368   4.445
 1845SOL    HW1 6434   0.921   2.406   4.416
 1845SOL    HW2 6435   0.845   2.322   4.533
 1846SOL     OW 6436   3.219   1.020   1.507
 1846SOL    HW1 6437   3.306   1.068   1.519
 1846SOL    HW2 6438   3.225   0.929   1.548
 1847SOL     OW 6439   2.090   5.900   6.294
 1847SOL    HW1 6440   2.182   5.863   6.292
 1847SOL    HW2 6441   2.029   5.835   6.339
 1848SOL     OW 6442   4.006   6.395   3.102
 1848SOL    HW1 6443   4.082   6.371   3.042
 1848SOL    HW2 6444   4.041   6.428   3.189
 1849SOL     OW 6445   4.817   2.957   2.949
 1849SOL    HW1 6446   4.896   2.969   2.889
 1849SOL    HW2 6447   4.748   2.901   2.902
 1850SOL     OW 6448   4.416   1.687   0.952
 1850SOL    HW1 6449   4.377   1.732   1.032
 1850SOL    HW2 6450   4.497   1.738   0.922
 1851SOL     OW 6451   0.437   4.675   4.446
 1851SOL    HW1 6452   0.338   4.681   4.431
 1851SOL    HW2 6453   0.460   4.713   4.535
 1852SOL     OW 6454   0.273   6.501   3.884
 1852SOL    HW1 6455   0.339   6.543   3.946
 1852SOL    HW2 6456   0.214   6.571   3.845
 1853SOL     OW 6457   0.837   1.784   5.746
 1853SOL    HW1 6458   0.889   1.866   5.722
 1853SOL    HW2 6459   0.877   1.704   5.701
 1854SOL     OW 6460   0.193   0.150   3.925
 1854SOL    HW1 6461   0.183   0.227   3.988
 1854SOL    HW2 6462   0.278   0.160   3.874
 1855SOL     OW 6463   6.359   1.988   4.852
 1855SOL    HW1 6464   6.283   1.924   4.847
 1855SOL    HW2 6465   6.395   2.005   4.760
 1856SOL     OW 6466   5.142   3.973   0.092
 1856SOL    HW1 6467   5.062   3.916   0.071
 1856SOL    HW2 6468   5.217   3.915   0.123
 1857SOL     OW 6469   4.082   1.219   6.438
 1857SOL    HW1 6470   4.060   1.161   6.516
 1857SOL    HW2 6471   4.028   1.303   6.443
 1858SOL     OW 6472   5.459   2.012   4.992
 1858SOL    HW1 6473   5.396   2.049   4.924
 1858SOL    HW2 6474   5.414   2.010   5.082
 1859SOL     OW 6475   6.841   0.152   2.889
 1859SOL    HW1 6476   6.748   0.139   2.923
 1859SOL    HW2 6477   6.839   0.212   2.809
 1860SOL     OW 6478   2.607   1.484   6.121
 1860SOL    HW1 6479   2.621   1.422   6.197
 1860SOL    HW2 6480   2.587   1.432   6.038
 1861SOL     OW 6481   6.082   6.524   5.133
 1861SOL    HW1 6482   6.023   6.446   5.155
 1861SOL    HW2 6483   6.027   6.597   5.094
 1862SOL     OW 6484   2.934   5.772   6.242
 1862SOL    HW1 6485   2.945   5.674   6.226
 1862SOL    HW2 6486   2.985   5.823   6.173
 1863SOL     OW 6487   0.085   1.996   1.623
 1863SOL    HW1 6488   0.079   2.041   1.534
 1863SOL    HW2 6489   0.171   1.945   1.629
 1864SOL     OW 6490   2.159   6.282   1.645
 1864SOL    HW1 6491   2.227   6.304   1.575
 1864SOL    HW2 6492   2.204   6.272   1.734
 1865SOL     OW 6493   6.278   2.280   5.851
 1865SOL    HW1 6494   6.343   2.248   5.920
 1865SOL    HW2 6495   6.227   2.202   5.815
 1866SOL     OW 6496   6.922   4.321   4.001
 1866SOL    HW1 6497   6.921   4.415   3.969
 1866SOL    HW2 6498   6.861   4.312   4.079
 1867SOL     OW 6499   1.101   1.435   1.725
 1867SOL    HW1 6500   1.024   1.371   1.727
 1867SOL    HW2 6501   1.181   1.391   1.684
 1868SOL     OW 6502   5.423   3.917   6.435
 1868SOL    HW1 6503   5.493   3.858   6.394
 1868SOL    HW2 6504   5.349   3.931   6.369
 1869SOL     OW 6505   5.077   0.925   5.638
 1869SOL    HW1 6506   5.048   0.837   5.600
 1869SOL    HW2 6507   5.146   0.965   5.578
 1870SOL     OW 6508   5.831   0.190   6.362
 1870SOL    HW1 6509   5.923   0.164   6.392
 1870SOL    HW2 6510   5.820   0.165   6.266
 1871SOL     OW 6511   0.623   6.166   6.806
 1871SOL    HW1 6512   0.558   6.098   6.839
 1871SOL    HW2 6513   0.686   6.124   6.742
 1872SOL     OW 6514   2.731   3.110   1.013
 1872SOL    HW1 6515   2.664   3.185   1.010
 1872SOL    HW2 6516   2.798   3.123   0.940
 1873SOL     OW 6517   6.270   1.009   1.760
 1873SOL    HW1 6518   6.220   1.086   1.800
 1873SOL    HW2 6519   6.318   0.959   1.832
 1874SOL     OW 6520   1.288   6.114   6.312
 1874SOL    HW1 6521   1.349   6.193   6.323
 1874SOL    HW2 6522   1.276   6.095   6.214
 1875SOL     OW 6523   0.553   6.365   2.327
 1875SOL    HW1 6524   0.491   6.413   2.264
 1875SOL    HW2 6525   0.629   6.425   2.351
 1876SOL     OW 6526   0.829   4.502   0.691
 1876SOL    HW1 6527   0.785   4.496   0.602
 1876SOL    HW2 6528   0.908   4.441   0.694
 1877SOL     OW 6529   1.214   1.135   2.823
 1877SOL    HW1 6530   1.146   1.208   2.836
 1877SOL    HW2 6531   1.297   1.173   2.784
 1878SOL     OW 6532   5.332   3.613   4.096
 1878SOL    HW1 6533   5.274   3.554   4.152
 1878SOL    HW2 6534   5.388   3.671   4.156
 1879SOL     OW 6535   4.308   6.674   4.969
 1879SOL    HW1 6536   4.337   6.662   4.874
 1879SOL    HW2 6537   4.213   6.706   4.971
 1880SOL     OW 6538   1.101   2.137   4.501
 1880SOL    HW1 6539   1.126   2.175   4.412
 1880SOL    HW2 6540   1.021   2.078   4.490
 1881SOL     OW 6541   2.020   1.180   4.121
 1881SOL    HW1 6542   2.058   1.092   4.094
 1881SOL    HW2 6543   2.086   1.253   4.100
 1882SOL     OW 6544   2.686   5.506   0.573
 1882SOL    HW1 6545   2.688   5.497   0.673
 1882SOL    HW2 6546   2.617   5.573   0.547
 1883SOL     OW 6547   2.250   3.028   2.921
 1883SOL    HW1 6548   2.287   3.052   2.831
 1883SOL    HW2 6549   2.298   2.947   2.956
 1884SOL     OW 6550   5.139   0.370   0.484
 1884SOL    HW1 6551   5.187   0.394   0.568
 1884SOL    HW2 6552   5.124   0.271   0.480
 1885SOL     OW 6553   0.198   1.330   0.441
 1885SOL    HW1 6554   0.121   1.267   0.443
 1885SOL    HW2 6555   0.263   1.308   0.514
 1886SOL     OW 6556   3.676   2.626   5.488
 1886SOL    HW1 6557   3.638   2.557   5.427
 1886SOL    HW2 6558   3.608   2.651   5.557
 1887SOL     OW 6559   0.672   6.057   4.940
 1887SOL    HW1 6560   0.668   6.066   4.841
 1887SOL    HW2 6561   0.719   5.972   4.964
 1888SOL     OW 6562   1.682   1.855   6.110
 1888SOL    HW1 6563   1.721   1.944   6.131
 1888SOL    HW2 6564   1.589   1.850   6.146
 1889SOL     OW 6565   3.419   2.720   0.115
 1889SOL    HW1 6566   3.342   2.659   0.132
 1889SOL    HW2 6567   3.423   2.790   0.186
 1890SOL     OW 6568   6.161   5.788   6.452
 1890SOL    HW1 6569   6.207   5.828   6.531
 1890SOL    HW2 6570   6.063   5.805   6.459
 1891SOL     OW 6571   5.355   3.574   0.149
 1891SOL    HW1 6572   5.347   3.565   0.248
 1891SOL    HW2 6573   5.345   3.670   0.124
 1892SOL     OW 6574   4.089   0.353   3.165
 1892SOL    HW1 6575   4.076   0.447   3.133
 1892SOL    HW2 6576   4.187   0.333   3.169
 1893SOL     OW 6577   2.888   0.899   6.318
 1893SOL    HW1 6578   2.980   0.863   6.332
 1893SOL    HW2 6579   2.876   0.983   6.371
 1894SOL     OW 6580   4.743   3.161   0.619
 1894SOL    HW1 6581   4.758   3.175   0.717
 1894SOL    HW2 6582   4.829   3.173   0.570
 1895SOL     OW 6583   4.510   6.012   3.035
 1895SOL    HW1 6584   4.431   6.051   3.081
 1895SOL    HW2 6585   4.571   5.970   3.103
 1896SOL     OW 6586   6.411   2.135   5.074
 1896SOL    HW1 6587   6.407   2.083   4.989
 1896SOL    HW2 6588   6.505   2.162   5.092
 1897SOL     OW 6589   5.113   4.828   2.984
 1897SOL    HW1 6590   5.142   4.858   2.893
 1897SOL    HW2 6591   5.179   4.859   3.052
 1898SOL     OW 6592   5.562   6.588   6.699
 1898SOL    HW1 6593   5.527   6.675   6.664
 1898SOL    HW2 6594   5.574   6.524   6.622
 1899SOL     OW 6595   2.232   2.939   3.528
 1899SOL    HW1 6596   2.254   2.960   3.623
 1899SOL    HW2 6597   2.133   2.926   3.518
 1900SOL     OW 6598   2.255   5.607   1.823
 1900SOL    HW1 6599   2.272   5.645   1.914
 1900SOL    HW2 6600   2.224   5.512   1.832
 1901SOL     OW 6601   1.299   0.572   5.498
 1901SOL    HW1 6602   1.309   0.663   5.456
 1901SOL    HW2 6603   1.322   0.578   5.595
 1902SOL     OW 6604   1.108   2.848   4.478
 1902SOL    HW1 6605   1.029   2.787   4.484
 1902SOL    HW2 6606   1.134   2.878   4.570
 1903SOL     OW 6607   6.561   4.919   3.967
 1903SOL    HW1 6608   6.469   4.935   4.004
 1903SOL    HW2 6609   6.628   4.923   4.041
 1904SOL     OW 6610   0.355   0.193   4.680
 1904SOL    HW1 6611   0.269   0.148   4.656
 1904SOL    HW2 6612   0.336   0.287   4.707
 1905SOL     OW 6613   6.581   2.923   4.605
 1905SOL    HW1 6614   6.630   2.843   4.571
 1905SOL    HW2 6615   6.618   3.006   4.562
 1906SOL     OW 6616   2.446   6.473   5.534
 1906SOL    HW1 6617   2.373   6.457   5.600
 1906SOL    HW2 6618   2.508   6.544   5.569
 1907SOL     OW 6619   4.345   6.936   3.603
 1907SOL    HW1 6620   4.377   7.012   3.660
 1907SOL    HW2 6621   4.265   6.894   3.645
 1908SOL     OW 6622   4.908   5.712   0.974
 1908SOL    HW1 6623   4.882   5.799   0.932
 1908SOL    HW2 6624   4.826   5.667   1.010
 1909SOL     OW 6625   4.838   5.613   3.535
 1909SOL    HW1 6626   4.907   5.545   3.562
 1909SOL    HW2 6627   4.791   5.582   3.453
 1910SOL     OW 6628   4.805   3.062   4.529
 1910SOL    HW1 6629   4.833   3.021   4.615
 1910SOL    HW2 6630   4.830   3.002   4.453
 1911SOL     OW 6631   0.371   3.160   5.670
 1911SOL    HW1 6632   0.420   3.107   5.739
 1911SOL    HW2 6633   0.378   3.114   5.582
 1912SOL     OW 6634   3.365   6.095   3.072
 1912SOL    HW1 6635   3.339   6.170   3.133
 1912SOL    HW2 6636   3.413   6.132   2.992
 1913SOL     OW 6637   2.018   4.229   5.338
 1913SOL    HW1 6638   2.058   4.144   5.302
 1913SOL    HW2 6639   2.090   4.298   5.346
 1914SOL     OW 6640   3.939   1.562   4.926
 1914SOL    HW1 6641   3.864   1.503   4.957
 1914SOL    HW2 6642   3.901   1.641   4.878
 1915SOL     OW 6643   3.362   0.035   5.515
 1915SOL    HW1 6644   3.315   0.021   5.602
 1915SOL    HW2 6645   3.461   0.038   5.530
 1916SOL     OW 6646   3.593   6.305   2.488
 1916SOL    HW1 6647   3.531   6.251   2.545
 1916SOL    HW2 6648   3.655   6.244   2.438
 1917SOL     OW 6649   3.026   3.957   4.346
 1917SOL    HW1 6650   2.952   4.012   4.307
 1917SOL    HW2 6651   3.109   3.970   4.293
 1918SOL     OW 6652   6.869   6.398   5.607
 1918SOL    HW1 6653   6.884   6.353   5.695
 1918SOL    HW2 6654   6.957   6.427   5.569
 1919SOL     OW 6655   6.389   0.687   2.386
 1919SOL    HW1 6656   6.438   0.630   2.320
 1919SOL    HW2 6657   6.396   0.783   2.357
 1920SOL     OW 6658   6.397   5.994   4.522
 1920SOL    HW1 6659   6.401   6.053   4.603
 1920SOL    HW2 6660   6.443   5.907   4.542
 1921SOL     OW 6661   2.153   6.684   6.753
 1921SOL    HW1 6662   2.078   6.712   6.694
 1921SOL    HW2 6663   2.225   6.753   6.751
 1922SOL     OW 6664   3.912   4.603   0.876
 1922SOL    HW1 6665   3.861   4.564   0.799
 1922SOL    HW2 6666   3.852   4.608   0.956
 1923SOL     OW 6667   1.236   2.966   0.705
 1923SOL    HW1 6668   1.311   3.017   0.747
 1923SOL    HW2 6669   1.183   2.920   0.775
 1924SOL     OW 6670   0.788   4.009   0.852
 1924SOL    HW1 6671   0.707   3.951   0.856
 1924SOL    HW2 6672   0.804   4.051   0.941
 1925SOL     OW 6673   3.128   4.251   0.379
 1925SOL    HW1 6674   3.207   4.253   0.440
 1925SOL    HW2 6675   3.060   4.187   0.414
 1926SOL     OW 6676   0.406   0.446   3.668
 1926SOL    HW1 6677   0.440   0.537   3.644
 1926SOL    HW2 6678   0.308   0.452   3.690
 1927SOL     OW 6679   4.761   3.356   1.162
 1927SOL    HW1 6680   4.724   3.314   1.245
 1927SOL    HW2 6681   4.861   3.348   1.163
 1928SOL     OW 6682   0.272   5.602   4.596
 1928SOL    HW1 6683   0.251   5.639   4.506
 1928SOL    HW2 6684   0.191   5.607   4.654
 1929SOL     OW 6685   1.467   5.990   2.893
 1929SOL    HW1 6686   1.555   6.036   2.901
 1929SOL    HW2 6687   1.460   5.945   2.804
 1930SOL     OW 6688   6.778   5.253   6.473
 1930SOL    HW1 6689   6.764   5.236   6.571
 1930SOL    HW2 6690   6.766   5.167   6.423
 1931SOL     OW 6691   0.666   1.944   4.355
 1931SOL    HW1 6692   0.631   2.019   4.412
 1931SOL    HW2 6693   0.591   1.882   4.332
 1932SOL     OW 6694   6.000   3.345   2.748
 1932SOL    HW1 6695   5.940   3.276   2.789
 1932SOL    HW2 6696   5.953   3.433   2.747
 1933SOL     OW 6697   2.733   5.051   0.492
 1933SOL    HW1 6698   2.713   5.149   0.494
 1933SOL    HW2 6699   2.802   5.033   0.422
 1934SOL     OW 6700   6.630   6.176   3.049
 1934SOL    HW1 6701   6.627   6.257   2.990
 1934SOL    HW2 6702   6.701   6.188   3.119
 1935SOL     OW 6703   2.049   1.323   2.982
 1935SOL    HW1 6704   2.143   1.320   2.949
 1935SOL    HW2 6705   2.008   1.410   2.957
 1936SOL     OW 6706   6.537   6.076   5.183
 1936SOL    HW1 6707   6.533   6.159   5.128
 1936SOL    HW2 6708   6.534   6.099   5.280
 1937SOL     OW 6709   4.101   0.970   3.129
 1937SOL    HW1 6710   4.137   0.950   3.221
 1937SOL    HW2 6711   4.030   1.040   3.135
 1938SOL     OW 6712   5.891   1.174   4.605
 1938SOL    HW1 6713   5.900   1.240   4.530
 1938SOL    HW2 6714   5.795   1.171   4.635
 1939SOL     OW 6715   3.112   0.851   4.260
 1939SOL    HW1 6716   3.200   0.830   4.303
 1939SOL    HW2 6717   3.038   0.837   4.327
 1940SOL     OW 6718   6.307   5.543   6.214
 1940SOL    HW1 6719   6.323   5.445   6.223
 1940SOL    HW2 6720   6.344   5.591   6.294
 1941SOL     OW 6721   4.588   4.898   2.822
 1941SOL    HW1 6722   4.685   4.888   2.842
 1941SOL    HW2 6723   4.571   4.883   2.725
 1942SOL     OW 6724   7.012   3.970   3.388
 1942SOL    HW1 6725   0.063   3.908   3.359
 1942SOL    HW2 6726   0.028   4.039   3.450
 1943SOL     OW 6727   2.905   5.603   3.288
 1943SOL    HW1 6728   2.810   5.598   3.259
 1943SOL    HW2 6729   2.947   5.686   3.250
 1944SOL     OW 6730   0.044   6.690   2.572
 1944SOL    HW1 6731   0.052   6.603   2.522
 1944SOL    HW2 6732   0.054   6.673   2.670
 1945SOL     OW 6733   3.428   4.921   3.292
 1945SOL    HW1 6734   3.443   4.930   3.193
 1945SOL    HW2 6735   3.330   4.908   3.309
 1946SOL     OW 6736   1.280   6.608   6.884
 1946SOL    HW1 6737   1.182   6.598   6.869
 1946SOL    HW2 6738   1.323   6.643   6.801
 1947SOL     OW 6739   4.931   6.765   3.760
 1947SOL    HW1 6740   5.022   6.787   3.726
 1947SOL    HW2 6741   4.862   6.804   3.699
 1948SOL     OW 6742   6.223   3.942   5.018
 1948SOL    HW1 6743   6.225   3.975   5.113
 1948SOL    HW2 6744   6.284   3.998   4.962
 1949SOL     OW 6745   4.771   4.198   6.689
 1949SOL    HW1 6746   4.858   4.229   6.726
 1949SOL    HW2 6747   4.745   4.256   6.611
 1950SOL     OW 6748   3.142   5.048   1.003
 1950SOL    HW1 6749   3.147   5.028   0.905
 1950SOL    HW2 6750   3.075   4.987   1.046
 1951SOL     OW 6751   6.446   2.761   0.223
 1951SOL    HW1 6752   6.363   2.782   0.274
 1951SOL    HW2 6753   6.427   2.766   0.125
 1952SOL     OW 6754   3.515   3.021   4.858
 1952SOL    HW1 6755   3.589   3.082   4.830
 1952SOL    HW2 6756   3.447   3.016   4.785
 1953SOL     OW 6757   0.578   2.712   4.823
 1953SOL    HW1 6758   0.509   2.724   4.752
 1953SOL    HW2 6759   0.666   2.749   4.791
 1954SOL     OW 6760   2.992   1.655   3.572
 1954SOL    HW1 6761   3.050   1.685   3.496
 1954SOL    HW2 6762   2.975   1.557   3.564
 1955SOL     OW 6763   6.235   5.295   1.893
 1955SOL    HW1 6764   6.314   5.250   1.852
 1955SOL    HW2 6765   6.222   5.385   1.852
 1956SOL     OW 6766   5.455   5.893   2.492
 1956SOL    HW1 6767   5.460   5.993   2.497
 1956SOL    HW2 6768   5.489   5.853   2.577
 1957SOL     OW 6769   1.456   6.636   4.882
 1957SOL    HW1 6770   1.544   6.683   4.880
 1957SOL    HW2 6771   1.435   6.608   4.976
 1958SOL     OW 6772   4.334   3.437   5.933
 1958SOL    HW1 6773   4.418   3.389   5.958
 1958SOL    HW2 6774   4.255   3.384   5.965
 1959SOL     OW 6775   2.416   1.379   0.343
 1959SOL    HW1 6776   2.320   1.354   0.352
 1959SOL    HW2 6777   2.444   1.371   0.248
 1960SOL     OW 6778   6.087   5.895   2.187
 1960SOL    HW1 6779   6.124   5.823   2.129
 1960SOL    HW2 6780   6.047   5.966   2.131
 1961SOL     OW 6781   6.119   4.800   5.066
 1961SOL    HW1 6782   6.192   4.786   5.001
 1961SOL    HW2 6783   6.156   4.839   5.150
 1962SOL     OW 6784   6.876   6.821   3.834
 1962SOL    HW1 6785   6.839   6.780   3.918
 1962SOL    HW2 6786   6.809   6.813   3.761
 1963SOL     OW 6787   2.892   0.767   3.614
 1963SOL    HW1 6788   2.950   0.801   3.688
 1963SOL    HW2 6789   2.930   0.797   3.526
 1964SOL     OW 6790   5.990   3.509   1.843
 1964SOL    HW1 6791   6.006   3.567   1.763
 1964SOL    HW2 6792   6.067   3.519   1.906
 1965SOL     OW 6793   1.864   6.076   3.613
 1965SOL    HW1 6794   1.864   6.138   3.534
 1965SOL    HW2 6795   1.772   6.040   3.627
 1966SOL     OW 6796   6.029   6.799   6.887
 1966SOL    HW1 6797   5.967   6.720   6.889
 1966SOL    HW2 6798   6.052   6.821   6.793
 1967SOL     OW 6799   5.237   3.709   4.724
 1967SOL    HW1 6800   5.263   3.806   4.730
 1967SOL    HW2 6801   5.221   3.685   4.628
 1968SOL     OW 6802   3.826   5.343   4.771
 1968SOL    HW1 6803   3.768   5.401   4.828
 1968SOL    HW2 6804   3.779   5.257   4.752
 1969SOL     OW 6805   7.009   1.602   1.696
 1969SOL    HW1 6806   0.009   1.610   1.793
 1969SOL    HW2 6807   6.912   1.582   1.685
 1970SOL     OW 6808   1.768   0.573   3.853
 1970SOL    HW1 6809   1.688   0.542   3.905
 1970SOL    HW2 6810   1.838   0.501   3.854
 1971SOL     OW 6811   0.514   1.370   6.052
 1971SOL    HW1 6812   0.483   1.459   6.086
 1971SOL    HW2 6813   0.450   1.337   5.982
 1972SOL     OW 6814   1.945   0.083   3.337
 1972SOL    HW1 6815   1.921   0.128   3.423
 1972SOL    HW2 6816   1.934   7.006   3.346
 1973SOL     OW 6817   2.532   3.556   0.393
 1973SOL    HW1 6818   2.556   3.631   0.332
 1973SOL    HW2 6819   2.485   3.591   0.474
 1974SOL     OW 6820   5.860   6.901   4.417
 1974SOL    HW1 6821   5.784   6.849   4.378
 1974SOL    HW2 6822   5.834   6.934   4.508
 1975SOL     OW 6823   3.066   0.422   3.975
 1975SOL    HW1 6824   3.144   0.481   3.957
 1975SOL    HW2 6825   3.089   0.356   4.047
 1976SOL     OW 6826   6.634   4.219   6.652
 1976SOL    HW1 6827   6.695   4.254   6.580
 1976SOL    HW2 6828   6.678   4.142   6.699
 1977SOL     OW 6829   2.786   2.130   5.788
 1977SOL    HW1 6830   2.872   2.116   5.837
 1977SOL    HW2 6831   2.792   2.213   5.733
 1978SOL     OW 6832   6.731   2.075   5.861
 1978SOL    HW1 6833   6.677   2.050   5.941
 1978SOL    HW2 6834   6.820   2.029   5.865
 1979SOL     OW 6835   6.191   4.320   2.741
 1979SOL    HW1 6836   6.190   4.420   2.734
 1979SOL    HW2 6837   6.176   4.293   2.836
 1980SOL     OW 6838   2.812   0.938   1.785
 1980SOL    HW1 6839   2.857   1.010   1.838
 1980SOL    HW2 6840   2.753   0.884   1.846
 1981SOL     OW 6841   4.988   3.616   1.855
 1981SOL    HW1 6842   4.912   3.652   1.800
 1981SOL    HW2 6843   4.952   3.583   1.942
 1982SOL     OW 6844   6.820   6.583   5.245
 1982SOL    HW1 6845   6.837   6.633   5.330
 1982SOL    HW2 6846   6.869   6.496   5.248
 1983SOL     OW 6847   0.582   4.712   2.345
 1983SOL    HW1 6848   0.516   4.699   2.270
 1983SOL    HW2 6849   0.673   4.685   2.314
 1984SOL     OW 6850   4.841   0.867   4.814
 1984SOL    HW1 6851   4.805   0.952   4.777
 1984SOL    HW2 6852   4.781   0.791   4.789
 1985SOL     OW 6853   1.476   6.154   1.464
 1985SOL    HW1 6854   1.531   6.142   1.381
 1985SOL    HW2 6855   1.537   6.169   1.542
 1986SOL     OW 6856   0.106   2.194   0.021
 1986SOL    HW1 6857   0.043   2.117   0.030
 1986SOL    HW2 6858   0.086   2.244   6.958
 1987SOL     OW 6859   2.737   4.181   0.230
 1987SOL    HW1 6860   2.809   4.145   0.290
 1987SOL    HW2 6861   2.661   4.116   0.227
 1988SOL     OW 6862   4.747   3.660   0.123
 1988SOL    HW1 6863   4.755   3.710   0.209
 1988SOL    HW2 6864   4.656   3.618   0.118
 1989SOL     OW 6865   2.254   1.171   4.491
 1989SOL    HW1 6866   2.247   1.199   4.395
 1989SOL    HW2 6867   2.269   1.251   4.549
 1990SOL     OW 6868   1.511   1.043   2.612
 1990SOL    HW1 6869   1.501   0.971   2.680
 1990SOL    HW2 6870   1.592   1.024   2.556
 1991SOL     OW 6871   4.157   5.482   2.913
 1991SOL    HW1 6872   4.257   5.479   2.914
 1991SOL    HW2 6873   4.123   5.490   3.007
 1992SOL     OW 6874   2.745   6.328   5.138
 1992SOL    HW1 6875   2.730   6.379   5.223
 1992SOL    HW2 6876   2.831   6.279   5.143
 1993SOL     OW 6877   3.191   3.062   4.015
 1993SOL    HW1 6878   3.256   3.111   3.958
 1993SOL    HW2 6879   3.098   3.078   3.982
 1994SOL     OW 6880   6.075   2.347   1.738
 1994SOL    HW1 6881   6.072   2.336   1.639
 1994SOL    HW2 6882   5.985   2.375   1.771
 1995SOL     OW 6883   3.768   2.505   1.194
 1995SOL    HW1 6884   3.712   2.483   1.274
 1995SOL    HW2 6885   3.798   2.421   1.149
 1996SOL     OW 6886   2.889   4.062   5.225
 1996SOL    HW1 6887   2.894   4.142   5.164
 1996SOL    HW2 6888   2.794   4.034   5.235
 1997SOL     OW 6889   5.707   6.834   3.668
 1997SOL    HW1 6890   5.721   6.806   3.763
 1997SOL    HW2 6891   5.787   6.809   3.614
 1998SOL     OW 6892   3.449   5.217   4.813
 1998SOL    HW1 6893   3.496   5.225   4.725
 1998SOL    HW2 6894   3.462   5.124   4.849
 1999SOL     OW 6895   2.771   1.327   1.970
 1999SOL    HW1 6896   2.682   1.282   1.966
 1999SOL    HW2 6897   2.843   1.258   1.981
 2000SOL     OW 6898   3.530   1.371   4.774
 2000SOL    HW1 6899   3.531   1.289   4.717
 2000SOL    HW2 6900   3.490   1.447   4.724
 2001SOL     OW 6901   2.423   3.526   6.859
 2001SOL    HW1 6902   2.402   3.430   6.842
 2001SOL    HW2 6903   2.352   3.583   6.818
 2002SOL     OW 6904   1.074   5.333   4.907
 2002SOL    HW1 6905   1.068   5.359   5.003
 2002SOL    HW2 6906   0.988   5.289   4.879
 2003SOL     OW 6907   6.589   4.437   3.118
 2003SOL    HW1 6908   6.548   4.406   3.032
 2003SOL    HW2 6909   6.684   4.405   3.124
 2004SOL     OW 6910   2.927   6.838   6.301
 2004SOL    HW1 6911   2.913   6.739   6.307
 2004SOL    HW2 6912   3.016   6.861   6.342
 2005SOL     OW 6913   3.087   6.509   5.398
 2005SOL    HW1 6914   3.066   6.567   5.319
 2005SOL    HW2 6915   3.142   6.561   5.464
 2006SOL     OW 6916   5.179   6.624   3.057
 2006SOL    HW1 6917   5.080   6.639   3.055
 2006SOL    HW2 6918   5.205   6.586   3.145
 2007SOL     OW 6919   6.213   5.285   6.907
 2007SOL    HW1 6920   6.281   5.357   6.899
 2007SOL    HW2 6921   6.167   5.273   6.818
 2008SOL     OW 6922   6.801   6.432   4.448
 2008SOL    HW1 6923   6.862   6.386   4.513
 2008SOL    HW2 6924   6.853   6.459   4.368
 2009SOL     OW 6925   0.561   0.495   0.278
 2009SOL    HW1 6926   0.469   0.487   0.240
 2009SOL    HW2 6927   0.555   0.500   0.378
 2010SOL     OW 6928   1.387   0.345   0.976
 2010SOL    HW1 6929   1.382   0.252   1.014
 2010SOL    HW2 6930   1.303   0.394   0.997
 2011SOL     OW 6931   6.977   2.380   5.333
 2011SOL    HW1 6932   0.003   2.368   5.420
 2011SOL    HW2 6933   6.953   2.291   5.295
 2012SOL     OW 6934   6.778   3.622   0.931
 2012SOL    HW1 6935   6.859   3.613   0.989
 2012SOL    HW2 6936   6.702   3.574   0.974
 2013SOL     OW 6937   3.963   1.826   2.360
 2013SOL    HW1 6938   3.968   1.792   2.454
 2013SOL    HW2 6939   3.893   1.775   2.311
 2014SOL     OW 6940   2.925   5.789   3.604
 2014SOL    HW1 6941   3.004   5.807   3.544
 2014SOL    HW2 6942   2.894   5.875   3.645
 2015SOL     OW 6943   3.153   6.472   0.143
 2015SOL    HW1 6944   3.222   6.420   0.194
 2015SOL    HW2 6945   3.127   6.553   0.196
 2016SOL     OW 6946   6.160   5.422   4.048
 2016SOL    HW1 6947   6.096   5.368   3.995
 2016SOL    HW2 6948   6.132   5.423   4.144
 2017SOL     OW 6949   2.165   5.014   1.962
 2017SOL    HW1 6950   2.228   4.940   1.986
 2017SOL    HW2 6951   2.134   5.002   1.868
 2018SOL     OW 6952   0.462   4.158   6.252
 2018SOL    HW1 6953   0.438   4.120   6.342
 2018SOL    HW2 6954   0.390   4.135   6.186
 2019SOL     OW 6955   5.790   1.726   3.061
 2019SOL    HW1 6956   5.847   1.661   3.011
 2019SOL    HW2 6957   5.826   1.819   3.047
 2020SOL     OW 6958   1.603   5.641   3.591
 2020SOL    HW1 6959   1.672   5.651   3.662
 2020SOL    HW2 6960   1.513   5.661   3.629
 2021SOL     OW 6961   1.664   0.103   1.749
 2021SOL    HW1 6962   1.581   0.100   1.804
 2021SOL    HW2 6963   1.741   0.130   1.807
 2022SOL     OW 6964   2.556   4.914   0.843
 2022SOL    HW1 6965   2.630   4.947   0.902
 2022SOL    HW2 6966   2.468   4.925   0.891
 2023SOL     OW 6967   6.316   1.303   6.457
 2023SOL    HW1 6968   6.217   1.296   6.444
 2023SOL    HW2 6969   6.353   1.373   6.395
 2024SOL     OW 6970   5.967   0.343   2.586
 2024SOL    HW1 6971   5.948   0.410   2.657
 2024SOL    HW2 6972   6.052   0.294   2.607
 2025SOL     OW 6973   6.109   0.794   1.015
 2025SOL    HW1 6974   6.195   0.782   0.965
 2025SOL    HW2 6975   6.035   0.810   0.950
 2026SOL     OW 6976   1.439   2.019   4.984
 2026SOL    HW1 6977   1.350   2.063   4.967
 2026SOL    HW2 6978   1.491   2.017   4.899
 2027SOL     OW 6979   0.867   1.133   2.848
 2027SOL    HW1 6980   0.856   1.221   2.895
 2027SOL    HW2 6981   0.883   1.149   2.751
 2028SOL     OW 6982   3.575   4.055   6.045
 2028SOL    HW1 6983   3.525   4.060   5.958
 2028SOL    HW2 6984   3.667   4.019   6.028
 2029SOL     OW 6985   1.629   0.550   0.529
 2029SOL    HW1 6986   1.703   0.616   0.540
 2029SOL    HW2 6987   1.630   0.484   0.604
 2030SOL     OW 6988   1.849   2.556   3.160
 2030SOL    HW1 6989   1.896   2.632   3.206
 2030SOL    HW2 6990   1.901   2.472   3.172
 2031SOL     OW 6991   5.668   0.078   2.696
 2031SOL    HW1 6992   5.615   0.067   2.612
 2031SOL    HW2 6993   5.695   7.010   2.731
 2032SOL     OW 6994   5.295   6.127   1.481
 2032SOL    HW1 6995   5.331   6.044   1.524
 2032SOL    HW2 6996   5.254   6.103   1.393
 2033SOL     OW 6997   6.501   5.068   6.599
 2033SOL    HW1 6998   6.533   4.979   6.566
 2033SOL    HW2 6999   6.440   5.108   6.531
 2034SOL     OW 7000   2.397   6.834   3.683
 2034SOL    HW1 7001   2.419   6.879   3.596
 2034SOL    HW2 7002   2.375   6.738   3.665
 2035SOL     OW 7003   0.101   2.610   1.343
 2035SOL    HW1 7004   0.182   2.573   1.390
 2035SOL    HW2 7005   0.030   2.540   1.339
 2036SOL     OW 7006   0.527   4.088   0.675
 2036SOL    HW1 7007   0.518   4.168   0.735
 2036SOL    HW2 7008   0.602   4.102   0.611
 2037SOL     OW 7009   0.141   2.102   6.401
 2037SOL    HW1 7010   0.200   2.034   6.356
 2037SOL    HW2 7011   0.151   2.095   6.500
 2038SOL     OW 7012   1.112   0.263   5.054
 2038SOL    HW1 7013   1.066   0.328   4.993
 2038SOL    HW2 7014   1.071   0.270   5.145
 2039SOL     OW 7015   1.052   5.508   2.184
 2039SOL    HW1 7016   1.080   5.495   2.089
 2039SOL    HW2 7017   1.133   5.511   2.242
 2040SOL     OW 7018   3.604   4.125   4.548
 2040SOL    HW1 7019   3.525   4.081   4.591
 2040SOL    HW2 7020   3.599   4.224   4.562
 2041SOL     OW 7021   5.850   3.195   0.111
 2041SOL    HW1 7022   5.818   3.106   0.142
 2041SOL    HW2 7023   5.787   3.266   0.144
 2042SOL     OW 7024   3.563   5.868   0.450
 2042SOL    HW1 7025   3.569   5.967   0.463
 2042SOL    HW2 7026   3.467   5.840   0.446
 2043SOL     OW 7027   4.207   4.631   2.477
 2043SOL    HW1 7028   4.220   4.555   2.413
 2043SOL    HW2 7029   4.295   4.671   2.500
 2044SOL     OW 7030   6.616   0.938   2.055
 2044SOL    HW1 7031   6.657   0.885   2.128
 2044SOL    HW2 7032   6.520   0.912   2.044
 2045SOL     OW 7033   2.332   6.070   5.830
 2045SOL    HW1 7034   2.416   6.124   5.822
 2045SOL    HW2 7035   2.290   6.087   5.919
 2046SOL     OW 7036   6.097   6.815   5.062
 2046SOL    HW1 7037   6.099   6.812   4.962
 2046SOL    HW2 7038   6.188   6.836   5.096
 2047SOL     OW 7039   5.309   2.466   0.159
 2047SOL    HW1 7040   5.408   2.449   0.152
 2047SOL    HW2 7041   5.282   2.531   0.088
 2048SOL     OW 7042   4.507   6.833   5.237
 2048SOL    HW1 7043   4.450   6.751   5.240
 2048SOL    HW2 7044   4.551   6.839   5.148
 2049SOL     OW 7045   4.637   6.237   0.547
 2049SOL    HW1 7046   4.556   6.178   0.536
 2049SOL    HW2 7047   4.652   6.289   0.464
 2050SOL     OW 7048   5.427   0.928   4.143
 2050SOL    HW1 7049   5.492   0.942   4.069
 2050SOL    HW2 7050   5.380   0.841   4.130
 2051SOL     OW 7051   2.245   5.246   0.735
 2051SOL    HW1 7052   2.310   5.313   0.698
 2051SOL    HW2 7053   2.228   5.266   0.832
 2052SOL     OW 7054   1.232   2.818   0.970
 2052SOL    HW1 7055   1.181   2.782   1.048
 2052SOL    HW2 7056   1.291   2.746   0.933
 2053SOL     OW 7057   5.121   1.026   0.121
 2053SOL    HW1 7058   5.068   0.943   0.101
 2053SOL    HW2 7059   5.111   1.048   0.218
 2054SOL     OW 7060   6.881   3.633   1.626
 2054SOL    HW1 7061   6.800   3.681   1.662
 2054SOL    HW2 7062   6.933   3.595   1.702
 2055SOL     OW 7063   6.251   1.650   3.998
 2055SOL    HW1 7064   6.258   1.739   4.043
 2055SOL    HW2 7065   6.341   1.607   3.995
 2056SOL     OW 7066   0.744   0.167   2.207
 2056SOL    HW1 7067   0.677   0.103   2.169
 2056SOL    HW2 7068   0.833   0.151   2.165
 2057SOL     OW 7069   6.536   2.313   4.141
 2057SOL    HW1 7070   6.505   2.399   4.182
 2057SOL    HW2 7071   6.509   2.237   4.199
 2058SOL     OW 7072   0.684   1.145   1.655
 2058SOL    HW1 7073   0.596   1.170   1.614
 2058SOL    HW2 7074   0.754   1.139   1.584
 2059SOL     OW 7075   1.925   0.494   6.725
 2059SOL    HW1 7076   1.966   0.522   6.638
 2059SOL    HW2 7077   1.987   0.431   6.772
 2060SOL     OW 7078   0.434   5.294   2.057
 2060SOL    HW1 7079   0.345   5.281   2.014
 2060SOL    HW2 7080   0.491   5.353   2.000
 2061SOL     OW 7081   0.741   1.304   1.345
 2061SOL    HW1 7082   0.828   1.273   1.382
 2061SOL    HW2 7083   0.724   1.261   1.257
 2062SOL     OW 7084   4.159   0.669   3.653
 2062SOL    HW1 7085   4.187   0.574   3.664
 2062SOL    HW2 7086   4.238   0.726   3.632
 2063SOL     OW 7087   2.596   1.742   0.569
 2063SOL    HW1 7088   2.528   1.813   0.553
 2063SOL    HW2 7089   2.683   1.784   0.596
 2064SOL     OW 7090   0.746   1.868   0.043
 2064SOL    HW1 7091   0.813   1.803   0.008
 2064SOL    HW2 7092   0.659   1.857   7.016
 2065SOL     OW 7093   6.498   2.867   2.187
 2065SOL    HW1 7094   6.493   2.777   2.145
 2065SOL    HW2 7095   6.552   2.862   2.271
 2066SOL     OW 7096   1.751   7.019   2.900
 2066SOL    HW1 7097   1.783   0.073   2.843
 2066SOL    HW2 7098   1.651   0.000   2.907
 2067SOL     OW 7099   6.736   0.153   0.946
 2067SOL    HW1 7100   6.785   0.197   0.872
 2067SOL    HW2 7101   6.789   0.161   1.031
 2068SOL     OW 7102   1.988   1.392   5.071
 2068SOL    HW1 7103   1.891   1.386   5.047
 2068SOL    HW2 7104   2.042   1.346   5.001
 2069SOL     OW 7105   0.852   1.676   2.220
 2069SOL    HW1 7106   0.897   1.753   2.174
 2069SOL    HW2 7107   0.902   1.592   2.201
 2070SOL     OW 7108   1.190   1.010   3.073
 2070SOL    HW1 7109   1.213   1.057   2.988
 2070SOL    HW2 7110   1.257   0.940   3.093
 2071SOL     OW 7111   1.797   6.304   4.963
 2071SOL    HW1 7112   1.843   6.222   4.997
 2071SOL    HW2 7113   1.733   6.337   5.033
 2072SOL     OW 7114   4.666   4.734   2.071
 2072SOL    HW1 7115   4.647   4.735   1.973
 2072SOL    HW2 7116   4.646   4.644   2.109
 2073SOL     OW 7117   3.808   6.171   5.197
 2073SOL    HW1 7118   3.791   6.171   5.098
 2073SOL    HW2 7119   3.907   6.163   5.213
 2074SOL     OW 7120   6.353   2.125   2.185
 2074SOL    HW1 7121   6.383   2.166   2.271
 2074SOL    HW2 7122   6.415   2.052   2.159
 2075SOL     OW 7123   3.723   3.868   6.546
 2075SOL    HW1 7124   3.803   3.808   6.549
 2075SOL    HW2 7125   3.649   3.823   6.497
 2076SOL     OW 7126   4.492   0.309   1.016
 2076SOL    HW1 7127   4.509   0.365   1.097
 2076SOL    HW2 7128   4.400   0.270   1.021
 2077SOL     OW 7129   5.452   1.416   3.671
 2077SOL    HW1 7130   5.533   1.368   3.705
 2077SOL    HW2 7131   5.426   1.487   3.737
 2078SOL     OW 7132   4.412   5.639   4.909
 2078SOL    HW1 7133   4.401   5.736   4.932
 2078SOL    HW2 7134   4.414   5.585   4.993
 2079SOL     OW 7135   5.936   0.685   3.526
 2079SOL    HW1 7136   5.991   0.618   3.575
 2079SOL    HW2 7137   5.918   0.764   3.585
 2080SOL     OW 7138   2.809   2.325   4.199
 2080SOL    HW1 7139   2.845   2.376   4.121
 2080SOL    HW2 7140   2.789   2.231   4.171
 2081SOL     OW 7141   0.778   5.864   4.311
 2081SOL    HW1 7142   0.738   5.824   4.228
 2081SOL    HW2 7143   0.873   5.835   4.319
 2082SOL     OW 7144   4.959   0.678   2.142
 2082SOL    HW1 7145   4.930   0.769   2.111
 2082SOL    HW2 7146   4.887   0.612   2.121
 2083SOL     OW 7147   3.385   4.845   5.778
 2083SOL    HW1 7148   3.364   4.898   5.860
 2083SOL    HW2 7149   3.483   4.823   5.777
 2084SOL     OW 7150   0.153   2.755   2.489
 2084SOL    HW1 7151   0.169   2.852   2.474
 2084SOL    HW2 7152   0.198   2.727   2.574
 2085SOL     OW 7153   5.257   6.280   6.497
 2085SOL    HW1 7154   5.247   6.193   6.546
 2085SOL    HW2 7155   5.190   6.284   6.423
 2086SOL     OW 7156   3.607   5.036   0.568
 2086SOL    HW1 7157   3.527   5.046   0.509
 2086SOL    HW2 7158   3.625   5.123   0.615
 2087SOL     OW 7159   6.413   5.718   3.640
 2087SOL    HW1 7160   6.447   5.667   3.719
 2087SOL    HW2 7161   6.348   5.787   3.671
 2088SOL     OW 7162   2.165   0.480   1.115
 2088SOL    HW1 7163   2.246   0.447   1.068
 2088SOL    HW2 7164   2.086   0.423   1.090
 2089SOL     OW 7165   2.847   1.170   6.401
 2089SOL    HW1 7166   2.898   1.212   6.325
 2089SOL    HW2 7167   2.900   1.178   6.485
 2090SOL     OW 7168   3.508   2.904   3.572
 2090SOL    HW1 7169   3.520   2.865   3.663
 2090SOL    HW2 7170   3.410   2.915   3.553
 2091SOL     OW 7171   2.118   5.614   0.665
 2091SOL    HW1 7172   2.069   5.651   0.744
 2091SOL    HW2 7173   2.187   5.549   0.695
 2092SOL     OW 7174   0.278   6.505   1.516
 2092SOL    HW1 7175   0.349   6.514   1.585
 2092SOL    HW2 7176   0.192   6.543   1.552
 2093SOL     OW 7177   0.601   2.761   1.492
 2093SOL    HW1 7178   0.652   2.684   1.531
 2093SOL    HW2 7179   0.619   2.844   1.546
 2094SOL     OW 7180   6.205   0.314   1.684
 2094SOL    HW1 7181   6.130   0.248   1.694
 2094SOL    HW2 7182   6.169   0.407   1.686
 2095SOL     OW 7183   6.818   4.667   4.995
 2095SOL    HW1 7184   6.857   4.730   4.927
 2095SOL    HW2 7185   6.846   4.696   5.086
 2096SOL     OW 7186   4.878   3.673   3.521
 2096SOL    HW1 7187   4.799   3.660   3.461
 2096SOL    HW2 7188   4.898   3.588   3.570
 2097SOL     OW 7189   6.627   3.399   0.100
 2097SOL    HW1 7190   6.634   3.481   0.044
 2097SOL    HW2 7191   6.544   3.402   0.155
 2098SOL     OW 7192   4.788   0.490   4.123
 2098SOL    HW1 7193   4.696   0.465   4.152
 2098SOL    HW2 7194   4.847   0.501   4.203
 2099SOL     OW 7195   3.020   1.870   3.310
 2099SOL    HW1 7196   3.012   1.964   3.345
 2099SOL    HW2 7197   3.072   1.815   3.375
 2100SOL     OW 7198   3.785   4.428   6.652
 2100SOL    HW1 7199   3.816   4.442   6.746
 2100SOL    HW2 7200   3.774   4.330   6.636
 2101SOL     OW 7201   6.844   0.689   2.750
 2101SOL    HW1 7202   6.794   0.754   2.808
 2101SOL    HW2 7203   6.940   0.715   2.746
 2102SOL     OW 7204   0.427   4.868   1.694
 2102SOL    HW1 7205   0.363   4.891   1.621
 2102SOL    HW2 7206   0.493   4.801   1.660
 2103SOL     OW 7207   2.463   3.937   6.027
 2103SOL    HW1 7208   2.555   3.932   6.067
 2103SOL    HW2 7209   2.455   3.871   5.953
 2104SOL     OW 7210   1.481   3.731   5.264
 2104SOL    HW1 7211   1.477   3.697   5.358
 2104SOL    HW2 7212   1.543   3.673   5.211
 2105SOL     OW 7213   6.253   5.774   1.472
 2105SOL    HW1 7214   6.252   5.734   1.564
 2105SOL    HW2 7215   6.311   5.855   1.471
 2106SOL     OW 7216   5.432   5.547   6.556
 2106SOL    HW1 7217   5.501   5.570   6.625
 2106SOL    HW2 7218   5.366   5.484   6.596
 2107SOL     OW 7219   2.850   4.421   7.016
 2107SOL    HW1 7220   2.917   4.437   0.067
 2107SOL    HW2 7221   2.788   4.499   7.011
 2108SOL     OW 7222   5.333   5.001   5.792
 2108SOL    HW1 7223   5.358   4.921   5.737
 2108SOL    HW2 7224   5.334   4.977   5.889
 2109SOL     OW 7225   5.987   6.483   2.603
 2109SOL    HW1 7226   5.964   6.571   2.562
 2109SOL    HW2 7227   6.078   6.488   2.645
 2110SOL     OW 7228   2.191   4.935   5.098
 2110SOL    HW1 7229   2.131   4.944   5.018
 2110SOL    HW2 7230   2.163   5.000   5.168
 2111SOL     OW 7231   1.941   2.596   6.996
 2111SOL    HW1 7232   1.931   2.644   0.061
 2111SOL    HW2 7233   1.960   2.499   7.013
 2112SOL     OW 7234   4.984   3.215   0.525
 2112SOL    HW1 7235   4.961   3.168   0.440
 2112SOL    HW2 7236   5.057   3.165   0.572
 2113SOL     OW 7237   6.481   1.580   2.925
 2113SOL    HW1 7238   6.490   1.668   2.878
 2113SOL    HW2 7239   6.384   1.560   2.940
 2114SOL     OW 7240   1.567   3.577   0.402
 2114SOL    HW1 7241   1.639   3.574   0.472
 2114SOL    HW2 7242   1.520   3.489   0.399
 2115SOL     OW 7243   3.300   5.146   2.351
 2115SOL    HW1 7244   3.209   5.141   2.310
 2115SOL    HW2 7245   3.338   5.237   2.337
 2116SOL     OW 7246   0.309   3.991   2.986
 2116SOL    HW1 7247   0.354   3.908   2.955
 2116SOL    HW2 7248   0.321   4.063   2.917
 2117SOL     OW 7249   0.165   5.420   6.902
 2117SOL    HW1 7250   0.239   5.362   6.936
 2117SOL    HW2 7251   0.136   5.483   6.974
 2118SOL     OW 7252   6.216   3.711   2.236
 2118SOL    HW1 7253   6.271   3.740   2.314
 2118SOL    HW2 7254   6.120   3.704   2.263
 2119SOL     OW 7255   3.482   5.982   0.761
 2119SOL    HW1 7256   3.508   5.897   0.806
 2119SOL    HW2 7257   3.467   6.053   0.830
 2120SOL     OW 7258   6.979   5.030   2.458
 2120SOL    HW1 7259   0.053   5.056   2.475
 2120SOL    HW2 7260   6.920   5.075   2.524
 2121SOL     OW 7261   0.789   3.927   4.719
 2121SOL    HW1 7262   0.770   3.838   4.678
 2121SOL    HW2 7263   0.703   3.976   4.734
 2122SOL     OW 7264   4.602   4.573   5.614
 2122SOL    HW1 7265   4.556   4.552   5.528
 2122SOL    HW2 7266   4.700   4.584   5.598
 2123SOL     OW 7267   4.641   4.567   3.485
 2123SOL    HW1 7268   4.578   4.532   3.416
 2123SOL    HW2 7269   4.606   4.543   3.576
 2124SOL     OW 7270   3.329   1.283   1.859
 2124SOL    HW1 7271   3.328   1.365   1.803
 2124SOL    HW2 7272   3.414   1.279   1.912
 2125SOL     OW 7273   3.386   6.950   0.621
 2125SOL    HW1 7274   3.373   0.010   0.677
 2125SOL    HW2 7275   3.458   6.893   0.661
 2126SOL     OW 7276   2.739   0.504   1.853
 2126SOL    HW1 7277   2.702   0.595   1.873
 2126SOL    HW2 7278   2.708   0.440   1.923
 2127SOL     OW 7279   5.543   3.001   4.962
 2127SOL    HW1 7280   5.618   3.058   4.995
 2127SOL    HW2 7281   5.508   2.944   5.037
 2128SOL     OW 7282   0.720   4.349   4.176
 2128SOL    HW1 7283   0.787   4.363   4.103
 2128SOL    HW2 7284   0.713   4.431   4.232
 2129SOL     OW 7285   3.910   2.112   5.374
 2129SOL    HW1 7286   3.854   2.154   5.446
 2129SOL    HW2 7287   3.998   2.159   5.368
 2130SOL     OW 7288   4.660   0.401   3.184
 2130SOL    HW1 7289   4.644   0.400   3.086
 2130SOL    HW2 7290   4.613   0.325   3.227
 2131SOL     OW 7291   5.280   1.757   6.828
 2131SOL    HW1 7292   5.349   1.825   6.851
 2131SOL    HW2 7293   5.235   1.726   6.912
 2132SOL     OW 7294   2.534   3.627   0.901
 2132SOL    HW1 7295   2.486   3.592   0.981
 2132SOL    HW2 7296   2.559   3.550   0.841
 2133SOL     OW 7297   2.641   3.750   5.555
 2133SOL    HW1 7298   2.731   3.787   5.579
 2133SOL    HW2 7299   2.585   3.741   5.637
 2134SOL     OW 7300   0.364   0.072   0.933
 2134SOL    HW1 7301   0.303   0.035   0.863
 2134SOL    HW2 7302   0.413   0.151   0.896
 2135SOL     OW 7303   6.616   4.324   5.577
 2135SOL    HW1 7304   6.627   4.282   5.667
 2135SOL    HW2 7305   6.705   4.350   5.541
 2136SOL     OW 7306   0.559   4.845   0.867
 2136SOL    HW1 7307   0.520   4.886   0.950
 2136SOL    HW2 7308   0.563   4.915   0.795
 2137SOL     OW 7309   1.621   6.469   4.175
 2137SOL    HW1 7310   1.626   6.374   4.144
 2137SOL    HW2 7311   1.644   6.473   4.272
 2138SOL     OW 7312   5.042   1.731   1.622
 2138SOL    HW1 7313   5.135   1.734   1.658
 2138SOL    HW2 7314   4.981   1.690   1.690
 2139SOL     OW 7315   3.138   6.952   5.689
 2139SOL    HW1 7316   3.056   7.010   5.696
 2139SOL    HW2 7317   3.191   6.961   5.773
 2140SOL     OW 7318   2.542   1.535   4.270
 2140SOL    HW1 7319   2.550   1.491   4.181
 2140SOL    HW2 7320   2.633   1.553   4.307
 2141SOL     OW 7321   6.856   3.104   3.182
 2141SOL    HW1 7322   6.936   3.145   3.225
 2141SOL    HW2 7323   6.885   3.024   3.129
 2142SOL     OW 7324   1.409   2.360   2.538
 2142SOL    HW1 7325   1.484   2.349   2.472
 2142SOL    HW2 7326   1.377   2.270   2.567
 2143SOL     OW 7327   0.889   4.907   6.205
 2143SOL    HW1 7328   0.913   4.812   6.226
 2143SOL    HW2 7329   0.899   4.963   6.287
 2144SOL     OW 7330   6.672   4.704   3.360
 2144SOL    HW1 7331   6.603   4.637   3.387
 2144SOL    HW2 7332   6.752   4.656   3.323
 2145SOL     OW 7333   4.449   1.458   3.692
 2145SOL    HW1 7334   4.395   1.530   3.649
 2145SOL    HW2 7335   4.525   1.432   3.632
 2146SOL     OW 7336   2.177   3.068   0.213
 2146SOL    HW1 7337   2.165   3.120   0.297
 2146SOL    HW2 7338   2.123   3.110   0.140
 2147SOL     OW 7339   5.695   6.740   3.946
 2147SOL    HW1 7340   5.651   6.817   3.992
 2147SOL    HW2 7341   5.724   6.672   4.013
 2148SOL     OW 7342   0.574   3.247   5.970
 2148SOL    HW1 7343   0.515   3.327   5.977
 2148SOL    HW2 7344   0.645   3.264   5.901
 2149SOL     OW 7345   0.924   0.135   0.325
 2149SOL    HW1 7346   0.880   0.055   0.285
 2149SOL    HW2 7347   1.022   0.132   0.305
 2150SOL     OW 7348   1.842   2.992   1.315
 2150SOL    HW1 7349   1.770   2.949   1.261
 2150SOL    HW2 7350   1.870   2.930   1.389
 2151SOL     OW 7351   0.573   5.309   0.867
 2151SOL    HW1 7352   0.538   5.275   0.954
 2151SOL    HW2 7353   0.498   5.311   0.800
 2152SOL     OW 7354   5.533   5.913   3.866
 2152SOL    HW1 7355   5.476   5.831   3.862
 2152SOL    HW2 7356   5.600   5.904   3.939
 2153SOL     OW 7357   5.363   0.358   4.085
 2153SOL    HW1 7358   5.411   0.398   4.164
 2153SOL    HW2 7359   5.324   0.432   4.030
 2154SOL     OW 7360   2.915   0.593   2.793
 2154SOL    HW1 7361   2.900   0.630   2.701
 2154SOL    HW2 7362   3.007   0.555   2.798
 2155SOL     OW 7363   3.860   0.872   0.927
 2155SOL    HW1 7364   3.913   0.789   0.911
 2155SOL    HW2 7365   3.834   0.913   0.840
 2156SOL     OW 7366   5.011   2.033   4.936
 2156SOL    HW1 7367   5.099   2.044   4.891
 2156SOL    HW2 7368   5.023   1.986   5.023
 2157SOL     OW 7369   3.580   6.419   4.205
 2157SOL    HW1 7370   3.542   6.421   4.298
 2157SOL    HW2 7371   3.534   6.349   4.152
 2158SOL     OW 7372   2.837   0.309   0.453
 2158SOL    HW1 7373   2.836   0.376   0.379
 2158SOL    HW2 7374   2.744   0.301   0.491
 2159SOL     OW 7375   0.908   0.715   5.629
 2159SOL    HW1 7376   0.919   0.814   5.639
 2159SOL    HW2 7377   0.828   0.696   5.571
 2160SOL     OW 7378   5.755   7.015   6.922
 2160SOL    HW1 7379   5.748   6.963   7.007
 2160SOL    HW2 7380   5.844   0.038   6.917
 2161SOL     OW 7381   1.458   2.784   1.195
 2161SOL    HW1 7382   1.403   2.778   1.111
 2161SOL    HW2 7383   1.555   2.788   1.170
 2162SOL     OW 7384   1.587   6.882   1.628
 2162SOL    HW1 7385   1.491   6.910   1.624
 2162SOL    HW2 7386   1.645   6.964   1.631
 2163SOL     OW 7387   1.988   2.919   2.915
 2163SOL    HW1 7388   2.074   2.948   2.871
 2163SOL    HW2 7389   1.997   2.928   3.014
 2164SOL     OW 7390   2.082   3.378   2.394
 2164SOL    HW1 7391   2.168   3.345   2.354
 2164SOL    HW2 7392   2.081   3.357   2.492
 2165SOL     OW 7393   6.496   1.425   4.716
 2165SOL    HW1 7394   6.544   1.392   4.635
 2165SOL    HW2 7395   6.533   1.513   4.744
 2166SOL     OW 7396   6.932   3.606   2.397
 2166SOL    HW1 7397   7.007   3.597   2.463
 2166SOL    HW2 7398   6.967   3.642   2.311
 2167SOL     OW 7399   2.320   1.323   2.872
 2167SOL    HW1 7400   2.308   1.382   2.793
 2167SOL    HW2 7401   2.317   1.227   2.842
 2168SOL     OW 7402   1.841   1.783   3.198
 2168SOL    HW1 7403   1.893   1.699   3.218
 2168SOL    HW2 7404   1.744   1.761   3.193
 2169SOL     OW 7405   6.814   0.113   1.487
 2169SOL    HW1 7406   6.811   0.201   1.534
 2169SOL    HW2 7407   6.883   0.055   1.530
 2170SOL     OW 7408   1.244   3.996   6.105
 2170SOL    HW1 7409   1.207   4.072   6.052
 2170SOL    HW2 7410   1.175   3.924   6.112
 2171SOL     OW 7411   6.815   6.026   0.924
 2171SOL    HW1 7412   6.883   5.952   0.918
 2171SOL    HW2 7413   6.807   6.070   0.835
 2172SOL     OW 7414   2.223   1.600   5.216
 2172SOL    HW1 7415   2.211   1.505   5.244
 2172SOL    HW2 7416   2.210   1.608   5.117
 2173SOL     OW 7417   5.247   1.003   5.431
 2173SOL    HW1 7418   5.332   0.954   5.413
 2173SOL    HW2 7419   5.247   1.089   5.380
 2174SOL     OW 7420   5.807   0.454   6.266
 2174SOL    HW1 7421   5.819   0.365   6.309
 2174SOL    HW2 7422   5.738   0.507   6.317
 2175SOL     OW 7423   2.648   3.969   5.307
 2175SOL    HW1 7424   2.640   3.914   5.390
 2175SOL    HW2 7425   2.561   3.968   5.258
 2176SOL     OW 7426   5.224   2.371   2.465
 2176SOL    HW1 7427   5.296   2.380   2.534
 2176SOL    HW2 7428   5.145   2.323   2.505
 2177SOL     OW 7429   0.925   0.825   4.865
 2177SOL    HW1 7430   0.931   0.862   4.773
 2177SOL    HW2 7431   1.017   0.810   4.902
 2178SOL     OW 7432   1.494   1.863   2.570
 2178SOL    HW1 7433   1.458   1.786   2.624
 2178SOL    HW2 7434   1.593   1.855   2.563
 2179SOL     OW 7435   2.059   4.062   6.519
 2179SOL    HW1 7436   2.066   4.047   6.420
 2179SOL    HW2 7437   2.019   4.151   6.537
 2180SOL     OW 7438   0.710   5.934   2.599
 2180SOL    HW1 7439   0.689   6.005   2.667
 2180SOL    HW2 7440   0.809   5.924   2.591
 2181SOL     OW 7441   4.041   4.912   4.784
 2181SOL    HW1 7442   4.125   4.893   4.836
 2181SOL    HW2 7443   3.966   4.933   4.847
 2182SOL     OW 7444   0.212   6.213   2.083
 2182SOL    HW1 7445   0.299   6.171   2.109
 2182SOL    HW2 7446   0.193   6.290   2.145
 2183SOL     OW 7447   2.959   3.232   6.419
 2183SOL    HW1 7448   2.914   3.144   6.404
 2183SOL    HW2 7449   3.052   3.216   6.453
 2184SOL     OW 7450   6.355   1.489   0.411
 2184SOL    HW1 7451   6.422   1.440   0.465
 2184SOL    HW2 7452   6.378   1.587   0.409
 2185SOL     OW 7453   1.027   0.397   6.459
 2185SOL    HW1 7454   0.979   0.400   6.546
 2185SOL    HW2 7455   1.054   0.489   6.431
 2186SOL     OW 7456   6.961   5.659   5.636
 2186SOL    HW1 7457   6.892   5.677   5.566
 2186SOL    HW2 7458   6.921   5.603   5.709
 2187SOL     OW 7459   6.683   5.686   1.696
 2187SOL    HW1 7460   6.635   5.749   1.757
 2187SOL    HW2 7461   6.649   5.593   1.711
 2188SOL     OW 7462   2.595   0.992   0.255
 2188SOL    HW1 7463   2.596   1.045   0.340
 2188SOL    HW2 7464   2.509   1.007   0.207
 2189SOL     OW 7465   2.172   1.399   1.787
 2189SOL    HW1 7466   2.118   1.465   1.735
 2189SOL    HW2 7467   2.115   1.320   1.810
 2190SOL     OW 7468   6.785   4.107   1.464
 2190SOL    HW1 7469   6.740   4.192   1.436
 2190SOL    HW2 7470   6.743   4.030   1.417
 2191SOL     OW 7471   3.166   0.564   6.556
 2191SOL    HW1 7472   3.086   0.506   6.570
 2191SOL    HW2 7473   3.246   0.522   6.599
 2192SOL     OW 7474   5.060   1.910   2.018
 2192SOL    HW1 7475   5.024   1.935   2.108
 2192SOL    HW2 7476   5.156   1.936   2.013
 2193SOL     OW 7477   1.833   6.671   5.476
 2193SOL    HW1 7478   1.859   6.759   5.515
 2193SOL    HW2 7479   1.907   6.638   5.417
 2194SOL     OW 7480   0.724   4.080   6.299
 2194SOL    HW1 7481   0.639   4.125   6.271
 2194SOL    HW2 7482   0.802   4.124   6.254
 2195SOL     OW 7483   0.619   3.592   4.774
 2195SOL    HW1 7484   0.665   3.649   4.706
 2195SOL    HW2 7485   0.599   3.503   4.735
 2196SOL     OW 7486   3.515   0.675   6.767
 2196SOL    HW1 7487   3.539   0.729   6.848
 2196SOL    HW2 7488   3.573   0.702   6.691
 2197SOL     OW 7489   3.608   5.471   5.927
 2197SOL    HW1 7490   3.566   5.488   6.016
 2197SOL    HW2 7491   3.583   5.379   5.896
 2198SOL     OW 7492   1.233   0.535   0.233
 2198SOL    HW1 7493   1.196   0.490   0.314
 2198SOL    HW2 7494   1.176   0.614   0.211
 2199SOL     OW 7495   4.131   6.739   4.247
 2199SOL    HW1 7496   4.164   6.827   4.281
 2199SOL    HW2 7497   4.205   6.672   4.248
 2200SOL     OW 7498   2.661   2.013   3.888
 2200SOL    HW1 7499   2.572   2.057   3.876
 2200SOL    HW2 7500   2.700   1.991   3.799
 2201SOL     OW 7501   5.761   3.802   4.596
 2201SOL    HW1 7502   5.833   3.848   4.544
 2201SOL    HW2 7503   5.757   3.706   4.569
 2202SOL     OW 7504   3.711   0.064   2.649
 2202SOL    HW1 7505   3.611   0.063   2.651
 2202SOL    HW2 7506   3.743   0.022   2.564
 2203SOL     OW 7507   1.944   5.092   0.931
 2203SOL    HW1 7508   1.936   4.998   0.965
 2203SOL    HW2 7509   1.966   5.153   1.007
 2204SOL     OW 7510   5.872   2.701   0.758
 2204SOL    HW1 7511   5.886   2.747   0.671
 2204SOL    HW2 7512   5.882   2.603   0.746
 2205SOL     OW 7513   6.872   5.468   0.922
 2205SOL    HW1 7514   6.910   5.483   1.014
 2205SOL    HW2 7515   6.831   5.377   0.918
 2206SOL     OW 7516   4.048   2.363   5.870
 2206SOL    HW1 7517   3.957   2.388   5.839
 2206SOL    HW2 7518   4.060   2.264   5.863
 2207SOL     OW 7519   4.849   6.001   1.177
 2207SOL    HW1 7520   4.925   5.937   1.175
 2207SOL    HW2 7521   4.765   5.954   1.149
 2208SOL     OW 7522   6.959   6.635   3.462
 2208SOL    HW1 7523   0.034   6.611   3.469
 2208SOL    HW2 7524   6.909   6.593   3.537
 2209SOL     OW 7525   2.985   5.961   3.951
 2209SOL    HW1 7526   2.947   6.040   3.902
 2209SOL    HW2 7527   2.939   5.878   3.921
 2210SOL     OW 7528   4.582   0.204   1.514
 2210SOL    HW1 7529   4.572   0.153   1.429
 2210SOL    HW2 7530   4.492   0.233   1.546
 2211SOL     OW 7531   1.304   1.738   1.212
 2211SOL    HW1 7532   1.253   1.685   1.279
 2211SOL    HW2 7533   1.244   1.809   1.173
 2212SOL     OW 7534   2.822   5.654   6.738
 2212SOL    HW1 7535   2.786   5.564   6.718
 2212SOL    HW2 7536   2.882   5.683   6.663
 2213SOL     OW 7537   3.649   1.914   4.838
 2213SOL    HW1 7538   3.562   1.959   4.819
 2213SOL    HW2 7539   3.715   1.983   4.869
 2214SOL     OW 7540   4.266   4.159   6.472
 2214SOL    HW1 7541   4.242   4.113   6.386
 2214SOL    HW2 7542   4.246   4.098   6.549
 2215SOL     OW 7543   3.630   0.018   0.053
 2215SOL    HW1 7544   3.584   0.076   0.120
 2215SOL    HW2 7545   3.647   0.070   6.991
 2216SOL     OW 7546   0.625   6.502   6.338
 2216SOL    HW1 7547   0.535   6.467   6.363
 2216SOL    HW2 7548   0.666   6.545   6.418
 2217SOL     OW 7549   4.533   1.537   3.954
 2217SOL    HW1 7550   4.456   1.514   4.014
 2217SOL    HW2 7551   4.512   1.508   3.861
 2218SOL     OW 7552   0.173   5.632   5.188
 2218SOL    HW1 7553   0.167   5.612   5.286
 2218SOL    HW2 7554   0.088   5.675   5.157
 2219SOL     OW 7555   5.279   1.289   1.154
 2219SOL    HW1 7556   5.335   1.229   1.098
 2219SOL    HW2 7557   5.192   1.244   1.175
 2220SOL     OW 7558   0.126   5.848   4.404
 2220SOL    HW1 7559   0.033   5.813   4.395
 2220SOL    HW2 7560   0.124   5.929   4.464
 2221SOL     OW 7561   6.321   1.182   4.352
 2221SOL    HW1 7562   6.302   1.084   4.352
 2221SOL    HW2 7563   6.417   1.197   4.377
 2222SOL     OW 7564   4.688   0.261   2.614
 2222SOL    HW1 7565   4.665   0.351   2.575
 2222SOL    HW2 7566   4.784   0.259   2.639
 2223SOL     OW 7567   0.929   6.426   5.217
 2223SOL    HW1 7568   1.000   6.436   5.287
 2223SOL    HW2 7569   0.968   6.446   5.127
 2224SOL     OW 7570   5.587   3.676   0.370
 2224SOL    HW1 7571   5.676   3.682   0.414
 2224SOL    HW2 7572   5.583   3.739   0.293
 2225SOL     OW 7573   6.903   6.327   2.188
 2225SOL    HW1 7574   6.991   6.328   2.236
 2225SOL    HW2 7575   6.916   6.360   2.094
 2226SOL     OW 7576   2.423   4.788   6.955
 2226SOL    HW1 7577   2.352   4.717   6.949
 2226SOL    HW2 7578   2.411   4.854   6.881
 2227SOL     OW 7579   4.101   1.826   1.776
 2227SOL    HW1 7580   4.123   1.841   1.680
 2227SOL    HW2 7581   4.029   1.889   1.804
 2228SOL     OW 7582   5.340   5.143   6.917
 2228SOL    HW1 7583   5.401   5.132   6.839
 2228SOL    HW2 7584   5.336   5.240   6.942
 2229SOL     OW 7585   3.413   3.176   3.861
 2229SOL    HW1 7586   3.390   3.211   3.771
 2229SOL    HW2 7587   3.463   3.089   3.852
 2230SOL     OW 7588   5.951   0.292   6.952
 2230SOL    HW1 7589   6.024   0.347   6.992
 2230SOL    HW2 7590   5.986   0.200   6.934
 2231SOL     OW 7591   0.991   6.917   6.178
 2231SOL    HW1 7592   0.908   6.960   6.143
 2231SOL    HW2 7593   1.009   6.949   6.271
 2232SOL     OW 7594   1.620   0.804   5.374
 2232SOL    HW1 7595   1.662   0.759   5.295
 2232SOL    HW2 7596   1.522   0.784   5.375
 2233SOL     OW 7597   2.744   4.560   0.605
 2233SOL    HW1 7598   2.783   4.640   0.650
 2233SOL    HW2 7599   2.802   4.533   0.527
 2234SOL     OW 7600   4.946   2.077   1.827
 2234SOL    HW1 7601   4.967   2.047   1.920
 2234SOL    HW2 7602   4.848   2.072   1.812
 2235SOL     OW 7603   0.879   1.774   3.142
 2235SOL    HW1 7604   0.951   1.734   3.199
 2235SOL    HW2 7605   0.819   1.702   3.108
 2236SOL     OW 7606   2.729   5.021   5.390
 2236SOL    HW1 7607   2.805   5.061   5.340
 2236SOL    HW2 7608   2.713   4.928   5.357
 2237SOL     OW 7609   6.587   5.841   5.711
 2237SOL    HW1 7610   6.672   5.793   5.692
 2237SOL    HW2 7611   6.607   5.937   5.734
 2238SOL     OW 7612   5.898   3.277   1.722
 2238SOL    HW1 7613   5.969   3.213   1.752
 2238SOL    HW2 7614   5.912   3.365   1.767
 2239SOL     OW 7615   4.884   6.638   3.058
 2239SOL    HW1 7616   4.864   6.682   2.971
 2239SOL    HW2 7617   4.818   6.564   3.074
 2240SOL     OW 7618   4.833   5.243   2.154
 2240SOL    HW1 7619   4.798   5.336   2.163
 2240SOL    HW2 7620   4.776   5.181   2.208
 2241SOL     OW 7621   0.624   1.499   2.523
 2241SOL    HW1 7622   0.649   1.594   2.544
 2241SOL    HW2 7623   0.543   1.498   2.465
 2242SOL     OW 7624   5.132   2.307   3.620
 2242SOL    HW1 7625   5.196   2.368   3.667
 2242SOL    HW2 7626   5.180   2.224   3.591
 2243SOL     OW 7627   2.182   6.911   0.797
 2243SOL    HW1 7628   2.203   6.897   0.894
 2243SOL    HW2 7629   2.149   7.004   0.782
 2244SOL     OW 7630   2.268   1.538   0.563
 2244SOL    HW1 7631   2.364   1.534   0.588
 2244SOL    HW2 7632   2.231   1.446   0.557
 2245SOL     OW 7633   0.205   0.592   0.133
 2245SOL    HW1 7634   0.129   0.557   0.186
 2245SOL    HW2 7635   0.260   0.516   0.097
 2246SOL     OW 7636   3.519   2.001   5.285
 2246SOL    HW1 7637   3.526   1.933   5.358
 2246SOL    HW2 7638   3.431   2.049   5.293
 2247SOL     OW 7639   3.525   2.840   2.978
 2247SOL    HW1 7640   3.540   2.848   2.879
 2247SOL    HW2 7641   3.427   2.834   2.997
 2248SOL     OW 7642   4.746   3.969   5.307
 2248SOL    HW1 7643   4.798   4.049   5.277
 2248SOL    HW2 7644   4.762   3.893   5.244
 2249SOL     OW 7645   1.675   6.648   3.082
 2249SOL    HW1 7646   1.605   6.718   3.090
 2249SOL    HW2 7647   1.766   6.691   3.081
 2250SOL     OW 7648   4.570   5.785   6.439
 2250SOL    HW1 7649   4.608   5.728   6.512
 2250SOL    HW2 7650   4.550   5.876   6.475
 2251SOL     OW 7651   5.082   6.179   5.099
 2251SOL    HW1 7652   5.006   6.240   5.124
 2251SOL    HW2 7653   5.052   6.115   5.028
 2252SOL     OW 7654   4.219   1.692   2.379
 2252SOL    HW1 7655   4.125   1.714   2.355
 2252SOL    HW2 7656   4.222   1.650   2.469
 2253SOL     OW 7657   0.638   3.269   0.883
 2253SOL    HW1 7658   0.685   3.271   0.971
 2253SOL    HW2 7659   0.677   3.339   0.823
 2254SOL     OW 7660   3.807   3.998   2.827
 2254SOL    HW1 7661   3.820   3.899   2.822
 2254SOL    HW2 7662   3.849   4.033   2.910
 2255SOL     OW 7663   2.336   3.409   6.002
 2255SOL    HW1 7664   2.245   3.423   6.041
 2255SOL    HW2 7665   2.333   3.426   5.904
 2256SOL     OW 7666   5.376   6.933   1.279
 2256SOL    HW1 7667   5.381   7.018   1.226
 2256SOL    HW2 7668   5.284   6.895   1.272
 2257SOL     OW 7669   6.967   0.801   5.218
 2257SOL    HW1 7670   0.034   0.832   5.255
 2257SOL    HW2 7671   6.895   0.817   5.285
 2258SOL     OW 7672   2.808   5.728   3.932
 2258SOL    HW1 7673   2.800   5.712   4.031
 2258SOL    HW2 7674   2.721   5.705   3.888
 2259SOL     OW 7675   6.104   2.269   4.963
 2259SOL    HW1 7676   6.190   2.237   5.001
 2259SOL    HW2 7677   6.046   2.304   5.037
 2260SOL     OW 7678   0.594   3.995   1.274
 2260SOL    HW1 7679   0.550   4.066   1.220
 2260SOL    HW2 7680   0.661   4.036   1.336
 2261SOL     OW 7681   5.334   3.740   6.851
 2261SOL    HW1 7682   5.237   3.716   6.842
 2261SOL    HW2 7683   5.352   3.825   6.802
 2262SOL     OW 7684   6.152   0.083   4.360
 2262SOL    HW1 7685   6.193   0.047   4.277
 2262SOL    HW2 7686   6.054   0.093   4.347
 2263SOL     OW 7687   2.193   4.379   6.166
 2263SOL    HW1 7688   2.213   4.418   6.076
 2263SOL    HW2 7689   2.261   4.309   6.188
 2264SOL     OW 7690   3.335   6.946   5.896
 2264SOL    HW1 7691   3.389   7.000   5.961
 2264SOL    HW2 7692   3.384   6.862   5.873
 2265SOL     OW 7693   6.595   6.354   4.235
 2265SOL    HW1 7694   6.579   6.430   4.298
 2265SOL    HW2 7695   6.593   6.388   4.141
 2266SOL     OW 7696   4.357   3.053   6.678
 2266SOL    HW1 7697   4.264   3.083   6.697
 2266SOL    HW2 7698   4.360   2.953   6.680
 2267SOL     OW 7699   5.097   2.748   4.493
 2267SOL    HW1 7700   5.170   2.777   4.430
 2267SOL    HW2 7701   5.009   2.757   4.448
 2268SOL     OW 7702   1.230   5.725   4.505
 2268SOL    HW1 7703   1.271   5.637   4.482
 2268SOL    HW2 7704   1.249   5.747   4.601
 2269SOL     OW 7705   1.641   2.265   5.402
 2269SOL    HW1 7706   1.665   2.233   5.311
 2269SOL    HW2 7707   1.723   2.298   5.449
 2270SOL     OW 7708   4.658   1.469   6.186
 2270SOL    HW1 7709   4.755   1.444   6.188
 2270SOL    HW2 7710   4.647   1.561   6.223
 2271SOL     OW 7711   4.621   5.537   5.425
 2271SOL    HW1 7712   4.596   5.570   5.516
 2271SOL    HW2 7713   4.599   5.440   5.418
 2272SOL     OW 7714   5.444   1.498   5.971
 2272SOL    HW1 7715   5.435   1.577   5.910
 2272SOL    HW2 7716   5.454   1.415   5.916
 2273SOL     OW 7717   0.880   2.579   3.104
 2273SOL    HW1 7718   0.976   2.586   3.078
 2273SOL    HW2 7719   0.832   2.518   3.042
 2274SOL     OW 7720   0.544   1.573   6.813
 2274SOL    HW1 7721   0.474   1.512   6.777
 2274SOL    HW2 7722   0.531   1.584   6.911
 2275SOL     OW 7723   5.856   4.312   2.838
 2275SOL    HW1 7724   5.914   4.234   2.814
 2275SOL    HW2 7725   5.790   4.328   2.765
 2276SOL     OW 7726   2.046   2.237   0.991
 2276SOL    HW1 7727   2.016   2.171   0.922
 2276SOL    HW2 7728   2.144   2.255   0.979
 2277SOL     OW 7729   3.874   3.450   3.720
 2277SOL    HW1 7730   3.845   3.534   3.673
 2277SOL    HW2 7731   3.972   3.455   3.737
 2278SOL     OW 7732   0.609   2.696   3.687
 2278SOL    HW1 7733   0.553   2.615   3.706
 2278SOL    HW2 7734   0.699   2.684   3.729
 2279SOL     OW 7735   0.627   5.697   5.535
 2279SOL    HW1 7736   0.530   5.720   5.532
 2279SOL    HW2 7737   0.656   5.663   5.446
 2280SOL     OW 7738   4.575   2.038   5.805
 2280SOL    HW1 7739   4.479   2.021   5.785
 2280SOL    HW2 7740   4.613   2.101   5.737
 2281SOL     OW 7741   5.806   6.851   2.568
 2281SOL    HW1 7742   5.864   6.800   2.632
 2281SOL    HW2 7743   5.848   6.939   2.547
 2282SOL     OW 7744   4.027   6.854   5.520
 2282SOL    HW1 7745   3.971   6.810   5.591
 2282SOL    HW2 7746   4.123   6.837   5.539
 2283SOL     OW 7747   0.147   0.426   4.027
 2283SOL    HW1 7748   0.207   0.500   4.058
 2283SOL    HW2 7749   0.095   0.391   4.105
 2284SOL     OW 7750   0.988   2.850   0.201
 2284SOL    HW1 7751   1.025   2.910   0.272
 2284SOL    HW2 7752   0.974   2.759   0.239
 2285SOL     OW 7753   1.801   4.205   6.307
 2285SOL    HW1 7754   1.804   4.144   6.386
 2285SOL    HW2 7755   1.808   4.152   6.223
 2286SOL     OW 7756   4.765   5.108   3.206
 2286SOL    HW1 7757   4.760   5.025   3.262
 2286SOL    HW2 7758   4.703   5.098   3.128
 2287SOL     OW 7759   1.211   1.151   3.356
 2287SOL    HW1 7760   1.193   1.112   3.265
 2287SOL    HW2 7761   1.141   1.120   3.420
 2288SOL     OW 7762   0.096   5.676   2.893
 2288SOL    HW1 7763   0.106   5.678   2.794
 2288SOL    HW2 7764   0.012   5.627   2.917
 2289SOL     OW 7765   0.203   5.423   0.822
 2289SOL    HW1 7766   0.196   5.520   0.799
 2289SOL    HW2 7767   0.222   5.414   0.920
 2290SOL     OW 7768   0.649   5.801   0.276
 2290SOL    HW1 7769   0.713   5.815   0.200
 2290SOL    HW2 7770   0.676   5.719   0.327
 2291SOL     OW 7771   2.503   1.355   0.100
 2291SOL    HW1 7772   2.578   1.310   0.051
 2291SOL    HW2 7773   2.504   1.453   0.080
 2292SOL     OW 7774   1.714   1.367   5.047
 2292SOL    HW1 7775   1.669   1.441   4.997
 2292SOL    HW2 7776   1.648   1.324   5.108
 2293SOL     OW 7777   5.245   4.460   2.810
 2293SOL    HW1 7778   5.258   4.366   2.844
 2293SOL    HW2 7779   5.192   4.457   2.726
 2294SOL     OW 7780   3.203   5.889   6.721
 2294SOL    HW1 7781   3.191   5.989   6.720
 2294SOL    HW2 7782   3.157   5.851   6.801
 2295SOL     OW 7783   0.742   2.198   1.319
 2295SOL    HW1 7784   0.677   2.192   1.395
 2295SOL    HW2 7785   0.817   2.133   1.334
 2296SOL     OW 7786   3.072   6.586   0.714
 2296SOL    HW1 7787   3.130   6.663   0.689
 2296SOL    HW2 7788   2.997   6.618   0.771
 2297SOL     OW 7789   4.067   6.262   6.104
 2297SOL    HW1 7790   4.119   6.331   6.157
 2297SOL    HW2 7791   3.975   6.296   6.087
 2298SOL     OW 7792   4.087   3.067   6.429
 2298SOL    HW1 7793   4.151   3.000   6.466
 2298SOL    HW2 7794   4.137   3.151   6.407
 2299SOL     OW 7795   4.356   6.341   0.367
 2299SOL    HW1 7796   4.282   6.274   0.374
 2299SOL    HW2 7797   4.373   6.381   0.457
 2300SOL     OW 7798   1.514   4.461   1.709
 2300SOL    HW1 7799   1.471   4.552   1.708
 2300SOL    HW2 7800   1.605   4.468   1.751
 2301SOL     OW 7801   3.966   3.621   1.792
 2301SOL    HW1 7802   3.975   3.609   1.891
 2301SOL    HW2 7803   3.915   3.543   1.753
 2302SOL     OW 7804   2.673   6.037   3.420
 2302SOL    HW1 7805   2.607   5.972   3.456
 2302SOL    HW2 7806   2.675   6.031   3.320
 2303SOL     OW 7807   0.749   3.150   5.017
 2303SOL    HW1 7808   0.813   3.220   5.047
 2303SOL    HW2 7809   0.668   3.151   5.077
 2304SOL     OW 7810   2.497   0.721   4.011
 2304SOL    HW1 7811   2.581   0.673   4.035
 2304SOL    HW2 7812   2.515   0.819   4.009
 2305SOL     OW 7813   3.949   5.516   1.837
 2305SOL    HW1 7814   3.859   5.515   1.794
 2305SOL    HW2 7815   3.983   5.610   1.842
 2306SOL     OW 7816   0.827   3.797   0.640
 2306SOL    HW1 7817   0.904   3.734   0.626
 2306SOL    HW2 7818   0.863   3.890   0.651
 2307SOL     OW 7819   0.406   2.326   2.864
 2307SOL    HW1 7820   0.438   2.387   2.936
 2307SOL    HW2 7821   0.485   2.286   2.817
 2308SOL     OW 7822   0.154   0.161   0.201
 2308SOL    HW1 7823   0.213   0.178   0.280
 2308SOL    HW2 7824   0.098   0.242   0.183
 2309SOL     OW 7825   3.582   5.033   5.968
 2309SOL    HW1 7826   3.576   5.092   6.049
 2309SOL    HW2 7827   3.678   5.009   5.951
 2310SOL     OW 7828   5.373   1.596   2.633
 2310SOL    HW1 7829   5.290   1.648   2.651
 2310SOL    HW2 7830   5.366   1.505   2.675
 2311SOL     OW 7831   2.815   0.320   2.776
 2311SOL    HW1 7832   2.873   0.285   2.703
 2311SOL    HW2 7833   2.838   0.416   2.793
 2312SOL     OW 7834   2.458   0.748   2.646
 2312SOL    HW1 7835   2.514   0.826   2.618
 2312SOL    HW2 7836   2.505   0.698   2.719
 2313SOL     OW 7837   5.529   4.076   1.697
 2313SOL    HW1 7838   5.444   4.127   1.687
 2313SOL    HW2 7839   5.510   3.988   1.740
 2314SOL     OW 7840   6.085   0.054   2.752
 2314SOL    HW1 7841   6.005   0.100   2.791
 2314SOL    HW2 7842   6.059   0.008   2.667
 2315SOL     OW 7843   4.338   6.093   5.459
 2315SOL    HW1 7844   4.326   6.176   5.405
 2315SOL    HW2 7845   4.347   6.015   5.398
 2316SOL     OW 7846   2.928   2.006   6.206
 2316SOL    HW1 7847   2.971   2.018   6.116
 2316SOL    HW2 7848   2.997   2.018   6.277
 2317SOL     OW 7849   6.795   5.982   3.438
 2317SOL    HW1 7850   6.825   6.035   3.518
 2317SOL    HW2 7851   6.696   5.967   3.444
 2318SOL     OW 7852   1.609   5.090   5.317
 2318SOL    HW1 7853   1.534   5.114   5.255
 2318SOL    HW2 7854   1.611   5.156   5.392
 2319SOL     OW 7855   2.439   5.008   3.720
 2319SOL    HW1 7856   2.480   4.962   3.799
 2319SOL    HW2 7857   2.339   5.010   3.731
 2320SOL     OW 7858   1.324   2.272   5.098
 2320SOL    HW1 7859   1.362   2.364   5.110
 2320SOL    HW2 7860   1.400   2.207   5.088
 2321SOL     OW 7861   2.496   4.655   5.966
 2321SOL    HW1 7862   2.526   4.716   5.893
 2321SOL    HW2 7863   2.576   4.624   6.018
 2322SOL     OW 7864   0.773   3.941   1.776
 2322SOL    HW1 7865   0.679   3.973   1.769
 2322SOL    HW2 7866   0.785   3.859   1.720
 2323SOL     OW 7867   2.519   4.907   1.660
 2323SOL    HW1 7868   2.468   4.875   1.741
 2323SOL    HW2 7869   2.616   4.914   1.683
 2324SOL     OW 7870   0.130   5.291   2.369
 2324SOL    HW1 7871   0.051   5.346   2.343
 2324SOL    HW2 7872   0.149   5.224   2.298
 2325SOL     OW 7873   0.169   5.276   1.900
 2325SOL    HW1 7874   0.166   5.209   1.826
 2325SOL    HW2 7875   0.169   5.369   1.861
 2326SOL     OW 7876   1.286   0.533   6.639
 2326SOL    HW1 7877   1.307   0.509   6.544
 2326SOL    HW2 7878   1.336   0.616   6.664
 2327SOL     OW 7879   6.848   0.411   2.793
 2327SOL    HW1 7880   6.844   0.510   2.801
 2327SOL    HW2 7881   6.928   0.385   2.738
 2328SOL     OW 7882   2.488   2.598   2.772
 2328SOL    HW1 7883   2.528   2.576   2.861
 2328SOL    HW2 7884   2.439   2.685   2.777
 2329SOL     OW 7885   0.753   5.267   3.290
 2329SOL    HW1 7886   0.675   5.204   3.288
 2329SOL    HW2 7887   0.785   5.283   3.196
 2330SOL     OW 7888   6.635   2.604   0.347
 2330SOL    HW1 7889   6.549   2.646   0.316
 2330SOL    HW2 7890   6.706   2.674   0.354
 2331SOL     OW 7891   3.940   6.219   0.438
 2331SOL    HW1 7892   3.927   6.224   0.538
 2331SOL    HW2 7893   3.975   6.307   0.405
 2332SOL     OW 7894   5.293   6.827   6.217
 2332SOL    HW1 7895   5.374   6.873   6.255
 2332SOL    HW2 7896   5.211   6.876   6.246
 2333SOL     OW 7897   0.048   4.628   2.804
 2333SOL    HW1 7898   7.008   4.549   2.802
 2333SOL    HW2 7899   7.015   4.712   2.804
 2334SOL     OW 7900   3.140   1.375   5.853
 2334SOL    HW1 7901   3.125   1.352   5.757
 2334SOL    HW2 7902   3.230   1.343   5.882
 2335SOL     OW 7903   6.436   1.265   3.227
 2335SOL    HW1 7904   6.425   1.235   3.321
 2335SOL    HW2 7905   6.474   1.358   3.225
 2336SOL     OW 7906   2.018   1.886   2.768
 2336SOL    HW1 7907   2.027   1.810   2.704
 2336SOL    HW2 7908   1.942   1.945   2.740
 2337SOL     OW 7909   4.451   1.792   1.494
 2337SOL    HW1 7910   4.386   1.868   1.497
 2337SOL    HW2 7911   4.544   1.829   1.501
 2338SOL     OW 7912   6.859   4.218   4.395
 2338SOL    HW1 7913   6.803   4.186   4.472
 2338SOL    HW2 7914   6.806   4.285   4.342
 2339SOL     OW 7915   4.168   3.453   2.807
 2339SOL    HW1 7916   4.208   3.421   2.721
 2339SOL    HW2 7917   4.095   3.390   2.835
 2340SOL     OW 7918   1.647   5.676   6.157
 2340SOL    HW1 7919   1.693   5.720   6.234
 2340SOL    HW2 7920   1.689   5.706   6.072
 2341SOL     OW 7921   2.439   4.455   3.663
 2341SOL    HW1 7922   2.387   4.370   3.664
 2341SOL    HW2 7923   2.485   4.467   3.751
 2342SOL     OW 7924   3.209   6.992   4.461
 2342SOL    HW1 7925   3.120   0.008   4.435
 2342SOL    HW2 7926   3.208   6.893   4.453
 2343SOL     OW 7927   1.670   6.691   2.304
 2343SOL    HW1 7928   1.623   6.607   2.277
 2343SOL    HW2 7929   1.604   6.757   2.339
 2344SOL     OW 7930   5.695   4.079   0.821
 2344SOL    HW1 7931   5.604   4.110   0.848
 2344SOL    HW2 7932   5.759   4.090   0.898
 2345SOL     OW 7933   2.915   5.868   4.902
 2345SOL    HW1 7934   2.949   5.774   4.897
 2345SOL    HW2 7935   2.972   5.926   4.845
 2346SOL     OW 7936   4.119   4.331   6.302
 2346SOL    HW1 7937   4.163   4.374   6.224
 2346SOL    HW2 7938   4.028   4.299   6.275
 2347SOL     OW 7939   1.013   2.687   1.951
 2347SOL    HW1 7940   0.928   2.734   1.927
 2347SOL    HW2 7941   1.028   2.611   1.887
 2348SOL     OW 7942   0.559   4.922   2.818
 2348SOL    HW1 7943   0.572   4.897   2.722
 2348SOL    HW2 7944   0.475   4.976   2.828
 2349SOL     OW 7945   0.469   4.606   6.433
 2349SOL    HW1 7946   0.526   4.688   6.435
 2349SOL    HW2 7947   0.502   4.544   6.362
 2350SOL     OW 7948   6.455   3.912   6.619
 2350SOL    HW1 7949   6.363   3.884   6.648
 2350SOL    HW2 7950   6.450   3.954   6.529
 2351SOL     OW 7951   2.487   5.074   3.081
 2351SOL    HW1 7952   2.394   5.104   3.102
 2351SOL    HW2 7953   2.552   5.144   3.111
 2352SOL     OW 7954   0.181   3.158   3.772
 2352SOL    HW1 7955   0.113   3.183   3.841
 2352SOL    HW2 7956   0.269   3.200   3.795
 2353SOL     OW 7957   3.683   5.769   5.227
 2353SOL    HW1 7958   3.634   5.695   5.181
 2353SOL    HW2 7959   3.759   5.800   5.170
 2354SOL     OW 7960   2.346   2.124   3.363
 2354SOL    HW1 7961   2.439   2.148   3.392
 2354SOL    HW2 7962   2.350   2.073   3.278
 2355SOL     OW 7963   2.170   6.012   5.018
 2355SOL    HW1 7964   2.225   6.011   4.934
 2355SOL    HW2 7965   2.182   5.925   5.066
 2356SOL     OW 7966   6.912   3.506   0.246
 2356SOL    HW1 7967   6.858   3.442   0.301
 2356SOL    HW2 7968   6.992   3.534   0.299
 2357SOL     OW 7969   2.583   6.859   2.528
 2357SOL    HW1 7970   2.567   6.830   2.434
 2357SOL    HW2 7971   2.640   6.792   2.575
 2358SOL     OW 7972   3.725   4.758   6.544
 2358SOL    HW1 7973   3.735   4.824   6.470
 2358SOL    HW2 7974   3.637   4.710   6.534
 2359SOL     OW 7975   1.468   0.253   4.734
 2359SOL    HW1 7976   1.413   0.297   4.663
 2359SOL    HW2 7977   1.449   0.295   4.823
 2360SOL     OW 7978   6.545   3.154   0.561
 2360SOL    HW1 7979   6.447   3.164   0.579
 2360SOL    HW2 7980   6.558   3.093   0.483
 2361SOL     OW 7981   3.721   1.530   6.141
 2361SOL    HW1 7982   3.799   1.468   6.139
 2361SOL    HW2 7983   3.738   1.602   6.208
 2362SOL     OW 7984   3.561   5.585   3.538
 2362SOL    HW1 7985   3.600   5.660   3.484
 2362SOL    HW2 7986   3.462   5.581   3.521
 2363SOL     OW 7987   3.907   1.452   3.838
 2363SOL    HW1 7988   3.910   1.540   3.886
 2363SOL    HW2 7989   3.813   1.419   3.834
 2364SOL     OW 7990   0.841   2.604   1.198
 2364SOL    HW1 7991   0.855   2.505   1.194
 2364SOL    HW2 7992   0.893   2.648   1.125
 2365SOL     OW 7993   5.653   2.172   6.456
 2365SOL    HW1 7994   5.694   2.206   6.541
 2365SOL    HW2 7995   5.564   2.131   6.476
 2366SOL     OW 7996   3.815   5.155   0.751
 2366SOL    HW1 7997   3.773   5.234   0.796
 2366SOL    HW2 7998   3.793   5.072   0.802
 2367SOL     OW 7999   2.282   2.902   6.942
 2367SOL    HW1 8000   2.199   2.945   6.906
 2367SOL    HW2 8001   2.263   2.808   6.968
 2368SOL     OW 8002   6.336   6.182   3.210
 2368SOL    HW1 8003   6.430   6.216   3.220
 2368SOL    HW2 8004   6.272   6.255   3.234
 2369SOL     OW 8005   2.528   0.281   3.686
 2369SOL    HW1 8006   2.525   0.378   3.664
 2369SOL    HW2 8007   2.579   0.231   3.616
 2370SOL     OW 8008   5.161   2.208   6.677
 2370SOL    HW1 8009   5.257   2.233   6.664
 2370SOL    HW2 8010   5.109   2.290   6.701
 2371SOL     OW 8011   2.637   6.723   1.907
 2371SOL    HW1 8012   2.720   6.687   1.950
 2371SOL    HW2 8013   2.565   6.654   1.912
 2372SOL     OW 8014   6.394   3.244   2.328
 2372SOL    HW1 8015   6.330   3.309   2.288
 2372SOL    HW2 8016   6.470   3.227   2.264
 2373SOL     OW 8017   2.356   3.755   6.519
 2373SOL    HW1 8018   2.262   3.729   6.498
 2373SOL    HW2 8019   2.365   3.773   6.617
 2374SOL     OW 8020   6.092   2.676   4.799
 2374SOL    HW1 8021   6.175   2.666   4.854
 2374SOL    HW2 8022   6.021   2.616   4.836
 2375SOL     OW 8023   3.550   5.489   4.833
 2375SOL    HW1 8024   3.494   5.551   4.778
 2375SOL    HW2 8025   3.530   5.394   4.806
 2376SOL     OW 8026   6.193   3.086   4.578
 2376SOL    HW1 8027   6.282   3.124   4.605
 2376SOL    HW2 8028   6.160   3.134   4.497
 2377SOL     OW 8029   3.013   3.279   3.891
 2377SOL    HW1 8030   3.039   3.234   3.806
 2377SOL    HW2 8031   3.092   3.328   3.928
 2378SOL     OW 8032   5.450   2.832   6.530
 2378SOL    HW1 8033   5.534   2.787   6.502
 2378SOL    HW2 8034   5.385   2.764   6.563
 2379SOL     OW 8035   6.274   0.370   0.851
 2379SOL    HW1 8036   6.338   0.301   0.885
 2379SOL    HW2 8037   6.228   0.413   0.929
 2380SOL     OW 8038   6.339   2.121   1.119
 2380SOL    HW1 8039   6.264   2.107   1.184
 2380SOL    HW2 8040   6.424   2.135   1.170
 2381SOL     OW 8041   1.640   6.676   3.398
 2381SOL    HW1 8042   1.731   6.652   3.431
 2381SOL    HW2 8043   1.577   6.600   3.415
 2382SOL     OW 8044   2.114   3.316   5.126
 2382SOL    HW1 8045   2.043   3.292   5.059
 2382SOL    HW2 8046   2.157   3.232   5.160
 2383SOL     OW 8047   5.982   6.222   1.053
 2383SOL    HW1 8048   5.885   6.201   1.064
 2383SOL    HW2 8049   6.004   6.227   0.956
 2384SOL     OW 8050   4.706   1.705   1.930
 2384SOL    HW1 8051   4.735   1.743   2.018
 2384SOL    HW2 8052   4.617   1.744   1.905
 2385SOL     OW 8053   0.568   1.924   6.313
 2385SOL    HW1 8054   0.618   1.988   6.371
 2385SOL    HW2 8055   0.618   1.909   6.228
 2386SOL     OW 8056   5.091   5.582   4.021
 2386SOL    HW1 8057   5.089   5.670   3.972
 2386SOL    HW2 8058   5.186   5.552   4.031
 2387SOL     OW 8059   1.691   1.527   3.778
 2387SOL    HW1 8060   1.690   1.554   3.874
 2387SOL    HW2 8061   1.688   1.609   3.720
 2388SOL     OW 8062   6.150   2.447   4.254
 2388SOL    HW1 8063   6.182   2.362   4.295
 2388SOL    HW2 8064   6.129   2.513   4.326
 2389SOL     OW 8065   4.095   5.048   3.022
 2389SOL    HW1 8066   4.156   5.079   3.095
 2389SOL    HW2 8067   4.031   4.980   3.059
 2390SOL     OW 8068   3.419   4.184   1.787
 2390SOL    HW1 8069   3.373   4.097   1.772
 2390SOL    HW2 8070   3.465   4.183   1.876
 2391SOL     OW 8071   4.411   5.220   5.834
 2391SOL    HW1 8072   4.331   5.192   5.781
 2391SOL    HW2 8073   4.386   5.227   5.931
 2392SOL     OW 8074   3.627   0.895   6.907
 2392SOL    HW1 8075   3.649   0.940   6.820
 2392SOL    HW2 8076   3.666   0.947   6.983
 2393SOL     OW 8077   4.358   4.611   5.952
 2393SOL    HW1 8078   4.455   4.628   5.971
 2393SOL    HW2 8079   4.308   4.698   5.957
 2394SOL     OW 8080   0.898   4.087   5.063
 2394SOL    HW1 8081   0.947   4.008   5.026
 2394SOL    HW2 8082   0.831   4.056   5.132
 2395SOL     OW 8083   3.782   6.887   5.961
 2395SOL    HW1 8084   3.753   6.931   6.045
 2395SOL    HW2 8085   3.864   6.932   5.926
 2396SOL     OW 8086   4.154   4.599   0.300
 2396SOL    HW1 8087   4.127   4.586   0.205
 2396SOL    HW2 8088   4.078   4.637   0.352
 2397SOL     OW 8089   0.164   3.950   4.718
 2397SOL    HW1 8090   0.170   3.963   4.619
 2397SOL    HW2 8091   0.069   3.957   4.747
 2398SOL     OW 8092   4.328   4.607   5.670
 2398SOL    HW1 8093   4.308   4.610   5.768
 2398SOL    HW2 8094   4.425   4.586   5.657
 2399SOL     OW 8095   4.203   2.245   1.428
 2399SOL    HW1 8096   4.284   2.209   1.381
 2399SOL    HW2 8097   4.232   2.313   1.496
 2400SOL     OW 8098   2.541   5.278   1.164
 2400SOL    HW1 8099   2.457   5.332   1.154
 2400SOL    HW2 8100   2.524   5.202   1.227
 2401SOL     OW 8101   6.575   6.678   5.779
 2401SOL    HW1 8102   6.659   6.659   5.830
 2401SOL    HW2 8103   6.582   6.638   5.687
 2402SOL     OW 8104   0.039   6.852   4.513
 2402SOL    HW1 8105   7.017   6.862   4.423
 2402SOL    HW2 8106   7.010   6.785   4.567
 2403SOL     OW 8107   0.682   2.197   5.607
 2403SOL    HW1 8108   0.714   2.139   5.532
 2403SOL    HW2 8109   0.590   2.231   5.586
 2404SOL     OW 8110   1.185   0.446   0.488
 2404SOL    HW1 8111   1.209   0.538   0.518
 2404SOL    HW2 8112   1.086   0.442   0.470
 2405SOL     OW 8113   2.940   3.812   1.750
 2405SOL    HW1 8114   2.994   3.728   1.758
 2405SOL    HW2 8115   2.845   3.789   1.732
 2406SOL     OW 8116   4.722   1.288   0.784
 2406SOL    HW1 8117   4.736   1.250   0.875
 2406SOL    HW2 8118   4.706   1.387   0.791
 2407SOL     OW 8119   5.504   0.916   3.385
 2407SOL    HW1 8120   5.484   0.821   3.409
 2407SOL    HW2 8121   5.601   0.935   3.402
 2408SOL     OW 8122   4.638   4.434   2.123
 2408SOL    HW1 8123   4.588   4.445   2.209
 2408SOL    HW2 8124   4.583   4.381   2.059
 2409SOL     OW 8125   1.743   4.279   0.182
 2409SOL    HW1 8126   1.825   4.231   0.214
 2409SOL    HW2 8127   1.666   4.216   0.183
 2410SOL     OW 8128   3.959   3.306   2.636
 2410SOL    HW1 8129   3.913   3.273   2.718
 2410SOL    HW2 8130   3.943   3.242   2.561
 2411SOL     OW 8131   5.513   7.018   4.416
 2411SOL    HW1 8132   5.429   0.021   4.369
 2411SOL    HW2 8133   5.493   6.993   4.511
 2412SOL     OW 8134   4.279   3.425   1.079
 2412SOL    HW1 8135   4.368   3.395   1.045
 2412SOL    HW2 8136   4.207   3.371   1.037
 2413SOL     OW 8137   4.899   0.249   2.188
 2413SOL    HW1 8138   4.948   0.287   2.267
 2413SOL    HW2 8139   4.806   0.285   2.185
 2414SOL     OW 8140   5.366   3.225   4.115
 2414SOL    HW1 8141   5.334   3.235   4.021
 2414SOL    HW2 8142   5.452   3.175   4.117
 2415SOL     OW 8143   4.896   1.588   3.787
 2415SOL    HW1 8144   4.863   1.602   3.694
 2415SOL    HW2 8145   4.866   1.499   3.821
 2416SOL     OW 8146   4.639   1.775   5.894
 2416SOL    HW1 8147   4.599   1.759   5.984
 2416SOL    HW2 8148   4.629   1.872   5.870
 2417SOL     OW 8149   2.927   3.327   4.136
 2417SOL    HW1 8150   2.956   3.248   4.191
 2417SOL    HW2 8151   2.940   3.306   4.039
 2418SOL     OW 8152   3.929   3.200   3.355
 2418SOL    HW1 8153   3.834   3.179   3.377
 2418SOL    HW2 8154   3.953   3.164   3.265
 2419SOL     OW 8155   0.205   6.960   2.800
 2419SOL    HW1 8156   0.250   0.023   2.771
 2419SOL    HW2 8157   0.239   6.884   2.745
 2420SOL     OW 8158   2.207   0.129   1.823
 2420SOL    HW1 8159   2.262   0.210   1.840
 2420SOL    HW2 8160   2.166   0.098   1.909
 2421SOL     OW 8161   2.774   2.257   3.920
 2421SOL    HW1 8162   2.874   2.249   3.909
 2421SOL    HW2 8163   2.733   2.166   3.920
 2422SOL     OW 8164   4.638   1.851   0.948
 2422SOL    HW1 8165   4.710   1.894   0.893
 2422SOL    HW2 8166   4.671   1.838   1.041
 2423SOL     OW 8167   2.392   5.286   2.583
 2423SOL    HW1 8168   2.423   5.219   2.516
 2423SOL    HW2 8169   2.464   5.303   2.650
 2424SOL     OW 8170   5.486   0.599   1.298
 2424SOL    HW1 8171   5.503   0.668   1.368
 2424SOL    HW2 8172   5.546   0.521   1.313
 2425SOL     OW 8173   6.407   6.634   4.171
 2425SOL    HW1 8174   6.458   6.582   4.102
 2425SOL    HW2 8175   6.311   6.641   4.142
 2426SOL     OW 8176   2.735   5.053   4.116
 2426SOL    HW1 8177   2.781   4.971   4.082
 2426SOL    HW2 8178   2.798   5.131   4.111
 2427SOL     OW 8179   6.103   0.336   5.534
 2427SOL    HW1 8180   6.147   0.377   5.614
 2427SOL    HW2 8181   6.141   0.244   5.519
 2428SOL     OW 8182   6.328   0.814   0.816
 2428SOL    HW1 8183   6.353   0.728   0.773
 2428SOL    HW2 8184   6.400   0.882   0.799
 2429SOL     OW 8185   4.511   5.831   2.149
 2429SOL    HW1 8186   4.498   5.745   2.100
 2429SOL    HW2 8187   4.605   5.864   2.134
 2430SOL     OW 8188   5.569   0.957   2.350
 2430SOL    HW1 8189   5.541   0.978   2.257
 2430SOL    HW2 8190   5.509   1.004   2.415
 2431SOL     OW 8191   4.066   0.688   2.069
 2431SOL    HW1 8192   3.976   0.649   2.090
 2431SOL    HW2 8193   4.101   0.736   2.149
 2432SOL     OW 8194   2.320   6.345   2.718
 2432SOL    HW1 8195   2.288   6.327   2.812
 2432SOL    HW2 8196   2.243   6.380   2.664
 2433SOL     OW 8197   3.876   0.192   0.422
 2433SOL    HW1 8198   3.903   0.219   0.330
 2433SOL    HW2 8199   3.782   0.159   0.421
 2434SOL     OW 8200   3.882   3.245   5.690
 2434SOL    HW1 8201   3.795   3.285   5.719
 2434SOL    HW2 8202   3.946   3.245   5.767
 2435SOL     OW 8203   5.916   5.757   5.350
 2435SOL    HW1 8204   5.974   5.832   5.317
 2435SOL    HW2 8205   5.937   5.674   5.299
 2436SOL     OW 8206   2.897   5.435   0.329
 2436SOL    HW1 8207   2.912   5.515   0.387
 2436SOL    HW2 8208   2.799   5.414   0.326
 2437SOL     OW 8209   6.675   0.472   6.144
 2437SOL    HW1 8210   6.767   0.432   6.142
 2437SOL    HW2 8211   6.612   0.406   6.185
 2438SOL     OW 8212   2.803   2.759   1.068
 2438SOL    HW1 8213   2.851   2.778   0.982
 2438SOL    HW2 8214   2.822   2.833   1.133
 2439SOL     OW 8215   6.191   4.495   4.756
 2439SOL    HW1 8216   6.184   4.398   4.780
 2439SOL    HW2 8217   6.221   4.503   4.661
 2440SOL     OW 8218   6.178   4.898   5.814
 2440SOL    HW1 8219   6.107   4.830   5.794
 2440SOL    HW2 8220   6.159   4.980   5.760
 2441SOL     OW 8221   6.157   2.073   0.665
 2441SOL    HW1 8222   6.087   2.010   0.633
 2441SOL    HW2 8223   6.151   2.083   0.765
 2442SOL     OW 8224   6.842   3.439   5.301
 2442SOL    HW1 8225   6.871   3.471   5.390
 2442SOL    HW2 8226   6.918   3.443   5.237
 2443SOL     OW 8227   2.673   5.058   5.678
 2443SOL    HW1 8228   2.720   5.046   5.591
 2443SOL    HW2 8229   2.636   5.151   5.682
 2444SOL     OW 8230   3.376   2.831   5.562
 2444SOL    HW1 8231   3.376   2.907   5.627
 2444SOL    HW2 8232   3.464   2.828   5.514
 2445SOL     OW 8233   0.573   0.333   0.616
 2445SOL    HW1 8234   0.649   0.275   0.585
 2445SOL    HW2 8235   0.519   0.283   0.684
 2446SOL     OW 8236   5.615   3.797   6.308
 2446SOL    HW1 8237   5.709   3.778   6.281
 2446SOL    HW2 8238   5.559   3.715   6.295
 2447SOL     OW 8239   0.513   2.637   6.661
 2447SOL    HW1 8240   0.491   2.714   6.720
 2447SOL    HW2 8241   0.440   2.569   6.666
 2448SOL     OW 8242   0.151   0.641   4.419
 2448SOL    HW1 8243   0.070   0.700   4.418
 2448SOL    HW2 8244   0.138   0.567   4.485
 2449SOL     OW 8245   0.837   2.816   4.723
 2449SOL    HW1 8246   0.905   2.888   4.733
 2449SOL    HW2 8247   0.786   2.829   4.638
 2450SOL     OW 8248   1.197   3.422   1.655
 2450SOL    HW1 8249   1.251   3.368   1.720
 2450SOL    HW2 8250   1.100   3.402   1.669
 2451SOL     OW 8251   2.876   6.376   4.799
 2451SOL    HW1 8252   2.915   6.355   4.889
 2451SOL    HW2 8253   2.829   6.295   4.764
 2452SOL     OW 8254   2.299   2.260   4.220
 2452SOL    HW1 8255   2.378   2.320   4.232
 2452SOL    HW2 8256   2.329   2.165   4.220
 2453SOL     OW 8257   0.412   3.420   1.669
 2453SOL    HW1 8258   0.511   3.431   1.682
 2453SOL    HW2 8259   0.364   3.450   1.751
 2454SOL     OW 8260   2.177   6.944   1.612
 2454SOL    HW1 8261   2.153   7.004   1.689
 2454SOL    HW2 8262   2.107   6.951   1.541
 2455SOL     OW 8263   5.149   3.739   1.213
 2455SOL    HW1 8264   5.087   3.681   1.266
 2455SOL    HW2 8265   5.242   3.727   1.247
 2456SOL     OW 8266   2.793   6.905   1.252
 2456SOL    HW1 8267   2.727   6.950   1.192
 2456SOL    HW2 8268   2.745   6.858   1.326
 2457SOL     OW 8269   5.908   5.978   1.339
 2457SOL    HW1 8270   5.990   6.029   1.365
 2457SOL    HW2 8271   5.827   6.035   1.355
 2458SOL     OW 8272   0.472   5.810   2.560
 2458SOL    HW1 8273   0.482   5.711   2.574
 2458SOL    HW2 8274   0.563   5.851   2.555
 2459SOL     OW 8275   0.602   1.129   0.547
 2459SOL    HW1 8276   0.637   1.042   0.511
 2459SOL    HW2 8277   0.679   1.190   0.566
 2460SOL     OW 8278   3.154   4.871   1.357
 2460SOL    HW1 8279   3.151   4.860   1.456
 2460SOL    HW2 8280   3.150   4.968   1.334
 2461SOL     OW 8281   5.183   1.358   3.612
 2461SOL    HW1 8282   5.136   1.445   3.622
 2461SOL    HW2 8283   5.278   1.367   3.642
 2462SOL     OW 8284   2.857   4.544   6.273
 2462SOL    HW1 8285   2.895   4.526   6.364
 2462SOL    HW2 8286   2.931   4.566   6.210
 2463SOL     OW 8287   0.165   2.235   4.482
 2463SOL    HW1 8288   0.144   2.250   4.386
 2463SOL    HW2 8289   0.198   2.320   4.523
 2464SOL     OW 8290   1.618   3.884   0.639
 2464SOL    HW1 8291   1.688   3.953   0.660
 2464SOL    HW2 8292   1.572   3.856   0.723
 2465SOL     OW 8293   5.646   5.471   2.527
 2465SOL    HW1 8294   5.744   5.492   2.522
 2465SOL    HW2 8295   5.596   5.528   2.462
 2466SOL     OW 8296   3.810   1.677   1.522
 2466SOL    HW1 8297   3.843   1.612   1.454
 2466SOL    HW2 8298   3.876   1.682   1.597
 2467SOL     OW 8299   7.001   1.436   5.254
 2467SOL    HW1 8300   6.922   1.467   5.201
 2467SOL    HW2 8301   0.050   1.507   5.253
 2468SOL     OW 8302   6.764   4.351   0.796
 2468SOL    HW1 8303   6.738   4.365   0.700
 2468SOL    HW2 8304   6.841   4.287   0.800
 2469SOL     OW 8305   2.892   2.626   5.812
 2469SOL    HW1 8306   2.965   2.679   5.768
 2469SOL    HW2 8307   2.867   2.671   5.898
 2470SOL     OW 8308   5.520   2.562   0.631
 2470SOL    HW1 8309   5.441   2.536   0.687
 2470SOL    HW2 8310   5.579   2.622   0.684
 2471SOL     OW 8311   0.440   0.927   3.545
 2471SOL    HW1 8312   0.413   0.859   3.614
 2471SOL    HW2 8313   0.359   0.952   3.491
 2472SOL     OW 8314   5.706   1.304   3.640
 2472SOL    HW1 8315   5.750   1.393   3.635
 2472SOL    HW2 8316   5.727   1.251   3.558
 2473SOL     OW 8317   0.553   6.487   5.232
 2473SOL    HW1 8318   0.632   6.539   5.263
 2473SOL    HW2 8319   0.583   6.409   5.177
 2474SOL     OW 8320   6.034   6.421   4.242
 2474SOL    HW1 8321   5.967   6.357   4.279
 2474SOL    HW2 8322   6.100   6.446   4.313
 2475SOL     OW 8323   4.556   2.277   6.043
 2475SOL    HW1 8324   4.548   2.177   6.036
 2475SOL    HW2 8325   4.550   2.317   5.951
 2476SOL     OW 8326   0.431   1.892   3.589
 2476SOL    HW1 8327   0.486   1.870   3.670
 2476SOL    HW2 8328   0.424   1.811   3.530
 2477SOL     OW 8329   4.437   4.896   2.346
 2477SOL    HW1 8330   4.529   4.916   2.315
 2477SOL    HW2 8331   4.441   4.833   2.424
 2478SOL     OW 8332   0.068   6.959   3.220
 2478SOL    HW1 8333   0.010   7.014   3.280
 2478SOL    HW2 8334   0.078   7.005   3.132
 2479SOL     OW 8335   0.373   2.108   7.009
 2479SOL    HW1 8336   0.345   2.148   0.075
 2479SOL    HW2 8337   0.318   2.147   6.935
 2480SOL     OW 8338   0.525   5.046   2.135
 2480SOL    HW1 8339   0.530   5.128   2.079
 2480SOL    HW2 8340   0.458   4.983   2.096
 2481SOL     OW 8341   4.062   5.026   2.254
 2481SOL    HW1 8342   4.003   5.107   2.250
 2481SOL    HW2 8343   4.006   4.943   2.244
 2482SOL     OW 8344   4.979   2.588   4.173
 2482SOL    HW1 8345   5.022   2.584   4.264
 2482SOL    HW2 8346   4.884   2.617   4.183
 2483SOL     OW 8347   0.586   3.052   6.878
 2483SOL    HW1 8348   0.550   3.070   6.969
 2483SOL    HW2 8349   0.659   2.984   6.883
 2484SOL     OW 8350   4.005   3.541   6.376
 2484SOL    HW1 8351   4.077   3.514   6.313
 2484SOL    HW2 8352   3.953   3.617   6.337
 2485SOL     OW 8353   0.125   6.473   0.577
 2485SOL    HW1 8354   0.179   6.449   0.658
 2485SOL    HW2 8355   0.031   6.492   0.605
 2486SOL     OW 8356   0.698   4.778   3.770
 2486SOL    HW1 8357   0.758   4.741   3.841
 2486SOL    HW2 8358   0.630   4.838   3.812
 2487SOL     OW 8359   3.151   1.690   1.769
 2487SOL    HW1 8360   3.236   1.637   1.771
 2487SOL    HW2 8361   3.143   1.745   1.852
 2488SOL     OW 8362   2.748   5.995   6.256
 2488SOL    HW1 8363   2.758   6.050   6.339
 2488SOL    HW2 8364   2.805   5.913   6.263
 2489SOL     OW 8365   6.961   6.172   4.243
 2489SOL    HW1 8366   7.019   6.099   4.207
 2489SOL    HW2 8367   6.913   6.216   4.168
 2490SOL     OW 8368   5.168   3.010   1.557
 2490SOL    HW1 8369   5.258   3.050   1.573
 2490SOL    HW2 8370   5.168   2.961   1.470
 2491SOL     OW 8371   6.930   4.367   2.881
 2491SOL    HW1 8372   6.838   4.399   2.857
 2491SOL    HW2 8373   6.923   4.300   2.955
 2492SOL     OW 8374   4.014   1.443   6.101
 2492SOL    HW1 8375   4.102   1.435   6.148
 2492SOL    HW2 8376   4.029   1.438   6.002
 2493SOL     OW 8377   6.730   1.162   4.933
 2493SOL    HW1 8378   6.644   1.133   4.891
 2493SOL    HW2 8379   6.712   1.234   5.000
 2494SOL     OW 8380   4.438   4.621   0.792
 2494SOL    HW1 8381   4.530   4.630   0.830
 2494SOL    HW2 8382   4.429   4.532   0.747
 2495SOL     OW 8383   6.676   0.903   2.938
 2495SOL    HW1 8384   6.593   0.849   2.919
 2495SOL    HW2 8385   6.713   0.876   3.027
 2496SOL     OW 8386   1.522   5.532   0.022
 2496SOL    HW1 8387   1.556   5.468   6.975
 2496SOL    HW2 8388   1.549   5.625   7.018
 2497SOL     OW 8389   5.558   0.199   6.905
 2497SOL    HW1 8390   5.602   0.115   6.936
 2497SOL    HW2 8391   5.614   0.278   6.930
 2498SOL     OW 8392   0.922   3.087   4.828
 2498SOL    HW1 8393   0.988   3.158   4.854
 2498SOL    HW2 8394   0.846   3.087   4.893
 2499SOL     OW 8395   5.121   0.765   6.869
 2499SOL    HW1 8396   5.158   0.778   6.961
 2499SOL    HW2 8397   5.196   0.769   6.802
 2500SOL     OW 8398   4.001   3.948   6.417
 2500SOL    HW1 8399   3.910   3.922   6.448
 2500SOL    HW2 8400   4.016   4.045   6.433
 2501SOL     OW 8401   6.341   4.721   1.297
 2501SOL    HW1 8402   6.319   4.809   1.256
 2501SOL    HW2 8403   6.270   4.697   1.364
 2502SOL     OW 8404   0.404   6.572   3.426
 2502SOL    HW1 8405   0.366   6.660   3.400
 2502SOL    HW2 8406   0.474   6.545   3.359
 2503SOL     OW 8407   5.567   6.917   4.135
 2503SOL    HW1 8408   5.612   6.984   4.075
 2503SOL    HW2 8409   5.547   6.960   4.223
 2504SOL     OW 8410   2.223   4.125   3.268
 2504SOL    HW1 8411   2.243   4.219   3.240
 2504SOL    HW2 8412   2.281   4.061   3.217
 2505SOL     OW 8413   5.148   4.081   4.553
 2505SOL    HW1 8414   5.200   4.108   4.473
 2505SOL    HW2 8415   5.211   4.057   4.627
 2506SOL     OW 8416   0.770   1.162   0.867
 2506SOL    HW1 8417   0.735   1.256   0.874
 2506SOL    HW2 8418   0.696   1.103   0.835
 2507SOL     OW 8419   6.611   6.690   6.896
 2507SOL    HW1 8420   6.522   6.701   6.852
 2507SOL    HW2 8421   6.662   6.617   6.850
 2508SOL     OW 8422   2.245   2.393   1.848
 2508SOL    HW1 8423   2.265   2.460   1.776
 2508SOL    HW2 8424   2.323   2.333   1.861
 2509SOL     OW 8425   5.991   1.456   3.119
 2509SOL    HW1 8426   6.016   1.360   3.119
 2509SOL    HW2 8427   6.018   1.498   3.206
 2510SOL     OW 8428   3.853   5.742   2.241
 2510SOL    HW1 8429   3.789   5.759   2.316
 2510SOL    HW2 8430   3.921   5.675   2.269
 2511SOL     OW 8431   1.126   6.937   3.314
 2511SOL    HW1 8432   1.127   6.858   3.252
 2511SOL    HW2 8433   1.041   6.937   3.366
 2512SOL     OW 8434   5.687   3.455   4.240
 2512SOL    HW1 8435   5.700   3.554   4.229
 2512SOL    HW2 8436   5.593   3.437   4.268
 2513SOL     OW 8437   0.240   4.237   0.890
 2513SOL    HW1 8438   0.333   4.271   0.875
 2513SOL    HW2 8439   0.176   4.314   0.892
 2514SOL     OW 8440   0.192   2.672   3.901
 2514SOL    HW1 8441   0.098   2.637   3.908
 2514SOL    HW2 8442   0.191   2.758   3.851
 2515SOL     OW 8443   1.268   4.654   0.169
 2515SOL    HW1 8444   1.264   4.717   0.246
 2515SOL    HW2 8445   1.363   4.639   0.142
 2516SOL     OW 8446   5.183   6.569   3.711
 2516SOL    HW1 8447   5.177   6.555   3.612
 2516SOL    HW2 8448   5.106   6.524   3.756
 2517SOL     OW 8449   1.845   5.422   0.909
 2517SOL    HW1 8450   1.903   5.364   0.967
 2517SOL    HW2 8451   1.850   5.390   0.815
 2518SOL     OW 8452   2.001   3.005   6.834
 2518SOL    HW1 8453   1.904   3.009   6.856
 2518SOL    HW2 8454   2.013   3.018   6.735
 2519SOL     OW 8455   6.074   4.326   5.212
 2519SOL    HW1 8456   6.036   4.414   5.183
 2519SOL    HW2 8457   6.033   4.253   5.157
 2520SOL     OW 8458   3.394   5.371   1.852
 2520SOL    HW1 8459   3.310   5.425   1.848
 2520SOL    HW2 8460   3.402   5.315   1.769
 2521SOL     OW 8461   5.340   6.660   5.958
 2521SOL    HW1 8462   5.376   6.577   6.002
 2521SOL    HW2 8463   5.310   6.724   6.029
 2522SOL     OW 8464   2.733   4.785   4.428
 2522SOL    HW1 8465   2.718   4.714   4.496
 2522SOL    HW2 8466   2.649   4.798   4.375
 2523SOL     OW 8467   0.871   2.149   5.407
 2523SOL    HW1 8468   0.921   2.063   5.411
 2523SOL    HW2 8469   0.897   2.207   5.484
 2524SOL     OW 8470   1.485   6.877   4.482
 2524SOL    HW1 8471   1.532   6.815   4.419
 2524SOL    HW2 8472   1.428   6.941   4.430
 2525SOL     OW 8473   2.532   4.684   2.689
 2525SOL    HW1 8474   2.544   4.769   2.638
 2525SOL    HW2 8475   2.508   4.610   2.626
 2526SOL     OW 8476   1.950   2.264   4.648
 2526SOL    HW1 8477   1.949   2.351   4.698
 2526SOL    HW2 8478   2.036   2.255   4.598
 2527SOL     OW 8479   6.671   0.216   4.174
 2527SOL    HW1 8480   6.613   0.146   4.215
 2527SOL    HW2 8481   6.648   0.305   4.212
 2528SOL     OW 8482   5.981   5.488   6.953
 2528SOL    HW1 8483   5.996   5.557   6.882
 2528SOL    HW2 8484   6.056   5.491   7.019
 2529SOL     OW 8485   5.142   3.922   5.259
 2529SOL    HW1 8486   5.140   3.874   5.347
 2529SOL    HW2 8487   5.080   3.876   5.196
 2530SOL     OW 8488   1.119   6.375   3.237
 2530SOL    HW1 8489   1.079   6.459   3.201
 2530SOL    HW2 8490   1.055   6.300   3.225
 2531SOL     OW 8491   5.092   1.167   6.909
 2531SOL    HW1 8492   5.180   1.201   6.877
 2531SOL    HW2 8493   5.106   1.106   6.987
 2532SOL     OW 8494   0.974   4.677   5.900
 2532SOL    HW1 8495   0.876   4.690   5.884
 2532SOL    HW2 8496   1.006   4.744   5.967
 2533SOL     OW 8497   5.620   0.274   5.407
 2533SOL    HW1 8498   5.661   0.183   5.408
 2533SOL    HW2 8499   5.684   0.340   5.447
 2534SOL     OW 8500   6.938   1.788   3.218
 2534SOL    HW1 8501   6.951   1.808   3.315
 2534SOL    HW2 8502   0.000   1.812   3.168
 2535SOL     OW 8503   2.726   1.066   2.923
 2535SOL    HW1 8504   2.762   1.159   2.913
 2535SOL    HW2 8505   2.792   1.010   2.973
 2536SOL     OW 8506   0.381   0.811   4.397
 2536SOL    HW1 8507   0.331   0.882   4.347
 2536SOL    HW2 8508   0.320   0.736   4.420
 2537SOL     OW 8509   3.878   6.382   2.101
 2537SOL    HW1 8510   3.865   6.360   2.004
 2537SOL    HW2 8511   3.837   6.310   2.157
 2538SOL     OW 8512   0.587   4.673   5.216
 2538SOL    HW1 8513   0.665   4.697   5.157
 2538SOL    HW2 8514   0.505   4.663   5.160
 2539SOL     OW 8515   2.280   0.427   5.578
 2539SOL    HW1 8516   2.266   0.333   5.610
 2539SOL    HW2 8517   2.202   0.483   5.606
 2540SOL     OW 8518   5.045   1.952   2.340
 2540SOL    HW1 8519   5.079   2.042   2.310
 2540SOL    HW2 8520   5.121   1.887   2.338
 2541SOL     OW 8521   1.094   1.580   6.107
 2541SOL    HW1 8522   1.077   1.651   6.039
 2541SOL    HW2 8523   1.188   1.547   6.100
 2542SOL     OW 8524   3.894   2.134   3.789
 2542SOL    HW1 8525   3.922   2.195   3.863
 2542SOL    HW2 8526   3.971   2.076   3.762
 2543SOL     OW 8527   6.848   1.330   4.745
 2543SOL    HW1 8528   6.916   1.386   4.793
 2543SOL    HW2 8529   6.794   1.278   4.812
 2544SOL     OW 8530   6.987   6.434   1.927
 2544SOL    HW1 8531   7.006   6.380   1.845
 2544SOL    HW2 8532   0.047   6.487   1.952
 2545SOL     OW 8533   6.757   1.458   0.161
 2545SOL    HW1 8534   6.760   1.514   0.244
 2545SOL    HW2 8535   6.665   1.457   0.124
 2546SOL     OW 8536   6.249   3.048   2.443
 2546SOL    HW1 8537   6.309   3.108   2.392
 2546SOL    HW2 8538   6.159   3.090   2.454
 2547SOL     OW 8539   5.809   4.091   1.057
 2547SOL    HW1 8540   5.739   4.114   1.125
 2547SOL    HW2 8541   5.872   4.024   1.095
 2548SOL     OW 8542   6.336   0.947   5.791
 2548SOL    HW1 8543   6.339   1.029   5.848
 2548SOL    HW2 8544   6.429   0.914   5.776
 2549SOL     OW 8545   2.537   5.206   0.843
 2549SOL    HW1 8546   2.499   5.132   0.787
 2549SOL    HW2 8547   2.494   5.203   0.934
 2550SOL     OW 8548   3.876   6.496   0.811
 2550SOL    HW1 8549   3.808   6.461   0.746
 2550SOL    HW2 8550   3.952   6.538   0.760
 2551SOL     OW 8551   3.441   4.589   1.022
 2551SOL    HW1 8552   3.379   4.586   1.101
 2551SOL    HW2 8553   3.530   4.622   1.052
 2552SOL     OW 8554   2.163   4.275   1.700
 2552SOL    HW1 8555   2.170   4.184   1.741
 2552SOL    HW2 8556   2.149   4.265   1.601
 2553SOL     OW 8557   4.674   1.155   6.949
 2553SOL    HW1 8558   4.578   1.159   6.921
 2553SOL    HW2 8559   4.711   1.064   6.930
 2554SOL     OW 8560   1.120   5.554   1.146
 2554SOL    HW1 8561   1.062   5.476   1.169
 2554SOL    HW2 8562   1.103   5.583   1.052
 2555SOL     OW 8563   0.247   6.419   5.157
 2555SOL    HW1 8564   0.217   6.324   5.145
 2555SOL    HW2 8565   0.322   6.423   5.223
 2556SOL     OW 8566   4.555   0.045   1.288
 2556SOL    HW1 8567   4.576   6.992   1.224
 2556SOL    HW2 8568   4.467   0.085   1.265
 2557SOL     OW 8569   3.025   1.107   6.997
 2557SOL    HW1 8570   2.932   1.074   7.011
 2557SOL    HW2 8571   3.044   1.115   6.900
 2558SOL     OW 8572   5.506   1.664   1.480
 2558SOL    HW1 8573   5.448   1.597   1.435
 2558SOL    HW2 8574   5.471   1.756   1.462
 2559SOL     OW 8575   6.778   5.503   3.412
 2559SOL    HW1 8576   6.722   5.505   3.495
 2559SOL    HW2 8577   6.866   5.547   3.430
 2560SOL     OW 8578   4.618   2.615   1.844
 2560SOL    HW1 8579   4.571   2.534   1.879
 2560SOL    HW2 8580   4.641   2.675   1.920
 2561SOL     OW 8581   3.216   0.104   4.720
 2561SOL    HW1 8582   3.125   0.127   4.754
 2561SOL    HW2 8583   3.209   0.027   4.656
 2562SOL     OW 8584   1.626   6.316   5.336
 2562SOL    HW1 8585   1.624   6.224   5.297
 2562SOL    HW2 8586   1.643   6.310   5.434
 2563SOL     OW 8587   3.781   2.956   6.576
 2563SOL    HW1 8588   3.701   2.943   6.517
 2563SOL    HW2 8589   3.864   2.944   6.523
 2564SOL     OW 8590   1.402   1.645   0.278
 2564SOL    HW1 8591   1.493   1.686   0.271
 2564SOL    HW2 8592   1.335   1.705   0.234
 2565SOL     OW 8593   0.532   0.990   0.763
 2565SOL    HW1 8594   0.511   1.045   0.682
 2565SOL    HW2 8595   0.544   0.895   0.736
 2566SOL     OW 8596   2.841   1.011   0.681
 2566SOL    HW1 8597   2.924   1.007   0.738
 2566SOL    HW2 8598   2.864   1.052   0.593
 2567SOL     OW 8599   2.082   0.618   6.489
 2567SOL    HW1 8600   2.099   0.696   6.429
 2567SOL    HW2 8601   2.129   0.537   6.453
 2568SOL     OW 8602   1.973   5.315   1.160
 2568SOL    HW1 8603   2.014   5.401   1.192
 2568SOL    HW2 8604   1.904   5.284   1.226
 2569SOL     OW 8605   1.996   6.357   6.836
 2569SOL    HW1 8606   1.957   6.441   6.798
 2569SOL    HW2 8607   2.033   6.301   6.762
 2570SOL     OW 8608   0.960   6.363   3.842
 2570SOL    HW1 8609   0.945   6.271   3.880
 2570SOL    HW2 8610   0.969   6.429   3.916
 2571SOL     OW 8611   3.320   4.133   3.147
 2571SOL    HW1 8612   3.357   4.139   3.054
 2571SOL    HW2 8613   3.364   4.202   3.205
 2572SOL     OW 8614   2.750   5.108   2.640
 2572SOL    HW1 8615   2.819   5.039   2.663
 2572SOL    HW2 8616   2.763   5.188   2.697
 2573SOL     OW 8617   6.512   0.944   3.315
 2573SOL    HW1 8618   6.419   0.977   3.327
 2573SOL    HW2 8619   6.572   1.021   3.290
 2574SOL     OW 8620   0.342   3.647   2.178
 2574SOL    HW1 8621   0.411   3.602   2.235
 2574SOL    HW2 8622   0.387   3.688   2.098
 2575SOL     OW 8623   4.820   3.691   5.463
 2575SOL    HW1 8624   4.814   3.778   5.513
 2575SOL    HW2 8625   4.823   3.615   5.527
 2576SOL     OW 8626   0.843   0.639   3.337
 2576SOL    HW1 8627   0.828   0.541   3.325
 2576SOL    HW2 8628   0.846   0.661   3.435
 2577SOL     OW 8629   1.708   4.785   1.934
 2577SOL    HW1 8630   1.680   4.711   1.874
 2577SOL    HW2 8631   1.721   4.868   1.880
 2578SOL     OW 8632   4.673   2.470   4.974
 2578SOL    HW1 8633   4.591   2.428   4.935
 2578SOL    HW2 8634   4.731   2.504   4.900
 2579SOL     OW 8635   0.460   1.129   6.510
 2579SOL    HW1 8636   0.464   1.199   6.438
 2579SOL    HW2 8637   0.547   1.128   6.560
 2580SOL     OW 8638   1.788   1.482   5.685
 2580SOL    HW1 8639   1.858   1.533   5.636
 2580SOL    HW2 8640   1.807   1.384   5.680
 2581SOL     OW 8641   6.205   6.503   4.450
 2581SOL    HW1 8642   6.218   6.472   4.544
 2581SOL    HW2 8643   6.251   6.591   4.438
 2582SOL     OW 8644   6.980   4.909   2.784
 2582SOL    HW1 8645   0.025   4.980   2.810
 2582SOL    HW2 8646   6.908   4.950   2.729
 2583SOL     OW 8647   2.955   0.964   6.658
 2583SOL    HW1 8648   3.052   0.967   6.635
 2583SOL    HW2 8649   2.923   1.055   6.683
 2584SOL     OW 8650   4.431   0.576   3.322
 2584SOL    HW1 8651   4.530   0.572   3.332
 2584SOL    HW2 8652   4.407   0.629   3.241
 2585SOL     OW 8653   4.090   1.497   2.045
 2585SOL    HW1 8654   4.093   1.597   2.051
 2585SOL    HW2 8655   4.181   1.460   2.063
 2586SOL     OW 8656   0.208   1.532   4.412
 2586SOL    HW1 8657   0.279   1.470   4.377
 2586SOL    HW2 8658   0.167   1.492   4.494
 2587SOL     OW 8659   6.909   5.353   2.576
 2587SOL    HW1 8660   7.009   5.348   2.578
 2587SOL    HW2 8661   6.876   5.367   2.670
 2588SOL     OW 8662   4.214   0.322   2.499
 2588SOL    HW1 8663   4.281   0.385   2.459
 2588SOL    HW2 8664   4.123   0.341   2.462
 2589SOL     OW 8665   4.520   6.438   1.191
 2589SOL    HW1 8666   4.528   6.353   1.139
 2589SOL    HW2 8667   4.470   6.420   1.276
 2590SOL     OW 8668   3.354   6.314   3.229
 2590SOL    HW1 8669   3.348   6.270   3.318
 2590SOL    HW2 8670   3.402   6.401   3.238
 2591SOL     OW 8671   6.138   0.513   1.048
 2591SOL    HW1 8672   6.097   0.604   1.051
 2591SOL    HW2 8673   6.153   0.480   1.142
 2592SOL     OW 8674   2.980   4.784   1.859
 2592SOL    HW1 8675   2.982   4.685   1.843
 2592SOL    HW2 8676   3.038   4.807   1.937
 2593SOL     OW 8677   3.547   6.931   3.124
 2593SOL    HW1 8678   3.624   6.874   3.096
 2593SOL    HW2 8679   3.527   6.915   3.221
 2594SOL     OW 8680   1.211   5.885   6.694
 2594SOL    HW1 8681   1.177   5.970   6.655
 2594SOL    HW2 8682   1.311   5.889   6.701
 2595SOL     OW 8683   6.964   2.552   3.907
 2595SOL    HW1 8684   6.926   2.602   3.985
 2595SOL    HW2 8685   7.016   2.473   3.941
 2596SOL     OW 8686   4.067   2.208   1.213
 2596SOL    HW1 8687   4.124   2.237   1.289
 2596SOL    HW2 8688   4.115   2.137   1.160
 2597SOL     OW 8689   2.191   2.510   6.729
 2597SOL    HW1 8690   2.114   2.554   6.683
 2597SOL    HW2 8691   2.183   2.411   6.721
 2598SOL     OW 8692   6.479   0.703   2.888
 2598SOL    HW1 8693   6.513   0.611   2.871
 2598SOL    HW2 8694   6.422   0.703   2.970
 2599SOL     OW 8695   5.095   5.725   6.631
 2599SOL    HW1 8696   5.018   5.665   6.609
 2599SOL    HW2 8697   5.081   5.767   6.720
 2600SOL     OW 8698   0.134   2.251   4.200
 2600SOL    HW1 8699   0.084   2.270   4.115
 2600SOL    HW2 8700   0.181   2.164   4.192
 2601SOL     OW 8701   3.801   4.193   5.025
 2601SOL    HW1 8702   3.737   4.138   4.970
 2601SOL    HW2 8703   3.799   4.288   4.993
 2602SOL     OW 8704   6.210   6.151   5.855
 2602SOL    HW1 8705   6.282   6.210   5.817
 2602SOL    HW2 8706   6.247   6.060   5.872
 2603SOL     OW 8707   1.377   2.170   6.530
 2603SOL    HW1 8708   1.379   2.083   6.579
 2603SOL    HW2 8709   1.282   2.197   6.514
 2604SOL     OW 8710   5.709   1.664   0.724
 2604SOL    HW1 8711   5.759   1.628   0.645
 2604SOL    HW2 8712   5.667   1.587   0.774
 2605SOL     OW 8713   6.062   3.229   4.385
 2605SOL    HW1 8714   6.130   3.299   4.364
 2605SOL    HW2 8715   5.989   3.232   4.318
 2606SOL     OW 8716   0.155   4.368   1.190
 2606SOL    HW1 8717   0.110   4.283   1.162
 2606SOL    HW2 8718   0.206   4.353   1.275
 2607SOL     OW 8719   1.166   1.479   4.284
 2607SOL    HW1 8720   1.075   1.508   4.255
 2607SOL    HW2 8721   1.163   1.384   4.315
 2608SOL     OW 8722   4.986   0.031   0.655
 2608SOL    HW1 8723   4.958   0.015   0.561
 2608SOL    HW2 8724   5.083   0.011   0.665
 2609SOL     OW 8725   0.883   2.981   3.064
 2609SOL    HW1 8726   0.873   2.976   3.163
 2609SOL    HW2 8727   0.915   2.893   3.029
 2610SOL     OW 8728   5.711   5.863   4.419
 2610SOL    HW1 8729   5.778   5.791   4.434
 2610SOL    HW2 8730   5.714   5.928   4.495
 2611SOL     OW 8731   2.965   5.405   2.110
 2611SOL    HW1 8732   2.973   5.458   2.026
 2611SOL    HW2 8733   2.869   5.402   2.139
 2612SOL     OW 8734   0.306   6.839   5.346
 2612SOL    HW1 8735   0.360   6.816   5.427
 2612SOL    HW2 8736   0.337   6.784   5.268
 2613SOL     OW 8737   3.620   0.758   0.688
 2613SOL    HW1 8738   3.574   0.675   0.719
 2613SOL    HW2 8739   3.701   0.734   0.634
 2614SOL     OW 8740   6.412   6.270   6.488
 2614SOL    HW1 8741   6.428   6.225   6.400
 2614SOL    HW2 8742   6.314   6.286   6.500
 2615SOL     OW 8743   5.771   4.253   1.505
 2615SOL    HW1 8744   5.818   4.182   1.556
 2615SOL    HW2 8745   5.707   4.301   1.565
 2616SOL     OW 8746   4.049   3.614   2.066
 2616SOL    HW1 8747   4.082   3.524   2.038
 2616SOL    HW2 8748   4.086   3.636   2.156
 2617SOL     OW 8749   2.642   0.008   1.049
 2617SOL    HW1 8750   2.590   0.085   1.089
 2617SOL    HW2 8751   2.640   0.016   0.950
 2618SOL     OW 8752   0.800   0.177   0.556
 2618SOL    HW1 8753   0.861   0.215   0.625
 2618SOL    HW2 8754   0.850   0.165   0.470
 2619SOL     OW 8755   5.991   1.833   1.564
 2619SOL    HW1 8756   5.895   1.812   1.580
 2619SOL    HW2 8757   6.033   1.759   1.512
 2620SOL     OW 8758   1.481   5.456   4.055
 2620SOL    HW1 8759   1.539   5.431   4.133
 2620SOL    HW2 8760   1.426   5.377   4.029
 2621SOL     OW 8761   0.383   5.053   4.036
 2621SOL    HW1 8762   0.354   5.112   3.960
 2621SOL    HW2 8763   0.321   4.976   4.044
 2622SOL     OW 8764   2.489   2.446   5.700
 2622SOL    HW1 8765   2.576   2.437   5.650
 2622SOL    HW2 8766   2.474   2.363   5.754
 2623SOL     OW 8767   3.297   0.214   6.519
 2623SOL    HW1 8768   3.301   0.202   6.618
 2623SOL    HW2 8769   3.227   0.153   6.481
 2624SOL     OW 8770   6.321   1.929   4.137
 2624SOL    HW1 8771   6.402   1.930   4.078
 2624SOL    HW2 8772   6.339   1.871   4.216
 2625SOL     OW 8773   3.902   0.148   6.289
 2625SOL    HW1 8774   3.965   0.092   6.235
 2625SOL    HW2 8775   3.808   0.125   6.264
 2626SOL     OW 8776   2.278   0.389   2.838
 2626SOL    HW1 8777   2.258   0.292   2.824
 2626SOL    HW2 8778   2.367   0.411   2.797
 2627SOL     OW 8779   0.701   0.726   4.983
 2627SOL    HW1 8780   0.730   0.632   4.967
 2627SOL    HW2 8781   0.780   0.787   4.973
 2628SOL     OW 8782   3.535   6.047   6.551
 2628SOL    HW1 8783   3.600   6.097   6.495
 2628SOL    HW2 8784   3.530   6.090   6.642
 2629SOL     OW 8785   2.980   3.779   1.217
 2629SOL    HW1 8786   2.910   3.827   1.271
 2629SOL    HW2 8787   3.021   3.707   1.272
 2630SOL     OW 8788   2.743   2.178   2.596
 2630SOL    HW1 8789   2.703   2.257   2.642
 2630SOL    HW2 8790   2.687   2.097   2.612
 2631SOL     OW 8791   4.164   6.002   4.741
 2631SOL    HW1 8792   4.069   5.984   4.765
 2631SOL    HW2 8793   4.188   5.953   4.657
 2632SOL     OW 8794   4.819   0.822   0.997
 2632SOL    HW1 8795   4.720   0.814   0.987
 2632SOL    HW2 8796   4.855   0.880   0.924
 2633SOL     OW 8797   6.741   2.673   6.894
 2633SOL    HW1 8798   6.721   2.575   6.899
 2633SOL    HW2 8799   6.693   2.713   6.816
 2634SOL     OW 8800   3.261   5.286   1.119
 2634SOL    HW1 8801   3.304   5.331   1.040
 2634SOL    HW2 8802   3.227   5.196   1.091
 2635SOL     OW 8803   6.376   4.818   3.545
 2635SOL    HW1 8804   6.393   4.842   3.449
 2635SOL    HW2 8805   6.335   4.727   3.551
 2636SOL     OW 8806   5.640   6.236   5.128
 2636SOL    HW1 8807   5.736   6.265   5.137
 2636SOL    HW2 8808   5.611   6.245   5.033
 2637SOL     OW 8809   5.256   6.450   2.372
 2637SOL    HW1 8810   5.180   6.484   2.428
 2637SOL    HW2 8811   5.288   6.523   2.312
 2638SOL     OW 8812   5.415   5.609   0.790
 2638SOL    HW1 8813   5.397   5.625   0.693
 2638SOL    HW2 8814   5.331   5.580   0.836
 2639SOL     OW 8815   6.768   6.362   6.261
 2639SOL    HW1 8816   6.854   6.369   6.212
 2639SOL    HW2 8817   6.692   6.372   6.196
 2640SOL     OW 8818   6.142   6.858   6.645
 2640SOL    HW1 8819   6.226   6.911   6.657
 2640SOL    HW2 8820   6.075   6.913   6.595
 2641SOL     OW 8821   6.181   5.490   0.133
 2641SOL    HW1 8822   6.247   5.564   0.149
 2641SOL    HW2 8823   6.200   5.414   0.196
 2642SOL     OW 8824   6.478   0.795   4.207
 2642SOL    HW1 8825   6.525   0.707   4.217
 2642SOL    HW2 8826   6.424   0.814   4.290
 2643SOL     OW 8827   2.392   0.259   2.105
 2643SOL    HW1 8828   2.417   0.291   2.013
 2643SOL    HW2 8829   2.348   0.169   2.098
 2644SOL     OW 8830   6.945   5.790   5.159
 2644SOL    HW1 8831   6.886   5.727   5.209
 2644SOL    HW2 8832   6.888   5.857   5.111
 2645SOL     OW 8833   6.060   5.555   6.021
 2645SOL    HW1 8834   6.087   5.603   5.937
 2645SOL    HW2 8835   6.126   5.482   6.040
 2646SOL     OW 8836   5.763   6.353   6.907
 2646SOL    HW1 8837   5.845   6.298   6.920
 2646SOL    HW2 8838   5.683   6.302   6.938
 2647SOL     OW 8839   2.934   3.202   0.001
 2647SOL    HW1 8840   2.992   3.231   0.078
 2647SOL    HW2 8841   2.960   3.253   6.941
 2648SOL     OW 8842   4.098   1.200   3.450
 2648SOL    HW1 8843   4.093   1.234   3.544
 2648SOL    HW2 8844   4.135   1.272   3.391
 2649SOL     OW 8845   3.488   2.716   5.218
 2649SOL    HW1 8846   3.399   2.736   5.177
 2649SOL    HW2 8847   3.486   2.625   5.259
 2650SOL     OW 8848   6.711   6.998   2.423
 2650SOL    HW1 8849   6.800   0.018   2.445
 2650SOL    HW2 8850   6.700   6.995   2.324
 2651SOL     OW 8851   0.406   0.195   3.774
 2651SOL    HW1 8852   0.491   0.152   3.805
 2651SOL    HW2 8853   0.428   0.275   3.717
 2652SOL     OW 8854   3.266   2.904   3.066
 2652SOL    HW1 8855   3.169   2.929   3.067
 2652SOL    HW2 8856   3.293   2.872   3.156
 2653SOL     OW 8857   6.749   5.720   0.380
 2653SOL    HW1 8858   6.738   5.771   0.465
 2653SOL    HW2 8859   6.667   5.730   0.323
 2654SOL     OW 8860   6.366   1.195   5.903
 2654SOL    HW1 8861   6.442   1.256   5.879
 2654SOL    HW2 8862   6.318   1.231   5.982
 2655SOL     OW 8863   4.995   5.438   4.880
 2655SOL    HW1 8864   5.014   5.527   4.922
 2655SOL    HW2 8865   4.972   5.451   4.784
 2656SOL     OW 8866   5.514   3.420   4.982
 2656SOL    HW1 8867   5.458   3.489   5.028
 2656SOL    HW2 8868   5.605   3.418   5.023
 2657SOL     OW 8869   3.302   2.155   6.191
 2657SOL    HW1 8870   3.285   2.202   6.104
 2657SOL    HW2 8871   3.389   2.184   6.228
 2658SOL     OW 8872   6.226   4.113   5.367
 2658SOL    HW1 8873   6.195   4.195   5.320
 2658SOL    HW2 8874   6.200   4.117   5.463
 2659SOL     OW 8875   6.506   1.433   3.757
 2659SOL    HW1 8876   6.436   1.377   3.713
 2659SOL    HW2 8877   6.510   1.411   3.854
 2660SOL     OW 8878   6.952   2.063   3.024
 2660SOL    HW1 8879   6.906   1.999   2.961
 2660SOL    HW2 8880   0.009   2.018   3.065
 2661SOL     OW 8881   3.755   0.000   2.402
 2661SOL    HW1 8882   3.662   6.995   2.377
 2661SOL    HW2 8883   3.813   7.021   2.320
 2662SOL     OW 8884   3.790   0.779   3.803
 2662SOL    HW1 8885   3.877   0.781   3.753
 2662SOL    HW2 8886   3.766   0.872   3.831
 2663SOL     OW 8887   0.642   4.006   2.915
 2663SOL    HW1 8888   0.662   4.043   3.005
 2663SOL    HW2 8889   0.649   3.906   2.918
 2664SOL     OW 8890   4.128   4.022   1.795
 2664SOL    HW1 8891   4.099   4.089   1.727
 2664SOL    HW2 8892   4.212   4.054   1.839
 2665SOL     OW 8893   4.920   0.550   4.721
 2665SOL    HW1 8894   4.900   0.602   4.638
 2665SOL    HW2 8895   5.016   0.563   4.746
 2666SOL     OW 8896   4.953   6.382   1.787
 2666SOL    HW1 8897   4.979   6.286   1.775
 2666SOL    HW2 8898   4.949   6.427   1.698
 2667SOL     OW 8899   1.656   5.369   3.293
 2667SOL    HW1 8900   1.644   5.335   3.386
 2667SOL    HW2 8901   1.637   5.467   3.290
 2668SOL     OW 8902   6.621   2.137   5.624
 2668SOL    HW1 8903   6.641   2.235   5.623
 2668SOL    HW2 8904   6.655   2.097   5.709
 2669SOL     OW 8905   4.371   5.710   5.350
 2669SOL    HW1 8906   4.422   5.795   5.332
 2669SOL    HW2 8907   4.423   5.653   5.413
 2670SOL     OW 8908   2.224   6.880   5.395
 2670SOL    HW1 8909   2.227   6.825   5.478
 2670SOL    HW2 8910   2.172   6.964   5.412
 2671SOL     OW 8911   3.272   4.385   6.388
 2671SOL    HW1 8912   3.177   4.362   6.408
 2671SOL    HW2 8913   3.302   4.335   6.307
 2672SOL     OW 8914   1.330   4.238   0.155
 2672SOL    HW1 8915   1.344   4.293   0.073
 2672SOL    HW2 8916   1.255   4.278   0.209
 2673SOL     OW 8917   4.245   2.086   3.751
 2673SOL    HW1 8918   4.295   2.100   3.665
 2673SOL    HW2 8919   4.210   2.173   3.784
 2674SOL     OW 8920   6.449   5.783   5.478
 2674SOL    HW1 8921   6.378   5.727   5.521
 2674SOL    HW2 8922   6.499   5.833   5.549
 2675SOL     OW 8923   0.722   4.029   5.290
 2675SOL    HW1 8924   0.632   4.066   5.315
 2675SOL    HW2 8925   0.717   3.930   5.284
 2676SOL     OW 8926   4.741   0.410   1.780
 2676SOL    HW1 8927   4.789   0.431   1.865
 2676SOL    HW2 8928   4.643   0.404   1.798
 2677SOL     OW 8929   2.614   4.682   2.367
 2677SOL    HW1 8930   2.707   4.720   2.369
 2677SOL    HW2 8931   2.601   4.630   2.282
 2678SOL     OW 8932   0.021   6.613   6.317
 2678SOL    HW1 8933   6.953   6.657   6.314
 2678SOL    HW2 8934   0.016   6.531   6.374
 2679SOL     OW 8935   2.782   4.960   1.045
 2679SOL    HW1 8936   2.864   4.904   1.056
 2679SOL    HW2 8937   2.806   5.044   0.996
 2680SOL     OW 8938   1.566   2.474   1.542
 2680SOL    HW1 8939   1.663   2.496   1.543
 2680SOL    HW2 8940   1.513   2.551   1.579
 2681SOL     OW 8941   1.929   1.704   2.260
 2681SOL    HW1 8942   1.877   1.739   2.337
 2681SOL    HW2 8943   1.985   1.777   2.221
 2682SOL     OW 8944   6.189   2.441   3.982
 2682SOL    HW1 8945   6.177   2.446   4.081
 2682SOL    HW2 8946   6.228   2.352   3.958
 2683SOL     OW 8947   1.357   0.448   0.693
 2683SOL    HW1 8948   1.353   0.381   0.767
 2683SOL    HW2 8949   1.284   0.428   0.626
 2684SOL     OW 8950   2.556   5.585   3.189
 2684SOL    HW1 8951   2.559   5.537   3.276
 2684SOL    HW2 8952   2.463   5.584   3.153
 2685SOL     OW 8953   5.428   6.226   5.308
 2685SOL    HW1 8954   5.496   6.230   5.234
 2685SOL    HW2 8955   5.412   6.130   5.333
 2686SOL     OW 8956   1.304   2.950   4.319
 2686SOL    HW1 8957   1.304   2.920   4.224
 2686SOL    HW2 8958   1.236   2.897   4.371
 2687SOL     OW 8959   4.825   4.882   2.959
 2687SOL    HW1 8960   4.776   4.818   3.019
 2687SOL    HW2 8961   4.923   4.864   2.964
 2688SOL     OW 8962   4.198   5.051   5.706
 2688SOL    HW1 8963   4.134   5.123   5.730
 2688SOL    HW2 8964   4.157   4.990   5.638
 2689SOL     OW 8965   0.149   3.213   4.227
 2689SOL    HW1 8966   0.188   3.305   4.221
 2689SOL    HW2 8967   0.181   3.168   4.310
 2690SOL     OW 8968   3.713   2.896   3.174
 2690SOL    HW1 8969   3.683   2.881   3.080
 2690SOL    HW2 8970   3.638   2.872   3.237
 2691SOL     OW 8971   1.079   5.694   1.787
 2691SOL    HW1 8972   1.100   5.689   1.690
 2691SOL    HW2 8973   0.988   5.656   1.804
 2692SOL     OW 8974   0.256   5.224   3.140
 2692SOL    HW1 8975   0.264   5.125   3.131
 2692SOL    HW2 8976   0.339   5.268   3.106
 2693SOL     OW 8977   1.679   3.431   2.882
 2693SOL    HW1 8978   1.713   3.515   2.926
 2693SOL    HW2 8979   1.733   3.353   2.915
 2694SOL     OW 8980   2.918   0.850   2.959
 2694SOL    HW1 8981   2.858   0.813   3.029
 2694SOL    HW2 8982   2.914   0.792   2.877
 2695SOL     OW 8983   4.075   2.081   2.714
 2695SOL    HW1 8984   4.025   2.132   2.784
 2695SOL    HW2 8985   4.010   2.032   2.656
 2696SOL     OW 8986   4.006   4.049   5.167
 2696SOL    HW1 8987   3.928   4.101   5.130
 2696SOL    HW2 8988   4.029   3.974   5.104
 2697SOL     OW 8989   2.649   1.941   4.391
 2697SOL    HW1 8990   2.557   1.966   4.362
 2697SOL    HW2 8991   2.660   1.961   4.489
 2698SOL     OW 8992   2.241   3.292   6.606
 2698SOL    HW1 8993   2.287   3.256   6.686
 2698SOL    HW2 8994   2.308   3.321   6.538
 2699SOL     OW 8995   2.753   5.841   2.865
 2699SOL    HW1 8996   2.734   5.748   2.898
 2699SOL    HW2 8997   2.685   5.904   2.902
 2700SOL     OW 8998   1.644   4.373   3.056
 2700SOL    HW1 8999   1.555   4.391   3.014
 2700SOL    HW2 9000   1.673   4.280   3.035
 2701SOL     OW 9001   3.782   0.260   5.755
 2701SOL    HW1 9002   3.803   0.214   5.841
 2701SOL    HW2 9003   3.687   0.291   5.755
 2702SOL     OW 9004   6.934   6.288   2.806
 2702SOL    HW1 9005   6.861   6.299   2.738
 2702SOL    HW2 9006   6.916   6.349   2.883
 2703SOL     OW 9007   1.585   1.782   3.259
 2703SOL    HW1 9008   1.582   1.879   3.236
 2703SOL    HW2 9009   1.510   1.760   3.321
 2704SOL     OW 9010   1.099   6.334   0.136
 2704SOL    HW1 9011   1.087   6.356   0.039
 2704SOL    HW2 9012   1.024   6.276   0.167
 2705SOL     OW 9013   6.983   3.989   2.747
 2705SOL    HW1 9014   7.013   3.899   2.716
 2705SOL    HW2 9015   6.996   4.056   2.674
 2706SOL     OW 9016   6.668   2.383   2.308
 2706SOL    HW1 9017   6.697   2.473   2.275
 2706SOL    HW2 9018   6.713   2.312   2.254
 2707SOL     OW 9019   2.344   1.600   6.067
 2707SOL    HW1 9020   2.431   1.560   6.037
 2707SOL    HW2 9021   2.312   1.553   6.149
 2708SOL     OW 9022   1.644   4.326   0.604
 2708SOL    HW1 9023   1.583   4.385   0.657
 2708SOL    HW2 9024   1.697   4.382   0.540
 2709SOL     OW 9025   4.066   6.693   1.441
 2709SOL    HW1 9026   4.009   6.774   1.452
 2709SOL    HW2 9027   4.156   6.719   1.406
 2710SOL     OW 9028   6.426   4.188   2.654
 2710SOL    HW1 9029   6.342   4.236   2.679
 2710SOL    HW2 9030   6.460   4.224   2.567
 2711SOL     OW 9031   1.131   6.620   2.105
 2711SOL    HW1 9032   1.146   6.538   2.159
 2711SOL    HW2 9033   1.181   6.612   2.018
 2712SOL     OW 9034   3.609   5.298   2.928
 2712SOL    HW1 9035   3.637   5.228   2.994
 2712SOL    HW2 9036   3.517   5.330   2.950
 2713SOL     OW 9037   2.296   2.285   4.997
 2713SOL    HW1 9038   2.236   2.288   5.077
 2713SOL    HW2 9039   2.377   2.341   5.014
 2714SOL     OW 9040   5.469   0.311   5.813
 2714SOL    HW1 9041   5.490   0.261   5.896
 2714SOL    HW2 9042   5.485   0.409   5.828
 2715SOL     OW 9043   6.185   0.136   0.609
 2715SOL    HW1 9044   6.105   0.076   0.606
 2715SOL    HW2 9045   6.157   0.229   0.634
 2716SOL     OW 9046   6.829   6.704   2.762
 2716SOL    HW1 9047   6.824   6.700   2.663
 2716SOL    HW2 9048   6.924   6.719   2.790
 2717SOL     OW 9049   0.727   0.185   3.104
 2717SOL    HW1 9050   0.657   0.131   3.150
 2717SOL    HW2 9051   0.808   0.129   3.088
 2718SOL     OW 9052   0.568   4.494   3.181
 2718SOL    HW1 9053   0.566   4.577   3.125
 2718SOL    HW2 9054   0.626   4.425   3.138
 2719SOL     OW 9055   4.428   4.643   2.953
 2719SOL    HW1 9056   4.484   4.714   2.910
 2719SOL    HW2 9057   4.477   4.556   2.950
 2720SOL     OW 9058   0.843   6.123   3.913
 2720SOL    HW1 9059   0.798   6.125   4.003
 2720SOL    HW2 9060   0.791   6.064   3.852
 2721SOL     OW 9061   5.200   6.196   4.296
 2721SOL    HW1 9062   5.260   6.198   4.215
 2721SOL    HW2 9063   5.126   6.262   4.284
 2722SOL     OW 9064   1.305   5.929   1.446
 2722SOL    HW1 9065   1.257   5.913   1.360
 2722SOL    HW2 9066   1.341   6.023   1.448
 2723SOL     OW 9067   2.268   1.636   4.709
 2723SOL    HW1 9068   2.196   1.691   4.668
 2723SOL    HW2 9069   2.355   1.657   4.666
 2724SOL     OW 9070   3.433   5.773   6.606
 2724SOL    HW1 9071   3.455   5.855   6.553
 2724SOL    HW2 9072   3.359   5.794   6.671
 2725SOL     OW 9073   2.503   4.783   3.562
 2725SOL    HW1 9074   2.453   4.857   3.608
 2725SOL    HW2 9075   2.508   4.704   3.622
 2726SOL     OW 9076   4.908   6.579   2.460
 2726SOL    HW1 9077   4.947   6.540   2.543
 2726SOL    HW2 9078   4.823   6.532   2.438
 2727SOL     OW 9079   2.012   5.817   3.329
 2727SOL    HW1 9080   1.945   5.876   3.285
 2727SOL    HW2 9081   2.026   5.847   3.424
 2728SOL     OW 9082   3.689   6.583   5.117
 2728SOL    HW1 9083   3.688   6.493   5.161
 2728SOL    HW2 9084   3.734   6.649   5.177
 2729SOL     OW 9085   6.959   4.896   2.227
 2729SOL    HW1 9086   6.923   4.962   2.161
 2729SOL    HW2 9087   6.962   4.938   2.318
 2730SOL     OW 9088   1.354   4.701   1.731
 2730SOL    HW1 9089   1.269   4.668   1.772
 2730SOL    HW2 9090   1.352   4.800   1.725
 2731SOL     OW 9091   2.962   3.691   0.944
 2731SOL    HW1 9092   2.996   3.748   0.870
 2731SOL    HW2 9093   2.936   3.749   1.022
 2732SOL     OW 9094   5.267   2.871   4.263
 2732SOL    HW1 9095   5.281   2.873   4.164
 2732SOL    HW2 9096   5.348   2.832   4.308
 2733SOL     OW 9097   2.514   0.363   5.924
 2733SOL    HW1 9098   2.585   0.396   5.986
 2733SOL    HW2 9099   2.494   0.267   5.944
 2734SOL     OW 9100   2.773   6.980   3.851
 2734SOL    HW1 9101   2.819   0.031   3.800
 2734SOL    HW2 9102   2.676   7.002   3.861
 2735SOL     OW 9103   1.682   5.054   1.161
 2735SOL    HW1 9104   1.610   5.118   1.136
 2735SOL    HW2 9105   1.685   4.978   1.096
 2736SOL     OW 9106   3.373   6.943   6.517
 2736SOL    HW1 9107   3.412   6.855   6.488
 2736SOL    HW2 9108   3.439   7.016   6.499
 2737SOL     OW 9109   4.631   3.336   5.578
 2737SOL    HW1 9110   4.582   3.290   5.504
 2737SOL    HW2 9111   4.728   3.345   5.554
 2738SOL     OW 9112   5.785   4.387   4.260
 2738SOL    HW1 9113   5.794   4.485   4.277
 2738SOL    HW2 9114   5.867   4.354   4.213
 2739SOL     OW 9115   5.174   3.870   0.366
 2739SOL    HW1 9116   5.150   3.774   0.353
 2739SOL    HW2 9117   5.093   3.927   0.352
 2740SOL     OW 9118   6.390   2.354   3.365
 2740SOL    HW1 9119   6.332   2.394   3.435
 2740SOL    HW2 9120   6.339   2.285   3.314
 2741SOL     OW 9121   1.699   2.895   4.873
 2741SOL    HW1 9122   1.774   2.882   4.937
 2741SOL    HW2 9123   1.728   2.953   4.797
 2742SOL     OW 9124   2.956   6.045   5.427
 2742SOL    HW1 9125   2.903   5.970   5.387
 2742SOL    HW2 9126   3.044   6.052   5.381
 2743SOL     OW 9127   6.032   4.779   0.670
 2743SOL    HW1 9128   6.131   4.765   0.667
 2743SOL    HW2 9129   5.997   4.752   0.760
 2744SOL     OW 9130   4.250   0.430   0.434
 2744SOL    HW1 9131   4.276   0.335   0.450
 2744SOL    HW2 9132   4.275   0.486   0.513
 2745SOL     OW 9133   2.045   5.849   1.218
 2745SOL    HW1 9134   2.033   5.871   1.315
 2745SOL    HW2 9135   2.120   5.783   1.208
 2746SOL     OW 9136   0.877   2.355   6.497
 2746SOL    HW1 9137   0.941   2.344   6.421
 2746SOL    HW2 9138   0.834   2.445   6.491
 2747SOL     OW 9139   5.149   5.805   3.820
 2747SOL    HW1 9140   5.235   5.755   3.835
 2747SOL    HW2 9141   5.139   5.875   3.890
 2748SOL     OW 9142   4.423   0.781   4.499
 2748SOL    HW1 9143   4.387   0.722   4.428
 2748SOL    HW2 9144   4.477   0.854   4.458
 2749SOL     OW 9145   5.122   4.090   3.515
 2749SOL    HW1 9146   5.036   4.062   3.556
 2749SOL    HW2 9147   5.183   4.127   3.585
 2750SOL     OW 9148   0.432   6.590   0.589
 2750SOL    HW1 9149   0.530   6.589   0.610
 2750SOL    HW2 9150   0.417   6.555   0.497
 2751SOL     OW 9151   1.938   0.176   7.003
 2751SOL    HW1 9152   1.992   0.259   6.988
 2751SOL    HW2 9153   1.876   0.190   0.059
 2752SOL     OW 9154   6.667   6.581   5.537
 2752SOL    HW1 9155   6.598   6.515   5.507
 2752SOL    HW2 9156   6.741   6.533   5.584
 2753SOL     OW 9157   3.453   5.242   5.431
 2753SOL    HW1 9158   3.480   5.159   5.480
 2753SOL    HW2 9159   3.534   5.292   5.402
 2754SOL     OW 9160   0.959   5.870   3.983
 2754SOL    HW1 9161   0.874   5.839   4.025
 2754SOL    HW2 9162   0.949   5.965   3.953
 2755SOL     OW 9163   4.162   5.847   2.415
 2755SOL    HW1 9164   4.217   5.922   2.379
 2755SOL    HW2 9165   4.185   5.832   2.511
 2756SOL     OW 9166   0.329   3.037   5.419
 2756SOL    HW1 9167   0.298   3.128   5.392
 2756SOL    HW2 9168   0.252   2.987   5.460
 2757SOL     OW 9169   4.603   3.779   6.723
 2757SOL    HW1 9170   4.694   3.804   6.757
 2757SOL    HW2 9171   4.580   3.687   6.754
 2758SOL     OW 9172   0.139   6.576   2.074
 2758SOL    HW1 9173   0.115   6.672   2.059
 2758SOL    HW2 9174   0.108   6.548   2.165
 2759SOL     OW 9175   3.278   3.060   5.285
 2759SOL    HW1 9176   3.293   3.079   5.382
 2759SOL    HW2 9177   3.366   3.049   5.239
 2760SOL     OW 9178   5.866   5.783   2.320
 2760SOL    HW1 9179   5.956   5.824   2.305
 2760SOL    HW2 9180   5.876   5.697   2.371
 2761SOL     OW 9181   1.786   3.105   3.331
 2761SOL    HW1 9182   1.703   3.158   3.347
 2761SOL    HW2 9183   1.866   3.166   3.340
 2762SOL     OW 9184   3.445   1.488   0.781
 2762SOL    HW1 9185   3.370   1.424   0.795
 2762SOL    HW2 9186   3.453   1.548   0.861
 2763SOL     OW 9187   6.040   1.278   3.754
 2763SOL    HW1 9188   6.084   1.244   3.837
 2763SOL    HW2 9189   5.984   1.358   3.776
 2764SOL     OW 9190   0.230   2.865   3.163
 2764SOL    HW1 9191   0.305   2.927   3.141
 2764SOL    HW2 9192   0.161   2.869   3.090
 2765SOL     OW 9193   6.300   6.421   5.735
 2765SOL    HW1 9194   6.336   6.460   5.820
 2765SOL    HW2 9195   6.202   6.440   5.729
 2766SOL     OW 9196   4.520   0.195   0.358
 2766SOL    HW1 9197   4.436   0.158   0.396
 2766SOL    HW2 9198   4.504   0.222   0.263
 2767SOL     OW 9199   0.739   5.072   6.477
 2767SOL    HW1 9200   0.821   5.116   6.512
 2767SOL    HW2 9201   0.686   5.035   6.554
 2768SOL     OW 9202   3.586   6.598   1.409
 2768SOL    HW1 9203   3.614   6.583   1.314
 2768SOL    HW2 9204   3.500   6.649   1.411
 2769SOL     OW 9205   0.915   4.532   5.684
 2769SOL    HW1 9206   0.961   4.547   5.597
 2769SOL    HW2 9207   0.954   4.593   5.753
 2770SOL     OW 9208   1.922   0.369   1.062
 2770SOL    HW1 9209   1.938   0.271   1.061
 2770SOL    HW2 9210   1.824   0.387   1.058
 2771SOL     OW 9211   4.582   6.842   5.507
 2771SOL    HW1 9212   4.563   6.819   5.412
 2771SOL    HW2 9213   4.681   6.841   5.522
 2772SOL     OW 9214   5.000   1.266   3.359
 2772SOL    HW1 9215   5.044   1.299   3.442
 2772SOL    HW2 9216   4.907   1.304   3.352
 2773SOL     OW 9217   6.140   2.507   5.507
 2773SOL    HW1 9218   6.202   2.532   5.582
 2773SOL    HW2 9219   6.056   2.561   5.513
 2774SOL     OW 9220   6.222   0.642   4.049
 2774SOL    HW1 9221   6.275   0.656   4.133
 2774SOL    HW2 9222   6.264   0.695   3.975
 2775SOL     OW 9223   7.014   2.939   4.794
 2775SOL    HW1 9224   0.013   3.033   4.819
 2775SOL    HW2 9225   6.928   2.910   4.836
 2776SOL     OW 9226   5.121   4.498   6.288
 2776SOL    HW1 9227   5.143   4.513   6.191
 2776SOL    HW2 9228   5.081   4.581   6.326
 2777SOL     OW 9229   1.893   2.365   6.635
 2777SOL    HW1 9230   1.873   2.363   6.537
 2777SOL    HW2 9231   1.880   2.458   6.669
 2778SOL     OW 9232   3.076   0.460   6.273
 2778SOL    HW1 9233   3.159   0.472   6.327
 2778SOL    HW2 9234   3.056   0.362   6.264
 2779SOL     OW 9235   5.058   1.375   1.843
 2779SOL    HW1 9236   5.145   1.363   1.891
 2779SOL    HW2 9237   5.031   1.471   1.846
 2780SOL     OW 9238   6.973   1.086   5.214
 2780SOL    HW1 9239   6.883   1.096   5.256
 2780SOL    HW2 9240   7.002   1.173   5.175
 2781SOL     OW 9241   6.566   0.510   3.186
 2781SOL    HW1 9242   6.605   0.422   3.213
 2781SOL    HW2 9243   6.607   0.583   3.241
 2782SOL     OW 9244   5.510   0.848   5.767
 2782SOL    HW1 9245   5.549   0.855   5.859
 2782SOL    HW2 9246   5.416   0.882   5.768
 2783SOL     OW 9247   5.663   2.859   1.638
 2783SOL    HW1 9248   5.628   2.934   1.695
 2783SOL    HW2 9249   5.733   2.809   1.688
 2784SOL     OW 9250   0.312   3.178   1.632
 2784SOL    HW1 9251   0.350   3.271   1.634
 2784SOL    HW2 9252   0.363   3.123   1.566
 2785SOL     OW 9253   5.439   3.558   2.633
 2785SOL    HW1 9254   5.447   3.536   2.536
 2785SOL    HW2 9255   5.343   3.571   2.657
 2786SOL     OW 9256   0.810   6.330   0.666
 2786SOL    HW1 9257   0.850   6.253   0.616
 2786SOL    HW2 9258   0.751   6.383   0.605
 2787SOL     OW 9259   0.761   6.008   6.649
 2787SOL    HW1 9260   0.693   5.968   6.587
 2787SOL    HW2 9261   0.850   6.008   6.605
 2788SOL     OW 9262   2.604   6.621   0.197
 2788SOL    HW1 9263   2.687   6.668   0.167
 2788SOL    HW2 9264   2.628   6.537   0.244
 2789SOL     OW 9265   1.718   2.066   4.440
 2789SOL    HW1 9266   1.768   2.086   4.355
 2789SOL    HW2 9267   1.640   2.008   4.419
 2790SOL     OW 9268   0.203   5.493   1.739
 2790SOL    HW1 9269   0.266   5.566   1.764
 2790SOL    HW2 9270   0.121   5.533   1.697
 2791SOL     OW 9271   0.710   3.287   4.725
 2791SOL    HW1 9272   0.728   3.285   4.823
 2791SOL    HW2 9273   0.791   3.254   4.675
 2792SOL     OW 9274   2.928   1.539   6.339
 2792SOL    HW1 9275   2.925   1.509   6.243
 2792SOL    HW2 9276   2.984   1.474   6.391
 2793SOL     OW 9277   3.458   3.643   6.897
 2793SOL    HW1 9278   3.374   3.674   6.942
 2793SOL    HW2 9279   3.438   3.562   6.843
 2794SOL     OW 9280   1.723   2.042   6.998
 2794SOL    HW1 9281   1.759   2.123   0.025
 2794SOL    HW2 9282   1.795   1.973   6.992
 2795SOL     OW 9283   1.186   6.485   0.908
 2795SOL    HW1 9284   1.255   6.497   0.979
 2795SOL    HW2 9285   1.179   6.569   0.854
 2796SOL     OW 9286   2.208   5.961   6.649
 2796SOL    HW1 9287   2.145   5.910   6.707
 2796SOL    HW2 9288   2.267   5.897   6.599
 2797SOL     OW 9289   4.724   4.250   4.033
 2797SOL    HW1 9290   4.815   4.210   4.030
 2797SOL    HW2 9291   4.691   4.252   4.127
 2798SOL     OW 9292   5.332   1.717   1.692
 2798SOL    HW1 9293   5.356   1.696   1.787
 2798SOL    HW2 9294   5.411   1.697   1.634
 2799SOL     OW 9295   3.568   6.593   4.889
 2799SOL    HW1 9296   3.619   6.579   4.974
 2799SOL    HW2 9297   3.477   6.630   4.911
 2800SOL     OW 9298   4.517   0.995   6.585
 2800SOL    HW1 9299   4.602   1.039   6.613
 2800SOL    HW2 9300   4.517   0.900   6.616
 2801SOL     OW 9301   0.194   4.467   3.799
 2801SOL    HW1 9302   0.232   4.374   3.805
 2801SOL    HW2 9303   0.125   4.470   3.727
 2802SOL     OW 9304   1.456   5.163   4.678
 2802SOL    HW1 9305   1.442   5.090   4.611
 2802SOL    HW2 9306   1.375   5.170   4.737
 2803SOL     OW 9307   3.644   2.111   6.854
 2803SOL    HW1 9308   3.721   2.147   6.802
 2803SOL    HW2 9309   3.565   2.171   6.843
 2804SOL     OW 9310   6.572   2.371   3.841
 2804SOL    HW1 9311   6.556   2.325   3.929
 2804SOL    HW2 9312   6.579   2.302   3.769
 2805SOL     OW 9313   3.934   4.630   0.458
 2805SOL    HW1 9314   3.885   4.717   0.469
 2805SOL    HW2 9315   3.872   4.554   0.477
 2806SOL     OW 9316   0.174   3.517   5.477
 2806SOL    HW1 9317   0.087   3.538   5.432
 2806SOL    HW2 9318   0.245   3.575   5.438
 2807SOL     OW 9319   4.767   1.359   4.055
 2807SOL    HW1 9320   4.729   1.425   3.991
 2807SOL    HW2 9321   4.694   1.322   4.113
 2808SOL     OW 9322   1.184   5.821   5.830
 2808SOL    HW1 9323   1.124   5.797   5.753
 2808SOL    HW2 9324   1.145   5.898   5.880
 2809SOL     OW 9325   0.770   5.845   1.209
 2809SOL    HW1 9326   0.724   5.917   1.261
 2809SOL    HW2 9327   0.760   5.864   1.111
 2810SOL     OW 9328   1.092   6.200   2.878
 2810SOL    HW1 9329   1.105   6.168   2.784
 2810SOL    HW2 9330   1.099   6.300   2.881
 2811SOL     OW 9331   1.002   1.087   0.762
 2811SOL    HW1 9332   1.017   0.997   0.721
 2811SOL    HW2 9333   0.905   1.097   0.783
 2812SOL     OW 9334   1.582   1.485   0.758
 2812SOL    HW1 9335   1.507   1.434   0.801
 2812SOL    HW2 9336   1.555   1.581   0.746
 2813SOL     OW 9337   0.190   2.833   1.168
 2813SOL    HW1 9338   0.271   2.871   1.212
 2813SOL    HW2 9339   0.142   2.774   1.233
 2814SOL     OW 9340   2.584   4.289   6.983
 2814SOL    HW1 9341   2.550   4.257   0.050
 2814SOL    HW2 9342   2.684   4.288   6.983
 2815SOL     OW 9343   0.087   5.335   4.482
 2815SOL    HW1 9344   0.149   5.306   4.409
 2815SOL    HW2 9345   0.139   5.345   4.567
 2816SOL     OW 9346   1.118   5.015   5.117
 2816SOL    HW1 9347   1.102   4.927   5.163
 2816SOL    HW2 9348   1.136   5.085   5.186
 2817SOL     OW 9349   2.826   1.074   2.474
 2817SOL    HW1 9350   2.770   1.042   2.550
 2817SOL    HW2 9351   2.811   1.171   2.459
 2818SOL     OW 9352   1.416   0.680   0.388
 2818SOL    HW1 9353   1.388   0.643   0.300
 2818SOL    HW2 9354   1.498   0.633   0.420
 2819SOL     OW 9355   0.838   0.458   6.660
 2819SOL    HW1 9356   0.827   0.379   6.720
 2819SOL    HW2 9357   0.771   0.529   6.685
 2820SOL     OW 9358   2.053   1.822   6.954
 2820SOL    HW1 9359   2.088   1.736   6.988
 2820SOL    HW2 9360   2.121   1.865   6.894
 2821SOL     OW 9361   3.404   2.773   6.182
 2821SOL    HW1 9362   3.421   2.709   6.257
 2821SOL    HW2 9363   3.318   2.822   6.199
 2822SOL     OW 9364   4.174   2.969   0.374
 2822SOL    HW1 9365   4.163   3.067   0.393
 2822SOL    HW2 9366   4.088   2.922   0.393
 2823SOL     OW 9367   5.276   3.765   1.644
 2823SOL    HW1 9368   5.229   3.833   1.701
 2823SOL    HW2 9369   5.339   3.713   1.701
 2824SOL     OW 9370   0.496   4.167   5.393
 2824SOL    HW1 9371   0.491   4.260   5.357
 2824SOL    HW2 9372   0.413   4.117   5.368
 2825SOL     OW 9373   5.272   2.095   5.779
 2825SOL    HW1 9374   5.369   2.076   5.769
 2825SOL    HW2 9375   5.245   2.163   5.711
 2826SOL     OW 9376   2.807   3.440   6.989
 2826SOL    HW1 9377   2.795   3.395   0.056
 2826SOL    HW2 9378   2.761   3.387   6.918
 2827SOL     OW 9379   5.877   1.996   6.754
 2827SOL    HW1 9380   5.922   1.975   6.841
 2827SOL    HW2 9381   5.933   1.963   6.679
 2828SOL     OW 9382   1.372   4.124   0.641
 2828SOL    HW1 9383   1.424   4.061   0.583
 2828SOL    HW2 9384   1.411   4.216   0.635
 2829SOL     OW 9385   3.512   3.584   1.819
 2829SOL    HW1 9386   3.588   3.617   1.875
 2829SOL    HW2 9387   3.548   3.538   1.738
 2830SOL     OW 9388   3.244   5.781   4.462
 2830SOL    HW1 9389   3.174   5.852   4.468
 2830SOL    HW2 9390   3.332   5.818   4.490
 2831SOL     OW 9391   0.031   1.880   2.109
 2831SOL    HW1 9392   6.983   1.846   2.045
 2831SOL    HW2 9393   0.033   1.980   2.105
 2832SOL     OW 9394   1.038   3.364   2.306
 2832SOL    HW1 9395   1.024   3.307   2.387
 2832SOL    HW2 9396   1.080   3.451   2.333
 2833SOL     OW 9397   6.743   2.684   2.619
 2833SOL    HW1 9398   6.830   2.638   2.601
 2833SOL    HW2 9399   6.702   2.647   2.703
 2834SOL     OW 9400   3.862   0.171   4.482
 2834SOL    HW1 9401   3.812   0.167   4.396
 2834SOL    HW2 9402   3.904   0.261   4.493
 2835SOL     OW 9403   6.899   1.052   6.826
 2835SOL    HW1 9404   6.885   0.955   6.808
 2835SOL    HW2 9405   6.996   1.073   6.828
 2836SOL     OW 9406   2.940   5.357   2.751
 2836SOL    HW1 9407   2.846   5.388   2.741
 2836SOL    HW2 9408   2.982   5.401   2.830
 2837SOL     OW 9409   5.221   4.219   2.057
 2837SOL    HW1 9410   5.176   4.201   2.144
 2837SOL    HW2 9411   5.312   4.177   2.058
 2838SOL     OW 9412   6.894   3.664   6.132
 2838SOL    HW1 9413   6.864   3.577   6.170
 2838SOL    HW2 9414   6.928   3.650   6.039
 2839SOL     OW 9415   6.108   2.699   5.828
 2839SOL    HW1 9416   6.133   2.718   5.923
 2839SOL    HW2 9417   6.065   2.779   5.788
 2840SOL     OW 9418   5.994   6.022   4.720
 2840SOL    HW1 9419   5.916   6.070   4.680
 2840SOL    HW2 9420   6.069   6.087   4.734
 2841SOL     OW 9421   5.370   3.542   2.155
 2841SOL    HW1 9422   5.280   3.582   2.139
 2841SOL    HW2 9423   5.432   3.566   2.081
 2842SOL     OW 9424   0.747   6.798   3.262
 2842SOL    HW1 9425   0.811   6.814   3.337
 2842SOL    HW2 9426   0.789   6.826   3.176
 2843SOL     OW 9427   2.437   2.693   4.133
 2843SOL    HW1 9428   2.505   2.642   4.185
 2843SOL    HW2 9429   2.417   2.644   4.048
 2844SOL     OW 9430   5.459   3.657   0.653
 2844SOL    HW1 9431   5.527   3.662   0.726
 2844SOL    HW2 9432   5.372   3.693   0.686
 2845SOL     OW 9433   3.017   2.007   1.740
 2845SOL    HW1 9434   2.949   1.991   1.669
 2845SOL    HW2 9435   3.004   2.098   1.779
 2846SOL     OW 9436   5.570   0.045   6.643
 2846SOL    HW1 9437   5.536   0.135   6.617
 2846SOL    HW2 9438   5.608   0.049   6.736
 2847SOL     OW 9439   5.069   4.945   1.109
 2847SOL    HW1 9440   5.089   5.030   1.157
 2847SOL    HW2 9441   4.996   4.960   1.043
 2848SOL     OW 9442   0.634   4.268   6.482
 2848SOL    HW1 9443   0.549   4.218   6.501
 2848SOL    HW2 9444   0.710   4.203   6.477
 2849SOL     OW 9445   5.156   0.788   1.758
 2849SOL    HW1 9446   5.167   0.887   1.749
 2849SOL    HW2 9447   5.062   0.763   1.735
 2850SOL     OW 9448   0.718   0.683   1.877
 2850SOL    HW1 9449   0.763   0.755   1.824
 2850SOL    HW2 9450   0.679   0.723   1.960
 2851SOL     OW 9451   3.671   2.932   1.569
 2851SOL    HW1 9452   3.607   3.001   1.603
 2851SOL    HW2 9453   3.662   2.849   1.624
 2852SOL     OW 9454   0.361   5.457   5.226
 2852SOL    HW1 9455   0.347   5.432   5.322
 2852SOL    HW2 9456   0.305   5.537   5.204
 2853SOL     OW 9457   0.327   4.279   5.058
 2853SOL    HW1 9458   0.365   4.269   4.966
 2853SOL    HW2 9459   0.227   4.278   5.052
 2854SOL     OW 9460   2.767   0.422   6.318
 2854SOL    HW1 9461   2.761   0.435   6.219
 2854SOL    HW2 9462   2.862   0.435   6.347
 2855SOL     OW 9463   1.948   1.189   4.395
 2855SOL    HW1 9464   2.037   1.190   4.441
 2855SOL    HW2 9465   1.962   1.185   4.296
 2856SOL     OW 9466   0.753   5.218   4.299
 2856SOL    HW1 9467   0.813   5.291   4.267
 2856SOL    HW2 9468   0.808   5.143   4.335
 2857SOL     OW 9469   6.516   4.089   1.178
 2857SOL    HW1 9470   6.496   4.025   1.104
 2857SOL    HW2 9471   6.612   4.114   1.176
 2858SOL     OW 9472   5.829   4.735   3.333
 2858SOL    HW1 9473   5.922   4.710   3.358
 2858SOL    HW2 9474   5.772   4.653   3.331
 2859SOL     OW 9475   6.124   5.187   1.584
 2859SOL    HW1 9476   6.152   5.272   1.630
 2859SOL    HW2 9477   6.147   5.110   1.643
 2860SOL     OW 9478   1.189   0.177   3.191
 2860SOL    HW1 9479   1.174   0.088   3.234
 2860SOL    HW2 9480   1.231   0.239   3.257
 2861SOL     OW 9481   5.211   4.216   6.000
 2861SOL    HW1 9482   5.213   4.116   6.003
 2861SOL    HW2 9483   5.302   4.251   5.976
 2862SOL     OW 9484   4.481   0.923   0.731
 2862SOL    HW1 9485   4.555   0.983   0.761
 2862SOL    HW2 9486   4.512   0.865   0.656
 2863SOL     OW 9487   5.993   2.277   5.561
 2863SOL    HW1 9488   6.057   2.344   5.522
 2863SOL    HW2 9489   5.993   2.194   5.504
 2864SOL     OW 9490   4.213   4.230   1.008
 2864SOL    HW1 9491   4.213   4.157   0.939
 2864SOL    HW2 9492   4.225   4.318   0.963
 2865SOL     OW 9493   5.868   5.194   5.560
 2865SOL    HW1 9494   5.918   5.222   5.477
 2865SOL    HW2 9495   5.819   5.273   5.597
 2866SOL     OW 9496   3.565   4.357   0.746
 2866SOL    HW1 9497   3.535   4.348   0.841
 2866SOL    HW2 9498   3.521   4.436   0.704
 2867SOL     OW 9499   6.591   6.395   2.880
 2867SOL    HW1 9500   6.582   6.493   2.893
 2867SOL    HW2 9501   6.558   6.370   2.789
 2868SOL     OW 9502   0.190   0.048   5.469
 2868SOL    HW1 9503   0.207   6.987   5.414
 2868SOL    HW2 9504   0.206   0.129   5.413
 2869SOL     OW 9505   6.041   4.851   4.625
 2869SOL    HW1 9506   6.053   4.762   4.582
 2869SOL    HW2 9507   5.944   4.865   4.646
 2870SOL     OW 9508   0.820   0.914   1.788
 2870SOL    HW1 9509   0.725   0.946   1.794
 2870SOL    HW2 9510   0.881   0.992   1.772
 2871SOL     OW 9511   4.786   1.531   3.479
 2871SOL    HW1 9512   4.732   1.487   3.408
 2871SOL    HW2 9513   4.876   1.556   3.442
 2872SOL     OW 9514   2.602   2.002   2.744
 2872SOL    HW1 9515   2.653   1.925   2.781
 2872SOL    HW2 9516   2.511   2.005   2.786
 2873SOL     OW 9517   1.164   0.382   2.068
 2873SOL    HW1 9518   1.182   0.438   1.987
 2873SOL    HW2 9519   1.073   0.404   2.104
 2874SOL     OW 9520   2.131   1.302   3.680
 2874SOL    HW1 9521   2.168   1.296   3.587
 2874SOL    HW2 9522   2.031   1.304   3.676
 2875SOL     OW 9523   2.398   6.962   3.464
 2875SOL    HW1 9524   2.498   6.973   3.459
 2875SOL    HW2 9525   2.354   0.029   3.449
 2876SOL     OW 9526   0.942   6.301   0.921
 2876SOL    HW1 9527   0.898   6.323   0.834
 2876SOL    HW2 9528   1.030   6.347   0.927
 2877SOL     OW 9529   1.978   2.799   4.984
 2877SOL    HW1 9530   2.032   2.823   4.902
 2877SOL    HW2 9531   2.037   2.751   5.049
 2878SOL     OW 9532   3.738   2.943   4.751
 2878SOL    HW1 9533   3.645   2.931   4.784
 2878SOL    HW2 9534   3.797   2.973   4.826
 2879SOL     OW 9535   5.069   5.046   7.013
 2879SOL    HW1 9536   5.010   5.069   6.935
 2879SOL    HW2 9537   5.165   5.048   6.984
 2880SOL     OW 9538   1.723   1.626   3.490
 2880SOL    HW1 9539   1.717   1.649   3.393
 2880SOL    HW2 9540   1.685   1.535   3.505
 2881SOL     OW 9541   5.330   5.172   0.949
 2881SOL    HW1 9542   5.343   5.159   0.851
 2881SOL    HW2 9543   5.361   5.091   0.999
 2882SOL     OW 9544   4.400   6.401   0.087
 2882SOL    HW1 9545   4.488   6.446   0.075
 2882SOL    HW2 9546   4.382   6.385   0.184
 2883SOL     OW 9547   5.616   6.250   3.672
 2883SOL    HW1 9548   5.639   6.340   3.710
 2883SOL    HW2 9549   5.526   6.222   3.707
 2884SOL     OW 9550   6.227   5.499   3.774
 2884SOL    HW1 9551   6.321   5.533   3.768
 2884SOL    HW2 9552   6.207   5.475   3.869
 2885SOL     OW 9553   0.824   2.904   4.065
 2885SOL    HW1 9554   0.872   2.869   3.984
 2885SOL    HW2 9555   0.891   2.939   4.131
 2886SOL     OW 9556   2.501   4.746   4.918
 2886SOL    HW1 9557   2.601   4.740   4.907
 2886SOL    HW2 9558   2.480   4.763   5.014
 2887SOL     OW 9559   6.762   5.697   2.678
 2887SOL    HW1 9560   6.806   5.619   2.634
 2887SOL    HW2 9561   6.784   5.780   2.628
 2888SOL     OW 9562   5.471   6.829   6.889
 2888SOL    HW1 9563   5.479   6.747   6.832
 2888SOL    HW2 9564   5.559   6.849   6.931
 2889SOL     OW 9565   4.596   6.624   4.596
 2889SOL    HW1 9566   4.606   6.683   4.676
 2889SOL    HW2 9567   4.501   6.594   4.588
 2890SOL     OW 9568   1.160   2.654   0.511
 2890SOL    HW1 9569   1.061   2.666   0.505
 2890SOL    HW2 9570   1.206   2.726   0.460
 2891SOL     OW 9571   0.962   1.573   5.631
 2891SOL    HW1 9572   0.905   1.530   5.560
 2891SOL    HW2 9573   1.058   1.551   5.614
 2892SOL     OW 9574   5.413   4.355   1.875
 2892SOL    HW1 9575   5.355   4.315   1.947
 2892SOL    HW2 9576   5.509   4.346   1.901
 2893SOL     OW 9577   6.657   5.507   4.781
 2893SOL    HW1 9578   6.566   5.484   4.747
 2893SOL    HW2 9579   6.649   5.556   4.869
 2894SOL     OW 9580   1.449   5.646   0.654
 2894SOL    HW1 9581   1.370   5.682   0.604
 2894SOL    HW2 9582   1.418   5.602   0.739
 2895SOL     OW 9583   4.552   6.821   6.250
 2895SOL    HW1 9584   4.623   6.871   6.201
 2895SOL    HW2 9585   4.594   6.751   6.308
 2896SOL     OW 9586   6.290   0.497   5.123
 2896SOL    HW1 9587   6.277   0.537   5.214
 2896SOL    HW2 9588   6.316   0.401   5.131
 2897SOL     OW 9589   3.452   5.259   3.324
 2897SOL    HW1 9590   3.501   5.251   3.411
 2897SOL    HW2 9591   3.354   5.249   3.340
 2898SOL     OW 9592   5.209   2.327   3.318
 2898SOL    HW1 9593   5.150   2.257   3.360
 2898SOL    HW2 9594   5.201   2.412   3.370
 2899SOL     OW 9595   6.277   3.240   0.541
 2899SOL    HW1 9596   6.222   3.158   0.527
 2899SOL    HW2 9597   6.217   3.319   0.554
 2900SOL     OW 9598   2.589   2.386   6.066
 2900SOL    HW1 9599   2.603   2.480   6.035
 2900SOL    HW2 9600   2.566   2.328   5.988
 2901SOL     OW 9601   1.093   3.784   2.276
 2901SOL    HW1 9602   1.182   3.745   2.254
 2901SOL    HW2 9603   1.068   3.761   2.370
 2902SOL     OW 9604   5.989   5.575   3.677
 2902SOL    HW1 9605   5.933   5.611   3.751
 2902SOL    HW2 9606   6.077   5.543   3.714
 2903SOL     OW 9607   6.660   4.864   0.407
 2903SOL    HW1 9608   6.638   4.945   0.461
 2903SOL    HW2 9609   6.758   4.857   0.393
 2904SOL     OW 9610   2.778   4.755   4.825
 2904SOL    HW1 9611   2.824   4.841   4.804
 2904SOL    HW2 9612   2.836   4.699   4.885
 2905SOL     OW 9613   1.203   5.175   1.188
 2905SOL    HW1 9614   1.289   5.167   1.136
 2905SOL    HW2 9615   1.223   5.166   1.286
 2906SOL     OW 9616   7.003   5.987   6.067
 2906SOL    HW1 9617   6.906   5.991   6.090
 2906SOL    HW2 9618   0.037   6.013   6.146
 2907SOL     OW 9619   0.221   0.945   5.515
 2907SOL    HW1 9620   0.218   0.925   5.417
 2907SOL    HW2 9621   0.305   0.907   5.555
 2908SOL     OW 9622   4.335   6.823   3.964
 2908SOL    HW1 9623   4.393   6.889   3.917
 2908SOL    HW2 9624   4.243   6.826   3.926
 2909SOL     OW 9625   0.027   6.876   1.706
 2909SOL    HW1 9626   0.037   6.917   1.616
 2909SOL    HW2 9627   0.116   6.847   1.740
 2910SOL     OW 9628   1.025   0.915   4.605
 2910SOL    HW1 9629   1.002   0.850   4.533
 2910SOL    HW2 9630   1.122   0.908   4.628
 2911SOL     OW 9631   0.456   3.874   5.638
 2911SOL    HW1 9632   0.456   3.876   5.538
 2911SOL    HW2 9633   0.534   3.821   5.670
 2912SOL     OW 9634   0.966   1.418   2.227
 2912SOL    HW1 9635   1.060   1.433   2.196
 2912SOL    HW2 9636   0.963   1.429   2.327
 2913SOL     OW 9637   1.099   6.833   2.905
 2913SOL    HW1 9638   1.061   6.772   2.835
 2913SOL    HW2 9639   1.154   6.904   2.861
 2914SOL     OW 9640   3.841   4.678   1.332
 2914SOL    HW1 9641   3.885   4.591   1.354
 2914SOL    HW2 9642   3.752   4.683   1.376
 2915SOL     OW 9643   2.194   0.596   3.829
 2915SOL    HW1 9644   2.250   0.576   3.909
 2915SOL    HW2 9645   2.171   0.693   3.828
 2916SOL     OW 9646   0.918   5.303   0.133
 2916SOL    HW1 9647   0.844   5.277   0.195
 2916SOL    HW2 9648   0.882   5.366   0.063
 2917SOL     OW 9649   2.572   0.199   3.127
 2917SOL    HW1 9650   2.508   0.274   3.107
 2917SOL    HW2 9651   2.520   0.116   3.149
 2918SOL     OW 9652   5.057   2.621   1.306
 2918SOL    HW1 9653   4.972   2.583   1.342
 2918SOL    HW2 9654   5.131   2.605   1.372
 2919SOL     OW 9655   0.368   6.124   4.996
 2919SOL    HW1 9656   0.342   6.095   4.904
 2919SOL    HW2 9657   0.457   6.086   5.019
 2920SOL     OW 9658   2.767   2.098   1.611
 2920SOL    HW1 9659   2.818   2.176   1.647
 2920SOL    HW2 9660   2.671   2.123   1.598
 2921SOL     OW 9661   1.113   6.568   3.594
 2921SOL    HW1 9662   1.166   6.558   3.678
 2921SOL    HW2 9663   1.173   6.562   3.515
 2922SOL     OW 9664   4.079   4.954   3.799
 2922SOL    HW1 9665   3.987   4.926   3.771
 2922SOL    HW2 9666   4.078   4.983   3.895
 2923SOL     OW 9667   0.914   5.448   4.251
 2923SOL    HW1 9668   0.976   5.377   4.218
 2923SOL    HW2 9669   0.966   5.525   4.287
 2924SOL     OW 9670   5.386   1.904   6.308
 2924SOL    HW1 9671   5.371   1.840   6.233
 2924SOL    HW2 9672   5.385   1.855   6.395
 2925SOL     OW 9673   5.364   6.746   4.648
 2925SOL    HW1 9674   5.426   6.824   4.640
 2925SOL    HW2 9675   5.339   6.734   4.744
 2926SOL     OW 9676   7.004   2.445   4.821
 2926SOL    HW1 9677   6.931   2.467   4.886
 2926SOL    HW2 9678   0.049   2.520   4.818
 2927SOL     OW 9679   1.646   1.811   2.268
 2927SOL    HW1 9680   1.585   1.890   2.276
 2927SOL    HW2 9681   1.692   1.796   2.355
 2928SOL     OW 9682   5.381   2.920   6.973
 2928SOL    HW1 9683   5.399   2.829   7.011
 2928SOL    HW2 9684   5.283   2.931   6.957
 2929SOL     OW 9685   2.619   1.583   3.369
 2929SOL    HW1 9686   2.524   1.587   3.401
 2929SOL    HW2 9687   2.665   1.669   3.388
 2930SOL     OW 9688   0.330   3.486   4.234
 2930SOL    HW1 9689   0.275   3.570   4.229
 2930SOL    HW2 9690   0.371   3.479   4.325
 2931SOL     OW 9691   5.664   4.822   5.761
 2931SOL    HW1 9692   5.646   4.850   5.667
 2931SOL    HW2 9693   5.587   4.768   5.795
 2932SOL     OW 9694   6.466   5.163   1.264
 2932SOL    HW1 9695   6.470   5.200   1.357
 2932SOL    HW2 9696   6.462   5.239   1.198
 2933SOL     OW 9697   1.188   0.098   0.296
 2933SOL    HW1 9698   1.208   0.042   0.216
 2933SOL    HW2 9699   1.248   0.178   0.297
 2934SOL     OW 9700   4.989   5.248   1.846
 2934SOL    HW1 9701   5.016   5.344   1.837
 2934SOL    HW2 9702   4.925   5.238   1.922
 2935SOL     OW 9703   0.857   2.787   5.861
 2935SOL    HW1 9704   0.935   2.735   5.825
 2935SOL    HW2 9705   0.828   2.854   5.794
 2936SOL     OW 9706   4.559   0.132   2.258
 2936SOL    HW1 9707   4.539   0.138   2.356
 2936SOL    HW2 9708   4.624   0.058   2.242
 2937SOL     OW 9709   6.052   3.622   3.038
 2937SOL    HW1 9710   6.108   3.575   2.970
 2937SOL    HW2 9711   5.981   3.676   2.992
 2938SOL     OW 9712   0.382   4.840   0.101
 2938SOL    HW1 9713   0.403   4.754   0.056
 2938SOL    HW2 9714   0.340   4.822   0.190
 2939SOL     OW 9715   6.778   6.315   1.584
 2939SOL    HW1 9716   6.714   6.253   1.540
 2939SOL    HW2 9717   6.860   6.265   1.611
 2940SOL     OW 9718   4.378   6.138   4.265
 2940SOL    HW1 9719   4.343   6.193   4.189
 2940SOL    HW2 9720   4.304   6.083   4.304
 2941SOL     OW 9721   2.640   4.843   3.079
 2941SOL    HW1 9722   2.574   4.916   3.096
 2941SOL    HW2 9723   2.628   4.771   3.148
 2942SOL     OW 9724   3.494   2.134   1.718
 2942SOL    HW1 9725   3.560   2.179   1.779
 2942SOL    HW2 9726   3.538   2.057   1.672
 2943SOL     OW 9727   6.257   3.776   3.577
 2943SOL    HW1 9728   6.342   3.822   3.551
 2943SOL    HW2 9729   6.224   3.722   3.500
 2944SOL     OW 9730   1.702   6.287   2.851
 2944SOL    HW1 9731   1.615   6.304   2.804
 2944SOL    HW2 9732   1.690   6.302   2.949
 2945SOL     OW 9733   5.712   3.665   1.529
 2945SOL    HW1 9734   5.697   3.662   1.430
 2945SOL    HW2 9735   5.774   3.740   1.551
 2946SOL     OW 9736   3.423   2.977   4.347
 2946SOL    HW1 9737   3.425   2.952   4.443
 2946SOL    HW2 9738   3.490   3.050   4.331
 2947SOL     OW 9739   6.573   5.112   0.525
 2947SOL    HW1 9740   6.487   5.164   0.529
 2947SOL    HW2 9741   6.625   5.129   0.609
 2948SOL     OW 9742   6.788   4.052   1.725
 2948SOL    HW1 9743   6.700   4.067   1.769
 2948SOL    HW2 9744   6.783   4.082   1.629
 2949SOL     OW 9745   1.363   6.658   0.517
 2949SOL    HW1 9746   1.343   6.605   0.435
 2949SOL    HW2 9747   1.282   6.712   0.542
 2950SOL     OW 9748   6.198   5.816   2.671
 2950SOL    HW1 9749   6.286   5.776   2.646
 2950SOL    HW2 9750   6.188   5.905   2.628
 2951SOL     OW 9751   0.680   2.484   1.568
 2951SOL    HW1 9752   0.704   2.450   1.659
 2951SOL    HW2 9753   0.764   2.504   1.517
 2952SOL     OW 9754   0.094   1.696   4.728
 2952SOL    HW1 9755   0.132   1.731   4.643
 2952SOL    HW2 9756   7.015   1.699   4.724
 2953SOL     OW 9757   1.812   5.972   3.276
 2953SOL    HW1 9758   1.713   5.973   3.269
 2953SOL    HW2 9759   1.847   6.065   3.265
 2954SOL     OW 9760   0.529   4.437   6.228
 2954SOL    HW1 9761   0.538   4.342   6.257
 2954SOL    HW2 9762   0.603   4.460   6.165
 2955SOL     OW 9763   1.795   4.672   6.255
 2955SOL    HW1 9764   1.751   4.624   6.179
 2955SOL    HW2 9765   1.878   4.624   6.282
 2956SOL     OW 9766   5.498   4.331   4.129
 2956SOL    HW1 9767   5.476   4.383   4.211
 2956SOL    HW2 9768   5.528   4.239   4.155
 2957SOL     OW 9769   2.479   5.223   1.796
 2957SOL    HW1 9770   2.438   5.141   1.757
 2957SOL    HW2 9771   2.503   5.206   1.892
 2958SOL     OW 9772   1.262   4.145   1.937
 2958SOL    HW1 9773   1.284   4.090   1.856
 2958SOL    HW2 9774   1.163   4.156   1.944
 2959SOL     OW 9775   0.152   3.928   4.038
 2959SOL    HW1 9776   0.226   3.861   4.049
 2959SOL    HW2 9777   0.069   3.881   4.007
 2960SOL     OW 9778   4.646   6.292   0.834
 2960SOL    HW1 9779   4.699   6.306   0.750
 2960SOL    HW2 9780   4.663   6.367   0.897
 2961SOL     OW 9781   5.162   2.557   1.551
 2961SOL    HW1 9782   5.102   2.591   1.624
 2961SOL    HW2 9783   5.175   2.459   1.563
 2962SOL     OW 9784   0.300   7.019   3.591
 2962SOL    HW1 9785   0.351   0.036   3.514
 2962SOL    HW2 9786   0.307   0.059   3.670
 2963SOL     OW 9787   1.388   0.317   4.999
 2963SOL    HW1 9788   1.289   0.308   4.998
 2963SOL    HW2 9789   1.414   0.392   5.060
 2964SOL     OW 9790   1.529   0.358   6.752
 2964SOL    HW1 9791   1.558   0.342   6.846
 2964SOL    HW2 9792   1.491   0.451   6.745
 2965SOL     OW 9793   6.099   0.485   6.180
 2965SOL    HW1 9794   6.147   0.567   6.210
 2965SOL    HW2 9795   6.014   0.476   6.232
 2966SOL     OW 9796   3.819   5.214   2.776
 2966SOL    HW1 9797   3.730   5.231   2.819
 2966SOL    HW2 9798   3.839   5.116   2.780
 2967SOL     OW 9799   5.856   6.857   5.182
 2967SOL    HW1 9800   5.943   6.851   5.133
 2967SOL    HW2 9801   5.793   6.916   5.132
 2968SOL     OW 9802   1.377   4.206   1.298
 2968SOL    HW1 9803   1.412   4.237   1.386
 2968SOL    HW2 9804   1.299   4.144   1.312
 2969SOL     OW 9805   4.473   2.538   4.676
 2969SOL    HW1 9806   4.404   2.526   4.605
 2969SOL    HW2 9807   4.452   2.480   4.754
 2970SOL     OW 9808   2.522   2.795   5.779
 2970SOL    HW1 9809   2.550   2.882   5.820
 2970SOL    HW2 9810   2.569   2.783   5.691
 2971SOL     OW 9811   4.626   3.502   6.859
 2971SOL    HW1 9812   4.546   3.486   6.916
 2971SOL    HW2 9813   4.704   3.529   6.916
 2972SOL     OW 9814   6.935   5.612   6.712
 2972SOL    HW1 9815   6.906   5.634   6.805
 2972SOL    HW2 9816   0.013   5.608   6.708
 2973SOL     OW 9817   5.839   1.016   4.223
 2973SOL    HW1 9818   5.915   0.952   4.231
 2973SOL    HW2 9819   5.762   0.984   4.278
 2974SOL     OW 9820   5.451   6.068   2.051
 2974SOL    HW1 9821   5.541   6.051   2.092
 2974SOL    HW2 9822   5.385   6.091   2.123
 2975SOL     OW 9823   6.921   3.533   4.916
 2975SOL    HW1 9824   6.985   3.514   4.841
 2975SOL    HW2 9825   6.951   3.485   4.998
 2976SOL     OW 9826   3.643   0.638   1.559
 2976SOL    HW1 9827   3.695   0.652   1.644
 2976SOL    HW2 9828   3.621   0.541   1.550
 2977SOL     OW 9829   1.027   1.093   1.732
 2977SOL    HW1 9830   0.991   1.175   1.777
 2977SOL    HW2 9831   1.097   1.120   1.665
 2978SOL     OW 9832   2.812   5.368   7.008
 2978SOL    HW1 9833   2.803   5.311   6.926
 2978SOL    HW2 9834   2.908   5.390   0.002
 2979SOL     OW 9835   2.898   0.949   5.351
 2979SOL    HW1 9836   2.902   0.980   5.256
 2979SOL    HW2 9837   2.822   0.993   5.397
 2980SOL     OW 9838   3.481   3.367   4.036
 2980SOL    HW1 9839   3.455   3.299   3.968
 2980SOL    HW2 9840   3.408   3.375   4.105
 2981SOL     OW 9841   2.858   1.815   1.920
 2981SOL    HW1 9842   2.788   1.821   1.849
 2981SOL    HW2 9843   2.944   1.855   1.886
 2982SOL     OW 9844   1.872   1.012   0.667
 2982SOL    HW1 9845   1.818   1.040   0.747
 2982SOL    HW2 9846   1.864   1.082   0.596
 2983SOL     OW 9847   6.645   2.975   6.005
 2983SOL    HW1 9848   6.607   3.054   5.956
 2983SOL    HW2 9849   6.641   2.993   6.104
 2984SOL     OW 9850   0.418   6.446   1.744
 2984SOL    HW1 9851   0.461   6.436   1.833
 2984SOL    HW2 9852   0.451   6.374   1.682
 2985SOL     OW 9853   6.510   0.564   6.498
 2985SOL    HW1 9854   6.419   0.604   6.487
 2985SOL    HW2 9855   6.574   0.609   6.435
 2986SOL     OW 9856   3.314   3.267   2.012
 2986SOL    HW1 9857   3.343   3.173   2.028
 2986SOL    HW2 9858   3.381   3.330   2.053
 2987SOL     OW 9859   2.224   5.496   4.578
 2987SOL    HW1 9860   2.203   5.565   4.647
 2987SOL    HW2 9861   2.195   5.528   4.488
 2988SOL     OW 9862   6.639   2.043   6.128
 2988SOL    HW1 9863   6.663   2.059   6.224
 2988SOL    HW2 9864   6.637   1.945   6.110
 2989SOL     OW 9865   5.888   3.570   5.297
 2989SOL    HW1 9866   5.827   3.636   5.342
 2989SOL    HW2 9867   5.978   3.611   5.286
 2990SOL     OW 9868   5.810   1.559   5.481
 2990SOL    HW1 9869   5.879   1.595   5.418
 2990SOL    HW2 9870   5.721   1.598   5.458
 2991SOL     OW 9871   6.684   3.677   0.332
 2991SOL    HW1 9872   6.688   3.775   0.314
 2991SOL    HW2 9873   6.776   3.639   0.324
 2992SOL     OW 9874   0.764   3.717   5.236
 2992SOL    HW1 9875   0.710   3.696   5.155
 2992SOL    HW2 9876   0.767   3.636   5.296
 2993SOL     OW 9877   3.010   4.956   0.772
 2993SOL    HW1 9878   3.031   5.042   0.727
 2993SOL    HW2 9879   2.932   4.912   0.727
 2994SOL     OW 9880   2.881   4.987   4.721
 2994SOL    HW1 9881   2.954   4.933   4.677
 2994SOL    HW2 9882   2.921   5.045   4.791
 2995SOL     OW 9883   4.661   0.865   1.721
 2995SOL    HW1 9884   4.689   0.946   1.670
 2995SOL    HW2 9885   4.585   0.820   1.673
 2996SOL     OW 9886   6.552   1.002   4.534
 2996SOL    HW1 9887   6.577   1.061   4.456
 2996SOL    HW2 9888   6.550   0.907   4.505
 2997SOL     OW 9889   5.005   6.021   4.399
 2997SOL    HW1 9890   4.914   6.042   4.363
 2997SOL    HW2 9891   5.072   6.082   4.358
 2998SOL     OW 9892   2.485   0.882   1.695
 2998SOL    HW1 9893   2.487   0.885   1.595
 2998SOL    HW2 9894   2.507   0.972   1.732
 2999SOL     OW 9895   1.873   4.759   0.134
 2999SOL    HW1 9896   1.789   4.739   0.184
 2999SOL    HW2 9897   1.886   4.690   0.063
 3000SOL     OW 9898   2.105   3.958   5.223
 3000SOL    HW1 9899   2.124   3.879   5.281
 3000SOL    HW2 9900   2.181   3.973   5.159
 3001SOL     OW 9901   4.316   0.791   6.355
 3001SOL    HW1 9902   4.331   0.773   6.258
 3001SOL    HW2 9903   4.402   0.819   6.398
 3002SOL     OW 9904   1.495   2.215   2.150
 3002SOL    HW1 9905   1.565   2.250   2.212
 3002SOL    HW2 9906   1.536   2.195   2.061
 3003SOL     OW 9907   1.235   5.858   0.838
 3003SOL    HW1 9908   1.170   5.926   0.873
 3003SOL    HW2 9909   1.325   5.900   0.827
 3004SOL     OW 9910   2.944   6.417   3.730
 3004SOL    HW1 9911   3.011   6.489   3.748
 3004SOL    HW2 9912   2.867   6.427   3.793
 3005SOL     OW 9913   2.835   1.832   0.686
 3005SOL    HW1 9914   2.842   1.856   0.783
 3005SOL    HW2 9915   2.926   1.812   0.650
 3006SOL     OW 9916   5.900   1.365   5.937
 3006SOL    HW1 9917   5.859   1.382   6.027
 3006SOL    HW2 9918   5.954   1.281   5.941
 3007SOL     OW 9919   6.126   5.487   5.651
 3007SOL    HW1 9920   6.154   5.559   5.715
 3007SOL    HW2 9921   6.141   5.398   5.693
 3008SOL     OW 9922   4.782   4.240   5.683
 3008SOL    HW1 9923   4.864   4.262   5.736
 3008SOL    HW2 9924   4.714   4.313   5.694
 3009SOL     OW 9925   5.438   3.106   1.605
 3009SOL    HW1 9926   5.515   3.139   1.660
 3009SOL    HW2 9927   5.460   3.016   1.569
 3010SOL     OW 9928   4.697   5.224   1.526
 3010SOL    HW1 9929   4.741   5.180   1.447
 3010SOL    HW2 9930   4.725   5.176   1.610
 3011SOL     OW 9931   5.707   0.050   0.543
 3011SOL    HW1 9932   5.659   7.013   0.608
 3011SOL    HW2 9933   5.694   0.014   0.450
 3012SOL     OW 9934   2.557   1.098   4.702
 3012SOL    HW1 9935   2.602   1.167   4.646
 3012SOL    HW2 9936   2.618   1.073   4.778
 3013SOL     OW 9937   0.903   5.099   5.703
 3013SOL    HW1 9938   0.848   5.180   5.725
 3013SOL    HW2 9939   0.845   5.031   5.658
 3014SOL     OW 9940   4.129   0.175   6.854
 3014SOL    HW1 9941   4.171   0.261   6.824
 3014SOL    HW2 9942   4.133   0.108   6.779
 3015SOL     OW 9943   2.721   0.150   6.139
 3015SOL    HW1 9944   2.709   0.072   6.078
 3015SOL    HW2 9945   2.650   0.148   6.210
 3016SOL     OW 9946   2.991   0.574   4.220
 3016SOL    HW1 9947   2.970   0.568   4.123
 3016SOL    HW2 9948   3.084   0.610   4.232
 3017SOL     OW 9949   1.210   5.970   0.164
 3017SOL    HW1 9950   1.149   6.010   0.096
 3017SOL    HW2 9951   1.196   5.871   0.168
 3018SOL     OW 9952   3.201   2.074   2.100
 3018SOL    HW1 9953   3.285   2.020   2.101
 3018SOL    HW2 9954   3.202   2.136   2.021
 3019SOL     OW 9955   1.459   0.225   5.745
 3019SOL    HW1 9956   1.463   0.167   5.827
 3019SOL    HW2 9957   1.365   0.255   5.730
 3020SOL     OW 9958   4.823   4.793   6.884
 3020SOL    HW1 9959   4.859   4.860   6.820
 3020SOL    HW2 9960   4.878   4.710   6.882
 3021SOL     OW 9961   5.190   0.250   4.594
 3021SOL    HW1 9962   5.171   0.272   4.498
 3021SOL    HW2 9963   5.154   0.159   4.615
 3022SOL     OW 9964   4.511   6.876   4.377
 3022SOL    HW1 9965   4.468   6.930   4.305
 3022SOL    HW2 9966   4.562   6.800   4.337
 3023SOL     OW 9967   5.716   4.379   4.889
 3023SOL    HW1 9968   5.634   4.326   4.910
 3023SOL    HW2 9969   5.719   4.398   4.791
 3024SOL     OW 9970   7.008   1.156   0.427
 3024SOL    HW1 9971   6.953   1.174   0.345
 3024SOL    HW2 9972   6.953   1.175   0.508
 3025SOL     OW 9973   4.044   5.322   0.814
 3025SOL    HW1 9974   4.036   5.357   0.907
 3025SOL    HW2 9975   3.971   5.256   0.797
 3026SOL     OW 9976   0.307   0.711   2.303
 3026SOL    HW1 9977   0.383   0.649   2.285
 3026SOL    HW2 9978   0.308   0.738   2.399
 3027SOL     OW 9979   3.943   6.775   0.372
 3027SOL    HW1 9980   3.911   6.701   0.312
 3027SOL    HW2 9981   3.939   6.862   0.323
 3028SOL     OW 9982   3.544   3.246   4.383
 3028SOL    HW1 9983   3.458   3.269   4.336
 3028SOL    HW2 9984   3.612   3.317   4.364
 3029SOL     OW 9985   0.183   2.943   5.013
 3029SOL    HW1 9986   0.280   2.921   4.999
 3029SOL    HW2 9987   0.133   2.927   4.928
 3030SOL     OW 9988   1.417   2.648   6.530
 3030SOL    HW1 9989   1.442   2.740   6.502
 3030SOL    HW2 9990   1.494   2.605   6.576
 3031SOL     OW 9991   0.348   5.671   0.390
 3031SOL    HW1 9992   0.354   5.575   0.363
 3031SOL    HW2 9993   0.348   5.729   0.308
 3032SOL     OW 9994   2.906   6.899   3.563
 3032SOL    HW1 9995   2.813   6.933   3.576
 3032SOL    HW2 9996   2.906   6.822   3.499
 3033SOL     OW 9997   1.517   1.329   6.269
 3033SOL    HW1 9998   1.547   1.246   6.316
 3033SOL    HW2 9999   1.571   1.407   6.302
 3034SOL     OW10000   5.299   3.381   3.634
 3034SOL    HW110001   5.384   3.431   3.616
 3034SOL    HW210002   5.249   3.371   3.548
 3035SOL     OW10003   6.899   3.679   0.037
 3035SOL    HW110004   6.991   3.716   0.029
 3035SOL    HW210005   6.894   3.617   0.115
 3036SOL     OW10006   3.470   2.575   5.739
 3036SOL    HW110007   3.401   2.568   5.667
 3036SOL    HW210008   3.426   2.607   5.823
 3037SOL     OW10009   0.984   4.784   6.745
 3037SOL    HW110010   1.022   4.733   6.822
 3037SOL    HW210011   0.889   4.756   6.729
 3038SOL     OW10012   6.397   4.795   5.485
 3038SOL    HW110013   6.455   4.854   5.541
 3038SOL    HW210014   6.425   4.803   5.389
 3039SOL     OW10015   5.690   3.651   5.985
 3039SOL    HW110016   5.593   3.637   6.002
 3039SOL    HW210017   5.719   3.737   6.027
 3040SOL     OW10018   3.917   5.993   5.972
 3040SOL    HW110019   4.007   6.031   5.953
 3040SOL    HW210020   3.925   5.917   6.036
 3041SOL     OW10021   1.691   5.340   6.531
 3041SOL    HW110022   1.615   5.401   6.554
 3041SOL    HW210023   1.692   5.324   6.433
 3042SOL     OW10024   0.175   4.668   4.381
 3042SOL    HW110025   0.149   4.583   4.334
 3042SOL    HW210026   0.098   4.731   4.381
 3043SOL     OW10027   3.120   4.498   1.655
 3043SOL    HW110028   3.049   4.525   1.720
 3043SOL    HW210029   3.192   4.567   1.655
 3044SOL     OW10030   4.105   3.467   4.773
 3044SOL    HW110031   4.103   3.513   4.861
 3044SOL    HW210032   4.163   3.519   4.709
 3045SOL     OW10033   5.368   1.502   2.374
 3045SOL    HW110034   5.364   1.592   2.330
 3045SOL    HW210035   5.399   1.512   2.469
 3046SOL     OW10036   5.798   5.626   1.617
 3046SOL    HW110037   5.744   5.600   1.537
 3046SOL    HW210038   5.895   5.619   1.596
 3047SOL     OW10039   6.004   1.742   4.254
 3047SOL    HW110040   5.997   1.832   4.211
 3047SOL    HW210041   5.913   1.701   4.260
 3048SOL     OW10042   4.208   4.995   1.610
 3048SOL    HW110043   4.298   5.026   1.580
 3048SOL    HW210044   4.141   5.014   1.538
 3049SOL     OW10045   0.639   2.118   2.369
 3049SOL    HW110046   0.613   2.041   2.426
 3049SOL    HW210047   0.558   2.153   2.321
 3050SOL     OW10048   3.446   2.308   6.806
 3050SOL    HW110049   3.494   2.333   6.722
 3050SOL    HW210050   3.407   2.390   6.848
 3051SOL     OW10051   2.257   5.039   6.063
 3051SOL    HW110052   2.236   4.963   6.001
 3051SOL    HW210053   2.302   5.112   6.012
 3052SOL     OW10054   6.488   6.213   3.610
 3052SOL    HW110055   6.456   6.279   3.678
 3052SOL    HW210056   6.426   6.134   3.609
 3053SOL     OW10057   0.622   4.238   0.054
 3053SOL    HW110058   0.600   4.252   6.978
 3053SOL    HW210059   0.551   4.183   0.096
 3054SOL     OW10060   5.471   0.061   3.200
 3054SOL    HW110061   5.453   0.082   3.104
 3054SOL    HW210062   5.476   6.983   3.212
 3055SOL     OW10063   4.720   6.408   0.349
 3055SOL    HW110064   4.782   6.485   0.362
 3055SOL    HW210065   4.627   6.443   0.334
 3056SOL     OW10066   4.620   1.774   0.475
 3056SOL    HW110067   4.705   1.722   0.470
 3056SOL    HW210068   4.587   1.794   0.383
 3057SOL     OW10069   6.043   3.960   3.506
 3057SOL    HW110070   5.975   3.896   3.471
 3057SOL    HW210071   6.114   3.910   3.555
 3058SOL     OW10072   0.494   5.010   6.182
 3058SOL    HW110073   0.419   5.005   6.247
 3058SOL    HW210074   0.549   4.926   6.188
 3059SOL     OW10075   1.283   2.098   2.261
 3059SOL    HW110076   1.368   2.140   2.229
 3059SOL    HW210077   1.278   2.105   2.361
 3060SOL     OW10078   5.691   3.847   3.193
 3060SOL    HW110079   5.632   3.836   3.272
 3060SOL    HW210080   5.646   3.809   3.112
 3061SOL     OW10081   5.624   6.458   3.154
 3061SOL    HW110082   5.551   6.486   3.092
 3061SOL    HW210083   5.608   6.497   3.244
 3062SOL     OW10084   4.078   5.049   1.167
 3062SOL    HW110085   3.989   5.083   1.198
 3062SOL    HW210086   4.148   5.117   1.188
 3063SOL     OW10087   6.847   4.589   0.897
 3063SOL    HW110088   6.785   4.517   0.865
 3063SOL    HW210089   6.813   4.678   0.866
 3064SOL     OW10090   4.923   1.813   6.242
 3064SOL    HW110091   4.945   1.911   6.247
 3064SOL    HW210092   4.877   1.785   6.326
 3065SOL     OW10093   5.484   1.513   6.249
 3065SOL    HW110094   5.445   1.426   6.279
 3065SOL    HW210095   5.472   1.522   6.150
 3066SOL     OW10096   5.090   0.008   5.889
 3066SOL    HW110097   5.074   0.063   5.971
 3066SOL    HW210098   5.088   0.066   5.808
 3067SOL     OW10099   1.324   1.758   4.892
 3067SOL    HW110100   1.307   1.773   4.795
 3067SOL    HW210101   1.387   1.828   4.926
 3068SOL     OW10102   5.806   0.408   0.865
 3068SOL    HW110103   5.833   0.497   0.902
 3068SOL    HW210104   5.874   0.340   0.892
 3069SOL     OW10105   5.698   6.246   4.222
 3069SOL    HW110106   5.699   6.168   4.159
 3069SOL    HW210107   5.747   6.223   4.306
 3070SOL     OW10108   2.594   1.381   1.353
 3070SOL    HW110109   2.497   1.402   1.365
 3070SOL    HW210110   2.647   1.465   1.352
 3071SOL     OW10111   5.713   4.362   5.211
 3071SOL    HW110112   5.697   4.400   5.120
 3071SOL    HW210113   5.655   4.282   5.225
 3072SOL     OW10114   1.630   6.844   5.710
 3072SOL    HW110115   1.640   6.893   5.623
 3072SOL    HW210116   1.707   6.783   5.724
 3073SOL     OW10117   6.984   5.618   2.378
 3073SOL    HW110118   0.016   5.635   2.295
 3073SOL    HW210119   6.889   5.644   2.363
 3074SOL     OW10120   3.380   2.775   1.866
 3074SOL    HW110121   3.456   2.724   1.826
 3074SOL    HW210122   3.405   2.803   1.959
 3075SOL     OW10123   3.977   5.049   1.903
 3075SOL    HW110124   4.023   5.137   1.906
 3075SOL    HW210125   3.880   5.061   1.925
 3076SOL     OW10126   1.852   1.296   3.761
 3076SOL    HW110127   1.830   1.294   3.859
 3076SOL    HW210128   1.801   1.369   3.717
 3077SOL     OW10129   0.298   3.509   1.892
 3077SOL    HW110130   0.227   3.459   1.941
 3077SOL    HW210131   0.357   3.556   1.957
 3078SOL     OW10132   6.918   3.590   1.969
 3078SOL    HW110133   6.876   3.678   1.947
 3078SOL    HW210134   6.933   3.585   2.068
 3079SOL     OW10135   1.385   4.229   4.110
 3079SOL    HW110136   1.291   4.222   4.145
 3079SOL    HW210137   1.384   4.216   4.010
 3080SOL     OW10138   3.903   4.790   1.702
 3080SOL    HW110139   3.932   4.843   1.622
 3080SOL    HW210140   3.817   4.743   1.681
 3081SOL     OW10141   2.364   2.968   6.008
 3081SOL    HW110142   2.285   2.974   5.946
 3081SOL    HW210143   2.446   2.945   5.954
 3082SOL     OW10144   5.412   3.962   5.008
 3082SOL    HW110145   5.502   3.922   5.026
 3082SOL    HW210146   5.358   3.961   5.092
 3083SOL     OW10147   4.064   5.735   1.370
 3083SOL    HW110148   4.122   5.680   1.431
 3083SOL    HW210149   3.983   5.766   1.419
 3084SOL     OW10150   7.013   4.917   4.080
 3084SOL    HW110151   0.021   5.002   4.038
 3084SOL    HW210152   0.034   4.840   4.033
 3085SOL     OW10153   6.202   5.875   7.004
 3085SOL    HW110154   6.166   5.917   6.921
 3085SOL    HW210155   6.188   5.937   0.060
 3086SOL     OW10156   6.070   6.467   6.111
 3086SOL    HW110157   6.078   6.425   6.020
 3086SOL    HW210158   5.988   6.524   6.113
 3087SOL     OW10159   3.163   0.123   2.384
 3087SOL    HW110160   3.162   0.077   2.295
 3087SOL    HW210161   3.195   0.217   2.372
 3088SOL     OW10162   2.462   3.744   5.295
 3088SOL    HW110163   2.435   3.836   5.267
 3088SOL    HW210164   2.503   3.747   5.386
 3089SOL     OW10165   4.194   6.039   6.222
 3089SOL    HW110166   4.154   6.110   6.164
 3089SOL    HW210167   4.246   6.081   6.296
 3090SOL     OW10168   0.762   2.760   1.871
 3090SOL    HW110169   0.665   2.749   1.893
 3090SOL    HW210170   0.778   2.732   1.776
 3091SOL     OW10171   1.107   2.182   0.143
 3091SOL    HW110172   1.091   2.281   0.137
 3091SOL    HW210173   1.194   2.165   0.190
 3092SOL     OW10174   6.057   1.486   2.135
 3092SOL    HW110175   6.123   1.561   2.128
 3092SOL    HW210176   6.060   1.447   2.226
 3093SOL     OW10177   5.936   5.254   6.609
 3093SOL    HW110178   5.851   5.307   6.611
 3093SOL    HW210179   5.915   5.157   6.615
 3094SOL     OW10180   2.242   1.521   6.344
 3094SOL    HW110181   2.152   1.500   6.305
 3094SOL    HW210182   2.231   1.554   6.437
 3095SOL     OW10183   1.611   4.009   4.717
 3095SOL    HW110184   1.524   4.032   4.674
 3095SOL    HW210185   1.655   4.093   4.750
 3096SOL     OW10186   1.880   3.230   4.637
 3096SOL    HW110187   1.809   3.237   4.707
 3096SOL    HW210188   1.850   3.277   4.554
 3097SOL     OW10189   5.298   3.369   5.323
 3097SOL    HW110190   5.212   3.326   5.295
 3097SOL    HW210191   5.300   3.377   5.422
 3098SOL     OW10192   1.510   3.303   2.174
 3098SOL    HW110193   1.507   3.259   2.084
 3098SOL    HW210194   1.487   3.237   2.245
 3099SOL     OW10195   0.783   6.628   5.305
 3099SOL    HW110196   0.835   6.544   5.290
 3099SOL    HW210197   0.811   6.697   5.238
 3100SOL     OW10198   5.673   4.622   2.002
 3100SOL    HW110199   5.610   4.551   2.034
 3100SOL    HW210200   5.764   4.604   2.040
 3101SOL     OW10201   5.190   0.329   4.852
 3101SOL    HW110202   5.281   0.321   4.891
 3101SOL    HW210203   5.192   0.304   4.755
 3102SOL     OW10204   5.843   5.060   1.976
 3102SOL    HW110205   5.781   5.067   2.054
 3102SOL    HW210206   5.876   5.151   1.951
 3103SOL     OW10207   1.817   2.059   1.955
 3103SOL    HW110208   1.776   2.148   1.935
 3103SOL    HW210209   1.897   2.045   1.896
 3104SOL     OW10210   5.724   2.549   5.238
 3104SOL    HW110211   5.669   2.592   5.167
 3104SOL    HW210212   5.696   2.584   5.328
 3105SOL     OW10213   5.442   4.168   0.515
 3105SOL    HW110214   5.354   4.193   0.555
 3105SOL    HW210215   5.443   4.071   0.494
 3106SOL     OW10216   5.342   2.122   5.482
 3106SOL    HW110217   5.398   2.123   5.564
 3106SOL    HW210218   5.271   2.052   5.491
 3107SOL     OW10219   3.853   2.069   4.923
 3107SOL    HW110220   3.811   2.125   4.994
 3107SOL    HW210221   3.952   2.079   4.926
 3108SOL     OW10222   1.856   4.198   3.460
 3108SOL    HW110223   1.950   4.164   3.460
 3108SOL    HW210224   1.855   4.292   3.495
 3109SOL     OW10225   6.965   6.058   3.227
 3109SOL    HW110226   6.913   6.024   3.306
 3109SOL    HW210227   6.961   5.990   3.154
 3110SOL     OW10228   1.156   5.142   3.791
 3110SOL    HW110229   1.102   5.088   3.726
 3110SOL    HW210230   1.113   5.231   3.803
 3111SOL     OW10231   6.539   3.942   3.752
 3111SOL    HW110232   6.581   4.030   3.774
 3111SOL    HW210233   6.522   3.936   3.654
 3112SOL     OW10234   3.773   1.059   0.334
 3112SOL    HW110235   3.700   1.127   0.344
 3112SOL    HW210236   3.840   1.069   0.408
 3113SOL     OW10237   1.648   0.090   3.185
 3113SOL    HW110238   1.733   0.043   3.162
 3113SOL    HW210239   1.607   0.049   3.266
 3114SOL     OW10240   4.532   6.529   6.066
 3114SOL    HW110241   4.570   6.520   5.973
 3114SOL    HW210242   4.537   6.624   6.096
 3115SOL     OW10243   4.660   5.225   4.509
 3115SOL    HW110244   4.622   5.240   4.418
 3115SOL    HW210245   4.639   5.304   4.567
 3116SOL     OW10246   1.010   1.797   5.962
 3116SOL    HW110247   1.076   1.863   5.925
 3116SOL    HW210248   0.922   1.809   5.916
 3117SOL     OW10249   3.795   6.810   1.212
 3117SOL    HW110250   3.838   6.896   1.239
 3117SOL    HW210251   3.710   6.798   1.264
 3118SOL     OW10252   1.034   1.950   3.624
 3118SOL    HW110253   1.067   1.895   3.701
 3118SOL    HW210254   1.084   1.926   3.541
 3119SOL     OW10255   4.939   5.632   4.242
 3119SOL    HW110256   5.013   5.612   4.178
 3119SOL    HW210257   4.965   5.709   4.300
 3120SOL     OW10258   2.503   5.803   0.048
 3120SOL    HW110259   2.583   5.748   0.025
 3120SOL    HW210260   2.484   5.867   6.994
 3121SOL     OW10261   4.264   2.336   3.950
 3121SOL    HW110262   4.233   2.279   4.025
 3121SOL    HW210263   4.350   2.299   3.913
 3122SOL     OW10264   5.389   4.953   6.062
 3122SOL    HW110265   5.422   5.047   6.057
 3122SOL    HW210266   5.434   4.906   6.139
 3123SOL     OW10267   1.718   2.168   2.953
 3123SOL    HW110268   1.650   2.149   3.024
 3123SOL    HW210269   1.686   2.242   2.894
 3124SOL     OW10270   5.127   6.832   5.513
 3124SOL    HW110271   5.167   6.907   5.461
 3124SOL    HW210272   5.143   6.848   5.611
 3125SOL     OW10273   1.329   1.271   5.569
 3125SOL    HW110274   1.391   1.219   5.510
 3125SOL    HW210275   1.339   1.240   5.663
 3126SOL     OW10276   5.007   4.776   5.748
 3126SOL    HW110277   5.083   4.770   5.813
 3126SOL    HW210278   4.927   4.814   5.794
 3127SOL     OW10279   6.578   1.540   5.336
 3127SOL    HW110280   6.602   1.493   5.251
 3127SOL    HW210281   6.623   1.629   5.339
 3128SOL     OW10282   3.611   0.271   0.752
 3128SOL    HW110283   3.625   0.310   0.661
 3128SOL    HW210284   3.518   0.290   0.783
 3129SOL     OW10285   4.201   4.321   0.107
 3129SOL    HW110286   4.261   4.304   0.029
 3129SOL    HW210287   4.257   4.337   0.189
 3130SOL     OW10288   0.671   6.062   1.970
 3130SOL    HW110289   0.746   5.996   1.967
 3130SOL    HW210290   0.640   6.082   1.877
 3131SOL     OW10291   6.837   3.645   2.856
 3131SOL    HW110292   6.893   3.607   2.930
 3131SOL    HW210293   6.764   3.582   2.833
 3132SOL     OW10294   5.133   4.068   6.814
 3132SOL    HW110295   5.217   4.023   6.782
 3132SOL    HW210296   5.116   4.042   6.909
 3133SOL     OW10297   5.477   6.917   3.776
 3133SOL    HW110298   5.446   6.856   3.848
 3133SOL    HW210299   5.556   6.875   3.730
 3134SOL     OW10300   5.659   4.829   2.543
 3134SOL    HW110301   5.725   4.761   2.511
 3134SOL    HW210302   5.605   4.862   2.465
 3135SOL     OW10303   3.556   6.423   6.794
 3135SOL    HW110304   3.603   6.473   6.867
 3135SOL    HW210305   3.506   6.487   6.737
 3136SOL     OW10306   6.603   0.465   2.907
 3136SOL    HW110307   6.702   0.455   2.894
 3136SOL    HW210308   6.585   0.498   3.000
 3137SOL     OW10309   4.167   5.693   0.154
 3137SOL    HW110310   4.114   5.653   0.230
 3137SOL    HW210311   4.242   5.632   0.130
 3138SOL     OW10312   6.570   6.600   5.063
 3138SOL    HW110313   6.647   6.587   5.125
 3138SOL    HW210314   6.557   6.698   5.045
 3139SOL     OW10315   1.888   5.221   1.690
 3139SOL    HW110316   1.790   5.232   1.708
 3139SOL    HW210317   1.940   5.260   1.766
 3140SOL     OW10318   5.940   6.158   0.039
 3140SOL    HW110319   5.872   6.131   0.108
 3140SOL    HW210320   5.928   6.101   6.979
 3141SOL     OW10321   5.845   1.641   6.634
 3141SOL    HW110322   5.781   1.636   6.711
 3141SOL    HW210323   5.801   1.607   6.551
 3142SOL     OW10324   4.703   0.974   3.913
 3142SOL    HW110325   4.757   0.894   3.885
 3142SOL    HW210326   4.713   0.987   4.012
 3143SOL     OW10327   6.757   1.169   1.031
 3143SOL    HW110328   6.830   1.114   1.072
 3143SOL    HW210329   6.713   1.225   1.101
 3144SOL     OW10330   3.697   4.817   6.867
 3144SOL    HW110331   3.780   4.813   6.811
 3144SOL    HW210332   3.721   4.806   6.963
 3145SOL     OW10333   0.510   5.513   0.195
 3145SOL    HW110334   0.529   5.609   0.218
 3145SOL    HW210335   0.537   5.495   0.101
 3146SOL     OW10336   6.661   2.428   4.959
 3146SOL    HW110337   6.565   2.451   4.946
 3146SOL    HW210338   6.675   2.330   4.943
 3147SOL     OW10339   4.326   0.001   6.968
 3147SOL    HW110340   4.269   0.062   6.913
 3147SOL    HW210341   4.268   6.951   7.008
 3148SOL     OW10342   6.775   4.585   1.152
 3148SOL    HW110343   6.789   4.670   1.203
 3148SOL    HW210344   6.820   4.592   1.063
 3149SOL     OW10345   3.653   3.143   0.196
 3149SOL    HW110346   3.600   3.216   0.238
 3149SOL    HW210347   3.686   3.173   0.106
 3150SOL     OW10348   0.170   0.143   5.742
 3150SOL    HW110349   0.202   0.087   5.818
 3150SOL    HW210350   0.199   0.103   5.656
 3151SOL     OW10351   0.067   0.811   5.724
 3151SOL    HW110352   0.074   0.897   5.774
 3151SOL    HW210353   0.113   0.819   5.635
 3152SOL     OW10354   1.947   2.472   5.761
 3152SOL    HW110355   2.039   2.438   5.782
 3152SOL    HW210356   1.895   2.481   5.846
 3153SOL     OW10357   5.334   5.673   2.069
 3153SOL    HW110358   5.425   5.708   2.091
 3153SOL    HW210359   5.328   5.576   2.094
 3154SOL     OW10360   3.537   1.995   0.759
 3154SOL    HW110361   3.470   1.991   0.833
 3154SOL    HW210362   3.627   1.970   0.794
 3155SOL     OW10363   0.887   4.832   0.007
 3155SOL    HW110364   0.850   4.863   0.094
 3155SOL    HW210365   0.813   4.796   6.972
 3156SOL     OW10366   4.167   4.511   0.942
 3156SOL    HW110367   4.253   4.540   0.899
 3156SOL    HW210368   4.096   4.578   0.923
 3157SOL     OW10369   1.278   0.852   4.655
 3157SOL    HW110370   1.343   0.779   4.678
 3157SOL    HW210371   1.324   0.941   4.663
 3158SOL     OW10372   2.772   0.477   6.049
 3158SOL    HW110373   2.808   0.569   6.029
 3158SOL    HW210374   2.816   0.410   5.990
 3159SOL     OW10375   5.090   6.891   1.381
 3159SOL    HW110376   4.990   6.883   1.376
 3159SOL    HW210377   5.114   6.968   1.441
 3160SOL     OW10378   2.285   0.910   5.472
 3160SOL    HW110379   2.192   0.887   5.445
 3160SOL    HW210380   2.294   0.904   5.572
 3161SOL     OW10381   1.635   2.812   2.240
 3161SOL    HW110382   1.556   2.870   2.262
 3161SOL    HW210383   1.604   2.717   2.232
 3162SOL     OW10384   1.190   5.713   1.536
 3162SOL    HW110385   1.127   5.691   1.461
 3162SOL    HW210386   1.246   5.792   1.510
 3163SOL     OW10387   4.765   4.410   0.608
 3163SOL    HW110388   4.833   4.479   0.631
 3163SOL    HW210389   4.807   4.340   0.550
 3164SOL     OW10390   2.552   0.002   4.374
 3164SOL    HW110391   2.463   7.021   4.327
 3164SOL    HW210392   2.604   6.941   4.351
 3165SOL     OW10393   0.602   6.458   5.984
 3165SOL    HW110394   0.658   6.380   5.955
 3165SOL    HW210395   0.613   6.471   6.083
 3166SOL     OW10396   4.724   1.309   4.461
 3166SOL    HW110397   4.627   1.308   4.437
 3166SOL    HW210398   4.737   1.361   4.545
 3167SOL     OW10399   5.514   2.808   1.406
 3167SOL    HW110400   5.578   2.849   1.470
 3167SOL    HW210401   5.449   2.751   1.456
 3168SOL     OW10402   5.023   1.058   0.378
 3168SOL    HW110403   4.944   1.072   0.436
 3168SOL    HW210404   5.077   1.142   0.374
 3169SOL     OW10405   1.052   4.075   2.331
 3169SOL    HW110406   1.077   3.984   2.298
 3169SOL    HW210407   1.095   4.144   2.274
 3170SOL     OW10408   1.914   3.960   3.697
 3170SOL    HW110409   1.883   4.054   3.706
 3170SOL    HW210410   1.836   3.900   3.684
 3171SOL     OW10411   5.298   1.516   4.305
 3171SOL    HW110412   5.342   1.484   4.389
 3171SOL    HW210413   5.218   1.459   4.285
 3172SOL     OW10414   5.868   4.407   1.111
 3172SOL    HW110415   5.832   4.470   1.043
 3172SOL    HW210416   5.793   4.363   1.159
 3173SOL     OW10417   5.108   2.393   0.464
 3173SOL    HW110418   5.041   2.438   0.406
 3173SOL    HW210419   5.107   2.294   0.447
 3174SOL     OW10420   3.830   2.443   6.643
 3174SOL    HW110421   3.896   2.442   6.568
 3174SOL    HW210422   3.810   2.538   6.669
 3175SOL     OW10423   5.691   6.999   5.384
 3175SOL    HW110424   5.632   6.943   5.441
 3175SOL    HW210425   5.764   6.942   5.345
 3176SOL     OW10426   0.115   4.695   3.930
 3176SOL    HW110427   0.125   4.602   3.895
 3176SOL    HW210428   0.204   4.731   3.955
 3177SOL     OW10429   5.238   3.237   3.840
 3177SOL    HW110430   5.143   3.235   3.872
 3177SOL    HW210431   5.245   3.298   3.760
 3178SOL     OW10432   0.582   0.599   2.765
 3178SOL    HW110433   0.485   0.586   2.785
 3178SOL    HW210434   0.630   0.511   2.771
 3179SOL     OW10435   0.574   2.881   2.505
 3179SOL    HW110436   0.506   2.951   2.529
 3179SOL    HW210437   0.649   2.924   2.453
 3180SOL     OW10438   6.667   6.431   6.497
 3180SOL    HW110439   6.582   6.378   6.488
 3180SOL    HW210440   6.732   6.402   6.428
 3181SOL     OW10441   0.377   5.918   5.261
 3181SOL    HW110442   0.400   5.885   5.170
 3181SOL    HW210443   0.278   5.919   5.272
 3182SOL     OW10444   1.987   6.822   1.439
 3182SOL    HW110445   1.957   6.913   1.412
 3182SOL    HW210446   1.970   6.758   1.364
 3183SOL     OW10447   3.965   3.505   1.050
 3183SOL    HW110448   3.946   3.408   1.066
 3183SOL    HW210449   4.016   3.542   1.128
 3184SOL     OW10450   6.488   1.592   4.325
 3184SOL    HW110451   6.394   1.620   4.345
 3184SOL    HW210452   6.511   1.512   4.379
 3185SOL     OW10453   0.720   6.636   6.561
 3185SOL    HW110454   0.805   6.637   6.614
 3185SOL    HW210455   0.665   6.716   6.586
 3186SOL     OW10456   0.132   2.880   6.447
 3186SOL    HW110457   0.083   2.951   6.497
 3186SOL    HW210458   0.170   2.814   6.512
 3187SOL     OW10459   5.166   6.777   2.512
 3187SOL    HW110460   5.170   6.766   2.611
 3187SOL    HW210461   5.259   6.774   2.474
 3188SOL     OW10462   1.496   6.535   0.762
 3188SOL    HW110463   1.480   6.593   0.842
 3188SOL    HW210464   1.442   6.570   0.685
 3189SOL     OW10465   2.733   1.825   6.227
 3189SOL    HW110466   2.800   1.890   6.190
 3189SOL    HW210467   2.767   1.732   6.216
 3190SOL     OW10468   6.341   5.993   3.722
 3190SOL    HW110469   6.363   6.009   3.818
 3190SOL    HW210470   6.250   6.029   3.702
 3191SOL     OW10471   3.634   5.540   1.416
 3191SOL    HW110472   3.540   5.539   1.447
 3191SOL    HW210473   3.639   5.584   1.326
 3192SOL     OW10474   5.335   1.063   2.497
 3192SOL    HW110475   5.259   0.999   2.487
 3192SOL    HW210476   5.343   1.091   2.592
 3193SOL     OW10477   3.560   5.513   5.103
 3193SOL    HW110478   3.525   5.502   5.009
 3193SOL    HW210479   3.608   5.430   5.130
 3194SOL     OW10480   1.608   6.850   6.193
 3194SOL    HW110481   1.600   6.923   6.260
 3194SOL    HW210482   1.613   6.889   6.101
 3195SOL     OW10483   1.075   0.272   0.962
 3195SOL    HW110484   1.089   0.317   1.050
 3195SOL    HW210485   0.995   0.212   0.966
 3196SOL     OW10486   5.933   0.080   2.488
 3196SOL    HW110487   5.956   0.094   2.391
 3196SOL    HW210488   5.937   0.168   2.535
 3197SOL     OW10489   2.728   0.777   6.519
 3197SOL    HW110490   2.793   0.779   6.595
 3197SOL    HW210491   2.774   0.810   6.436
 3198SOL     OW10492   5.797   2.649   3.729
 3198SOL    HW110493   5.772   2.676   3.822
 3198SOL    HW210494   5.836   2.557   3.730
 3199SOL     OW10495   5.004   3.944   3.059
 3199SOL    HW110496   5.066   3.905   3.126
 3199SOL    HW210497   4.927   3.883   3.044
 3200SOL     OW10498   5.362   3.107   4.609
 3200SOL    HW110499   5.289   3.040   4.624
 3200SOL    HW210500   5.395   3.140   4.698
 3201SOL     OW10501   6.407   4.192   2.055
 3201SOL    HW110502   6.317   4.162   2.024
 3201SOL    HW210503   6.446   4.253   1.986
 3202SOL     OW10504   2.675   3.084   6.202
 3202SOL    HW110505   2.581   3.118   6.197
 3202SOL    HW210506   2.678   3.000   6.256
 3203SOL     OW10507   3.087   6.719   2.068
 3203SOL    HW110508   3.101   6.721   1.969
 3203SOL    HW210509   3.176   6.722   2.114
 3204SOL     OW10510   4.105   0.817   4.114
 3204SOL    HW110511   4.155   0.810   4.027
 3204SOL    HW210512   4.099   0.913   4.142
 3205SOL     OW10513   4.899   3.319   5.815
 3205SOL    HW110514   4.994   3.304   5.842
 3205SOL    HW210515   4.850   3.232   5.814
 3206SOL     OW10516   2.492   4.221   1.152
 3206SOL    HW110517   2.568   4.250   1.209
 3206SOL    HW210518   2.482   4.283   1.075
 3207SOL     OW10519   2.282   5.486   4.295
 3207SOL    HW110520   2.336   5.507   4.213
 3207SOL    HW210521   2.337   5.433   4.359
 3208SOL     OW10522   6.654   4.783   6.289
 3208SOL    HW110523   6.719   4.724   6.336
 3208SOL    HW210524   6.590   4.727   6.237
 3209SOL     OW10525   5.218   6.569   6.210
 3209SOL    HW110526   5.232   6.668   6.207
 3209SOL    HW210527   5.121   6.549   6.197
 3210SOL     OW10528   4.993   5.871   1.650
 3210SOL    HW110529   5.042   5.786   1.670
 3210SOL    HW210530   4.898   5.850   1.628
 3211SOL     OW10531   2.096   6.222   6.630
 3211SOL    HW110532   2.092   6.122   6.625
 3211SOL    HW210533   2.070   6.261   6.542
 3212SOL     OW10534   2.914   6.618   3.480
 3212SOL    HW110535   2.951   6.559   3.552
 3212SOL    HW210536   2.874   6.561   3.408
 3213SOL     OW10537   1.576   6.957   5.941
 3213SOL    HW110538   1.491   7.011   5.942
 3213SOL    HW210539   1.595   6.929   5.847
 3214SOL     OW10540   4.113   0.628   2.524
 3214SOL    HW110541   4.096   0.691   2.449
 3214SOL    HW210542   4.211   0.629   2.547
 3215SOL     OW10543   2.161   3.050   1.847
 3215SOL    HW110544   2.160   3.115   1.923
 3215SOL    HW210545   2.146   2.957   1.883
 3216SOL     OW10546   5.977   5.494   0.897
 3216SOL    HW110547   5.964   5.400   0.927
 3216SOL    HW210548   6.066   5.527   0.929
 3217SOL     OW10549   7.001   5.069   3.445
 3217SOL    HW110550   6.912   5.027   3.461
 3217SOL    HW210551   0.046   5.035   3.512
 3218SOL     OW10552   5.587   1.530   2.920
 3218SOL    HW110553   5.491   1.550   2.938
 3218SOL    HW210554   5.595   1.483   2.831
 3219SOL     OW10555   5.636   1.806   4.922
 3219SOL    HW110556   5.643   1.777   5.018
 3219SOL    HW210557   5.578   1.887   4.916
 3220SOL     OW10558   0.229   3.783   5.771
 3220SOL    HW110559   0.250   3.717   5.844
 3220SOL    HW210560   0.313   3.807   5.723
 3221SOL     OW10561   3.562   1.547   1.954
 3221SOL    HW110562   3.623   1.618   1.990
 3221SOL    HW210563   3.598   1.457   1.979
 3222SOL     OW10564   3.473   1.262   3.288
 3222SOL    HW110565   3.451   1.304   3.200
 3222SOL    HW210566   3.549   1.199   3.277
 3223SOL     OW10567   1.577   4.996   0.592
 3223SOL    HW110568   1.518   4.962   0.665
 3223SOL    HW210569   1.558   4.945   0.508
 3224SOL     OW10570   4.785   2.137   4.288
 3224SOL    HW110571   4.723   2.059   4.277
 3224SOL    HW210572   4.798   2.181   4.199
 3225SOL     OW10573   4.813   1.108   4.687
 3225SOL    HW110574   4.721   1.141   4.665
 3225SOL    HW210575   4.880   1.172   4.650
 3226SOL     OW10576   6.033   1.097   0.749
 3226SOL    HW110577   6.096   1.100   0.826
 3226SOL    HW210578   5.951   1.151   0.771
 3227SOL     OW10579   5.584   4.263   5.661
 3227SOL    HW110580   5.524   4.228   5.588
 3227SOL    HW210581   5.616   4.354   5.637
 3228SOL     OW10582   2.272   4.552   0.450
 3228SOL    HW110583   2.217   4.579   0.370
 3228SOL    HW210584   2.349   4.616   0.461
 3229SOL     OW10585   1.724   2.086   0.424
 3229SOL    HW110586   1.821   2.108   0.434
 3229SOL    HW210587   1.683   2.074   0.515
 3230SOL     OW10588   3.531   6.054   5.253
 3230SOL    HW110589   3.621   6.018   5.229
 3230SOL    HW210590   3.510   6.030   5.348
 3231SOL     OW10591   1.996   2.643   2.747
 3231SOL    HW110592   2.055   2.699   2.806
 3231SOL    HW210593   1.973   2.695   2.665
 3232SOL     OW10594   3.440   4.889   3.704
 3232SOL    HW110595   3.341   4.876   3.711
 3232SOL    HW210596   3.478   4.825   3.637
 3233SOL     OW10597   1.976   6.929   0.061
 3233SOL    HW110598   1.924   6.917   0.145
 3233SOL    HW210599   1.949   7.015   0.017
 3234SOL     OW10600   3.065   3.390   1.006
 3234SOL    HW110601   3.066   3.378   0.906
 3234SOL    HW210602   3.030   3.481   1.028
 3235SOL     OW10603   0.386   1.097   3.067
 3235SOL    HW110604   0.401   1.021   3.004
 3235SOL    HW210605   0.440   1.083   3.150
 3236SOL     OW10606   4.485   0.461   0.803
 3236SOL    HW110607   4.525   0.423   0.720
 3236SOL    HW210608   4.482   0.391   0.874
 3237SOL     OW10609   6.039   1.336   5.386
 3237SOL    HW110610   5.947   1.318   5.420
 3237SOL    HW210611   6.088   1.395   5.451
 3238SOL     OW10612   6.217   4.672   1.779
 3238SOL    HW110613   6.121   4.650   1.794
 3238SOL    HW210614   6.272   4.630   1.852
 3239SOL     OW10615   6.629   0.225   4.796
 3239SOL    HW110616   6.651   0.322   4.783
 3239SOL    HW210617   6.704   0.181   4.846
 3240SOL     OW10618   0.129   1.027   0.133
 3240SOL    HW110619   0.203   0.959   0.123
 3240SOL    HW210620   0.164   1.108   0.180
 3241SOL     OW10621   6.497   3.473   5.228
 3241SOL    HW110622   6.575   3.410   5.217
 3241SOL    HW210623   6.511   3.528   5.311
 3242SOL     OW10624   6.876   3.961   4.752
 3242SOL    HW110625   6.891   3.995   4.845
 3242SOL    HW210626   6.858   3.863   4.756
 3243SOL     OW10627   6.181   4.679   3.953
 3243SOL    HW110628   6.217   4.772   3.947
 3243SOL    HW210629   6.081   4.682   3.955
 3244SOL     OW10630   4.675   6.769   0.433
 3244SOL    HW110631   4.760   6.723   0.406
 3244SOL    HW210632   4.682   6.866   0.411
 3245SOL     OW10633   3.520   6.926   4.451
 3245SOL    HW110634   3.523   6.972   4.540
 3245SOL    HW210635   3.494   6.831   4.464
 3246SOL     OW10636   6.623   6.687   2.950
 3246SOL    HW110637   6.537   6.719   2.912
 3246SOL    HW210638   6.699   6.719   2.892
 3247SOL     OW10639   1.588   4.254   3.549
 3247SOL    HW110640   1.614   4.311   3.627
 3247SOL    HW210641   1.646   4.172   3.547
 3248SOL     OW10642   5.480   2.358   3.135
 3248SOL    HW110643   5.526   2.441   3.167
 3248SOL    HW210644   5.403   2.338   3.195
 3249SOL     OW10645   3.029   3.127   3.272
 3249SOL    HW110646   2.997   3.129   3.177
 3249SOL    HW210647   2.989   3.204   3.322
 3250SOL     OW10648   4.222   5.769   2.670
 3250SOL    HW110649   4.300   5.749   2.729
 3250SOL    HW210650   4.163   5.688   2.665
 3251SOL     OW10651   2.885   2.107   2.839
 3251SOL    HW110652   2.856   2.149   2.753
 3251SOL    HW210653   2.860   2.166   2.916
 3252SOL     OW10654   2.425   1.868   3.168
 3252SOL    HW110655   2.485   1.868   3.248
 3252SOL    HW210656   2.356   1.796   3.179
 3253SOL     OW10657   6.785   3.231   6.949
 3253SOL    HW110658   6.876   3.272   6.935
 3253SOL    HW210659   6.747   3.265   0.014
 3254SOL     OW10660   6.381   6.793   1.550
 3254SOL    HW110661   6.408   6.701   1.577
 3254SOL    HW210662   6.453   6.858   1.573
 3255SOL     OW10663   3.763   5.753   1.996
 3255SOL    HW110664   3.793   5.752   2.091
 3255SOL    HW210665   3.724   5.664   1.972
 3256SOL     OW10666   5.171   2.407   1.173
 3256SOL    HW110667   5.158   2.477   1.243
 3256SOL    HW210668   5.171   2.317   1.216
 3257SOL     OW10669   3.052   1.481   2.949
 3257SOL    HW110670   3.003   1.567   2.965
 3257SOL    HW210671   3.150   1.495   2.961
 3258SOL     OW10672   1.867   5.378   4.286
 3258SOL    HW110673   1.878   5.422   4.197
 3258SOL    HW210674   1.771   5.385   4.315
 3259SOL     OW10675   5.566   4.082   4.245
 3259SOL    HW110676   5.643   4.089   4.181
 3259SOL    HW210677   5.572   3.995   4.294
 3260SOL     OW10678   1.447   4.913   3.305
 3260SOL    HW110679   1.426   4.983   3.373
 3260SOL    HW210680   1.544   4.888   3.312
 3261SOL     OW10681   5.705   0.401   4.215
 3261SOL    HW110682   5.718   0.327   4.281
 3261SOL    HW210683   5.664   0.364   4.132
 3262SOL     OW10684   3.250   1.370   3.695
 3262SOL    HW110685   3.196   1.307   3.751
 3262SOL    HW210686   3.291   1.440   3.753
 3263SOL     OW10687   0.156   0.787   1.677
 3263SOL    HW110688   0.169   0.875   1.722
 3263SOL    HW210689   0.106   0.725   1.739
 3264SOL     OW10690   1.519   4.631   6.735
 3264SOL    HW110691   1.523   4.717   6.684
 3264SOL    HW210692   1.607   4.583   6.727
 3265SOL     OW10693   0.217   5.145   6.635
 3265SOL    HW110694   0.161   5.228   6.631
 3265SOL    HW210695   0.292   5.157   6.700
 3266SOL     OW10696   4.037   4.933   6.093
 3266SOL    HW110697   4.123   4.895   6.060
 3266SOL    HW210698   4.055   5.000   6.165
 3267SOL     OW10699   3.387   6.463   0.691
 3267SOL    HW110700   3.391   6.488   0.594
 3267SOL    HW210701   3.311   6.509   0.735
 3268SOL     OW10702   5.768   5.307   2.164
 3268SOL    HW110703   5.823   5.306   2.080
 3268SOL    HW210704   5.778   5.220   2.211
 3269SOL     OW10705   1.550   5.039   2.159
 3269SOL    HW110706   1.628   4.980   2.135
 3269SOL    HW210707   1.568   5.132   2.129
 3270SOL     OW10708   1.388   2.813   5.306
 3270SOL    HW110709   1.289   2.827   5.310
 3270SOL    HW210710   1.424   2.854   5.222
 3271SOL     OW10711   0.976   3.890   1.455
 3271SOL    HW110712   1.032   3.882   1.373
 3271SOL    HW210713   0.972   3.803   1.503
 3272SOL     OW10714   4.569   6.032   0.868
 3272SOL    HW110715   4.617   6.115   0.838
 3272SOL    HW210716   4.533   5.984   0.788
 3273SOL     OW10717   3.680   4.181   6.569
 3273SOL    HW110718   3.582   4.189   6.590
 3273SOL    HW210719   3.711   4.087   6.589
 3274SOL     OW10720   5.110   0.062   2.273
 3274SOL    HW110721   5.056   0.143   2.252
 3274SOL    HW210722   5.058   0.003   2.336
 3275SOL     OW10723   4.932   0.855   1.486
 3275SOL    HW110724   4.870   0.851   1.408
 3275SOL    HW210725   4.908   0.783   1.551
 3276SOL     OW10726   5.918   6.024   6.793
 3276SOL    HW110727   5.901   5.930   6.761
 3276SOL    HW210728   5.956   6.078   6.718
 3277SOL     OW10729   3.245   2.121   2.484
 3277SOL    HW110730   3.262   2.098   2.389
 3277SOL    HW210731   3.147   2.137   2.498
 3278SOL     OW10732   5.208   1.112   6.568
 3278SOL    HW110733   5.199   1.178   6.642
 3278SOL    HW210734   5.249   1.028   6.603
 3279SOL     OW10735   3.821   6.879   1.850
 3279SOL    HW110736   3.905   6.849   1.893
 3279SOL    HW210737   3.762   6.800   1.834
 3280SOL     OW10738   0.006   3.225   3.977
 3280SOL    HW110739   0.049   3.220   4.066
 3280SOL    HW210740   7.017   3.320   3.949
 3281SOL     OW10741   6.251   2.047   1.552
 3281SOL    HW110742   6.304   2.094   1.622
 3281SOL    HW210743   6.199   1.972   1.594
 3282SOL     OW10744   0.143   4.873   5.031
 3282SOL    HW110745   0.064   4.881   4.970
 3282SOL    HW210746   0.223   4.914   4.987
 3283SOL     OW10747   2.980   1.813   6.932
 3283SOL    HW110748   2.923   1.770   6.862
 3283SOL    HW210749   3.002   1.907   6.903
 3284SOL     OW10750   2.111   6.717   4.782
 3284SOL    HW110751   2.174   6.792   4.762
 3284SOL    HW210752   2.152   6.630   4.754
 3285SOL     OW10753   4.052   2.261   4.440
 3285SOL    HW110754   3.957   2.289   4.457
 3285SOL    HW210755   4.091   2.223   4.524
 3286SOL     OW10756   1.775   2.954   2.738
 3286SOL    HW110757   1.837   2.880   2.715
 3286SOL    HW210758   1.792   2.985   2.832
 3287SOL     OW10759   2.667   0.574   0.913
 3287SOL    HW110760   2.694   0.646   0.849
 3287SOL    HW210761   2.650   0.614   1.003
 3288SOL     OW10762   2.576   5.623   2.011
 3288SOL    HW110763   2.615   5.583   1.927
 3288SOL    HW210764   2.500   5.683   1.986
 3289SOL     OW10765   3.938   0.656   6.932
 3289SOL    HW110766   3.994   0.661   7.015
 3289SOL    HW210767   3.868   0.727   6.935
 3290SOL     OW10768   0.395   5.897   0.229
 3290SOL    HW110769   0.490   5.868   0.242
 3290SOL    HW210770   0.391   5.997   0.222
 3291SOL     OW10771   5.028   6.707   4.667
 3291SOL    HW110772   5.095   6.635   4.687
 3291SOL    HW210773   4.976   6.682   4.585
 3292SOL     OW10774   0.269   2.229   0.244
 3292SOL    HW110775   0.240   2.198   0.335
 3292SOL    HW210776   0.202   2.199   0.176
 3293SOL     OW10777   6.759   4.985   3.153
 3293SOL    HW110778   6.849   4.944   3.170
 3293SOL    HW210779   6.708   4.990   3.238
 3294SOL     OW10780   4.698   2.908   5.579
 3294SOL    HW110781   4.730   3.003   5.576
 3294SOL    HW210782   4.635   2.891   5.504
 3295SOL     OW10783   1.391   2.464   2.936
 3295SOL    HW110784   1.431   2.551   2.905
 3295SOL    HW210785   1.331   2.428   2.864
 3296SOL     OW10786   2.365   0.724   6.264
 3296SOL    HW110787   2.393   0.688   6.353
 3296SOL    HW210788   2.419   0.805   6.242
 3297SOL     OW10789   4.101   1.452   5.139
 3297SOL    HW110790   4.052   1.493   5.063
 3297SOL    HW210791   4.199   1.451   5.119
 3298SOL     OW10792   3.388   4.032   5.829
 3298SOL    HW110793   3.321   3.963   5.804
 3298SOL    HW210794   3.463   4.032   5.762
 3299SOL     OW10795   2.612   6.032   3.884
 3299SOL    HW110796   2.705   6.035   3.920
 3299SOL    HW210797   2.607   6.086   3.800
 3300SOL     OW10798   2.046   0.697   4.184
 3300SOL    HW110799   2.145   0.686   4.193
 3300SOL    HW210800   2.003   0.685   4.274
 3301SOL     OW10801   0.977   1.058   3.502
 3301SOL    HW110802   0.991   0.984   3.568
 3301SOL    HW210803   0.891   1.045   3.454
 3302SOL     OW10804   1.276   5.447   5.248
 3302SOL    HW110805   1.340   5.376   5.217
 3302SOL    HW210806   1.182   5.419   5.227
 3303SOL     OW10807   3.672   3.497   6.542
 3303SOL    HW110808   3.749   3.560   6.554
 3303SOL    HW210809   3.639   3.503   6.448
 3304SOL     OW10810   2.025   3.927   0.007
 3304SOL    HW110811   1.963   4.004   0.021
 3304SOL    HW210812   2.119   3.957   0.025
 3305SOL     OW10813   3.171   2.594   0.205
 3305SOL    HW110814   3.083   2.641   0.211
 3305SOL    HW210815   3.158   2.507   0.157
 3306SOL     OW10816   2.381   0.470   6.980
 3306SOL    HW110817   2.407   0.421   0.042
 3306SOL    HW210818   2.456   0.530   6.953
 3307SOL     OW10819   2.012   5.962   4.645
 3307SOL    HW110820   2.103   5.990   4.677
 3307SOL    HW210821   2.022   5.910   4.560
 3308SOL     OW10822   4.421   4.621   1.249
 3308SOL    HW110823   4.348   4.676   1.289
 3308SOL    HW210824   4.480   4.679   1.193
 3309SOL     OW10825   5.154   3.734   3.222
 3309SOL    HW110826   5.226   3.685   3.173
 3309SOL    HW210827   5.155   3.706   3.318
 3310SOL     OW10828   6.450   4.636   6.205
 3310SOL    HW110829   6.416   4.645   6.111
 3310SOL    HW210830   6.400   4.563   6.252
 3311SOL     OW10831   2.300   3.493   0.597
 3311SOL    HW110832   2.238   3.569   0.619
 3311SOL    HW210833   2.263   3.441   0.521
 3312SOL     OW10834   4.778   2.793   6.426
 3312SOL    HW110835   4.793   2.822   6.332
 3312SOL    HW210836   4.698   2.733   6.430
 3313SOL     OW10837   6.995   0.273   4.189
 3313SOL    HW110838   6.986   0.176   4.167
 3313SOL    HW210839   6.992   0.284   4.289
 3314SOL     OW10840   3.568   5.820   1.781
 3314SOL    HW110841   3.639   5.811   1.851
 3314SOL    HW210842   3.576   5.745   1.715
 3315SOL     OW10843   0.937   5.369   3.862
 3315SOL    HW110844   0.857   5.312   3.881
 3315SOL    HW210845   0.907   5.459   3.832
 3316SOL     OW10846   3.924   2.676   0.135
 3316SOL    HW110847   3.858   2.750   0.148
 3316SOL    HW210848   4.014   2.706   0.167
 3317SOL     OW10849   5.087   2.641   1.798
 3317SOL    HW110850   5.014   2.659   1.864
 3317SOL    HW210851   5.154   2.716   1.801
 3318SOL     OW10852   3.703   2.998   0.510
 3318SOL    HW110853   3.736   2.967   0.600
 3318SOL    HW210854   3.628   2.938   0.481
 3319SOL     OW10855   6.681   5.879   4.166
 3319SOL    HW110856   6.680   5.968   4.211
 3319SOL    HW210857   6.699   5.890   4.069
 3320SOL     OW10858   6.318   6.799   2.064
 3320SOL    HW110859   6.417   6.800   2.049
 3320SOL    HW210860   6.279   6.719   2.020
 3321SOL     OW10861   4.910   1.889   6.889
 3321SOL    HW110862   4.977   1.932   6.949
 3321SOL    HW210863   4.958   1.827   6.826
 3322SOL     OW10864   6.161   2.998   0.571
 3322SOL    HW110865   6.245   2.945   0.562
 3322SOL    HW210866   6.099   2.953   0.635
 3323SOL     OW10867   1.617   1.546   1.152
 3323SOL    HW110868   1.559   1.466   1.142
 3323SOL    HW210869   1.656   1.570   1.064
 3324SOL     OW10870   5.238   5.403   5.473
 3324SOL    HW110871   5.146   5.424   5.442
 3324SOL    HW210872   5.291   5.488   5.480
 3325SOL     OW10873   2.830   4.973   5.033
 3325SOL    HW110874   2.846   4.890   4.979
 3325SOL    HW210875   2.816   4.948   5.129
 3326SOL     OW10876   3.667   2.105   2.303
 3326SOL    HW110877   3.662   2.131   2.207
 3326SOL    HW210878   3.585   2.055   2.329
 3327SOL     OW10879   0.796   5.403   6.369
 3327SOL    HW110880   0.878   5.440   6.326
 3327SOL    HW210881   0.720   5.466   6.355
 3328SOL     OW10882   4.831   2.418   5.198
 3328SOL    HW110883   4.763   2.393   5.129
 3328SOL    HW210884   4.912   2.457   5.154
 3329SOL     OW10885   6.570   6.133   5.465
 3329SOL    HW110886   6.663   6.107   5.437
 3329SOL    HW210887   6.564   6.131   5.565
 3330SOL     OW10888   6.531   3.668   3.187
 3330SOL    HW110889   6.613   3.719   3.160
 3330SOL    HW210890   6.543   3.633   3.280
 3331SOL     OW10891   1.798   3.431   0.497
 3331SOL    HW110892   1.841   3.369   0.561
 3331SOL    HW210893   1.806   3.525   0.531
 3332SOL     OW10894   7.017   4.189   1.581
 3332SOL    HW110895   6.924   4.164   1.553
 3332SOL    HW210896   7.015   4.220   1.676
 3333SOL     OW10897   2.912   5.477   6.216
 3333SOL    HW110898   2.980   5.427   6.163
 3333SOL    HW210899   2.821   5.442   6.195
 3334SOL     OW10900   1.683   3.603   1.907
 3334SOL    HW110901   1.664   3.685   1.854
 3334SOL    HW210902   1.776   3.571   1.888
 3335SOL     OW10903   5.909   3.964   4.435
 3335SOL    HW110904   5.967   3.952   4.354
 3335SOL    HW210905   5.955   4.024   4.501
 3336SOL     OW10906   3.377   5.680   5.967
 3336SOL    HW110907   3.461   5.691   6.020
 3336SOL    HW210908   3.372   5.586   5.933
 3337SOL     OW10909   3.239   1.793   0.689
 3337SOL    HW110910   3.187   1.873   0.718
 3337SOL    HW210911   3.289   1.756   0.767
 3338SOL     OW10912   6.923   4.922   0.458
 3338SOL    HW110913   6.969   4.895   0.543
 3338SOL    HW210914   6.973   4.997   0.416
 3339SOL     OW10915   0.977   5.926   6.489
 3339SOL    HW110916   1.036   5.848   6.471
 3339SOL    HW210917   0.938   5.959   6.403
 3340SOL     OW10918   3.798   0.120   1.795
 3340SOL    HW110919   3.805   0.022   1.816
 3340SOL    HW210920   3.889   0.160   1.792
 3341SOL     OW10921   0.122   0.000   1.464
 3341SOL    HW110922   0.213   0.026   1.496
 3341SOL    HW210923   0.130   6.966   1.381
 3342SOL     OW10924   2.765   0.561   5.206
 3342SOL    HW110925   2.845   0.514   5.171
 3342SOL    HW210926   2.774   0.574   5.305
 3343SOL     OW10927   6.981   2.320   1.074
 3343SOL    HW110928   0.041   2.350   1.024
 3343SOL    HW210929   6.944   2.396   1.127
 3344SOL     OW10930   6.995   2.613   6.077
 3344SOL    HW110931   6.952   2.524   6.091
 3344SOL    HW210932   7.018   2.653   6.165
 3345SOL     OW10933   2.143   3.481   5.485
 3345SOL    HW110934   2.140   3.382   5.498
 3345SOL    HW210935   2.111   3.527   5.567
 3346SOL     OW10936   1.846   5.854   2.414
 3346SOL    HW110937   1.813   5.948   2.410
 3346SOL    HW210938   1.895   5.832   2.329
 3347SOL     OW10939   6.015   4.265   4.142
 3347SOL    HW110940   6.033   4.168   4.157
 3347SOL    HW210941   6.019   4.285   4.044
 3348SOL     OW10942   3.658   3.731   3.015
 3348SOL    HW110943   3.713   3.723   2.932
 3348SOL    HW210944   3.662   3.826   3.048
 3349SOL     OW10945   6.146   3.701   6.124
 3349SOL    HW110946   6.220   3.730   6.064
 3349SOL    HW210947   6.173   3.716   6.219
 3350SOL     OW10948   1.678   2.265   0.867
 3350SOL    HW110949   1.650   2.200   0.938
 3350SOL    HW210950   1.727   2.342   0.910
 3351SOL     OW10951   5.001   2.144   0.327
 3351SOL    HW110952   4.910   2.184   0.321
 3351SOL    HW210953   5.054   2.168   0.245
 3352SOL     OW10954   0.781   3.460   0.429
 3352SOL    HW110955   0.710   3.497   0.369
 3352SOL    HW210956   0.767   3.362   0.439
 3353SOL     OW10957   1.881   6.582   6.308
 3353SOL    HW110958   1.807   6.590   6.241
 3353SOL    HW210959   1.855   6.628   6.392
 3354SOL     OW10960   1.135   0.893   1.951
 3354SOL    HW110961   1.093   0.955   1.885
 3354SOL    HW210962   1.140   0.801   1.911
 3355SOL     OW10963   6.515   1.162   2.970
 3355SOL    HW110964   6.435   1.123   2.923
 3355SOL    HW210965   6.498   1.164   3.068
 3356SOL     OW10966   1.961   3.214   5.343
 3356SOL    HW110967   2.006   3.221   5.432
 3356SOL    HW210968   2.029   3.223   5.270
 3357SOL     OW10969   2.194   5.534   2.266
 3357SOL    HW110970   2.226   5.461   2.326
 3357SOL    HW210971   2.218   5.514   2.171
 3358SOL     OW10972   0.036   4.215   3.603
 3358SOL    HW110973   6.998   4.290   3.633
 3358SOL    HW210974   0.053   4.154   3.680
 3359SOL     OW10975   1.200   1.272   1.984
 3359SOL    HW110976   1.227   1.257   2.079
 3359SOL    HW210977   1.143   1.354   1.979
 3360SOL     OW10978   2.175   0.537   6.135
 3360SOL    HW110979   2.241   0.604   6.169
 3360SOL    HW210980   2.146   0.478   6.210
 3361SOL     OW10981   3.972   0.705   3.165
 3361SOL    HW110982   3.985   0.798   3.200
 3361SOL    HW210983   4.009   0.700   3.072
 3362SOL     OW10984   2.556   1.672   5.058
 3362SOL    HW110985   2.468   1.717   5.042
 3362SOL    HW210986   2.560   1.587   5.005
 3363SOL     OW10987   0.181   0.871   6.063
 3363SOL    HW110988   0.248   0.941   6.036
 3363SOL    HW210989   0.115   0.858   5.989
 3364SOL     OW10990   1.969   4.940   6.392
 3364SOL    HW110991   1.871   4.922   6.399
 3364SOL    HW210992   2.020   4.857   6.413
 3365SOL     OW10993   5.735   1.739   5.715
 3365SOL    HW110994   5.812   1.778   5.665
 3365SOL    HW210995   5.685   1.677   5.654
 3366SOL     OW10996   5.074   0.748   6.527
 3366SOL    HW110997   5.078   0.745   6.427
 3366SOL    HW210998   5.116   0.832   6.560
 3367SOL     OW10999   2.015   0.432   1.910
 3367SOL    HW111000   1.956   0.505   1.943
 3367SOL    HW211001   2.110   0.465   1.908
 3368SOL     OW11002   6.700   1.020   6.110
 3368SOL    HW111003   6.766   1.076   6.059
 3368SOL    HW211004   6.637   1.079   6.159
 3369SOL     OW11005   3.660   6.240   5.896
 3369SOL    HW111006   3.664   6.202   5.804
 3369SOL    HW211007   3.645   6.166   5.962
 3370SOL     OW11008   5.416   0.180   5.215
 3370SOL    HW111009   5.484   0.208   5.283
 3370SOL    HW211010   5.336   0.239   5.221
 3371SOL     OW11011   6.612   4.773   1.582
 3371SOL    HW111012   6.591   4.676   1.568
 3371SOL    HW211013   6.704   4.792   1.549
 3372SOL     OW11014   0.575   2.217   2.687
 3372SOL    HW111015   0.577   2.124   2.650
 3372SOL    HW211016   0.669   2.251   2.695
 3373SOL     OW11017   0.444   2.193   6.327
 3373SOL    HW111018   0.468   2.105   6.285
 3373SOL    HW211019   0.355   2.223   6.293
 3374SOL     OW11020   3.930   5.681   5.402
 3374SOL    HW111021   3.860   5.701   5.333
 3374SOL    HW211022   3.964   5.767   5.441
 3375SOL     OW11023   3.603   4.022   5.272
 3375SOL    HW111024   3.628   3.946   5.212
 3375SOL    HW211025   3.630   4.000   5.366
 3376SOL     OW11026   2.916   3.220   2.065
 3376SOL    HW111027   2.987   3.153   2.086
 3376SOL    HW211028   2.892   3.271   2.147
 3377SOL     OW11029   2.804   5.605   5.603
 3377SOL    HW111030   2.755   5.556   5.530
 3377SOL    HW211031   2.854   5.539   5.659
 3378SOL     OW11032   0.279   0.999   0.652
 3378SOL    HW111033   0.219   1.079   0.655
 3378SOL    HW211034   0.341   1.007   0.573
 3379SOL     OW11035   0.175   5.028   5.902
 3379SOL    HW111036   0.177   4.983   5.991
 3379SOL    HW211037   0.201   5.124   5.912
 3380SOL     OW11038   1.040   3.819   5.689
 3380SOL    HW111039   0.951   3.855   5.662
 3380SOL    HW211040   1.105   3.894   5.702
 3381SOL     OW11041   3.212   2.806   1.315
 3381SOL    HW111042   3.132   2.860   1.339
 3381SOL    HW211043   3.182   2.717   1.279
 3382SOL     OW11044   6.885   6.849   6.923
 3382SOL    HW111045   6.886   6.945   6.949
 3382SOL    HW211046   6.790   6.817   6.915
 3383SOL     OW11047   0.425   3.775   2.846
 3383SOL    HW111048   0.487   3.699   2.829
 3383SOL    HW211049   0.387   3.807   2.759
 3384SOL     OW11050   3.042   3.201   4.547
 3384SOL    HW111051   2.998   3.289   4.529
 3384SOL    HW211052   3.058   3.153   4.461
 3385SOL     OW11053   6.460   3.597   3.460
 3385SOL    HW111054   6.505   3.607   3.549
 3385SOL    HW211055   6.457   3.500   3.435
 3386SOL     OW11056   6.129   3.812   4.788
 3386SOL    HW111057   6.031   3.805   4.808
 3386SOL    HW211058   6.177   3.849   4.868
 3387SOL     OW11059   3.278   2.110   2.983
 3387SOL    HW111060   3.279   2.175   3.059
 3387SOL    HW211061   3.192   2.058   2.985
 3388SOL     OW11062   5.201   2.894   1.840
 3388SOL    HW111063   5.211   2.929   1.746
 3388SOL    HW211064   5.104   2.886   1.862
 3389SOL     OW11065   4.712   4.724   3.154
 3389SOL    HW111066   4.683   4.630   3.173
 3389SOL    HW211067   4.738   4.768   3.240
 3390SOL     OW11068   4.817   2.506   6.026
 3390SOL    HW111069   4.912   2.475   6.035
 3390SOL    HW211070   4.767   2.444   5.965
 3391SOL     OW11071   4.005   1.969   4.212
 3391SOL    HW111072   3.937   1.897   4.225
 3391SOL    HW211073   4.076   1.937   4.148
 3392SOL     OW11074   4.904   5.874   3.333
 3392SOL    HW111075   4.891   5.883   3.432
 3392SOL    HW211076   4.988   5.822   3.315
 3393SOL     OW11077   6.655   0.651   0.180
 3393SOL    HW111078   6.713   0.679   0.257
 3393SOL    HW211079   6.616   0.733   0.138
 3394SOL     OW11080   5.664   1.030   1.634
 3394SOL    HW111081   5.620   1.063   1.550
 3394SOL    HW211082   5.731   1.097   1.665
 3395SOL     OW11083   1.655   3.545   5.143
 3395SOL    HW111084   1.656   3.561   5.044
 3395SOL    HW211085   1.749   3.536   5.176
 3396SOL     OW11086   6.685   4.133   4.599
 3396SOL    HW111087   6.631   4.207   4.638
 3396SOL    HW211088   6.704   4.064   4.669
 3397SOL     OW11089   3.002   6.255   5.861
 3397SOL    HW111090   3.024   6.213   5.773
 3397SOL    HW211091   2.903   6.259   5.871
 3398SOL     OW11092   0.527   0.018   4.198
 3398SOL    HW111093   0.559   7.012   4.289
 3398SOL    HW211094   0.508   6.958   4.143
 3399SOL     OW11095   4.373   5.247   4.320
 3399SOL    HW111096   4.310   5.274   4.392
 3399SOL    HW211097   4.341   5.162   4.278
 3400SOL     OW11098   4.987   2.815   6.617
 3400SOL    HW111099   4.901   2.841   6.575
 3400SOL    HW211100   4.986   2.718   6.641
 3401SOL     OW11101   6.485   4.798   6.512
 3401SOL    HW111102   6.554   4.783   6.441
 3401SOL    HW211103   6.462   4.711   6.555
 3402SOL     OW11104   5.133   5.447   2.453
 3402SOL    HW111105   5.185   5.533   2.451
 3402SOL    HW211106   5.093   5.430   2.363
 3403SOL     OW11107   3.191   1.962   5.024
 3403SOL    HW111108   3.210   2.058   5.047
 3403SOL    HW211109   3.128   1.924   5.092
 3404SOL     OW11110   4.294   0.688   1.258
 3404SOL    HW111111   4.226   0.660   1.326
 3404SOL    HW211112   4.325   0.608   1.207
 3405SOL     OW11113   5.749   3.581   0.803
 3405SOL    HW111114   5.783   3.646   0.735
 3405SOL    HW211115   5.809   3.501   0.805
 3406SOL     OW11116   1.073   4.559   1.758
 3406SOL    HW111117   1.023   4.603   1.832
 3406SOL    HW211118   1.014   4.494   1.711
 3407SOL     OW11119   1.698   5.593   2.839
 3407SOL    HW111120   1.727   5.672   2.893
 3407SOL    HW211121   1.600   5.576   2.854
 3408SOL     OW11122   5.302   4.126   2.830
 3408SOL    HW111123   5.212   4.088   2.850
 3408SOL    HW211124   5.334   4.178   2.909
 3409SOL     OW11125   2.992   0.637   6.054
 3409SOL    HW111126   3.048   0.717   6.031
 3409SOL    HW211127   3.029   0.594   6.136
 3410SOL     OW11128   0.017   0.462   6.980
 3410SOL    HW111129   6.963   0.516   6.942
 3410SOL    HW211130   0.008   0.457   0.058
 3411SOL     OW11131   4.991   2.610   2.070
 3411SOL    HW111132   5.037   2.682   2.122
 3411SOL    HW211133   4.892   2.623   2.075
 3412SOL     OW11134   4.110   5.074   6.654
 3412SOL    HW111135   4.171   5.079   6.733
 3412SOL    HW211136   4.139   4.998   6.595
 3413SOL     OW11137   4.125   1.982   2.212
 3413SOL    HW111138   4.079   1.923   2.278
 3413SOL    HW211139   4.067   2.061   2.191
 3414SOL     OW11140   3.866   1.375   5.442
 3414SOL    HW111141   3.781   1.322   5.436
 3414SOL    HW211142   3.936   1.332   5.385
 3415SOL     OW11143   0.494   5.269   4.197
 3415SOL    HW111144   0.472   5.182   4.154
 3415SOL    HW211145   0.573   5.258   4.257
 3416SOL     OW11146   1.948   5.140   5.887
 3416SOL    HW111147   1.936   5.169   5.982
 3416SOL    HW211148   1.932   5.042   5.879
 3417SOL     OW11149   5.996   0.517   1.649
 3417SOL    HW111150   5.968   0.586   1.582
 3417SOL    HW211151   5.915   0.470   1.684
 3418SOL     OW11152   3.256   1.616   6.358
 3418SOL    HW111153   3.270   1.529   6.309
 3418SOL    HW211154   3.271   1.692   6.295
 3419SOL     OW11155   4.560   3.968   0.486
 3419SOL    HW111156   4.474   4.014   0.507
 3419SOL    HW211157   4.603   3.937   0.570
 3420SOL     OW11158   3.939   2.214   4.106
 3420SOL    HW111159   3.981   2.299   4.136
 3420SOL    HW211160   3.974   2.138   4.161
 3421SOL     OW11161   0.655   6.403   3.897
 3421SOL    HW111162   0.726   6.338   3.870
 3421SOL    HW211163   0.666   6.487   3.844
 3422SOL     OW11164   3.070   1.793   2.306
 3422SOL    HW111165   2.985   1.814   2.257
 3422SOL    HW211166   3.055   1.805   2.404
 3423SOL     OW11167   2.920   1.087   1.989
 3423SOL    HW111168   2.906   1.027   2.068
 3423SOL    HW211169   3.015   1.080   1.958
 3424SOL     OW11170   4.312   1.382   2.149
 3424SOL    HW111171   4.256   1.337   2.218
 3424SOL    HW211172   4.393   1.420   2.193
 3425SOL     OW11173   5.064   4.384   1.709
 3425SOL    HW111174   5.031   4.339   1.792
 3425SOL    HW211175   5.100   4.474   1.731
 3426SOL     OW11176   4.324   3.792   0.701
 3426SOL    HW111177   4.279   3.830   0.620
 3426SOL    HW211178   4.257   3.778   0.773
 3427SOL     OW11179   1.004   1.319   0.222
 3427SOL    HW111180   0.905   1.331   0.222
 3427SOL    HW211181   1.038   1.316   0.316
 3428SOL     OW11182   4.459   4.890   3.190
 3428SOL    HW111183   4.444   4.858   3.283
 3428SOL    HW211184   4.511   4.822   3.138
 3429SOL     OW11185   0.560   3.159   6.634
 3429SOL    HW111186   0.518   3.250   6.637
 3429SOL    HW211187   0.572   3.125   6.727
 3430SOL     OW11188   0.978   6.451   6.883
 3430SOL    HW111189   1.013   6.515   6.814
 3430SOL    HW211190   0.956   6.364   6.839
 3431SOL     OW11191   0.788   6.167   7.020
 3431SOL    HW111192   0.760   6.222   0.077
 3431SOL    HW211193   0.714   6.165   6.952
 3432SOL     OW11194   3.218   1.978   6.567
 3432SOL    HW111195   3.134   1.959   6.619
 3432SOL    HW211196   3.215   2.070   6.530
 3433SOL     OW11197   4.148   0.717   4.956
 3433SOL    HW111198   4.202   0.773   4.893
 3433SOL    HW211199   4.210   0.667   5.017
 3434SOL     OW11200   4.633   2.343   2.859
 3434SOL    HW111201   4.533   2.341   2.865
 3434SOL    HW211202   4.668   2.250   2.847
 3435SOL     OW11203   0.709   1.401   6.625
 3435SOL    HW111204   0.689   1.399   6.527
 3435SOL    HW211205   0.674   1.486   6.664
 3436SOL     OW11206   4.363   7.018   3.344
 3436SOL    HW111207   4.340   6.979   3.433
 3436SOL    HW211208   4.290   6.999   3.278
 3437SOL     OW11209   4.066   0.652   6.362
 3437SOL    HW111210   4.142   0.708   6.331
 3437SOL    HW211211   3.994   0.711   6.399
 3438SOL     OW11212   1.494   4.013   6.479
 3438SOL    HW111213   1.454   4.099   6.508
 3438SOL    HW211214   1.499   3.950   6.557
 3439SOL     OW11215   2.604   6.475   3.665
 3439SOL    HW111216   2.677   6.542   3.649
 3439SOL    HW211217   2.515   6.519   3.652
 3440SOL     OW11218   3.852   2.045   0.845
 3440SOL    HW111219   3.890   2.032   0.754
 3440SOL    HW211220   3.894   1.979   0.908
 3441SOL     OW11221   3.697   0.577   4.268
 3441SOL    HW111222   3.707   0.578   4.169
 3441SOL    HW211223   3.621   0.517   4.293
 3442SOL     OW11224   1.429   4.913   3.029
 3442SOL    HW111225   1.510   4.863   2.998
 3442SOL    HW211226   1.414   4.896   3.126
 3443SOL     OW11227   5.819   0.882   3.682
 3443SOL    HW111228   5.855   0.970   3.649
 3443SOL    HW211229   5.864   0.858   3.767
 3444SOL     OW11230   4.371   5.011   0.494
 3444SOL    HW111231   4.282   5.039   0.529
 3444SOL    HW211232   4.378   4.912   0.495
 3445SOL     OW11233   5.968   5.039   4.951
 3445SOL    HW111234   6.010   4.956   4.988
 3445SOL    HW211235   5.922   5.018   4.865
 3446SOL     OW11236   3.157   6.339   3.005
 3446SOL    HW111237   3.133   6.421   3.056
 3446SOL    HW211238   3.243   6.302   3.039
 3447SOL     OW11239   6.089   4.826   6.081
 3447SOL    HW111240   6.115   4.887   6.006
 3447SOL    HW211241   5.996   4.849   6.111
 3448SOL     OW11242   3.710   1.768   1.283
 3448SOL    HW111243   3.636   1.833   1.300
 3448SOL    HW211244   3.741   1.730   1.370
 3449SOL     OW11245   6.065   6.327   3.087
 3449SOL    HW111246   6.025   6.282   3.007
 3449SOL    HW211247   6.007   6.311   3.167
 3450SOL     OW11248   0.908   2.082   1.636
 3450SOL    HW111249   1.000   2.108   1.608
 3450SOL    HW211250   0.864   2.031   1.562
 3451SOL     OW11251   1.341   5.225   3.996
 3451SOL    HW111252   1.273   5.200   3.927
 3451SOL    HW211253   1.386   5.143   4.030
 3452SOL     OW11254   6.558   2.341   0.375
 3452SOL    HW111255   6.612   2.425   0.370
 3452SOL    HW211256   6.548   2.314   0.471
 3453SOL     OW11257   6.700   6.124   5.719
 3453SOL    HW111258   6.787   6.156   5.684
 3453SOL    HW211259   6.694   6.143   5.817
 3454SOL     OW11260   0.554   1.127   0.148
 3454SOL    HW111261   0.653   1.127   0.133
 3454SOL    HW211262   0.514   1.210   0.107
 3455SOL     OW11263   2.213   2.209   4.528
 3455SOL    HW111264   2.264   2.292   4.550
 3455SOL    HW211265   2.227   2.186   4.432
 3456SOL     OW11266   6.389   0.194   1.406
 3456SOL    HW111267   6.420   0.143   1.326
 3456SOL    HW211268   6.456   0.265   1.428
 3457SOL     OW11269   2.297   5.480   3.731
 3457SOL    HW111270   2.370   5.523   3.784
 3457SOL    HW211271   2.211   5.529   3.746
 3458SOL     OW11272   5.206   5.374   1.088
 3458SOL    HW111273   5.115   5.348   1.120
 3458SOL    HW211274   5.242   5.302   1.028
 3459SOL     OW11275   6.381   6.566   3.425
 3459SOL    HW111276   6.394   6.629   3.348
 3459SOL    HW211277   6.443   6.488   3.415
 3460SOL     OW11278   4.118   3.672   5.686
 3460SOL    HW111279   4.216   3.668   5.706
 3460SOL    HW211280   4.104   3.672   5.587
 3461SOL     OW11281   3.230   5.567   2.488
 3461SOL    HW111282   3.324   5.551   2.458
 3461SOL    HW211283   3.177   5.483   2.481
 3462SOL     OW11284   4.810   3.156   3.158
 3462SOL    HW111285   4.802   3.097   3.078
 3462SOL    HW211286   4.790   3.103   3.241
 3463SOL     OW11287   2.261   2.786   1.078
 3463SOL    HW111288   2.360   2.782   1.089
 3463SOL    HW211289   2.221   2.699   1.107
 3464SOL     OW11290   4.529   2.634   6.432
 3464SOL    HW111291   4.540   2.607   6.528
 3464SOL    HW211292   4.544   2.555   6.373
 3465SOL     OW11293   1.645   3.833   1.758
 3465SOL    HW111294   1.688   3.906   1.810
 3465SOL    HW211295   1.573   3.871   1.700
 3466SOL     OW11296   6.357   4.547   3.808
 3466SOL    HW111297   6.284   4.580   3.868
 3466SOL    HW211298   6.445   4.558   3.854
 3467SOL     OW11299   2.867   2.378   1.309
 3467SOL    HW111300   2.838   2.421   1.395
 3467SOL    HW211301   2.803   2.402   1.237
 3468SOL     OW11302   3.553   1.715   0.680
 3468SOL    HW111303   3.506   1.638   0.721
 3468SOL    HW211304   3.532   1.799   0.731
 3469SOL     OW11305   3.788   5.906   5.748
 3469SOL    HW111306   3.761   5.810   5.755
 3469SOL    HW211307   3.833   5.935   5.832
 3470SOL     OW11308   1.275   3.393   1.401
 3470SOL    HW111309   1.252   3.424   1.493
 3470SOL    HW211310   1.369   3.358   1.399
 3471SOL     OW11311   5.164   3.330   4.522
 3471SOL    HW111312   5.065   3.340   4.518
 3471SOL    HW211313   5.188   3.247   4.572
 3472SOL     OW11314   4.274   1.923   2.567
 3472SOL    HW111315   4.207   1.960   2.632
 3472SOL    HW211316   4.225   1.876   2.493
 3473SOL     OW11317   6.801   4.524   1.818
 3473SOL    HW111318   6.880   4.489   1.868
 3473SOL    HW211319   6.784   4.619   1.844
 3474SOL     OW11320   5.468   4.695   4.035
 3474SOL    HW111321   5.440   4.702   4.130
 3474SOL    HW211322   5.394   4.654   3.981
 3475SOL     OW11323   0.003   4.532   4.202
 3475SOL    HW111324   0.073   4.558   4.136
 3475SOL    HW211325   0.021   4.439   4.235
 3476SOL     OW11326   1.591   0.911   3.700
 3476SOL    HW111327   1.594   0.948   3.792
 3476SOL    HW211328   1.661   0.955   3.644
 3477SOL     OW11329   0.585   3.973   2.287
 3477SOL    HW111330   0.648   3.901   2.259
 3477SOL    HW211331   0.550   3.953   2.379
 3478SOL     OW11332   2.302   1.170   1.466
 3478SOL    HW111333   2.375   1.179   1.534
 3478SOL    HW211334   2.338   1.126   1.384
 3479SOL     OW11335   1.182   4.748   4.782
 3479SOL    HW111336   1.202   4.761   4.684
 3479SOL    HW211337   1.266   4.760   4.834
 3480SOL     OW11338   1.296   4.806   6.876
 3480SOL    HW111339   1.250   4.724   6.910
 3480SOL    HW211340   1.390   4.783   6.850
 3481SOL     OW11341   6.566   0.921   5.513
 3481SOL    HW111342   6.490   0.858   5.494
 3481SOL    HW211343   6.651   0.883   5.475
 3482SOL     OW11344   5.849   3.838   5.477
 3482SOL    HW111345   5.777   3.880   5.421
 3482SOL    HW211346   5.938   3.869   5.445
 3483SOL     OW11347   5.347   2.741   4.986
 3483SOL    HW111348   5.319   2.661   5.039
 3483SOL    HW211349   5.311   2.824   5.030
 3484SOL     OW11350   1.888   3.519   5.248
 3484SOL    HW111351   1.912   3.425   5.274
 3484SOL    HW211352   1.941   3.546   5.168
 3485SOL     OW11353   6.746   2.633   6.577
 3485SOL    HW111354   6.830   2.603   6.622
 3485SOL    HW211355   6.760   2.724   6.538
 3486SOL     OW11356   2.413   6.214   4.793
 3486SOL    HW111357   2.483   6.259   4.738
 3486SOL    HW211358   2.444   6.210   4.888
 3487SOL     OW11359   4.840   1.174   6.377
 3487SOL    HW111360   4.824   1.092   6.322
 3487SOL    HW211361   4.816   1.255   6.324
 3488SOL     OW11362   5.823   0.425   4.934
 3488SOL    HW111363   5.775   0.417   5.022
 3488SOL    HW211364   5.922   0.421   4.950
 3489SOL     OW11365   3.051   6.310   0.710
 3489SOL    HW111366   3.051   6.408   0.730
 3489SOL    HW211367   2.961   6.272   0.729
 3490SOL     OW11368   3.447   6.406   0.119
 3490SOL    HW111369   3.536   6.439   0.088
 3490SOL    HW211370   3.460   6.333   0.186
 3491SOL     OW11371   4.541   4.712   6.258
 3491SOL    HW111372   4.540   4.788   6.194
 3491SOL    HW211373   4.525   4.745   6.351
 3492SOL     OW11374   5.888   4.421   2.332
 3492SOL    HW111375   5.935   4.369   2.404
 3492SOL    HW211376   5.902   4.376   2.244
 3493SOL     OW11377   6.594   3.097   5.352
 3493SOL    HW111378   6.520   3.030   5.336
 3493SOL    HW211379   6.634   3.124   5.265
 3494SOL     OW11380   4.456   1.757   2.229
 3494SOL    HW111381   4.372   1.716   2.264
 3494SOL    HW211382   4.433   1.837   2.173
 3495SOL     OW11383   1.057   2.884   2.562
 3495SOL    HW111384   1.118   2.817   2.606
 3495SOL    HW211385   0.963   2.851   2.566
 3496SOL     OW11386   5.953   5.267   1.045
 3496SOL    HW111387   5.863   5.281   1.085
 3496SOL    HW211388   6.015   5.230   1.115
 3497SOL     OW11389   3.125   6.602   2.676
 3497SOL    HW111390   3.050   6.656   2.638
 3497SOL    HW211391   3.094   6.508   2.691
 3498SOL     OW11392   2.253   2.744   1.528
 3498SOL    HW111393   2.277   2.841   1.536
 3498SOL    HW211394   2.160   2.729   1.562
 3499SOL     OW11395   6.268   5.590   5.189
 3499SOL    HW111396   6.319   5.673   5.167
 3499SOL    HW211397   6.315   5.540   5.262
 3500SOL     OW11398   2.153   1.888   4.648
 3500SOL    HW111399   2.237   1.934   4.678
 3500SOL    HW211400   2.074   1.940   4.679
 3501SOL     OW11401   1.662   0.184   5.200
 3501SOL    HW111402   1.693   0.261   5.145
 3501SOL    HW211403   1.577   0.207   5.247
 3502SOL     OW11404   4.821   2.930   2.214
 3502SOL    HW111405   4.783   2.985   2.139
 3502SOL    HW211406   4.920   2.919   2.200
 3503SOL     OW11407   6.160   6.337   6.511
 3503SOL    HW111408   6.082   6.280   6.486
 3503SOL    HW211409   6.128   6.421   6.554
 3504SOL     OW11410   0.956   0.889   0.438
 3504SOL    HW111411   1.007   0.958   0.386
 3504SOL    HW211412   1.020   0.830   0.486
 3505SOL     OW11413   5.240   4.981   6.318
 3505SOL    HW111414   5.237   4.900   6.376
 3505SOL    HW211415   5.182   4.967   6.237
 3506SOL     OW11416   4.772   4.854   4.981
 3506SOL    HW111417   4.742   4.794   4.907
 3506SOL    HW211418   4.810   4.938   4.942
 3507SOL     OW11419   3.086   0.417   0.772
 3507SOL    HW111420   3.163   0.383   0.825
 3507SOL    HW211421   3.001   0.396   0.820
 3508SOL     OW11422   3.061   1.861   5.261
 3508SOL    HW111423   2.972   1.902   5.283
 3508SOL    HW211424   3.059   1.764   5.283
 3509SOL     OW11425   3.538   5.560   6.516
 3509SOL    HW111426   3.488   5.638   6.554
 3509SOL    HW211427   3.628   5.555   6.559
 3510SOL     OW11428   2.678   1.549   0.778
 3510SOL    HW111429   2.599   1.490   0.799
 3510SOL    HW211430   2.649   1.623   0.719
 3511SOL     OW11431   2.942   4.269   1.717
 3511SOL    HW111432   2.874   4.342   1.711
 3511SOL    HW211433   3.031   4.307   1.740
 3512SOL     OW11434   0.318   5.324   6.089
 3512SOL    HW111435   0.394   5.295   6.031
 3512SOL    HW211436   0.318   5.270   6.173
 3513SOL     OW11437   5.818   2.011   0.448
 3513SOL    HW111438   5.858   2.102   0.435
 3513SOL    HW211439   5.874   1.960   0.513
 3514SOL     OW11440   3.949   1.429   2.278
 3514SOL    HW111441   3.992   1.441   2.189
 3514SOL    HW211442   3.909   1.516   2.308
 3515SOL     OW11443   0.259   5.605   4.132
 3515SOL    HW111444   0.178   5.628   4.186
 3515SOL    HW211445   0.336   5.587   4.193
 3516SOL     OW11446   4.263   0.220   1.311
 3516SOL    HW111447   4.229   0.314   1.315
 3516SOL    HW211448   4.225   0.175   1.231
 3517SOL     OW11449   5.749   0.302   1.410
 3517SOL    HW111450   5.772   0.218   1.458
 3517SOL    HW211451   5.651   0.317   1.415
 3518SOL     OW11452   4.923   1.000   5.402
 3518SOL    HW111453   4.853   1.029   5.467
 3518SOL    HW211454   5.008   1.051   5.419
 3519SOL     OW11455   3.548   0.495   1.052
 3519SOL    HW111456   3.504   0.580   1.081
 3519SOL    HW211457   3.643   0.494   1.082
 3520SOL     OW11458   2.768   6.149   4.669
 3520SOL    HW111459   2.842   6.129   4.605
 3520SOL    HW211460   2.686   6.174   4.618
 3521SOL     OW11461   2.070   3.150   0.442
 3521SOL    HW111462   2.042   3.133   0.536
 3521SOL    HW211463   2.083   3.249   0.429
 3522SOL     OW11464   0.489   5.640   6.523
 3522SOL    HW111465   0.537   5.724   6.500
 3522SOL    HW211466   0.547   5.581   6.579
 3523SOL     OW11467   1.844   5.645   6.922
 3523SOL    HW111468   1.755   5.684   6.897
 3523SOL    HW211469   1.851   5.640   0.000
 3524SOL     OW11470   5.298   1.080   3.522
 3524SOL    HW111471   5.316   1.095   3.619
 3524SOL    HW211472   5.358   1.007   3.488
 3525SOL     OW11473   6.287   3.925   2.912
 3525SOL    HW111474   6.260   3.877   2.995
 3525SOL    HW211475   6.242   4.015   2.909
 3526SOL     OW11476   0.887   6.534   3.121
 3526SOL    HW111477   0.812   6.585   3.080
 3526SOL    HW211478   0.852   6.450   3.163
 3527SOL     OW11479   0.222   2.596   5.969
 3527SOL    HW111480   0.206   2.545   5.885
 3527SOL    HW211481   0.135   2.608   6.018
 3528SOL     OW11482   2.664   5.954   4.848
 3528SOL    HW111483   2.688   6.037   4.797
 3528SOL    HW211484   2.748   5.905   4.873
 3529SOL     OW11485   4.611   5.087   0.878
 3529SOL    HW111486   4.609   5.093   0.779
 3529SOL    HW211487   4.517   5.088   0.913
 3530SOL     OW11488   0.079   6.850   2.046
 3530SOL    HW111489   0.075   6.864   1.947
 3530SOL    HW211490   0.089   6.938   2.092
 3531SOL     OW11491   5.421   1.721   0.186
 3531SOL    HW111492   5.492   1.787   0.160
 3531SOL    HW211493   5.463   1.630   0.195
 3532SOL     OW11494   2.245   1.431   2.060
 3532SOL    HW111495   2.149   1.417   2.085
 3532SOL    HW211496   2.256   1.417   1.961
 3533SOL     OW11497   1.058   1.446   2.952
 3533SOL    HW111498   0.960   1.441   2.933
 3533SOL    HW211499   1.073   1.436   3.051
 3534SOL     OW11500   0.354   1.649   0.858
 3534SOL    HW111501   0.370   1.593   0.939
 3534SOL    HW211502   0.398   1.606   0.779
 3535SOL     OW11503   2.807   5.849   4.379
 3535SOL    HW111504   2.846   5.924   4.326
 3535SOL    HW211505   2.855   5.841   4.466
 3536SOL     OW11506   3.673   2.109   2.741
 3536SOL    HW111507   3.608   2.157   2.681
 3536SOL    HW211508   3.641   2.114   2.835
 3537SOL     OW11509   1.953   6.239   3.254
 3537SOL    HW111510   2.007   6.215   3.173
 3537SOL    HW211511   2.015   6.259   3.331
 3538SOL     OW11512   3.367   5.236   3.807
 3538SOL    HW111513   3.406   5.205   3.721
 3538SOL    HW211514   3.276   5.196   3.819
 3539SOL     OW11515   3.354   3.733   4.442
 3539SOL    HW111516   3.431   3.695   4.390
 3539SOL    HW211517   3.388   3.769   4.529
 3540SOL     OW11518   1.784   2.007   3.361
 3540SOL    HW111519   1.816   1.922   3.320
 3540SOL    HW211520   1.860   2.052   3.409
 3541SOL     OW11521   3.244   4.079   4.969
 3541SOL    HW111522   3.150   4.063   4.940
 3541SOL    HW211523   3.287   3.992   4.992
 3542SOL     OW11524   0.412   5.314   1.665
 3542SOL    HW111525   0.334   5.370   1.693
 3542SOL    HW211526   0.408   5.297   1.567
 3543SOL     OW11527   6.394   2.799   5.058
 3543SOL    HW111528   6.475   2.756   5.097
 3543SOL    HW211529   6.316   2.736   5.067
 3544SOL     OW11530   2.005   5.833   6.795
 3544SOL    HW111531   1.947   5.766   6.842
 3544SOL    HW211532   2.039   5.899   6.862
 3545SOL     OW11533   3.197   5.240   0.147
 3545SOL    HW111534   3.244   5.320   0.184
 3545SOL    HW211535   3.226   5.224   0.053
 3546SOL     OW11536   6.204   4.595   2.728
 3546SOL    HW111537   6.262   4.588   2.809
 3546SOL    HW211538   6.116   4.635   2.753
 3547SOL     OW11539   4.860   4.674   4.028
 3547SOL    HW111540   4.780   4.724   3.995
 3547SOL    HW211541   4.840   4.635   4.118
 3548SOL     OW11542   4.504   3.191   5.377
 3548SOL    HW111543   4.506   3.093   5.396
 3548SOL    HW211544   4.587   3.217   5.327
 3549SOL     OW11545   6.122   3.706   2.649
 3549SOL    HW111546   6.199   3.736   2.592
 3549SOL    HW211547   6.157   3.664   2.733
 3550SOL     OW11548   5.855   2.091   2.416
 3550SOL    HW111549   5.879   2.164   2.353
 3550SOL    HW211550   5.924   2.085   2.489
 3551SOL     OW11551   2.317   6.751   2.956
 3551SOL    HW111552   2.340   6.714   2.866
 3551SOL    HW211553   2.391   6.729   3.020
 3552SOL     OW11554   6.880   4.305   3.395
 3552SOL    HW111555   6.940   4.250   3.454
 3552SOL    HW211556   6.903   4.402   3.406
 3553SOL     OW11557   5.925   2.234   3.308
 3553SOL    HW111558   5.963   2.310   3.361
 3553SOL    HW211559   5.883   2.269   3.225
 3554SOL     OW11560   3.882   5.436   6.844
 3554SOL    HW111561   3.883   5.463   6.941
 3554SOL    HW211562   3.833   5.505   6.791
 3555SOL     OW11563   0.943   2.838   3.684
 3555SOL    HW111564   0.925   2.740   3.688
 3555SOL    HW211565   0.950   2.867   3.588
 3556SOL     OW11566   3.855   0.894   6.446
 3556SOL    HW111567   3.901   0.944   6.520
 3556SOL    HW211568   3.823   0.959   6.377
 3557SOL     OW11569   0.825   1.152   4.621
 3557SOL    HW111570   0.857   1.057   4.617
 3557SOL    HW211571   0.844   1.190   4.711
 3558SOL     OW11572   6.687   5.638   1.371
 3558SOL    HW111573   6.660   5.564   1.432
 3558SOL    HW211574   6.613   5.656   1.306
 3559SOL     OW11575   0.611   1.203   5.569
 3559SOL    HW111576   0.582   1.288   5.613
 3559SOL    HW211577   0.551   1.184   5.491
 3560SOL     OW11578   6.691   6.365   1.847
 3560SOL    HW111579   6.727   6.374   1.754
 3560SOL    HW211580   6.683   6.456   1.889
 3561SOL     OW11581   4.228   4.635   4.062
 3561SOL    HW111582   4.314   4.648   4.112
 3561SOL    HW211583   4.156   4.607   4.126
 3562SOL     OW11584   4.567   2.543   2.672
 3562SOL    HW111585   4.581   2.463   2.730
 3562SOL    HW211586   4.514   2.516   2.591
 3563SOL     OW11587   4.544   0.489   1.206
 3563SOL    HW111588   4.572   0.495   1.301
 3563SOL    HW211589   4.623   0.506   1.147
 3564SOL     OW11590   0.159   4.274   2.767
 3564SOL    HW111591   0.126   4.239   2.679
 3564SOL    HW211592   0.083   4.312   2.818
 3565SOL     OW11593   2.235   0.300   4.895
 3565SOL    HW111594   2.240   0.339   4.987
 3565SOL    HW211595   2.211   0.203   4.901
 3566SOL     OW11596   0.846   4.080   5.775
 3566SOL    HW111597   0.805   4.025   5.703
 3566SOL    HW211598   0.874   4.169   5.738
 3567SOL     OW11599   6.936   2.910   0.727
 3567SOL    HW111600   6.935   3.008   0.749
 3567SOL    HW211601   6.988   2.861   0.797
 3568SOL     OW11602   5.181   3.669   3.473
 3568SOL    HW111603   5.085   3.676   3.498
 3568SOL    HW211604   5.236   3.723   3.537
 3569SOL     OW11605   3.750   3.449   4.072
 3569SOL    HW111606   3.660   3.416   4.045
 3569SOL    HW211607   3.766   3.429   4.168
 3570SOL     OW11608   0.464   2.363   5.501
 3570SOL    HW111609   0.500   2.442   5.551
 3570SOL    HW211610   0.398   2.393   5.433
 3571SOL     OW11611   2.543   6.734   5.022
 3571SOL    HW111612   2.491   6.773   4.946
 3571SOL    HW211613   2.630   6.697   4.988
 3572SOL     OW11614   4.941   4.717   1.861
 3572SOL    HW111615   4.970   4.774   1.937
 3572SOL    HW211616   5.017   4.660   1.831
 3573SOL     OW11617   0.569   3.699   3.368
 3573SOL    HW111618   0.562   3.658   3.277
 3573SOL    HW211619   0.664   3.700   3.398
 3574SOL     OW11620   2.033   1.312   5.520
 3574SOL    HW111621   2.088   1.373   5.577
 3574SOL    HW211622   1.984   1.248   5.579
 3575SOL     OW11623   5.314   0.212   6.798
 3575SOL    HW111624   5.315   0.235   6.701
 3575SOL    HW211625   5.407   0.205   6.832
 3576SOL     OW11626   1.039   2.532   0.722
 3576SOL    HW111627   1.082   2.597   0.659
 3576SOL    HW211628   1.106   2.500   0.789
 3577SOL     OW11629   2.292   2.564   5.538
 3577SOL    HW111630   2.369   2.514   5.578
 3577SOL    HW211631   2.308   2.662   5.544
 3578SOL     OW11632   3.457   2.673   6.433
 3578SOL    HW111633   3.390   2.670   6.508
 3578SOL    HW211634   3.513   2.590   6.436
 3579SOL     OW11635   0.751   3.724   1.627
 3579SOL    HW111636   0.835   3.685   1.590
 3579SOL    HW211637   0.689   3.651   1.656
 3580SOL     OW11638   0.642   4.224   2.320
 3580SOL    HW111639   0.573   4.242   2.391
 3580SOL    HW211640   0.637   4.129   2.292
 3581SOL     OW11641   0.987   0.262   2.840
 3581SOL    HW111642   0.995   0.356   2.874
 3581SOL    HW211643   0.971   0.263   2.742
 3582SOL     OW11644   4.308   5.306   6.578
 3582SOL    HW111645   4.240   5.251   6.529
 3582SOL    HW211646   4.397   5.295   6.535
 3583SOL     OW11647   1.155   4.846   1.148
 3583SOL    HW111648   1.152   4.752   1.116
 3583SOL    HW211649   1.250   4.874   1.163
 3584SOL     OW11650   6.648   5.038   4.894
 3584SOL    HW111651   6.723   5.041   4.828
 3584SOL    HW211652   6.676   5.085   4.978
 3585SOL     OW11653   3.492   1.223   3.825
 3585SOL    HW111654   3.553   1.286   3.777
 3585SOL    HW211655   3.399   1.260   3.827
 3586SOL     OW11656   6.979   2.126   5.194
 3586SOL    HW111657   7.004   2.165   5.106
 3586SOL    HW211658   0.040   2.095   5.242
 3587SOL     OW11659   3.128   0.132   6.313
 3587SOL    HW111660   3.115   0.074   6.233
 3587SOL    HW211661   3.054   0.116   6.378
 3588SOL     OW11662   6.247   5.083   4.787
 3588SOL    HW111663   6.230   5.009   4.852
 3588SOL    HW211664   6.161   5.131   4.769
 3589SOL     OW11665   0.335   0.380   5.726
 3589SOL    HW111666   0.266   0.308   5.719
 3589SOL    HW211667   0.326   0.427   5.814
 3590SOL     OW11668   0.244   5.535   6.460
 3590SOL    HW111669   0.172   5.484   6.508
 3590SOL    HW211670   0.327   5.535   6.515
 3591SOL     OW11671   6.006   1.296   6.770
 3591SOL    HW111672   5.908   1.309   6.755
 3591SOL    HW211673   6.052   1.385   6.765
 3592SOL     OW11674   1.234   6.233   1.385
 3592SOL    HW111675   1.327   6.214   1.416
 3592SOL    HW211676   1.210   6.327   1.407
 3593SOL     OW11677   4.028   3.165   5.288
 3593SOL    HW111678   4.037   3.068   5.312
 3593SOL    HW211679   3.958   3.176   5.218
 3594SOL     OW11680   4.520   4.675   5.193
 3594SOL    HW111681   4.471   4.633   5.116
 3594SOL    HW211682   4.508   4.619   5.275
 3595SOL     OW11683   5.558   6.252   4.461
 3595SOL    HW111684   5.517   6.334   4.502
 3595SOL    HW211685   5.585   6.273   4.367
 3596SOL     OW11686   4.236   1.916   3.193
 3596SOL    HW111687   4.166   1.897   3.262
 3596SOL    HW211688   4.199   1.897   3.102
 3597SOL     OW11689   2.909   3.059   5.612
 3597SOL    HW111690   2.922   3.145   5.660
 3597SOL    HW211691   2.821   3.060   5.564
 3598SOL     OW11692   0.740   5.612   4.728
 3598SOL    HW111693   0.783   5.665   4.802
 3598SOL    HW211694   0.811   5.581   4.664
 3599SOL     OW11695   2.917   1.464   5.016
 3599SOL    HW111696   2.850   1.443   4.945
 3599SOL    HW211697   2.924   1.388   5.079
 3600SOL     OW11698   3.058   3.532   6.907
 3600SOL    HW111699   2.960   3.513   6.912
 3600SOL    HW211700   3.075   3.599   6.835
 3601SOL     OW11701   4.704   1.177   5.042
 3601SOL    HW111702   4.608   1.204   5.032
 3601SOL    HW211703   4.762   1.247   5.000
 3602SOL     OW11704   1.915   1.786   1.284
 3602SOL    HW111705   1.880   1.766   1.376
 3602SOL    HW211706   1.943   1.701   1.240
 3603SOL     OW11707   2.626   0.259   5.678
 3603SOL    HW111708   2.711   0.312   5.686
 3603SOL    HW211709   2.561   0.288   5.747
 3604SOL     OW11710   0.006   0.329   3.557
 3604SOL    HW111711   6.951   0.320   3.620
 3604SOL    HW211712   0.066   0.403   3.587
 3605SOL     OW11713   1.101   6.721   4.427
 3605SOL    HW111714   1.025   6.777   4.461
 3605SOL    HW211715   1.180   6.731   4.487
 3606SOL     OW11716   1.932   0.119   2.199
 3606SOL    HW111717   1.970   0.194   2.254
 3606SOL    HW211718   1.904   0.045   2.259
 3607SOL     OW11719   6.214   1.561   2.963
 3607SOL    HW111720   6.143   1.498   2.995
 3607SOL    HW211721   6.204   1.575   2.865
 3608SOL     OW11722   2.920   1.629   5.638
 3608SOL    HW111723   2.834   1.674   5.615
 3608SOL    HW211724   2.919   1.600   5.733
 3609SOL     OW11725   3.754   0.703   5.384
 3609SOL    HW111726   3.740   0.794   5.422
 3609SOL    HW211727   3.730   0.703   5.287
 3610SOL     OW11728   1.704   0.731   5.709
 3610SOL    HW111729   1.643   0.741   5.631
 3610SOL    HW211730   1.750   0.642   5.703
 3611SOL     OW11731   5.662   4.458   2.642
 3611SOL    HW111732   5.707   4.545   2.624
 3611SOL    HW211733   5.598   4.469   2.718
 3612SOL     OW11734   5.700   1.260   6.979
 3612SOL    HW111735   5.680   1.299   6.889
 3612SOL    HW211736   5.749   1.327   0.012
 3613SOL     OW11737   4.220   6.528   2.315
 3613SOL    HW111738   4.304   6.530   2.261
 3613SOL    HW211739   4.149   6.582   2.270
 3614SOL     OW11740   3.865   5.507   0.071
 3614SOL    HW111741   3.926   5.528   0.146
 3614SOL    HW211742   3.772   5.535   0.094
 3615SOL     OW11743   5.991   2.375   5.819
 3615SOL    HW111744   5.997   2.472   5.794
 3615SOL    HW211745   6.013   2.319   5.740
 3616SOL     OW11746   1.120   2.284   0.522
 3616SOL    HW111747   1.111   2.337   0.606
 3616SOL    HW211748   1.035   2.289   0.470
 3617SOL     OW11749   4.002   5.949   5.559
 3617SOL    HW111750   3.928   5.977   5.621
 3617SOL    HW211751   3.994   5.999   5.473
 3618SOL     OW11752   0.793   4.811   4.123
 3618SOL    HW111753   0.751   4.901   4.111
 3618SOL    HW211754   0.881   4.821   4.170
 3619SOL     OW11755   5.858   2.694   1.775
 3619SOL    HW111756   5.946   2.721   1.815
 3619SOL    HW211757   5.843   2.597   1.790
 3620SOL     OW11758   5.599   5.521   4.771
 3620SOL    HW111759   5.517   5.548   4.821
 3620SOL    HW211760   5.573   5.485   4.681
 3621SOL     OW11761   3.886   3.243   3.908
 3621SOL    HW111762   3.929   3.267   3.821
 3621SOL    HW211763   3.849   3.326   3.950
 3622SOL     OW11764   1.657   6.323   6.098
 3622SOL    HW111765   1.684   6.419   6.088
 3622SOL    HW211766   1.669   6.294   6.193
 3623SOL     OW11767   1.209   5.881   6.136
 3623SOL    HW111768   1.273   5.936   6.082
 3623SOL    HW211769   1.260   5.816   6.192
 3624SOL     OW11770   2.461   1.931   2.011
 3624SOL    HW111771   2.524   2.006   2.031
 3624SOL    HW211772   2.507   1.844   2.028
 3625SOL     OW11773   6.785   2.355   0.745
 3625SOL    HW111774   6.703   2.301   0.728
 3625SOL    HW211775   6.766   2.451   0.723
 3626SOL     OW11776   1.697   3.101   5.417
 3626SOL    HW111777   1.704   3.004   5.443
 3626SOL    HW211778   1.787   3.134   5.389
 3627SOL     OW11779   3.554   1.974   1.982
 3627SOL    HW111780   3.609   2.056   1.990
 3627SOL    HW211781   3.493   1.982   1.902
 3628SOL     OW11782   6.535   1.927   2.096
 3628SOL    HW111783   6.519   1.921   1.997
 3628SOL    HW211784   6.569   1.839   2.129
 3629SOL     OW11785   1.717   1.478   4.701
 3629SOL    HW111786   1.817   1.484   4.709
 3629SOL    HW211787   1.674   1.536   4.771
 3630SOL     OW11788   6.825   2.094   1.917
 3630SOL    HW111789   6.829   1.994   1.915
 3630SOL    HW211790   6.917   2.131   1.904
 3631SOL     OW11791   2.246   6.375   1.960
 3631SOL    HW111792   2.185   6.436   2.011
 3631SOL    HW211793   2.245   6.284   2.001
 3632SOL     OW11794   4.809   3.681   1.640
 3632SOL    HW111795   4.839   3.635   1.557
 3632SOL    HW211796   4.709   3.676   1.647
 3633SOL     OW11797   3.984   4.167   0.056
 3633SOL    HW111798   4.058   4.230   0.079
 3633SOL    HW211799   3.966   4.106   0.133
 3634SOL     OW11800   2.670   5.248   6.452
 3634SOL    HW111801   2.663   5.149   6.459
 3634SOL    HW211802   2.678   5.275   6.356
 3635SOL     OW11803   1.149   6.213   1.988
 3635SOL    HW111804   1.074   6.181   1.931
 3635SOL    HW211805   1.152   6.159   2.072
 3636SOL     OW11806   0.481   5.314   5.883
 3636SOL    HW111807   0.489   5.413   5.875
 3636SOL    HW211808   0.570   5.272   5.867
 3637SOL     OW11809   5.763   2.913   6.785
 3637SOL    HW111810   5.720   3.001   6.802
 3637SOL    HW211811   5.817   2.918   6.701
 3638SOL     OW11812   6.801   3.186   3.596
 3638SOL    HW111813   6.799   3.267   3.655
 3638SOL    HW211814   6.750   3.112   3.640
 3639SOL     OW11815   4.086   3.481   4.156
 3639SOL    HW111816   4.097   3.391   4.114
 3639SOL    HW211817   4.091   3.552   4.086
 3640SOL     OW11818   4.111   1.761   1.500
 3640SOL    HW111819   4.155   1.719   1.421
 3640SOL    HW211820   4.054   1.838   1.470
 3641SOL     OW11821   5.993   4.032   2.208
 3641SOL    HW111822   6.023   4.026   2.304
 3641SOL    HW211823   6.060   3.986   2.150
 3642SOL     OW11824   5.155   3.336   6.211
 3642SOL    HW111825   5.080   3.271   6.202
 3642SOL    HW211826   5.119   3.427   6.230
 3643SOL     OW11827   4.145   5.853   5.284
 3643SOL    HW111828   4.216   5.796   5.327
 3643SOL    HW211829   4.079   5.795   5.237
 3644SOL     OW11830   2.964   0.534   1.711
 3644SOL    HW111831   2.956   0.628   1.678
 3644SOL    HW211832   2.884   0.512   1.767
 3645SOL     OW11833   1.650   3.586   3.739
 3645SOL    HW111834   1.635   3.529   3.819
 3645SOL    HW211835   1.569   3.643   3.723
 3646SOL     OW11836   1.627   5.195   6.249
 3646SOL    HW111837   1.543   5.178   6.196
 3646SOL    HW211838   1.661   5.108   6.284
 3647SOL     OW11839   2.948   6.616   6.982
 3647SOL    HW111840   2.945   6.630   0.059
 3647SOL    HW211841   2.958   6.519   6.962
 3648SOL     OW11842   4.634   5.563   3.323
 3648SOL    HW111843   4.538   5.579   3.300
 3648SOL    HW211844   4.649   5.466   3.339
 3649SOL     OW11845   5.588   2.147   0.194
 3649SOL    HW111846   5.583   2.243   0.170
 3649SOL    HW211847   5.537   2.131   0.279
 3650SOL     OW11848   5.362   5.984   6.145
 3650SOL    HW111849   5.393   5.889   6.136
 3650SOL    HW211850   5.263   5.988   6.132
 3651SOL     OW11851   0.876   2.090   5.959
 3651SOL    HW111852   0.923   2.165   6.005
 3651SOL    HW211853   0.896   2.093   5.861
 3652SOL     OW11854   4.430   1.936   1.942
 3652SOL    HW111855   4.402   1.846   1.909
 3652SOL    HW211856   4.382   2.007   1.892
 3653SOL     OW11857   1.728   1.646   0.936
 3653SOL    HW111858   1.657   1.671   0.870
 3653SOL    HW211859   1.814   1.632   0.888
 3654SOL     OW11860   4.524   6.750   1.595
 3654SOL    HW111861   4.596   6.816   1.572
 3654SOL    HW211862   4.552   6.659   1.565
 3655SOL     OW11863   0.893   0.540   3.902
 3655SOL    HW111864   0.944   0.623   3.923
 3655SOL    HW211865   0.819   0.528   3.968
 3656SOL     OW11866   0.165   0.253   1.267
 3656SOL    HW111867   0.092   0.194   1.233
 3656SOL    HW211868   0.165   0.254   1.367
 3657SOL     OW11869   5.667   5.299   6.282
 3657SOL    HW111870   5.584   5.257   6.245
 3657SOL    HW211871   5.747   5.251   6.245
 3658SOL     OW11872   2.073   5.163   5.287
 3658SOL    HW111873   1.991   5.166   5.229
 3658SOL    HW211874   2.062   5.093   5.357
 3659SOL     OW11875   0.390   2.905   6.634
 3659SOL    HW111876   0.424   2.851   6.557
 3659SOL    HW211877   0.427   2.998   6.627
 3660SOL     OW11878   4.565   5.666   5.667
 3660SOL    HW111879   4.601   5.722   5.742
 3660SOL    HW211880   4.474   5.632   5.693
 3661SOL     OW11881   0.333   1.506   4.701
 3661SOL    HW111882   0.430   1.529   4.696
 3661SOL    HW211883   0.279   1.590   4.699
 3662SOL     OW11884   3.060   2.026   5.948
 3662SOL    HW111885   3.087   2.116   5.983
 3662SOL    HW211886   3.102   2.012   5.858
 3663SOL     OW11887   2.421   2.411   6.573
 3663SOL    HW111888   2.397   2.402   6.476
 3663SOL    HW211889   2.337   2.416   6.627
 3664SOL     OW11890   3.054   1.563   0.699
 3664SOL    HW111891   3.062   1.510   0.614
 3664SOL    HW211892   3.117   1.641   0.696
 3665SOL     OW11893   0.146   5.604   5.439
 3665SOL    HW111894   0.210   5.673   5.473
 3665SOL    HW211895   0.093   5.568   5.515
 3666SOL     OW11896   2.179   3.311   4.328
 3666SOL    HW111897   2.177   3.310   4.428
 3666SOL    HW211898   2.097   3.267   4.293
 3667SOL     OW11899   1.619   7.003   0.944
 3667SOL    HW111900   1.652   6.984   0.851
 3667SOL    HW211901   1.697   7.019   1.004
 3668SOL     OW11902   6.280   1.382   0.759
 3668SOL    HW111903   6.275   1.422   0.668
 3668SOL    HW211904   6.299   1.284   0.751
 3669SOL     OW11905   0.500   0.829   3.112
 3669SOL    HW111906   0.551   0.810   3.196
 3669SOL    HW211907   0.565   0.851   3.039
 3670SOL     OW11908   2.379   0.369   1.842
 3670SOL    HW111909   2.381   0.385   1.743
 3670SOL    HW211910   2.338   0.449   1.887
 3671SOL     OW11911   6.947   0.961   4.691
 3671SOL    HW111912   6.983   1.047   4.653
 3671SOL    HW211913   6.928   0.973   4.788
 3672SOL     OW11914   3.890   6.880   3.676
 3672SOL    HW111915   3.841   6.917   3.597
 3672SOL    HW211916   3.831   6.814   3.724
 3673SOL     OW11917   3.340   0.447   1.379
 3673SOL    HW111918   3.250   0.430   1.420
 3673SOL    HW211919   3.344   0.407   1.288
 3674SOL     OW11920   0.609   4.510   6.649
 3674SOL    HW111921   0.659   4.442   6.595
 3674SOL    HW211922   0.549   4.563   6.589
 3675SOL     OW11923   0.581   0.727   4.218
 3675SOL    HW111924   0.579   0.813   4.166
 3675SOL    HW211925   0.516   0.733   4.294
 3676SOL     OW11926   3.553   0.949   5.201
 3676SOL    HW111927   3.501   0.907   5.276
 3676SOL    HW211928   3.491   0.969   5.125
 3677SOL     OW11929   1.549   1.414   4.469
 3677SOL    HW111930   1.591   1.423   4.560
 3677SOL    HW211931   1.459   1.372   4.477
 3678SOL     OW11932   1.946   1.019   3.413
 3678SOL    HW111933   1.920   0.946   3.350
 3678SOL    HW211934   2.044   1.038   3.405
 3679SOL     OW11935   3.612   0.357   2.392
 3679SOL    HW111936   3.641   0.325   2.301
 3679SOL    HW211937   3.677   0.324   2.461
 3680SOL     OW11938   3.339   2.155   4.591
 3680SOL    HW111939   3.436   2.131   4.591
 3680SOL    HW211940   3.302   2.149   4.498
 3681SOL     OW11941   0.976   6.533   4.056
 3681SOL    HW111942   1.013   6.503   4.143
 3681SOL    HW211943   0.940   6.626   4.065
 3682SOL     OW11944   4.926   2.200   0.652
 3682SOL    HW111945   4.939   2.238   0.744
 3682SOL    HW211946   5.014   2.168   0.616
 3683SOL     OW11947   6.684   1.593   0.874
 3683SOL    HW111948   6.605   1.555   0.922
 3683SOL    HW211949   6.658   1.619   0.781
 3684SOL     OW11950   2.749   5.826   5.392
 3684SOL    HW111951   2.761   5.733   5.427
 3684SOL    HW211952   2.699   5.880   5.459
 3685SOL     OW11953   1.992   6.193   4.468
 3685SOL    HW111954   2.008   6.119   4.534
 3685SOL    HW211955   1.962   6.153   4.381
 3686SOL     OW11956   0.130   3.929   0.505
 3686SOL    HW111957   0.045   3.967   0.542
 3686SOL    HW211958   0.166   3.861   0.569
 3687SOL     OW11959   5.834   4.671   4.284
 3687SOL    HW111960   5.914   4.678   4.344
 3687SOL    HW211961   5.766   4.739   4.311
 3688SOL     OW11962   6.748   2.826   1.315
 3688SOL    HW111963   6.659   2.824   1.362
 3688SOL    HW211964   6.821   2.815   1.382
 3689SOL     OW11965   0.964   1.004   6.172
 3689SOL    HW111966   0.916   1.000   6.260
 3689SOL    HW211967   0.999   0.913   6.150
 3690SOL     OW11968   5.575   4.959   1.780
 3690SOL    HW111969   5.673   4.945   1.770
 3690SOL    HW211970   5.558   5.048   1.823
 3691SOL     OW11971   1.452   2.633   0.619
 3691SOL    HW111972   1.518   2.558   0.623
 3691SOL    HW211973   1.379   2.609   0.555
 3692SOL     OW11974   1.101   3.371   5.194
 3692SOL    HW111975   1.118   3.443   5.126
 3692SOL    HW211976   1.153   3.391   5.277
 3693SOL     OW11977   0.049   1.584   2.827
 3693SOL    HW111978   7.021   1.555   2.909
 3693SOL    HW211979   0.139   1.620   2.853
 3694SOL     OW11980   6.463   7.002   2.574
 3694SOL    HW111981   6.551   6.978   2.531
 3694SOL    HW211982   6.463   0.077   2.598
 3695SOL     OW11983   6.068   3.667   3.343
 3695SOL    HW111984   5.975   3.701   3.359
 3695SOL    HW211985   6.112   3.721   3.272
 3696SOL     OW11986   4.073   0.556   4.165
 3696SOL    HW111987   4.155   0.555   4.222
 3696SOL    HW211988   4.072   0.639   4.109
 3697SOL     OW11989   6.518   5.946   2.984
 3697SOL    HW111990   6.548   6.035   3.017
 3697SOL    HW211991   6.510   5.883   3.061
 3698SOL     OW11992   2.287   0.199   3.826
 3698SOL    HW111993   2.343   0.244   3.757
 3698SOL    HW211994   2.238   0.268   3.879
 3699SOL     OW11995   2.532   2.480   3.505
 3699SOL    HW111996   2.484   2.535   3.573
 3699SOL    HW211997   2.561   2.538   3.429
 3700SOL     OW11998   0.976   4.587   4.855
 3700SOL    HW111999   1.069   4.618   4.833
 3700SOL    HW212000   0.979   4.490   4.882
 3701SOL     OW12001   0.176   1.189   2.670
 3701SOL    HW112002   0.095   1.131   2.677
 3701SOL    HW212003   0.237   1.171   2.747
 3702SOL     OW12004   6.503   3.892   3.492
 3702SOL    HW112005   6.589   3.937   3.469
 3702SOL    HW212006   6.506   3.797   3.462
 3703SOL     OW12007   1.536   1.417   3.514
 3703SOL    HW112008   1.483   1.450   3.592
 3703SOL    HW212009   1.494   1.449   3.429
 3704SOL     OW12010   5.773   0.662   1.000
 3704SOL    HW112011   5.675   0.655   0.987
 3704SOL    HW212012   5.809   0.738   0.947
 3705SOL     OW12013   5.847   4.092   3.639
 3705SOL    HW112014   5.907   4.014   3.622
 3705SOL    HW212015   5.849   4.114   3.737
 3706SOL     OW12016   1.138   5.039   6.590
 3706SOL    HW112017   1.083   4.961   6.618
 3706SOL    HW212018   1.100   5.122   6.631
 3707SOL     OW12019   1.272   4.344   3.562
 3707SOL    HW112020   1.323   4.419   3.603
 3707SOL    HW212021   1.321   4.311   3.481
 3708SOL     OW12022   1.762   6.447   0.711
 3708SOL    HW112023   1.680   6.478   0.759
 3708SOL    HW212024   1.789   6.516   0.644
 3709SOL     OW12025   1.268   1.622   1.874
 3709SOL    HW112026   1.362   1.622   1.839
 3709SOL    HW212027   1.211   1.564   1.816
 3710SOL     OW12028   1.612   3.983   5.275
 3710SOL    HW112029   1.707   3.960   5.294
 3710SOL    HW212030   1.563   3.901   5.247
 3711SOL     OW12031   1.777   5.603   4.643
 3711SOL    HW112032   1.701   5.537   4.643
 3711SOL    HW212033   1.770   5.663   4.563
 3712SOL     OW12034   3.013   5.404   4.327
 3712SOL    HW112035   2.984   5.425   4.420
 3712SOL    HW212036   3.106   5.438   4.312
 3713SOL     OW12037   6.087   0.378   4.997
 3713SOL    HW112038   6.152   0.441   5.041
 3713SOL    HW212039   6.078   0.296   5.054
 3714SOL     OW12040   0.264   4.350   0.011
 3714SOL    HW112041   0.218   4.309   0.090
 3714SOL    HW212042   0.289   4.278   6.967
 3715SOL     OW12043   6.232   4.557   3.569
 3715SOL    HW112044   6.277   4.565   3.657
 3715SOL    HW212045   6.240   4.463   3.536
 3716SOL     OW12046   5.688   5.757   5.531
 3716SOL    HW112047   5.722   5.815   5.605
 3716SOL    HW212048   5.752   5.759   5.454
 3717SOL     OW12049   4.294   0.607   0.636
 3717SOL    HW112050   4.357   0.595   0.713
 3717SOL    HW212051   4.276   0.704   0.623
 3718SOL     OW12052   6.107   6.752   5.974
 3718SOL    HW112053   6.123   6.844   6.009
 3718SOL    HW212054   6.016   6.721   6.003
 3719SOL     OW12055   2.883   4.465   0.382
 3719SOL    HW112056   2.953   4.468   0.310
 3719SOL    HW212057   2.848   4.372   0.390
 3720SOL     OW12058   0.145   2.886   0.881
 3720SOL    HW112059   0.224   2.909   0.823
 3720SOL    HW212060   0.172   2.892   0.977
 3721SOL     OW12061   6.187   0.591   5.386
 3721SOL    HW112062   6.153   0.515   5.442
 3721SOL    HW212063   6.204   0.670   5.445
 3722SOL     OW12064   5.545   6.376   2.035
 3722SOL    HW112065   5.552   6.443   1.961
 3722SOL    HW212066   5.456   6.385   2.080
 3723SOL     OW12067   4.827   3.745   6.312
 3723SOL    HW112068   4.874   3.820   6.358
 3723SOL    HW212069   4.731   3.770   6.296
 3724SOL     OW12070   0.264   3.961   4.453
 3724SOL    HW112071   0.199   3.987   4.381
 3724SOL    HW212072   0.347   3.925   4.411
 3725SOL     OW12073   1.297   6.179   6.898
 3725SOL    HW112074   1.211   6.140   6.929
 3725SOL    HW212075   1.302   6.173   6.798
 3726SOL     OW12076   6.280   3.828   5.642
 3726SOL    HW112077   6.193   3.779   5.633
 3726SOL    HW212078   6.322   3.837   5.552
 3727SOL     OW12079   6.761   2.157   4.077
 3727SOL    HW112080   6.820   2.154   4.157
 3727SOL    HW212081   6.680   2.213   4.097
 3728SOL     OW12082   2.157   4.424   1.004
 3728SOL    HW112083   2.153   4.324   0.997
 3728SOL    HW212084   2.252   4.454   0.997
 3729SOL     OW12085   0.067   6.838   5.580
 3729SOL    HW112086   0.113   6.763   5.628
 3729SOL    HW212087   0.134   6.910   5.558
 3730SOL     OW12088   4.912   5.186   4.670
 3730SOL    HW112089   4.920   5.284   4.652
 3730SOL    HW212090   4.851   5.144   4.603
 3731SOL     OW12091   0.300   2.301   0.786
 3731SOL    HW112092   0.276   2.376   0.847
 3731SOL    HW212093   0.218   2.267   0.740
 3732SOL     OW12094   3.724   3.207   6.668
 3732SOL    HW112095   3.783   3.266   6.612
 3732SOL    HW212096   3.757   3.113   6.663
 3733SOL     OW12097   1.241   0.645   3.800
 3733SOL    HW112098   1.275   0.736   3.778
 3733SOL    HW212099   1.240   0.589   3.717
 3734SOL     OW12100   3.558   6.928   1.534
 3734SOL    HW112101   3.481   6.944   1.595
 3734SOL    HW212102   3.526   6.878   1.453
 3735SOL     OW12103   4.601   0.367   2.915
 3735SOL    HW112104   4.530   0.318   2.864
 3735SOL    HW212105   4.681   0.308   2.924
 3736SOL     OW12106   0.190   1.317   0.163
 3736SOL    HW112107   0.123   1.383   0.128
 3736SOL    HW212108   0.190   1.319   0.263
 3737SOL     OW12109   5.848   2.189   2.772
 3737SOL    HW112110   5.906   2.156   2.697
 3737SOL    HW212111   5.889   2.272   2.811
 3738SOL     OW12112   0.720   0.739   1.082
 3738SOL    HW112113   0.675   0.821   1.046
 3738SOL    HW212114   0.690   0.723   1.176
 3739SOL     OW12115   3.007   4.129   6.692
 3739SOL    HW112116   3.060   4.211   6.711
 3739SOL    HW212117   2.955   4.103   6.773
 3740SOL     OW12118   5.227   6.060   6.637
 3740SOL    HW112119   5.271   5.975   6.610
 3740SOL    HW212120   5.130   6.044   6.654
 3741SOL     OW12121   5.034   3.608   0.398
 3741SOL    HW112122   4.971   3.534   0.374
 3741SOL    HW212123   5.128   3.573   0.399
 3742SOL     OW12124   4.780   5.510   1.175
 3742SOL    HW112125   4.696   5.458   1.165
 3742SOL    HW212126   4.856   5.460   1.135
 3743SOL     OW12127   3.470   4.061   0.673
 3743SOL    HW112128   3.557   4.085   0.716
 3743SOL    HW212129   3.467   3.963   0.657
 3744SOL     OW12130   6.535   6.356   2.601
 3744SOL    HW112131   6.466   6.292   2.636
 3744SOL    HW212132   6.491   6.444   2.579
 3745SOL     OW12133   4.713   2.752   2.780
 3745SOL    HW112134   4.655   2.677   2.748
 3745SOL    HW212135   4.735   2.812   2.704
 3746SOL     OW12136   5.895   0.341   4.566
 3746SOL    HW112137   5.864   0.435   4.577
 3746SOL    HW212138   5.983   0.330   4.611
 3747SOL     OW12139   3.259   5.803   5.115
 3747SOL    HW112140   3.327   5.833   5.182
 3747SOL    HW212141   3.169   5.834   5.143
 3748SOL     OW12142   5.077   2.372   3.945
 3748SOL    HW112143   5.064   2.275   3.965
 3748SOL    HW212144   5.046   2.426   4.023
 3749SOL     OW12145   6.725   6.556   2.254
 3749SOL    HW112146   6.772   6.470   2.234
 3749SOL    HW212147   6.637   6.558   2.206
 3750SOL     OW12148   5.612   3.826   1.139
 3750SOL    HW112149   5.563   3.869   1.214
 3750SOL    HW212150   5.709   3.850   1.144
 3751SOL     OW12151   0.721   4.248   1.817
 3751SOL    HW112152   0.699   4.295   1.902
 3751SOL    HW212153   0.658   4.171   1.804
 3752SOL     OW12154   0.190   6.741   6.088
 3752SOL    HW112155   0.124   6.703   6.153
 3752SOL    HW212156   0.279   6.751   6.133
 3753SOL     OW12157   0.021   0.894   4.961
 3753SOL    HW112158   0.013   0.968   5.028
 3753SOL    HW212159   0.011   0.806   5.007
 3754SOL     OW12160   6.331   5.981   1.299
 3754SOL    HW112161   6.419   5.978   1.347
 3754SOL    HW212162   6.308   5.888   1.268
 3755SOL     OW12163   4.755   2.828   2.448
 3755SOL    HW112164   4.783   2.844   2.353
 3755SOL    HW212165   4.784   2.906   2.504
 3756SOL     OW12166   3.339   0.156   6.804
 3756SOL    HW112167   3.294   0.130   6.889
 3756SOL    HW212168   3.411   0.090   6.783
 3757SOL     OW12169   3.958   4.591   6.516
 3757SOL    HW112170   3.896   4.668   6.533
 3757SOL    HW212171   3.916   4.507   6.549
 3758SOL     OW12172   0.058   0.373   2.661
 3758SOL    HW112173   0.089   0.281   2.638
 3758SOL    HW212174   0.116   0.440   2.615
 3759SOL     OW12175   5.187   5.398   0.727
 3759SOL    HW112176   5.181   5.497   0.738
 3759SOL    HW212177   5.118   5.353   0.784
 3760SOL     OW12178   2.111   1.918   5.529
 3760SOL    HW112179   2.061   1.994   5.488
 3760SOL    HW212180   2.050   1.840   5.541
 3761SOL     OW12181   0.375   6.492   4.560
 3761SOL    HW112182   0.424   6.531   4.638
 3761SOL    HW212183   0.393   6.547   4.479
 3762SOL     OW12184   0.484   3.430   6.760
 3762SOL    HW112185   0.559   3.483   6.719
 3762SOL    HW212186   0.476   3.454   6.857
 3763SOL     OW12187   6.668   3.768   5.658
 3763SOL    HW112188   6.768   3.776   5.667
 3763SOL    HW212189   6.629   3.859   5.640
 3764SOL     OW12190   2.826   6.732   4.498
 3764SOL    HW112191   2.839   6.646   4.450
 3764SOL    HW212192   2.862   6.724   4.591
 3765SOL     OW12193   6.191   1.450   3.592
 3765SOL    HW112194   6.119   1.390   3.627
 3765SOL    HW212195   6.154   1.507   3.520
 3766SOL     OW12196   1.896   0.201   4.997
 3766SOL    HW112197   1.977   0.162   5.040
 3766SOL    HW212198   1.834   0.128   4.970
 3767SOL     OW12199   1.039   4.668   0.605
 3767SOL    HW112200   0.996   4.612   0.676
 3767SOL    HW212201   1.036   4.619   0.518
 3768SOL     OW12202   4.215   6.511   1.207
 3768SOL    HW112203   4.125   6.526   1.165
 3768SOL    HW212204   4.258   6.599   1.227
 3769SOL     OW12205   4.557   6.849   4.955
 3769SOL    HW112206   4.621   6.837   4.879
 3769SOL    HW212207   4.467   6.874   4.919
 3770SOL     OW12208   2.195   2.118   0.222
 3770SOL    HW112209   2.190   2.195   0.158
 3770SOL    HW212210   2.271   2.132   0.285
 3771SOL     OW12211   4.359   1.519   5.110
 3771SOL    HW112212   4.351   1.598   5.050
 3771SOL    HW212213   4.381   1.550   5.203
 3772SOL     OW12214   4.665   0.502   2.477
 3772SOL    HW112215   4.583   0.518   2.422
 3772SOL    HW212216   4.741   0.557   2.441
 3773SOL     OW12217   6.637   1.942   0.790
 3773SOL    HW112218   6.574   1.892   0.849
 3773SOL    HW212219   6.587   1.979   0.712
 3774SOL     OW12220   0.901   2.330   2.397
 3774SOL    HW112221   0.948   2.393   2.336
 3774SOL    HW212222   0.833   2.278   2.346
 3775SOL     OW12223   5.702   3.352   3.495
 3775SOL    HW112224   5.796   3.349   3.528
 3775SOL    HW212225   5.644   3.398   3.562
 3776SOL     OW12226   2.574   2.944   6.667
 3776SOL    HW112227   2.552   2.857   6.623
 3776SOL    HW212228   2.642   2.929   6.739
 3777SOL     OW12229   1.438   3.772   3.234
 3777SOL    HW112230   1.471   3.790   3.142
 3777SOL    HW212231   1.435   3.857   3.286
 3778SOL     OW12232   2.601   6.223   1.962
 3778SOL    HW112233   2.684   6.259   2.004
 3778SOL    HW212234   2.624   6.146   1.903
 3779SOL     OW12235   2.114   4.999   6.900
 3779SOL    HW112236   2.093   4.904   6.876
 3779SOL    HW212237   2.194   5.030   6.850
 3780SOL     OW12238   2.942   0.102   4.387
 3780SOL    HW112239   2.969   0.177   4.327
 3780SOL    HW212240   2.898   0.138   4.469
 3781SOL     OW12241   2.716   5.614   4.812
 3781SOL    HW112242   2.667   5.701   4.808
 3781SOL    HW212243   2.665   5.549   4.869
 3782SOL     OW12244   2.535   1.167   3.091
 3782SOL    HW112245   2.599   1.120   3.029
 3782SOL    HW212246   2.508   1.254   3.051
 3783SOL     OW12247   5.003   6.102   5.560
 3783SOL    HW112248   4.970   6.127   5.652
 3783SOL    HW212249   5.077   6.035   5.568
 3784SOL     OW12250   5.043   2.092   3.952
 3784SOL    HW112251   5.019   2.057   3.862
 3784SOL    HW212252   5.065   2.015   4.012
 3785SOL     OW12253   1.414   1.969   1.838
 3785SOL    HW112254   1.466   2.051   1.862
 3785SOL    HW212255   1.457   1.890   1.882
 3786SOL     OW12256   3.396   6.119   2.513
 3786SOL    HW112257   3.314   6.161   2.550
 3786SOL    HW212258   3.399   6.022   2.539
 3787SOL     OW12259   4.445   1.315   4.161
 3787SOL    HW112260   4.420   1.333   4.256
 3787SOL    HW212261   4.421   1.221   4.137
 3788SOL     OW12262   6.257   3.452   2.158
 3788SOL    HW112263   6.324   3.447   2.084
 3788SOL    HW212264   6.248   3.547   2.188
 3789SOL     OW12265   1.613   5.720   2.521
 3789SOL    HW112266   1.703   5.749   2.488
 3789SOL    HW212267   1.625   5.652   2.593
 3790SOL     OW12268   2.020   2.895   3.187
 3790SOL    HW112269   2.101   2.842   3.164
 3790SOL    HW212270   1.963   2.843   3.250
 3791SOL     OW12271   6.517   0.516   2.221
 3791SOL    HW112272   6.471   0.485   2.137
 3791SOL    HW212273   6.572   0.440   2.258
 3792SOL     OW12274   0.079   0.111   6.113
 3792SOL    HW112275   0.071   0.044   6.039
 3792SOL    HW212276   0.170   0.103   6.154
 3793SOL     OW12277   1.322   6.627   2.909
 3793SOL    HW112278   1.292   6.692   2.978
 3793SOL    HW212279   1.355   6.543   2.954
 3794SOL     OW12280   3.928   6.769   2.835
 3794SOL    HW112281   3.924   6.869   2.847
 3794SOL    HW212282   3.955   6.748   2.741
 3795SOL     OW12283   5.209   0.275   1.005
 3795SOL    HW112284   5.251   0.357   1.045
 3795SOL    HW212285   5.155   0.228   1.074
 3796SOL     OW12286   1.292   3.222   0.858
 3796SOL    HW112287   1.310   3.141   0.914
 3796SOL    HW212288   1.297   3.304   0.915
 3797SOL     OW12289   0.342   5.489   2.288
 3797SOL    HW112290   0.257   5.440   2.309
 3797SOL    HW212291   0.384   5.450   2.207
 3798SOL     OW12292   0.883   4.187   1.130
 3798SOL    HW112293   0.979   4.214   1.132
 3798SOL    HW212294   0.861   4.137   1.214
 3799SOL     OW12295   1.432   0.428   5.266
 3799SOL    HW112296   1.458   0.495   5.196
 3799SOL    HW212297   1.374   0.472   5.334
 3800SOL     OW12298   5.295   2.526   5.165
 3800SOL    HW112299   5.260   2.464   5.234
 3800SOL    HW212300   5.312   2.616   5.206
 3801SOL     OW12301   0.156   0.333   6.602
 3801SOL    HW112302   0.163   0.235   6.618
 3801SOL    HW212303   0.063   0.363   6.622
 3802SOL     OW12304   1.321   2.220   5.528
 3802SOL    HW112305   1.311   2.252   5.433
 3802SOL    HW212306   1.383   2.142   5.531
 3803SOL     OW12307   3.725   0.929   1.403
 3803SOL    HW112308   3.774   0.922   1.316
 3803SOL    HW212309   3.725   0.839   1.448
 3804SOL     OW12310   4.533   2.916   5.373
 3804SOL    HW112311   4.435   2.909   5.351
 3804SOL    HW212312   4.583   2.939   5.289
 3805SOL     OW12313   1.963   3.545   1.889
 3805SOL    HW112314   2.023   3.547   1.809
 3805SOL    HW212315   2.018   3.534   1.972
 3806SOL     OW12316   3.495   1.124   0.714
 3806SOL    HW112317   3.475   1.031   0.683
 3806SOL    HW212318   3.429   1.187   0.672
 3807SOL     OW12319   1.867   0.220   2.795
 3807SOL    HW112320   1.965   0.209   2.776
 3807SOL    HW212321   1.822   0.261   2.716
 3808SOL     OW12322   2.982   0.638   0.650
 3808SOL    HW112323   3.021   0.564   0.704
 3808SOL    HW212324   3.050   0.711   0.640
 3809SOL     OW12325   4.257   0.397   6.849
 3809SOL    HW112326   4.246   0.413   6.947
 3809SOL    HW212327   4.280   0.483   6.803
 3810SOL     OW12328   2.394   3.184   6.163
 3810SOL    HW112329   2.373   3.266   6.110
 3810SOL    HW212330   2.399   3.104   6.102
 3811SOL     OW12331   1.098   0.757   6.103
 3811SOL    HW112332   1.111   0.658   6.111
 3811SOL    HW212333   1.187   0.801   6.089
 3812SOL     OW12334   5.385   1.282   5.828
 3812SOL    HW112335   5.478   1.267   5.793
 3812SOL    HW212336   5.373   1.230   5.912
 3813SOL     OW12337   3.908   4.822   2.070
 3813SOL    HW112338   3.809   4.805   2.068
 3813SOL    HW212339   3.926   4.915   2.036
 3814SOL     OW12340   1.639   0.175   2.291
 3814SOL    HW112341   1.550   0.213   2.264
 3814SOL    HW212342   1.699   0.173   2.211
 3815SOL     OW12343   5.466   1.943   1.422
 3815SOL    HW112344   5.552   1.975   1.461
 3815SOL    HW212345   5.391   2.001   1.455
 3816SOL     OW12346   0.089   6.543   1.279
 3816SOL    HW112347   0.032   6.515   1.357
 3816SOL    HW212348   0.173   6.488   1.278
 3817SOL     OW12349   4.655   1.371   5.593
 3817SOL    HW112350   4.621   1.376   5.687
 3817SOL    HW212351   4.674   1.275   5.570
 3818SOL     OW12352   4.481   5.804   2.866
 3818SOL    HW112353   4.567   5.810   2.815
 3818SOL    HW212354   4.475   5.881   2.929
 3819SOL     OW12355   5.837   4.513   6.116
 3819SOL    HW112356   5.853   4.605   6.151
 3819SOL    HW212357   5.782   4.462   6.182
 3820SOL     OW12358   4.978   6.159   3.610
 3820SOL    HW112359   4.960   6.065   3.640
 3820SOL    HW212360   5.065   6.162   3.561
 3821SOL     OW12361   0.557   4.437   1.336
 3821SOL    HW112362   0.537   4.358   1.278
 3821SOL    HW212363   0.496   4.436   1.415
 3822SOL     OW12364   0.852   4.840   1.616
 3822SOL    HW112365   0.869   4.847   1.714
 3822SOL    HW212366   0.878   4.925   1.570
 3823SOL     OW12367   2.414   3.077   5.609
 3823SOL    HW112368   2.480   3.085   5.683
 3823SOL    HW212369   2.442   3.136   5.533
 3824SOL     OW12370   6.557   2.250   6.590
 3824SOL    HW112371   6.473   2.230   6.539
 3824SOL    HW212372   6.553   2.203   6.679
 3825SOL     OW12373   6.350   6.569   5.954
 3825SOL    HW112374   6.428   6.619   5.918
 3825SOL    HW212375   6.271   6.630   5.960
 3826SOL     OW12376   6.892   2.028   0.764
 3826SOL    HW112377   6.796   2.004   0.781
 3826SOL    HW212378   6.949   1.992   0.838
 3827SOL     OW12379   5.560   2.342   0.926
 3827SOL    HW112380   5.566   2.377   1.019
 3827SOL    HW212381   5.480   2.282   0.918
 3828SOL     OW12382   4.351   1.145   1.341
 3828SOL    HW112383   4.425   1.212   1.332
 3828SOL    HW212384   4.273   1.188   1.387
 3829SOL     OW12385   0.871   4.838   3.545
 3829SOL    HW112386   0.876   4.751   3.495
 3829SOL    HW212387   0.816   4.826   3.627
 3830SOL     OW12388   3.301   0.313   5.550
 3830SOL    HW112389   3.290   0.222   5.511
 3830SOL    HW212390   3.232   0.375   5.513
 3831SOL     OW12391   4.598   1.629   2.515
 3831SOL    HW112392   4.542   1.621   2.432
 3831SOL    HW212393   4.572   1.713   2.564
 3832SOL     OW12394   5.281   0.251   2.406
 3832SOL    HW112395   5.271   0.346   2.436
 3832SOL    HW212396   5.246   0.241   2.313
 3833SOL     OW12397   1.834   6.267   1.270
 3833SOL    HW112398   1.921   6.237   1.231
 3833SOL    HW212399   1.780   6.186   1.295
 3834SOL     OW12400   2.389   2.650   0.679
 3834SOL    HW112401   2.364   2.733   0.728
 3834SOL    HW212402   2.480   2.660   0.640
 3835SOL     OW12403   3.550   5.729   3.848
 3835SOL    HW112404   3.471   5.673   3.874
 3835SOL    HW212405   3.629   5.669   3.834
 3836SOL     OW12406   1.801   2.881   5.175
 3836SOL    HW112407   1.862   2.927   5.240
 3836SOL    HW212408   1.856   2.831   5.108
 3837SOL     OW12409   3.240   3.431   6.658
 3837SOL    HW112410   3.249   3.505   6.591
 3837SOL    HW212411   3.318   3.432   6.720
 3838SOL     OW12412   5.739   3.156   5.035
 3838SOL    HW112413   5.751   3.245   5.080
 3838SOL    HW212414   5.807   3.091   5.070
 3839SOL     OW12415   0.129   6.069   6.278
 3839SOL    HW112416   0.226   6.063   6.257
 3839SOL    HW212417   0.114   6.042   6.373
 3840SOL     OW12418   2.529   0.952   3.579
 3840SOL    HW112419   2.571   0.864   3.602
 3840SOL    HW212420   2.567   1.024   3.637
 3841SOL     OW12421   1.161   3.902   4.705
 3841SOL    HW112422   1.088   3.879   4.640
 3841SOL    HW212423   1.168   4.001   4.714
 3842SOL     OW12424   1.810   5.352   0.025
 3842SOL    HW112425   1.827   5.434   6.992
 3842SOL    HW212426   1.799   5.377   0.121
 3843SOL     OW12427   5.720   4.214   0.199
 3843SOL    HW112428   5.730   4.124   0.240
 3843SOL    HW212429   5.809   4.260   0.197
 3844SOL     OW12430   2.610   4.387   5.660
 3844SOL    HW112431   2.568   4.467   5.617
 3844SOL    HW212432   2.637   4.321   5.590
 3845SOL     OW12433   3.424   3.290   3.610
 3845SOL    HW112434   3.489   3.363   3.631
 3845SOL    HW212435   3.432   3.265   3.513
 3846SOL     OW12436   6.737   4.366   4.203
 3846SOL    HW112437   6.653   4.360   4.150
 3846SOL    HW212438   6.754   4.462   4.227
 3847SOL     OW12439   0.537   6.993   0.603
 3847SOL    HW112440   0.563   0.022   0.520
 3847SOL    HW212441   0.451   6.945   0.587
 3848SOL     OW12442   2.830   5.276   1.145
 3848SOL    HW112443   2.731   5.284   1.145
 3848SOL    HW212444   2.863   5.276   1.050
 3849SOL     OW12445   2.488   1.840   6.052
 3849SOL    HW112446   2.561   1.813   6.115
 3849SOL    HW212447   2.431   1.760   6.031
 3850SOL     OW12448   2.119   3.642   1.327
 3850SOL    HW112449   2.183   3.613   1.398
 3850SOL    HW212450   2.033   3.671   1.369
 3851SOL     OW12451   2.535   2.731   1.139
 3851SOL    HW112452   2.528   2.684   1.227
 3851SOL    HW212453   2.628   2.765   1.127
 3852SOL     OW12454   4.381   1.263   5.054
 3852SOL    HW112455   4.427   1.240   5.139
 3852SOL    HW212456   4.371   1.363   5.047
 3853SOL     OW12457   1.433   2.978   1.778
 3853SOL    HW112458   1.389   2.917   1.844
 3853SOL    HW212459   1.384   2.974   1.691
 3854SOL     OW12460   1.690   3.222   4.846
 3854SOL    HW112461   1.658   3.146   4.903
 3854SOL    HW212462   1.612   3.281   4.824
 3855SOL     OW12463   6.974   1.807   5.460
 3855SOL    HW112464   6.941   1.756   5.380
 3855SOL    HW212465   6.922   1.892   5.468
 3856SOL     OW12466   0.931   6.552   5.604
 3856SOL    HW112467   0.854   6.598   5.648
 3856SOL    HW212468   1.017   6.593   5.636
 3857SOL     OW12469   0.936   0.149   6.846
 3857SOL    HW112470   0.846   0.161   6.805
 3857SOL    HW212471   1.001   0.213   6.804
 3858SOL     OW12472   2.491   5.195   6.883
 3858SOL    HW112473   2.541   5.271   6.923
 3858SOL    HW212474   2.468   5.128   6.954
 3859SOL     OW12475   6.140   2.626   1.703
 3859SOL    HW112476   6.160   2.528   1.706
 3859SOL    HW212477   6.136   2.656   1.608
 3860SOL     OW12478   2.117   6.289   5.145
 3860SOL    HW112479   2.115   6.387   5.129
 3860SOL    HW212480   2.175   6.245   5.076
 3861SOL     OW12481   3.908   4.040   0.281
 3861SOL    HW112482   3.940   4.117   0.335
 3861SOL    HW212483   3.977   3.968   0.282
 3862SOL     OW12484   0.372   5.767   5.498
 3862SOL    HW112485   0.379   5.814   5.410
 3862SOL    HW212486   0.339   5.831   5.568
 3863SOL     OW12487   2.962   3.564   0.240
 3863SOL    HW112488   2.956   3.629   0.164
 3863SOL    HW212489   3.019   3.487   0.213
 3864SOL     OW12490   3.093   1.380   0.470
 3864SOL    HW112491   3.001   1.347   0.493
 3864SOL    HW212492   3.086   1.454   0.403
 3865SOL     OW12493   4.169   0.836   2.263
 3865SOL    HW112494   4.103   0.911   2.255
 3865SOL    HW212495   4.261   0.874   2.270
 3866SOL     OW12496   2.741   6.368   6.216
 3866SOL    HW112497   2.776   6.304   6.148
 3866SOL    HW212498   2.650   6.400   6.189
 3867SOL     OW12499   1.771   4.637   3.336
 3867SOL    HW112500   1.707   4.561   3.344
 3867SOL    HW212501   1.850   4.609   3.283
 3868SOL     OW12502   2.655   5.335   2.844
 3868SOL    HW112503   2.713   5.289   2.911
 3868SOL    HW212504   2.559   5.323   2.870
 3869SOL     OW12505   0.450   1.216   3.910
 3869SOL    HW112506   0.495   1.155   3.845
 3869SOL    HW212507   0.517   1.282   3.945
 3870SOL     OW12508   4.018   4.377   0.729
 3870SOL    HW112509   4.072   4.433   0.667
 3870SOL    HW212510   4.040   4.401   0.824
 3871SOL     OW12511   3.198   1.124   5.220
 3871SOL    HW112512   3.215   1.169   5.132
 3871SOL    HW212513   3.279   1.134   5.278
 3872SOL     OW12514   4.413   4.072   0.818
 3872SOL    HW112515   4.467   3.991   0.840
 3872SOL    HW212516   4.316   4.047   0.815
 3873SOL     OW12517   5.534   4.874   2.024
 3873SOL    HW112518   5.546   4.918   1.935
 3873SOL    HW212519   5.571   4.781   2.020
 3874SOL     OW12520   4.688   5.852   5.848
 3874SOL    HW112521   4.753   5.810   5.783
 3874SOL    HW212522   4.733   5.926   5.897
 3875SOL     OW12523   2.182   4.203   0.425
 3875SOL    HW112524   2.231   4.116   0.430
 3875SOL    HW212525   2.183   4.247   0.514
 3876SOL     OW12526   5.546   3.598   1.970
 3876SOL    HW112527   5.641   3.630   1.977
 3876SOL    HW212528   5.525   3.577   1.875
 3877SOL     OW12529   4.733   1.776   2.191
 3877SOL    HW112530   4.636   1.781   2.214
 3877SOL    HW212531   4.786   1.830   2.256
 3878SOL     OW12532   4.657   5.812   4.754
 3878SOL    HW112533   4.629   5.907   4.771
 3878SOL    HW212534   4.581   5.751   4.775
 3879SOL     OW12535   2.784   6.187   0.765
 3879SOL    HW112536   2.735   6.110   0.723
 3879SOL    HW212537   2.722   6.235   0.827
 3880SOL     OW12538   5.792   2.083   4.221
 3880SOL    HW112539   5.877   2.036   4.196
 3880SOL    HW212540   5.789   2.173   4.178
 3881SOL     OW12541   0.343   5.899   0.691
 3881SOL    HW112542   0.356   5.960   0.613
 3881SOL    HW212543   0.383   5.809   0.670
 3882SOL     OW12544   0.269   6.189   6.612
 3882SOL    HW112545   0.233   6.266   6.665
 3882SOL    HW212546   0.336   6.221   6.546
 3883SOL     OW12547   3.717   1.850   6.956
 3883SOL    HW112548   3.808   1.834   6.919
 3883SOL    HW212549   3.677   1.932   6.914
 3884SOL     OW12550   2.014   5.269   5.653
 3884SOL    HW112551   1.985   5.224   5.737
 3884SOL    HW212552   1.943   5.334   5.624
 3885SOL     OW12553   7.008   1.206   4.552
 3885SOL    HW112554   0.072   1.231   4.598
 3885SOL    HW212555   6.934   1.266   4.583
 3886SOL     OW12556   0.109   5.948   5.309
 3886SOL    HW112557   0.048   5.881   5.267
 3886SOL    HW212558   0.101   5.944   5.408
 3887SOL     OW12559   5.743   2.765   4.942
 3887SOL    HW112560   5.735   2.779   4.844
 3887SOL    HW212561   5.661   2.800   4.988
 3888SOL     OW12562   5.541   1.863   2.404
 3888SOL    HW112563   5.523   1.785   2.465
 3888SOL    HW212564   5.525   1.948   2.454
 3889SOL     OW12565   6.279   5.860   6.683
 3889SOL    HW112566   6.254   5.955   6.699
 3889SOL    HW212567   6.372   5.844   6.717
 3890SOL     OW12568   6.579   3.209   2.893
 3890SOL    HW112569   6.605   3.128   2.839
 3890SOL    HW212570   6.520   3.182   2.968
 3891SOL     OW12571   4.883   5.446   5.671
 3891SOL    HW112572   4.790   5.413   5.684
 3891SOL    HW212573   4.885   5.545   5.674
 3892SOL     OW12574   5.661   5.923   4.122
 3892SOL    HW112575   5.613   5.873   4.193
 3892SOL    HW212576   5.760   5.913   4.135
 3893SOL     OW12577   3.007   6.132   4.527
 3893SOL    HW112578   3.067   6.071   4.579
 3893SOL    HW212579   3.029   6.227   4.549
 3894SOL     OW12580   5.262   5.324   6.656
 3894SOL    HW112581   5.222   5.363   6.738
 3894SOL    HW212582   5.357   5.299   6.674
 3895SOL     OW12583   1.768   1.816   5.857
 3895SOL    HW112584   1.804   1.902   5.820
 3895SOL    HW212585   1.722   1.834   5.943
 3896SOL     OW12586   6.353   3.592   0.225
 3896SOL    HW112587   6.330   3.495   0.222
 3896SOL    HW212588   6.416   3.609   0.300
 3897SOL     OW12589   3.356   6.622   3.585
 3897SOL    HW112590   3.304   6.704   3.563
 3897SOL    HW212591   3.378   6.573   3.500
 3898SOL     OW12592   2.950   3.605   4.174
 3898SOL    HW112593   2.920   3.515   4.142
 3898SOL    HW212594   2.955   3.667   4.096
 3899SOL     OW12595   4.245   2.046   6.161
 3899SOL    HW112596   4.226   2.014   6.254
 3899SOL    HW212597   4.344   2.053   6.148
 3900SOL     OW12598   0.660   2.691   4.123
 3900SOL    HW112599   0.703   2.776   4.093
 3900SOL    HW212600   0.571   2.681   4.079
 3901SOL     OW12601   3.108   5.480   5.733
 3901SOL    HW112602   3.074   5.449   5.644
 3901SOL    HW212603   3.207   5.488   5.729
 3902SOL     OW12604   3.908   5.350   3.152
 3902SOL    HW112605   3.918   5.277   3.220
 3902SOL    HW212606   3.857   5.314   3.073
 3903SOL     OW12607   3.838   3.732   6.248
 3903SOL    HW112608   3.822   3.830   6.241
 3903SOL    HW212609   3.792   3.685   6.173
 3904SOL     OW12610   2.244   0.113   6.981
 3904SOL    HW112611   2.146   0.095   6.991
 3904SOL    HW212612   2.295   0.028   6.999
 3905SOL     OW12613   4.836   0.300   6.229
 3905SOL    HW112614   4.852   0.350   6.314
 3905SOL    HW212615   4.738   0.284   6.217
 3906SOL     OW12616   6.814   5.671   4.615
 3906SOL    HW112617   6.761   5.629   4.689
 3906SOL    HW212618   6.861   5.752   4.649
 3907SOL     OW12619   0.158   1.803   4.479
 3907SOL    HW112620   0.224   1.877   4.472
 3907SOL    HW212621   0.191   1.723   4.427
 3908SOL     OW12622   2.162   0.548   4.816
 3908SOL    HW112623   2.236   0.615   4.811
 3908SOL    HW212624   2.200   0.460   4.844
 3909SOL     OW12625   5.450   3.877   1.910
 3909SOL    HW112626   5.350   3.878   1.911
 3909SOL    HW212627   5.483   3.798   1.961
 3910SOL     OW12628   2.976   2.876   1.448
 3910SOL    HW112629   2.927   2.892   1.534
 3910SOL    HW212630   2.922   2.911   1.372
 3911SOL     OW12631   0.106   1.355   1.134
 3911SOL    HW112632   0.012   1.326   1.154
 3911SOL    HW212633   0.109   1.395   1.042
 3912SOL     OW12634   4.623   4.162   0.271
 3912SOL    HW112635   4.647   4.114   0.355
 3912SOL    HW212636   4.593   4.095   0.202
 3913SOL     OW12637   4.235   5.249   1.286
 3913SOL    HW112638   4.275   5.341   1.288
 3913SOL    HW212639   4.193   5.229   1.375
 3914SOL     OW12640   6.837   1.412   0.739
 3914SOL    HW112641   6.826   1.327   0.791
 3914SOL    HW212642   6.867   1.484   0.801
 3915SOL     OW12643   5.884   0.582   5.246
 3915SOL    HW112644   5.876   0.553   5.341
 3915SOL    HW212645   5.950   0.657   5.240
 3916SOL     OW12646   1.634   2.353   2.374
 3916SOL    HW112647   1.721   2.303   2.383
 3916SOL    HW212648   1.639   2.414   2.295
 3917SOL     OW12649   4.426   5.550   2.306
 3917SOL    HW112650   4.445   5.620   2.374
 3917SOL    HW212651   4.511   5.527   2.257
 3918SOL     OW12652   4.280   0.051   1.048
 3918SOL    HW112653   4.228   6.988   1.057
 3918SOL    HW212654   4.247   0.103   0.969
 3919SOL     OW12655   5.135   5.764   3.243
 3919SOL    HW112656   5.164   5.687   3.186
 3919SOL    HW212657   5.172   5.754   3.335
 3920SOL     OW12658   3.883   1.851   5.491
 3920SOL    HW112659   3.903   1.927   5.429
 3920SOL    HW212660   3.871   1.767   5.438
 3921SOL     OW12661   1.409   3.157   5.736
 3921SOL    HW112662   1.403   3.246   5.782
 3921SOL    HW212663   1.423   3.171   5.638
 3922SOL     OW12664   5.034   2.883   4.078
 3922SOL    HW112665   5.028   2.798   4.025
 3922SOL    HW212666   4.943   2.904   4.115
 3923SOL     OW12667   5.452   0.897   1.760
 3923SOL    HW112668   5.372   0.933   1.807
 3923SOL    HW212669   5.531   0.956   1.778
 3924SOL     OW12670   5.323   4.757   4.290
 3924SOL    HW112671   5.364   4.820   4.356
 3924SOL    HW212672   5.231   4.788   4.266
 3925SOL     OW12673   4.129   5.576   1.587
 3925SOL    HW112674   4.072   5.607   1.663
 3925SOL    HW212675   4.212   5.534   1.623
 3926SOL     OW12676   1.017   6.130   5.344
 3926SOL    HW112677   0.917   6.128   5.345
 3926SOL    HW212678   1.049   6.124   5.250
 3927SOL     OW12679   6.154   0.237   5.224
 3927SOL    HW112680   6.157   0.154   5.280
 3927SOL    HW212681   6.176   0.317   5.281
 3928SOL     OW12682   4.574   6.456   2.763
 3928SOL    HW112683   4.543   6.419   2.850
 3928SOL    HW212684   4.516   6.420   2.690
 3929SOL     OW12685   1.376   0.863   5.723
 3929SOL    HW112686   1.351   0.904   5.636
 3929SOL    HW212687   1.400   0.934   5.789
 3930SOL     OW12688   2.266   6.000   4.748
 3930SOL    HW112689   2.305   5.946   4.674
 3930SOL    HW212690   2.329   6.073   4.774
 3931SOL     OW12691   0.782   2.449   0.425
 3931SOL    HW112692   0.793   2.486   0.517
 3931SOL    HW212693   0.753   2.354   0.431
 3932SOL     OW12694   2.176   4.158   2.596
 3932SOL    HW112695   2.129   4.206   2.670
 3932SOL    HW212696   2.116   4.089   2.557
 3933SOL     OW12697   2.079   6.480   1.275
 3933SOL    HW112698   2.176   6.503   1.281
 3933SOL    HW212699   2.045   6.453   1.364
 3934SOL     OW12700   1.977   6.492   1.558
 3934SOL    HW112701   2.021   6.578   1.585
 3934SOL    HW212702   2.035   6.416   1.586
 3935SOL     OW12703   0.540   2.323   4.806
 3935SOL    HW112704   0.606   2.252   4.830
 3935SOL    HW212705   0.554   2.402   4.865
 3936SOL     OW12706   6.852   3.971   4.232
 3936SOL    HW112707   6.775   4.026   4.263
 3936SOL    HW212708   6.842   3.950   4.135
 3937SOL     OW12709   0.668   6.309   0.422
 3937SOL    HW112710   0.760   6.344   0.404
 3937SOL    HW212711   0.668   6.209   0.413
 3938SOL     OW12712   0.420   3.831   0.047
 3938SOL    HW112713   0.452   3.909   0.101
 3938SOL    HW212714   0.344   3.786   0.094
 3939SOL     OW12715   1.616   6.867   3.961
 3939SOL    HW112716   1.573   6.876   3.870
 3939SOL    HW212717   1.672   6.948   3.979
 3940SOL     OW12718   2.440   6.122   6.291
 3940SOL    HW112719   2.367   6.086   6.233
 3940SOL    HW212720   2.524   6.071   6.272
 3941SOL     OW12721   5.475   5.587   2.346
 3941SOL    HW112722   5.396   5.580   2.407
 3941SOL    HW212723   5.474   5.675   2.300
 3942SOL     OW12724   6.460   6.727   6.249
 3942SOL    HW112725   6.397   6.656   6.216
 3942SOL    HW212726   6.407   6.807   6.277
 3943SOL     OW12727   1.659   3.803   0.070
 3943SOL    HW112728   1.640   3.841   0.160
 3943SOL    HW212729   1.574   3.786   0.022
 3944SOL     OW12730   4.809   3.433   6.609
 3944SOL    HW112731   4.751   3.432   6.690
 3944SOL    HW212732   4.905   3.428   6.636
 3945SOL     OW12733   6.672   0.705   3.361
 3945SOL    HW112734   6.730   0.667   3.433
 3945SOL    HW212735   6.628   0.789   3.395
 3946SOL     OW12736   5.962   2.665   1.084
 3946SOL    HW112737   5.966   2.750   1.138
 3946SOL    HW212738   5.921   2.684   0.995
 3947SOL     OW12739   5.830   6.900   2.185
 3947SOL    HW112740   5.833   6.858   2.094
 3947SOL    HW212741   5.876   6.989   2.182
 3948SOL     OW12742   2.365   1.038   4.901
 3948SOL    HW112743   2.308   0.956   4.901
 3948SOL    HW212744   2.422   1.040   4.819
 3949SOL     OW12745   5.970   0.102   2.188
 3949SOL    HW112746   5.945   0.167   2.117
 3949SOL    HW212747   6.062   0.067   2.170
 3950SOL     OW12748   2.756   4.684   1.645
 3950SOL    HW112749   2.658   4.702   1.656
 3950SOL    HW212750   2.796   4.661   1.734
 3951SOL     OW12751   6.685   2.567   3.453
 3951SOL    HW112752   6.747   2.602   3.382
 3951SOL    HW212753   6.735   2.555   3.538
 3952SOL     OW12754   5.808   4.588   6.745
 3952SOL    HW112755   5.875   4.539   6.802
 3952SOL    HW212756   5.790   4.536   6.662
 3953SOL     OW12757   3.375   3.660   5.655
 3953SOL    HW112758   3.468   3.632   5.680
 3953SOL    HW212759   3.379   3.731   5.585
 3954SOL     OW12760   1.214   3.557   4.954
 3954SOL    HW112761   1.272   3.636   4.975
 3954SOL    HW212762   1.129   3.588   4.912
 3955SOL     OW12763   6.055   3.398   0.155
 3955SOL    HW112764   6.013   3.486   0.180
 3955SOL    HW212765   5.990   3.324   0.173
 3956SOL     OW12766   6.920   2.960   5.423
 3956SOL    HW112767   6.860   3.007   5.359
 3956SOL    HW212768   6.992   2.913   5.372
 3957SOL     OW12769   0.580   2.342   2.005
 3957SOL    HW112770   0.591   2.369   2.101
 3957SOL    HW212771   0.576   2.242   1.999
 3958SOL     OW12772   5.565   6.045   1.243
 3958SOL    HW112773   5.594   6.090   1.328
 3958SOL    HW212774   5.548   5.948   1.261
 3959SOL     OW12775   2.817   4.975   1.763
 3959SOL    HW112776   2.870   5.059   1.779
 3959SOL    HW212777   2.872   4.896   1.792
 3960SOL     OW12778   5.842   2.829   0.253
 3960SOL    HW112779   5.810   2.848   0.160
 3960SOL    HW212780   5.805   2.742   0.284
 3961SOL     OW12781   7.000   1.063   1.090
 3961SOL    HW112782   7.013   1.039   1.186
 3961SOL    HW212783   0.017   0.991   1.032
 3962SOL     OW12784   6.939   0.314   6.116
 3962SOL    HW112785   6.998   0.233   6.122
 3962SOL    HW212786   6.993   0.396   6.133
 3963SOL     OW12787   5.012   4.134   4.071
 3963SOL    HW112788   5.073   4.061   4.103
 3963SOL    HW212789   5.066   4.212   4.041
 3964SOL     OW12790   5.829   4.966   0.301
 3964SOL    HW112791   5.802   5.061   0.314
 3964SOL    HW212792   5.766   4.921   0.238
 3965SOL     OW12793   3.427   3.689   0.976
 3965SOL    HW112794   3.409   3.593   0.999
 3965SOL    HW212795   3.359   3.747   1.021
 3966SOL     OW12796   6.695   3.409   5.962
 3966SOL    HW112797   6.630   3.340   5.994
 3966SOL    HW212798   6.717   3.392   5.866
 3967SOL     OW12799   2.328   6.717   0.286
 3967SOL    HW112800   2.402   6.653   0.263
 3967SOL    HW212801   2.240   6.668   0.285
 3968SOL     OW12802   4.574   2.598   0.895
 3968SOL    HW112803   4.629   2.514   0.891
 3968SOL    HW212804   4.535   2.617   0.805
 3969SOL     OW12805   0.006   6.570   1.005
 3969SOL    HW112806   0.023   6.534   1.096
 3969SOL    HW212807   0.081   6.631   0.978
 3970SOL     OW12808   5.811   4.412   3.768
 3970SOL    HW112809   5.768   4.452   3.848
 3970SOL    HW212810   5.857   4.484   3.715
 3971SOL     OW12811   0.711   5.605   3.678
 3971SOL    HW112812   0.801   5.629   3.714
 3971SOL    HW212813   0.721   5.565   3.587
 3972SOL     OW12814   1.346   0.091   5.972
 3972SOL    HW112815   1.282   0.133   5.908
 3972SOL    HW212816   1.295   0.031   6.034
 3973SOL     OW12817   4.085   3.710   2.599
 3973SOL    HW112818   4.108   3.714   2.696
 3973SOL    HW212819   4.108   3.619   2.563
 3974SOL     OW12820   4.774   0.863   6.657
 3974SOL    HW112821   4.758   0.961   6.645
 3974SOL    HW212822   4.791   0.820   6.568
 3975SOL     OW12823   0.277   6.845   4.354
 3975SOL    HW112824   0.254   6.873   4.260
 3975SOL    HW212825   0.197   6.857   4.412
 3976SOL     OW12826   1.076   2.870   5.593
 3976SOL    HW112827   1.127   2.926   5.658
 3976SOL    HW212828   1.044   2.786   5.638
 3977SOL     OW12829   3.291   5.158   5.211
 3977SOL    HW112830   3.354   5.093   5.167
 3977SOL    HW212831   3.334   5.193   5.295
 3978SOL     OW12832   5.735   3.412   6.229
 3978SOL    HW112833   5.714   3.389   6.134
 3978SOL    HW212834   5.833   3.429   6.238
 3979SOL     OW12835   1.089   5.988   3.087
 3979SOL    HW112836   1.070   6.062   3.023
 3979SOL    HW212837   1.013   5.979   3.152
 3980SOL     OW12838   5.186   3.930   4.127
 3980SOL    HW112839   5.207   3.894   4.036
 3980SOL    HW212840   5.237   3.880   4.196
 3981SOL     OW12841   0.022   1.187   6.424
 3981SOL    HW112842   6.979   1.215   6.495
 3981SOL    HW212843   0.038   1.264   6.362
 3982SOL     OW12844   2.138   2.888   4.772
 3982SOL    HW112845   2.217   2.858   4.719
 3982SOL    HW212846   2.148   2.984   4.796
 3983SOL     OW12847   3.487   0.459   3.839
 3983SOL    HW112848   3.505   0.462   3.740
 3983SOL    HW212849   3.400   0.505   3.858
 3984SOL     OW12850   1.437   5.721   2.318
 3984SOL    HW112851   1.441   5.623   2.340
 3984SOL    HW212852   1.482   5.773   2.390
 3985SOL     OW12853   2.006   2.653   1.338
 3985SOL    HW112854   2.005   2.560   1.301
 3985SOL    HW212855   2.041   2.716   1.269
 3986SOL     OW12856   0.053   2.365   2.654
 3986SOL    HW112857   0.093   2.441   2.707
 3986SOL    HW212858   0.108   2.283   2.668
 3987SOL     OW12859   1.227   4.377   5.019
 3987SOL    HW112860   1.138   4.356   4.978
 3987SOL    HW212861   1.273   4.291   5.042
 3988SOL     OW12862   4.921   6.966   1.879
 3988SOL    HW112863   4.898   6.938   1.973
 3988SOL    HW212864   5.012   7.006   1.878
 3989SOL     OW12865   4.071   1.021   5.833
 3989SOL    HW112866   4.039   1.090   5.767
 3989SOL    HW212867   4.128   0.954   5.785
 3990SOL     OW12868   6.285   1.242   4.039
 3990SOL    HW112869   6.319   1.231   4.132
 3990SOL    HW212870   6.219   1.317   4.036
 3991SOL     OW12871   0.117   2.203   3.408
 3991SOL    HW112872   0.196   2.141   3.415
 3991SOL    HW212873   0.036   2.156   3.443
 3992SOL     OW12874   5.350   3.526   6.660
 3992SOL    HW112875   5.410   3.446   6.663
 3992SOL    HW212876   5.362   3.579   6.744
 3993SOL     OW12877   1.635   0.952   4.029
 3993SOL    HW112878   1.670   1.046   4.025
 3993SOL    HW212879   1.711   0.888   4.020
 3994SOL     OW12880   3.346   1.892   3.635
 3994SOL    HW112881   3.413   1.952   3.592
 3994SOL    HW212882   3.275   1.867   3.569
 3995SOL     OW12883   1.456   3.649   2.486
 3995SOL    HW112884   1.447   3.553   2.459
 3995SOL    HW212885   1.380   3.702   2.449
 3996SOL     OW12886   6.460   6.642   4.771
 3996SOL    HW112887   6.527   6.601   4.833
 3996SOL    HW212888   6.402   6.571   4.733
 3997SOL     OW12889   5.699   3.737   4.273
 3997SOL    HW112890   5.642   3.773   4.347
 3997SOL    HW212891   5.649   3.741   4.187
 3998SOL     OW12892   4.750   2.414   3.876
 3998SOL    HW112893   4.826   2.478   3.880
 3998SOL    HW212894   4.665   2.463   3.896
 3999SOL     OW12895   4.721   2.874   0.571
 3999SOL    HW112896   4.730   2.972   0.554
 3999SOL    HW212897   4.676   2.860   0.660
 4000SOL     OW12898   2.052   4.880   3.522
 4000SOL    HW112899   1.956   4.901   3.544
 4000SOL    HW212900   2.103   4.965   3.512
 4001SOL     OW12901   0.488   6.135   4.297
 4001SOL    HW112902   0.435   6.051   4.306
 4001SOL    HW212903   0.524   6.162   4.386
 4002SOL     OW12904   3.970   3.858   4.691
 4002SOL    HW112905   3.876   3.848   4.724
 4002SOL    HW212906   4.027   3.894   4.764
 4003SOL     OW12907   2.325   0.765   4.866
 4003SOL    HW112908   2.407   0.795   4.915
 4003SOL    HW212909   2.337   0.783   4.768
 4004SOL     OW12910   1.900   4.790   4.693
 4004SOL    HW112911   1.996   4.806   4.717
 4004SOL    HW212912   1.851   4.752   4.771
 4005SOL     OW12913   4.965   2.832   0.409
 4005SOL    HW112914   4.898   2.844   0.483
 4005SOL    HW212915   4.982   2.921   0.366
 4006SOL     OW12916   6.879   5.361   2.090
 4006SOL    HW112917   6.862   5.352   2.188
 4006SOL    HW212918   6.961   5.417   2.075
 4007SOL     OW12919   0.873   1.316   1.792
 4007SOL    HW112920   0.802   1.276   1.733
 4007SOL    HW212921   0.835   1.331   1.884
 4008SOL     OW12922   3.283   1.417   1.422
 4008SOL    HW112923   3.262   1.421   1.519
 4008SOL    HW212924   3.223   1.480   1.372
 4009SOL     OW12925   3.773   2.527   0.835
 4009SOL    HW112926   3.873   2.531   0.839
 4009SOL    HW212927   3.735   2.564   0.920
 4010SOL     OW12928   1.685   4.476   0.921
 4010SOL    HW112929   1.764   4.532   0.947
 4010SOL    HW212930   1.678   4.397   0.982
 4011SOL     OW12931   6.133   7.009   6.049
 4011SOL    HW112932   6.073   0.067   6.050
 4011SOL    HW212933   6.222   0.014   6.010
 4012SOL     OW12934   5.911   5.559   2.519
 4012SOL    HW112935   5.914   5.605   2.607
 4012SOL    HW212936   5.980   5.487   2.516
 4013SOL     OW12937   6.831   1.670   6.906
 4013SOL    HW112938   6.789   1.756   6.935
 4013SOL    HW212939   6.930   1.675   6.920
 4014SOL     OW12940   3.626   5.934   2.402
 4014SOL    HW112941   3.702   5.899   2.456
 4014SOL    HW212942   3.540   5.913   2.448
 4015SOL     OW12943   4.573   5.467   6.213
 4015SOL    HW112944   4.670   5.488   6.218
 4015SOL    HW212945   4.530   5.524   6.143
 4016SOL     OW12946   5.057   4.917   4.394
 4016SOL    HW112947   5.035   4.821   4.378
 4016SOL    HW212948   5.149   4.924   4.432
 4017SOL     OW12949   1.624   6.069   5.639
 4017SOL    HW112950   1.631   6.032   5.547
 4017SOL    HW212951   1.561   6.012   5.693
 4018SOL     OW12952   4.364   5.484   1.267
 4018SOL    HW112953   4.422   5.412   1.227
 4018SOL    HW212954   4.378   5.569   1.216
 4019SOL     OW12955   6.759   3.378   1.947
 4019SOL    HW112956   6.717   3.362   1.857
 4019SOL    HW212957   6.835   3.442   1.937
 4020SOL     OW12958   6.867   5.788   4.349
 4020SOL    HW112959   6.840   5.795   4.445
 4020SOL    HW212960   6.792   5.819   4.291
 4021SOL     OW12961   4.540   5.200   6.447
 4021SOL    HW112962   4.631   5.210   6.406
 4021SOL    HW212963   4.481   5.149   6.385
 4022SOL     OW12964   2.870   6.304   1.101
 4022SOL    HW112965   2.867   6.291   1.002
 4022SOL    HW212966   2.777   6.295   1.138
 4023SOL     OW12967   0.438   1.778   4.293
 4023SOL    HW112968   0.391   1.765   4.206
 4023SOL    HW212969   0.475   1.691   4.325
 4024SOL     OW12970   0.110   6.368   5.491
 4024SOL    HW112971   0.127   6.462   5.460
 4024SOL    HW212972   0.196   6.316   5.489
 4025SOL     OW12973   6.826   4.574   3.941
 4025SOL    HW112974   6.728   4.576   3.925
 4025SOL    HW212975   6.872   4.640   3.882
 4026SOL     OW12976   0.485   6.563   4.084
 4026SOL    HW112977   0.493   6.636   4.017
 4026SOL    HW212978   0.552   6.492   4.065
 4027SOL     OW12979   3.744   5.051   4.729
 4027SOL    HW112980   3.752   5.013   4.637
 4027SOL    HW212981   3.744   4.976   4.795
 4028SOL     OW12982   5.180   1.617   3.962
 4028SOL    HW112983   5.182   1.561   4.044
 4028SOL    HW212984   5.086   1.635   3.935
 4029SOL     OW12985   1.143   6.692   0.725
 4029SOL    HW112986   1.190   6.780   0.719
 4029SOL    HW212987   1.047   6.708   0.748
 4030SOL     OW12988   0.367   1.597   2.073
 4030SOL    HW112989   0.440   1.576   2.138
 4030SOL    HW212990   0.388   1.554   1.985
 4031SOL     OW12991   5.734   6.090   0.231
 4031SOL    HW112992   5.744   6.165   0.297
 4031SOL    HW212993   5.637   6.069   0.219
 4032SOL     OW12994   5.346   1.092   2.784
 4032SOL    HW112995   5.268   1.136   2.830
 4032SOL    HW212996   5.334   0.993   2.788
 4033SOL     OW12997   2.337   2.782   3.020
 4033SOL    HW112998   2.344   2.777   3.120
 4033SOL    HW212999   2.299   2.697   2.985
 4034SOL     OW13000   1.508   2.434   4.820
 4034SOL    HW113001   1.556   2.359   4.775
 4034SOL    HW213002   1.474   2.498   4.751
 4035SOL     OW13003   4.619   2.121   1.987
 4035SOL    HW113004   4.572   2.209   2.000
 4035SOL    HW213005   4.551   2.049   1.973
 4036SOL     OW13006   3.331   5.870   3.238
 4036SOL    HW113007   3.355   5.938   3.169
 4036SOL    HW213008   3.335   5.778   3.197
 4037SOL     OW13009   1.891   1.987   6.317
 4037SOL    HW113010   1.942   2.031   6.243
 4037SOL    HW213011   1.858   2.057   6.381
 4038SOL     OW13012   3.350   4.701   6.107
 4038SOL    HW113013   3.433   4.695   6.163
 4038SOL    HW213014   3.335   4.797   6.082
 4039SOL     OW13015   5.764   4.807   1.408
 4039SOL    HW113016   5.729   4.715   1.429
 4039SOL    HW213017   5.856   4.817   1.443
 4040SOL     OW13018   3.556   0.577   4.989
 4040SOL    HW113019   3.641   0.626   5.008
 4040SOL    HW213020   3.559   0.487   5.032
 4041SOL     OW13021   1.316   5.429   2.232
 4041SOL    HW113022   1.353   5.356   2.289
 4041SOL    HW213023   1.303   5.395   2.139
 4042SOL     OW13024   0.165   1.574   3.249
 4042SOL    HW113025   0.215   1.558   3.164
 4042SOL    HW213026   0.150   1.673   3.260
 4043SOL     OW13027   5.034   3.068   5.942
 4043SOL    HW113028   5.045   3.029   6.034
 4043SOL    HW213029   4.937   3.064   5.916
 4044SOL     OW13030   4.931   4.204   2.990
 4044SOL    HW113031   4.949   4.110   3.019
 4044SOL    HW213032   4.935   4.265   3.069
 4045SOL     OW13033   4.514   1.182   5.296
 4045SOL    HW113034   4.518   1.083   5.289
 4045SOL    HW213035   4.606   1.218   5.311
 4046SOL     OW13036   5.480   1.656   3.823
 4046SOL    HW113037   5.518   1.641   3.914
 4046SOL    HW213038   5.401   1.717   3.830
 4047SOL     OW13039   3.303   2.563   6.866
 4047SOL    HW113040   3.264   2.622   6.937
 4047SOL    HW213041   3.298   2.609   6.778
 4048SOL     OW13042   4.823   1.983   2.674
 4048SOL    HW113043   4.892   1.917   2.701
 4048SOL    HW213044   4.799   2.041   2.752
 4049SOL     OW13045   4.151   4.017   0.861
 4049SOL    HW113046   4.127   3.983   0.951
 4049SOL    HW213047   4.069   4.053   0.816
 4050SOL     OW13048   0.444   5.225   2.646
 4050SOL    HW113049   0.478   5.204   2.554
 4050SOL    HW213050   0.513   5.277   2.695
 4051SOL     OW13051   5.495   0.905   5.423
 4051SOL    HW113052   5.574   0.960   5.395
 4051SOL    HW213053   5.510   0.869   5.515
 4052SOL     OW13054   5.246   2.053   3.627
 4052SOL    HW113055   5.288   1.997   3.556
 4052SOL    HW213056   5.250   2.006   3.715
 4053SOL     OW13057   0.896   4.604   3.942
 4053SOL    HW113058   0.977   4.641   3.895
 4053SOL    HW213059   0.852   4.677   3.994
 4054SOL     OW13060   4.526   3.901   1.277
 4054SOL    HW113061   4.459   3.855   1.336
 4054SOL    HW213062   4.483   3.979   1.232
 4055SOL     OW13063   0.236   4.244   0.273
 4055SOL    HW113064   0.139   4.238   0.251
 4055SOL    HW213065   0.252   4.207   0.365
 4056SOL     OW13066   4.940   3.374   6.889
 4056SOL    HW113067   4.936   3.458   6.834
 4056SOL    HW213068   4.993   3.304   6.840
 4057SOL     OW13069   6.920   3.832   0.341
 4057SOL    HW113070   6.867   3.912   0.313
 4057SOL    HW213071   7.015   3.858   0.356
 4058SOL     OW13072   2.909   0.519   4.870
 4058SOL    HW113073   2.831   0.569   4.832
 4058SOL    HW213074   2.992   0.544   4.821
 4059SOL     OW13075   0.408   1.467   3.811
 4059SOL    HW113076   0.385   1.384   3.862
 4059SOL    HW213077   0.487   1.449   3.752
 4060SOL     OW13078   0.079   6.074   4.525
 4060SOL    HW113079   0.113   6.157   4.480
 4060SOL    HW213080   7.005   6.086   4.550
 4061SOL     OW13081   1.368   5.019   1.582
 4061SOL    HW113082   1.349   5.032   1.679
 4061SOL    HW213083   1.332   5.096   1.530
 4062SOL     OW13084   1.796   3.655   0.654
 4062SOL    HW113085   1.740   3.738   0.646
 4062SOL    HW213086   1.765   3.602   0.733
 4063SOL     OW13087   4.001   0.166   0.683
 4063SOL    HW113088   3.985   0.167   0.585
 4063SOL    HW213089   3.929   0.114   0.729
 4064SOL     OW13090   1.868   1.160   5.657
 4064SOL    HW113091   1.807   1.126   5.585
 4064SOL    HW213092   1.868   1.095   5.734
 4065SOL     OW13093   2.107   0.641   1.327
 4065SOL    HW113094   2.113   0.585   1.245
 4065SOL    HW213095   2.152   0.594   1.403
 4066SOL     OW13096   0.703   3.466   3.672
 4066SOL    HW113097   0.787   3.468   3.726
 4066SOL    HW213098   0.705   3.387   3.611
 4067SOL     OW13099   5.641   5.037   0.804
 4067SOL    HW113100   5.583   5.117   0.793
 4067SOL    HW213101   5.699   5.026   0.723
 4068SOL     OW13102   2.319   2.722   5.072
 4068SOL    HW113103   2.302   2.819   5.055
 4068SOL    HW213104   2.268   2.668   5.006
 4069SOL     OW13105   5.028   6.317   6.377
 4069SOL    HW113106   5.031   6.397   6.317
 4069SOL    HW213107   5.006   6.345   6.470
 4070SOL     OW13108   1.377   3.660   3.823
 4070SOL    HW113109   1.306   3.649   3.754
 4070SOL    HW213110   1.359   3.599   3.900
 4071SOL     OW13111   1.371   0.739   5.298
 4071SOL    HW113112   1.411   0.766   5.211
 4071SOL    HW213113   1.272   0.744   5.293
 4072SOL     OW13114   2.906   6.033   2.716
 4072SOL    HW113115   2.841   6.077   2.779
 4072SOL    HW213116   2.941   5.950   2.758
 4073SOL     OW13117   4.407   4.996   6.741
 4073SOL    HW113118   4.466   5.040   6.673
 4073SOL    HW213119   4.442   5.015   6.833
 4074SOL     OW13120   1.816   5.834   2.933
 4074SOL    HW113121   1.833   5.847   2.835
 4074SOL    HW213122   1.891   5.873   2.986
 4075SOL     OW13123   6.412   0.577   0.694
 4075SOL    HW113124   6.433   0.505   0.628
 4075SOL    HW213125   6.374   0.537   0.777
 4076SOL     OW13126   2.193   5.183   4.247
 4076SOL    HW113127   2.154   5.275   4.237
 4076SOL    HW213128   2.281   5.189   4.294
 4077SOL     OW13129   3.002   0.667   2.091
 4077SOL    HW113130   2.936   0.738   2.065
 4077SOL    HW213131   3.076   0.663   2.024
 4078SOL     OW13132   3.641   4.875   2.272
 4078SOL    HW113133   3.549   4.880   2.308
 4078SOL    HW213134   3.639   4.833   2.181
 4079SOL     OW13135   0.305   2.308   3.820
 4079SOL    HW113136   0.403   2.323   3.834
 4079SOL    HW213137   0.291   2.217   3.781
 4080SOL     OW13138   6.801   2.010   5.468
 4080SOL    HW113139   6.723   2.039   5.523
 4080SOL    HW213140   6.796   2.053   5.378
 4081SOL     OW13141   0.815   3.123   3.762
 4081SOL    HW113142   0.858   3.054   3.703
 4081SOL    HW213143   0.716   3.115   3.756
 4082SOL     OW13144   0.561   3.775   0.614
 4082SOL    HW113145   0.535   3.830   0.693
 4082SOL    HW213146   0.661   3.763   0.614
 4083SOL     OW13147   6.565   2.944   4.887
 4083SOL    HW113148   6.473   2.955   4.923
 4083SOL    HW213149   6.564   2.956   4.788
 4084SOL     OW13150   6.570   1.342   4.451
 4084SOL    HW113151   6.649   1.403   4.464
 4084SOL    HW213152   6.598   1.262   4.398
 4085SOL     OW13153   2.524   6.446   0.650
 4085SOL    HW113154   2.458   6.515   0.621
 4085SOL    HW213155   2.536   6.379   0.577
 4086SOL     OW13156   1.042   4.167   0.842
 4086SOL    HW113157   1.095   4.122   0.771
 4086SOL    HW213158   0.958   4.116   0.859
 4087SOL     OW13159   2.633   1.428   2.711
 4087SOL    HW113160   2.710   1.402   2.770
 4087SOL    HW213161   2.599   1.518   2.740
 4088SOL     OW13162   6.427   1.767   0.380
 4088SOL    HW113163   6.377   1.826   0.317
 4088SOL    HW213164   6.523   1.761   0.352
 4089SOL     OW13165   1.203   1.509   5.553
 4089SOL    HW113166   1.226   1.413   5.571
 4089SOL    HW213167   1.242   1.537   5.465
 4090SOL     OW13168   2.258   4.741   6.105
 4090SOL    HW113169   2.266   4.775   6.198
 4090SOL    HW213170   2.347   4.708   6.073
 4091SOL     OW13171   3.727   6.905   0.494
 4091SOL    HW113172   3.809   6.871   0.448
 4091SOL    HW213173   3.750   6.936   0.586
 4092SOL     OW13174   6.869   2.015   4.777
 4092SOL    HW113175   6.963   2.004   4.810
 4092SOL    HW213176   6.870   2.048   4.683
 4093SOL     OW13177   5.667   6.618   4.655
 4093SOL    HW113178   5.648   6.656   4.746
 4093SOL    HW213179   5.758   6.576   4.655
 4094SOL     OW13180   3.129   4.417   5.342
 4094SOL    HW113181   3.060   4.445   5.275
 4094SOL    HW213182   3.185   4.344   5.303
 4095SOL     OW13183   1.907   3.440   5.642
 4095SOL    HW113184   1.922   3.453   5.740
 4095SOL    HW213185   1.883   3.528   5.600
 4096SOL     OW13186   4.383   4.581   2.204
 4096SOL    HW113187   4.292   4.620   2.190
 4096SOL    HW213188   4.450   4.634   2.153
 4097SOL     OW13189   3.020   3.725   3.937
 4097SOL    HW113190   2.951   3.737   3.866
 4097SOL    HW213191   3.073   3.809   3.947
 4098SOL     OW13192   0.241   2.986   2.265
 4098SOL    HW113193   0.328   2.949   2.232
 4098SOL    HW213194   0.170   2.973   2.196
 4099SOL     OW13195   2.834   6.552   1.664
 4099SOL    HW113196   2.773   6.477   1.689
 4099SOL    HW213197   2.834   6.564   1.565
 4100SOL     OW13198   3.722   6.463   3.070
 4100SOL    HW113199   3.819   6.458   3.096
 4100SOL    HW213200   3.711   6.423   2.979
 4101SOL     OW13201   4.407   1.141   6.930
 4101SOL    HW113202   4.368   1.180   7.014
 4101SOL    HW213203   4.344   1.155   6.855
 4102SOL     OW13204   5.358   1.164   0.349
 4102SOL    HW113205   5.455   1.189   0.354
 4102SOL    HW213206   5.346   1.070   0.380
 4103SOL     OW13207   0.159   0.086   2.189
 4103SOL    HW113208   0.142   0.036   2.274
 4103SOL    HW213209   0.233   0.152   2.202
 4104SOL     OW13210   1.403   4.786   2.661
 4104SOL    HW113211   1.381   4.718   2.591
 4104SOL    HW213212   1.470   4.748   2.724
 4105SOL     OW13213   5.421   5.173   0.410
 4105SOL    HW113214   5.348   5.130   0.357
 4105SOL    HW213215   5.504   5.176   0.356
 4106SOL     OW13216   0.335   3.808   4.924
 4106SOL    HW113217   0.338   3.763   4.834
 4106SOL    HW213218   0.254   3.867   4.928
 4107SOL     OW13219   6.871   1.081   0.799
 4107SOL    HW113220   6.866   0.981   0.803
 4107SOL    HW213221   6.832   1.119   0.883
 4108SOL     OW13222   6.630   3.165   5.045
 4108SOL    HW113223   6.595   3.094   4.985
 4108SOL    HW213224   6.729   3.174   5.032
 4109SOL     OW13225   2.816   6.354   3.431
 4109SOL    HW113226   2.910   6.360   3.396
 4109SOL    HW213227   2.818   6.321   3.526
 4110SOL     OW13228   4.263   3.300   5.340
 4110SOL    HW113229   4.351   3.255   5.355
 4110SOL    HW213230   4.192   3.230   5.331
 4111SOL     OW13231   4.540   3.410   6.512
 4111SOL    HW113232   4.620   3.463   6.543
 4111SOL    HW213233   4.564   3.313   6.511
 4112SOL     OW13234   3.641   0.704   4.526
 4112SOL    HW113235   3.629   0.623   4.584
 4112SOL    HW213236   3.662   0.674   4.433
 4113SOL     OW13237   3.937   5.647   4.790
 4113SOL    HW113238   3.883   5.667   4.709
 4113SOL    HW213239   3.963   5.550   4.790
 4114SOL     OW13240   3.383   2.087   2.721
 4114SOL    HW113241   3.371   2.116   2.816
 4114SOL    HW213242   3.307   2.122   2.666
 4115SOL     OW13243   5.521   4.916   2.330
 4115SOL    HW113244   5.474   5.003   2.346
 4115SOL    HW213245   5.566   4.918   2.241
 4116SOL     OW13246   3.438   1.222   2.423
 4116SOL    HW113247   3.338   1.216   2.417
 4116SOL    HW213248   3.467   1.208   2.517
 4117SOL     OW13249   0.833   5.583   1.863
 4117SOL    HW113250   0.811   5.563   1.959
 4117SOL    HW213251   0.776   5.526   1.804
 4118SOL     OW13252   2.431   6.876   0.673
 4118SOL    HW113253   2.346   6.856   0.720
 4118SOL    HW213254   2.440   6.818   0.592
 4119SOL     OW13255   4.804   1.034   3.506
 4119SOL    HW113256   4.893   1.063   3.542
 4119SOL    HW213257   4.805   1.040   3.407
 4120SOL     OW13258   3.906   1.000   2.324
 4120SOL    HW113259   3.930   1.086   2.279
 4120SOL    HW213260   3.820   1.012   2.374
 4121SOL     OW13261   6.819   2.876   4.955
 4121SOL    HW113262   6.819   2.796   5.014
 4121SOL    HW213263   6.726   2.909   4.943
 4122SOL     OW13264   1.496   5.917   6.659
 4122SOL    HW113265   1.461   5.913   6.565
 4122SOL    HW213266   1.595   5.933   6.657
 4123SOL     OW13267   4.896   4.386   6.184
 4123SOL    HW113268   4.974   4.440   6.215
 4123SOL    HW213269   4.815   4.445   6.177
 4124SOL     OW13270   4.847   6.631   4.008
 4124SOL    HW113271   4.854   6.699   3.935
 4124SOL    HW213272   4.915   6.651   4.079
 4125SOL     OW13273   5.262   0.966   1.129
 4125SOL    HW113274   5.185   1.029   1.120
 4125SOL    HW213275   5.238   0.877   1.089
 4126SOL     OW13276   2.031   4.869   4.357
 4126SOL    HW113277   2.019   4.966   4.380
 4126SOL    HW213278   1.948   4.835   4.313
 4127SOL     OW13279   6.129   4.243   4.849
 4127SOL    HW113280   6.207   4.261   4.909
 4127SOL    HW213281   6.048   4.222   4.904
 4128SOL     OW13282   1.029   1.912   2.160
 4128SOL    HW113283   0.995   1.910   2.066
 4128SOL    HW213284   1.103   1.979   2.168
 4129SOL     OW13285   5.867   2.293   6.287
 4129SOL    HW113286   5.811   2.231   6.342
 4129SOL    HW213287   5.856   2.270   6.190
 4130SOL     OW13288   6.036   3.274   1.332
 4130SOL    HW113289   6.033   3.316   1.242
 4130SOL    HW213290   5.980   3.327   1.396
 4131SOL     OW13291   6.738   4.010   3.470
 4131SOL    HW113292   6.756   4.108   3.456
 4131SOL    HW213293   6.823   3.959   3.458
 4132SOL     OW13294   5.126   2.107   4.241
 4132SOL    HW113295   5.098   2.203   4.239
 4132SOL    HW213296   5.045   2.050   4.256
 4133SOL     OW13297   2.584   2.111   1.306
 4133SOL    HW113298   2.560   2.167   1.385
 4133SOL    HW213299   2.672   2.067   1.321
 4134SOL     OW13300   1.375   1.751   6.846
 4134SOL    HW113301   1.426   1.686   6.903
 4134SOL    HW213302   1.333   1.820   6.904
 4135SOL     OW13303   1.328   0.571   1.245
 4135SOL    HW113304   1.352   0.501   1.312
 4135SOL    HW213305   1.264   0.533   1.178
 4136SOL     OW13306   1.060   1.658   3.305
 4136SOL    HW113307   1.096   1.569   3.334
 4136SOL    HW213308   1.076   1.726   3.376
 4137SOL     OW13309   3.866   3.951   5.424
 4137SOL    HW113310   3.842   3.879   5.359
 4137SOL    HW213311   3.902   3.909   5.508
 4138SOL     OW13312   3.978   5.687   2.822
 4138SOL    HW113313   4.040   5.613   2.846
 4138SOL    HW213314   3.888   5.651   2.801
 4139SOL     OW13315   2.030   0.697   0.369
 4139SOL    HW113316   2.057   0.605   0.341
 4139SOL    HW213317   2.100   0.762   0.341
 4140SOL     OW13318   4.538   1.654   5.387
 4140SOL    HW113319   4.530   1.753   5.373
 4140SOL    HW213320   4.475   1.626   5.459
 4141SOL     OW13321   5.825   5.598   0.662
 4141SOL    HW113322   5.743   5.542   0.661
 4141SOL    HW213323   5.873   5.586   0.749
 4142SOL     OW13324   6.471   2.809   1.422
 4142SOL    HW113325   6.519   2.799   1.509
 4142SOL    HW213326   6.447   2.719   1.386
 4143SOL     OW13327   0.769   2.383   1.809
 4143SOL    HW113328   0.710   2.373   1.888
 4143SOL    HW213329   0.791   2.293   1.771
 4144SOL     OW13330   4.761   0.552   2.029
 4144SOL    HW113331   4.696   0.622   2.000
 4144SOL    HW213332   4.716   0.490   2.094
 4145SOL     OW13333   3.345   0.216   2.647
 4145SOL    HW113334   3.303   0.237   2.558
 4145SOL    HW213335   3.337   0.118   2.665
 4146SOL     OW13336   4.982   5.564   0.059
 4146SOL    HW113337   4.915   5.537   0.129
 4146SOL    HW213338   5.074   5.562   0.099
 4147SOL     OW13339   2.819   2.390   5.694
 4147SOL    HW113340   2.826   2.409   5.596
 4147SOL    HW213341   2.819   2.477   5.744
 4148SOL     OW13342   5.835   0.194   2.865
 4148SOL    HW113343   5.755   0.171   2.810
 4148SOL    HW213344   5.830   0.146   2.952
 4149SOL     OW13345   5.358   4.520   1.428
 4149SOL    HW113346   5.259   4.532   1.435
 4149SOL    HW213347   5.403   4.607   1.449
 4150SOL     OW13348   4.749   0.726   5.806
 4150SOL    HW113349   4.794   0.690   5.725
 4150SOL    HW213350   4.783   0.819   5.824
 4151SOL     OW13351   0.480   5.633   0.648
 4151SOL    HW113352   0.436   5.545   0.667
 4151SOL    HW213353   0.453   5.665   0.557
 4152SOL     OW13354   3.652   4.273   1.429
 4152SOL    HW113355   3.718   4.330   1.477
 4152SOL    HW213356   3.661   4.179   1.459
 4153SOL     OW13357   6.127   5.293   5.816
 4153SOL    HW113358   6.209   5.291   5.874
 4153SOL    HW213359   6.057   5.233   5.856
 4154SOL     OW13360   4.512   2.753   5.738
 4154SOL    HW113361   4.539   2.829   5.678
 4154SOL    HW213362   4.478   2.677   5.682
 4155SOL     OW13363   1.783   3.143   0.937
 4155SOL    HW113364   1.811   3.227   0.983
 4155SOL    HW213365   1.684   3.146   0.918
 4156SOL     OW13366   6.387   0.123   5.364
 4156SOL    HW113367   6.304   0.113   5.418
 4156SOL    HW213368   6.421   0.033   5.337
 4157SOL     OW13369   3.295   0.589   4.162
 4157SOL    HW113370   3.303   0.604   4.063
 4157SOL    HW213371   3.329   0.669   4.211
 4158SOL     OW13372   0.598   0.257   4.057
 4158SOL    HW113373   0.675   0.305   4.099
 4158SOL    HW213374   0.558   0.193   4.123
 4159SOL     OW13375   0.762   3.524   5.426
 4159SOL    HW113376   0.686   3.487   5.479
 4159SOL    HW213377   0.846   3.474   5.447
 4160SOL     OW13378   1.328   1.133   0.715
 4160SOL    HW113379   1.412   1.077   0.718
 4160SOL    HW213380   1.316   1.171   0.624
 4161SOL     OW13381   6.266   1.919   0.209
 4161SOL    HW113382   6.189   1.983   0.215
 4161SOL    HW213383   6.234   1.831   0.176
 4162SOL     OW13384   6.916   6.634   4.969
 4162SOL    HW113385   6.872   6.615   5.057
 4162SOL    HW213386   6.988   6.567   4.953
 4163SOL     OW13387   6.282   0.890   4.382
 4163SOL    HW113388   6.294   0.823   4.455
 4163SOL    HW213389   6.191   0.879   4.340
 4164SOL     OW13390   2.527   6.763   6.338
 4164SOL    HW113391   2.552   6.829   6.410
 4164SOL    HW213392   2.475   6.688   6.378
 4165SOL     OW13393   2.829   5.759   2.616
 4165SOL    HW113394   2.829   5.824   2.692
 4165SOL    HW213395   2.739   5.715   2.609
 4166SOL     OW13396   5.938   2.437   1.210
 4166SOL    HW113397   5.934   2.505   1.137
 4166SOL    HW213398   5.936   2.484   1.299
 4167SOL     OW13399   2.607   2.936   1.423
 4167SOL    HW113400   2.632   2.905   1.515
 4167SOL    HW213401   2.531   3.000   1.428
 4168SOL     OW13402   1.331   4.455   1.021
 4168SOL    HW113403   1.343   4.496   1.111
 4168SOL    HW213404   1.399   4.383   1.008
 4169SOL     OW13405   6.212   3.644   4.581
 4169SOL    HW113406   6.212   3.717   4.650
 4169SOL    HW213407   6.123   3.600   4.581
 4170SOL     OW13408   4.161   2.047   5.133
 4170SOL    HW113409   4.197   2.048   5.040
 4170SOL    HW213410   4.070   2.005   5.133
 4171SOL     OW13411   5.341   3.439   1.321
 4171SOL    HW113412   5.356   3.367   1.254
 4171SOL    HW213413   5.349   3.400   1.413
 4172SOL     OW13414   2.783   1.015   0.047
 4172SOL    HW113415   2.731   1.001   0.131
 4172SOL    HW213416   2.736   1.081   7.010
 4173SOL     OW13417   5.585   3.518   5.606
 4173SOL    HW113418   5.623   3.445   5.662
 4173SOL    HW213419   5.620   3.509   5.512
 4174SOL     OW13420   5.239   0.590   4.367
 4174SOL    HW113421   5.311   0.522   4.354
 4174SOL    HW213422   5.221   0.637   4.280
 4175SOL     OW13423   3.644   1.619   3.594
 4175SOL    HW113424   3.609   1.673   3.671
 4175SOL    HW213425   3.641   1.675   3.511
 4176SOL     OW13426   5.765   5.323   3.163
 4176SOL    HW113427   5.777   5.266   3.245
 4176SOL    HW213428   5.850   5.369   3.141
 4177SOL     OW13429   6.635   5.061   2.910
 4177SOL    HW113430   6.689   5.035   2.990
 4177SOL    HW213431   6.538   5.062   2.934
 4178SOL     OW13432   3.935   3.261   5.985
 4178SOL    HW113433   4.033   3.260   6.005
 4178SOL    HW213434   3.885   3.289   6.067
 4179SOL     OW13435   6.524   3.021   6.490
 4179SOL    HW113436   6.445   2.990   6.437
 4179SOL    HW213437   6.608   2.997   6.442
 4180SOL     OW13438   4.322   3.468   1.657
 4180SOL    HW113439   4.288   3.416   1.735
 4180SOL    HW213440   4.269   3.552   1.647
 4181SOL     OW13441   6.775   1.179   0.573
 4181SOL    HW113442   6.750   1.275   0.587
 4181SOL    HW213443   6.809   1.140   0.659
 4182SOL     OW13444   5.368   1.070   3.825
 4182SOL    HW113445   5.353   1.138   3.896
 4182SOL    HW213446   5.443   1.009   3.851
 4183SOL     OW13447   1.946   2.056   1.224
 4183SOL    HW113448   1.925   1.967   1.263
 4183SOL    HW213449   2.034   2.051   1.176
 4184SOL     OW13450   3.954   4.858   6.842
 4184SOL    HW113451   3.976   4.916   6.764
 4184SOL    HW213452   3.992   4.898   6.925
 4185SOL     OW13453   6.947   6.496   4.234
 4185SOL    HW113454   0.025   6.506   4.239
 4185SOL    HW213455   6.921   6.464   4.143
 4186SOL     OW13456   3.729   4.217   1.787
 4186SOL    HW113457   3.734   4.123   1.820
 4186SOL    HW213458   3.641   4.256   1.813
 4187SOL     OW13459   4.200   4.897   6.456
 4187SOL    HW113460   4.213   4.844   6.539
 4187SOL    HW213461   4.214   4.839   6.376
 4188SOL     OW13462   5.437   6.476   4.634
 4188SOL    HW113463   5.525   6.496   4.676
 4188SOL    HW213464   5.388   6.562   4.617
 4189SOL     OW13465   1.795   3.513   3.347
 4189SOL    HW113466   1.761   3.436   3.400
 4189SOL    HW213467   1.838   3.580   3.408
 4190SOL     OW13468   2.857   0.077   1.550
 4190SOL    HW113469   2.790   0.150   1.565
 4190SOL    HW213470   2.819   7.011   1.582
 4191SOL     OW13471   0.849   2.946   2.073
 4191SOL    HW113472   0.947   2.931   2.089
 4191SOL    HW213473   0.818   2.888   1.998
 4192SOL     OW13474   5.915   0.947   2.650
 4192SOL    HW113475   5.815   0.940   2.654
 4192SOL    HW213476   5.949   0.987   2.735
 4193SOL     OW13477   2.114   6.486   2.531
 4193SOL    HW113478   2.195   6.509   2.477
 4193SOL    HW213479   2.044   6.448   2.470
 4194SOL     OW13480   6.513   1.106   3.674
 4194SOL    HW113481   6.514   1.007   3.661
 4194SOL    HW213482   6.539   1.128   3.768
 4195SOL     OW13483   5.347   0.995   3.179
 4195SOL    HW113484   5.387   1.082   3.148
 4195SOL    HW213485   5.406   0.956   3.249
 4196SOL     OW13486   4.282   2.325   3.415
 4196SOL    HW113487   4.346   2.256   3.448
 4196SOL    HW213488   4.319   2.370   3.334
 4197SOL     OW13489   4.894   4.057   4.412
 4197SOL    HW113490   4.972   4.057   4.475
 4197SOL    HW213491   4.900   3.977   4.353
 4198SOL     OW13492   5.676   4.161   6.131
 4198SOL    HW113493   5.631   4.153   6.043
 4198SOL    HW213494   5.753   4.098   6.136
 4199SOL     OW13495   3.271   3.637   5.251
 4199SOL    HW113496   3.196   3.673   5.305
 4199SOL    HW213497   3.250   3.646   5.154
 4200SOL     OW13498   2.381   0.135   6.046
 4200SOL    HW113499   2.397   0.146   6.144
 4200SOL    HW213500   2.294   0.179   6.022
 4201SOL     OW13501   5.892   6.811   4.677
 4201SOL    HW113502   5.981   6.767   4.689
 4201SOL    HW213503   5.847   6.774   4.595
 4202SOL     OW13504   5.647   3.777   5.044
 4202SOL    HW113505   5.642   3.730   5.132
 4202SOL    HW213506   5.582   3.736   4.981
 4203SOL     OW13507   4.830   5.347   3.988
 4203SOL    HW113508   4.777   5.336   4.072
 4203SOL    HW213509   4.890   5.427   3.996
 4204SOL     OW13510   1.942   4.628   0.954
 4204SOL    HW113511   2.002   4.569   1.007
 4204SOL    HW213512   1.954   4.610   0.857
 4205SOL     OW13513   2.725   5.998   3.147
 4205SOL    HW113514   2.777   6.079   3.120
 4205SOL    HW213515   2.786   5.920   3.157
 4206SOL     OW13516   5.439   6.475   4.070
 4206SOL    HW113517   5.452   6.559   4.122
 4206SOL    HW213518   5.525   6.424   4.066
 4207SOL     OW13519   0.913   0.793   0.730
 4207SOL    HW113520   0.924   0.697   0.703
 4207SOL    HW213521   0.854   0.839   0.664
 4208SOL     OW13522   0.863   2.722   0.517
 4208SOL    HW113523   0.799   2.755   0.586
 4208SOL    HW213524   0.913   2.799   0.478
 4209SOL     OW13525   2.859   0.818   5.088
 4209SOL    HW113526   2.815   0.728   5.092
 4209SOL    HW213527   2.954   0.810   5.117
 4210SOL     OW13528   4.636   2.610   0.125
 4210SOL    HW113529   4.553   2.634   0.075
 4210SOL    HW213530   4.618   2.612   0.223
 4211SOL     OW13531   5.345   3.793   3.649
 4211SOL    HW113532   5.310   3.871   3.700
 4211SOL    HW213533   5.355   3.714   3.710
 4212SOL     OW13534   6.451   6.639   2.539
 4212SOL    HW113535   6.423   6.712   2.602
 4212SOL    HW213536   6.545   6.655   2.511
 4213SOL     OW13537   0.751   6.909   1.469
 4213SOL    HW113538   0.725   6.818   1.499
 4213SOL    HW213539   0.821   6.946   1.531
 4214SOL     OW13540   3.027   5.145   4.915
 4214SOL    HW113541   2.963   5.099   4.976
 4214SOL    HW213542   3.081   5.212   4.967
 4215SOL     OW13543   1.012   5.734   5.624
 4215SOL    HW113544   0.946   5.703   5.692
 4215SOL    HW213545   1.007   5.833   5.616
 4216SOL     OW13546   2.749   2.940   5.311
 4216SOL    HW113547   2.660   2.965   5.273
 4216SOL    HW213548   2.815   3.012   5.291
 4217SOL     OW13549   6.965   0.939   3.362
 4217SOL    HW113550   6.999   0.881   3.289
 4217SOL    HW213551   6.889   0.994   3.328
 4218SOL     OW13552   3.181   6.244   2.088
 4218SOL    HW113553   3.236   6.248   2.005
 4218SOL    HW213554   3.229   6.189   2.157
 4219SOL     OW13555   5.094   0.011   2.898
 4219SOL    HW113556   5.045   7.014   2.812
 4219SOL    HW213557   5.028   0.035   2.969
 4220SOL     OW13558   0.825   3.753   3.455
 4220SOL    HW113559   0.924   3.763   3.464
 4220SOL    HW213560   0.781   3.774   3.542
 4221SOL     OW13561   5.721   6.236   5.753
 4221SOL    HW113562   5.751   6.317   5.703
 4221SOL    HW213563   5.638   6.257   5.804
 4222SOL     OW13564   2.999   2.984   6.774
 4222SOL    HW113565   2.991   3.084   6.780
 4222SOL    HW213566   3.028   2.947   6.862
 4223SOL     OW13567   3.007   3.117   2.449
 4223SOL    HW113568   2.978   3.191   2.388
 4223SOL    HW213569   2.926   3.073   2.489
 4224SOL     OW13570   3.846   1.981   5.726
 4224SOL    HW113571   3.862   1.927   5.643
 4224SOL    HW213572   3.827   2.076   5.701
 4225SOL     OW13573   5.466   0.442   4.355
 4225SOL    HW113574   5.559   0.469   4.330
 4225SOL    HW213575   5.462   0.428   4.454
 4226SOL     OW13576   1.446   1.486   3.241
 4226SOL    HW113577   1.420   1.577   3.210
 4226SOL    HW213578   1.453   1.424   3.163
 4227SOL     OW13579   5.724   3.885   6.801
 4227SOL    HW113580   5.696   3.868   6.707
 4227SOL    HW213581   5.805   3.830   6.822
 4228SOL     OW13582   5.489   5.485   3.377
 4228SOL    HW113583   5.519   5.533   3.295
 4228SOL    HW213584   5.447   5.398   3.351
 4229SOL     OW13585   4.545   4.917   5.400
 4229SOL    HW113586   4.564   5.001   5.450
 4229SOL    HW213587   4.484   4.859   5.453
 4230SOL     OW13588   3.264   0.359   5.163
 4230SOL    HW113589   3.256   0.262   5.141
 4230SOL    HW213590   3.328   0.371   5.239
 4231SOL     OW13591   3.731   6.593   5.917
 4231SOL    HW113592   3.768   6.684   5.936
 4231SOL    HW213593   3.680   6.595   5.831
 4232SOL     OW13594   2.449   4.376   1.456
 4232SOL    HW113595   2.419   4.399   1.549
 4232SOL    HW213596   2.545   4.399   1.445
 4233SOL     OW13597   5.503   6.322   1.093
 4233SOL    HW113598   5.438   6.276   1.033
 4233SOL    HW213599   5.541   6.256   1.157
 4234SOL     OW13600   3.382   3.817   5.428
 4234SOL    HW113601   3.406   3.891   5.365
 4234SOL    HW213602   3.374   3.731   5.377
 4235SOL     OW13603   0.430   4.029   5.150
 4235SOL    HW113604   0.501   4.024   5.081
 4235SOL    HW213605   0.396   4.123   5.157
 4236SOL     OW13606   0.977   3.862   4.922
 4236SOL    HW113607   1.063   3.849   4.872
 4236SOL    HW213608   0.918   3.925   4.872
 4237SOL     OW13609   5.706   4.506   5.635
 4237SOL    HW113610   5.774   4.487   5.564
 4237SOL    HW213611   5.752   4.542   5.715
 4238SOL     OW13612   4.610   4.370   4.529
 4238SOL    HW113613   4.697   4.349   4.573
 4238SOL    HW213614   4.553   4.423   4.591
 4239SOL     OW13615   5.523   6.030   5.536
 4239SOL    HW113616   5.534   6.016   5.635
 4239SOL    HW213617   5.596   6.088   5.502
 4240SOL     OW13618   2.605   4.984   6.455
 4240SOL    HW113619   2.529   4.974   6.390
 4240SOL    HW213620   2.691   4.963   6.409
 4241SOL     OW13621   4.316   1.522   0.376
 4241SOL    HW113622   4.287   1.612   0.410
 4241SOL    HW213623   4.249   1.488   0.311
 4242SOL     OW13624   1.559   0.491   2.420
 4242SOL    HW113625   1.509   0.435   2.486
 4242SOL    HW213626   1.502   0.566   2.389
 4243SOL     OW13627   1.489   2.711   2.825
 4243SOL    HW113628   1.576   2.678   2.860
 4243SOL    HW213629   1.467   2.799   2.867
 4244SOL     OW13630   3.325   0.116   0.842
 4244SOL    HW113631   3.253   0.067   0.891
 4244SOL    HW213632   3.316   0.214   0.859
 4245SOL     OW13633   6.740   1.798   1.087
 4245SOL    HW113634   6.709   1.714   1.130
 4245SOL    HW213635   6.728   1.792   0.988
 4246SOL     OW13636   4.745   2.795   3.824
 4246SOL    HW113637   4.692   2.806   3.908
 4246SOL    HW213638   4.821   2.732   3.840
 4247SOL     OW13639   1.814   4.959   6.784
 4247SOL    HW113640   1.806   4.973   6.883
 4247SOL    HW213641   1.839   5.045   6.740
 4248SOL     OW13642   2.236   0.716   3.454
 4248SOL    HW113643   2.245   0.793   3.517
 4248SOL    HW213644   2.141   0.684   3.453
 4249SOL     OW13645   5.787   0.538   5.988
 4249SOL    HW113646   5.774   0.495   6.077
 4249SOL    HW213647   5.830   0.628   5.999
 4250SOL     OW13648   0.067   6.056   4.886
 4250SOL    HW113649   0.104   6.108   4.963
 4250SOL    HW213650   0.140   6.038   4.820
 4251SOL     OW13651   4.650   2.242   5.633
 4251SOL    HW113652   4.634   2.264   5.537
 4251SOL    HW213653   4.739   2.199   5.644
 4252SOL     OW13654   0.266   0.107   6.764
 4252SOL    HW113655   0.211   0.130   6.845
 4252SOL    HW213656   0.304   0.016   6.776
 4253SOL     OW13657   4.184   6.537   2.718
 4253SOL    HW113658   4.241   6.494   2.648
 4253SOL    HW213659   4.143   6.620   2.681
 4254SOL     OW13660   1.266   2.148   6.133
 4254SOL    HW113661   1.257   2.054   6.166
 4254SOL    HW213662   1.268   2.149   6.033
 4255SOL     OW13663   1.198   2.891   2.968
 4255SOL    HW113664   1.292   2.921   2.983
 4255SOL    HW213665   1.186   2.799   3.007
 4256SOL     OW13666   6.338   5.993   0.976
 4256SOL    HW113667   6.263   5.979   0.911
 4256SOL    HW213668   6.310   6.058   1.046
 4257SOL     OW13669   6.348   0.684   3.434
 4257SOL    HW113670   6.254   0.710   3.411
 4257SOL    HW213671   6.406   0.698   3.354
 4258SOL     OW13672   3.036   5.812   0.655
 4258SOL    HW113673   2.999   5.853   0.738
 4258SOL    HW213674   3.055   5.883   0.588
 4259SOL     OW13675   1.215   0.095   0.581
 4259SOL    HW113676   1.296   0.100   0.639
 4259SOL    HW213677   1.242   0.097   0.485
 4260SOL     OW13678   6.104   0.249   4.774
 4260SOL    HW113679   6.095   0.299   4.860
 4260SOL    HW213680   6.194   0.204   4.771
 4261SOL     OW13681   2.076   6.267   3.993
 4261SOL    HW113682   2.159   6.272   4.050
 4261SOL    HW213683   2.021   6.349   4.007
 4262SOL     OW13684   1.837   5.143   5.163
 4262SOL    HW113685   1.758   5.107   5.214
 4262SOL    HW213686   1.851   5.089   5.081
 4263SOL     OW13687   2.685   1.542   3.074
 4263SOL    HW113688   2.589   1.514   3.078
 4263SOL    HW213689   2.717   1.568   3.165
 4264SOL     OW13690   4.524   1.986   6.207
 4264SOL    HW113691   4.605   2.040   6.228
 4264SOL    HW213692   4.476   1.964   6.292
 4265SOL     OW13693   2.772   6.171   6.502
 4265SOL    HW113694   2.699   6.199   6.564
 4265SOL    HW213695   2.830   6.250   6.481
 4266SOL     OW13696   1.093   5.215   1.794
 4266SOL    HW113697   1.001   5.210   1.832
 4266SOL    HW213698   1.088   5.228   1.695
 4267SOL     OW13699   1.086   3.659   4.173
 4267SOL    HW113700   1.111   3.648   4.269
 4267SOL    HW213701   0.988   3.677   4.166
 4268SOL     OW13702   1.214   4.571   6.023
 4268SOL    HW113703   1.164   4.523   5.951
 4268SOL    HW213704   1.201   4.670   6.012
 4269SOL     OW13705   3.106   1.291   4.370
 4269SOL    HW113706   3.045   1.364   4.402
 4269SOL    HW213707   3.147   1.246   4.449
 4270SOL     OW13708   4.293   4.164   0.509
 4270SOL    HW113709   4.349   4.214   0.575
 4270SOL    HW213710   4.297   4.211   0.420
 4271SOL     OW13711   6.741   0.530   1.071
 4271SOL    HW113712   6.653   0.488   1.052
 4271SOL    HW213713   6.733   0.630   1.068
 4272SOL     OW13714   0.013   1.610   5.871
 4272SOL    HW113715   0.054   1.645   5.787
 4272SOL    HW213716   7.002   1.516   5.857
 4273SOL     OW13717   2.884   6.171   3.843
 4273SOL    HW113718   2.901   6.164   3.745
 4273SOL    HW213719   2.826   6.250   3.862
 4274SOL     OW13720   0.573   1.305   2.104
 4274SOL    HW113721   0.491   1.298   2.162
 4274SOL    HW213722   0.607   1.399   2.106
 4275SOL     OW13723   6.857   2.239   3.828
 4275SOL    HW113724   6.775   2.213   3.777
 4275SOL    HW213725   6.845   2.212   3.924
 4276SOL     OW13726   1.179   6.720   2.558
 4276SOL    HW113727   1.269   6.761   2.573
 4276SOL    HW213728   1.132   6.769   2.485
 4277SOL     OW13729   6.713   5.331   3.196
 4277SOL    HW113730   6.788   5.283   3.150
 4277SOL    HW213731   6.747   5.372   3.280
 4278SOL     OW13732   0.616   6.738   1.131
 4278SOL    HW113733   0.527   6.779   1.109
 4278SOL    HW213734   0.681   6.811   1.156
 4279SOL     OW13735   0.853   2.246   3.376
 4279SOL    HW113736   0.817   2.171   3.321
 4279SOL    HW213737   0.821   2.333   3.340
 4280SOL     OW13738   1.754   6.528   6.780
 4280SOL    HW113739   1.681   6.521   6.848
 4280SOL    HW213740   1.734   6.603   6.718
 4281SOL     OW13741   6.299   5.956   3.390
 4281SOL    HW113742   6.238   5.978   3.466
 4281SOL    HW213743   6.307   6.035   3.329
 4282SOL     OW13744   5.346   5.399   2.072
 4282SOL    HW113745   5.284   5.328   2.104
 4282SOL    HW213746   5.426   5.403   2.132
 4283SOL     OW13747   6.056   1.087   4.816
 4283SOL    HW113748   5.970   1.102   4.768
 4283SOL    HW213749   6.130   1.135   4.769
 4284SOL     OW13750   4.880   6.055   6.711
 4284SOL    HW113751   4.898   6.036   6.614
 4284SOL    HW213752   4.784   6.035   6.731
 4285SOL     OW13753   3.123   1.405   6.518
 4285SOL    HW113754   3.184   1.461   6.461
 4285SOL    HW213755   3.174   1.364   6.592
 4286SOL     OW13756   5.315   6.682   0.106
 4286SOL    HW113757   5.222   6.701   0.077
 4286SOL    HW213758   5.372   6.659   0.027
 4287SOL     OW13759   3.230   0.835   1.259
 4287SOL    HW113760   3.214   0.922   1.211
 4287SOL    HW213761   3.298   0.849   1.331
 4288SOL     OW13762   6.894   5.813   1.982
 4288SOL    HW113763   6.837   5.746   2.028
 4288SOL    HW213764   6.836   5.872   1.925
 4289SOL     OW13765   0.220   4.608   5.114
 4289SOL    HW113766   0.160   4.531   5.093
 4289SOL    HW213767   0.183   4.691   5.074
 4290SOL     OW13768   6.839   1.762   3.516
 4290SOL    HW113769   6.761   1.742   3.575
 4290SOL    HW213770   6.862   1.682   3.461
 4291SOL     OW13771   4.225   4.667   6.622
 4291SOL    HW113772   4.208   4.678   6.720
 4291SOL    HW213773   4.323   4.669   6.606
 4292SOL     OW13774   6.370   0.840   1.975
 4292SOL    HW113775   6.448   0.785   1.945
 4292SOL    HW213776   6.304   0.782   2.022
 4293SOL     OW13777   3.792   2.969   6.966
 4293SOL    HW113778   3.709   2.915   6.955
 4293SOL    HW213779   3.768   3.065   6.975
 4294SOL     OW13780   3.048   1.696   6.607
 4294SOL    HW113781   2.950   1.707   6.588
 4294SOL    HW213782   3.099   1.699   6.521
 4295SOL     OW13783   4.934   6.406   2.857
 4295SOL    HW113784   4.946   6.422   2.955
 4295SOL    HW213785   4.838   6.385   2.838
 4296SOL     OW13786   2.198   6.218   2.199
 4296SOL    HW113787   2.248   6.250   2.279
 4296SOL    HW213788   2.102   6.247   2.206
 4297SOL     OW13789   4.781   5.071   0.280
 4297SOL    HW113790   4.713   5.111   0.219
 4297SOL    HW213791   4.826   4.994   0.235
 4298SOL     OW13792   1.437   0.120   0.744
 4298SOL    HW113793   1.433   0.027   0.780
 4298SOL    HW213794   1.532   0.153   0.746
 4299SOL     OW13795   0.847   3.108   6.300
 4299SOL    HW113796   0.892   3.196   6.315
 4299SOL    HW213797   0.881   3.068   6.215
 4300SOL     OW13798   3.225   0.545   2.177
 4300SOL    HW113799   3.141   0.594   2.157
 4300SOL    HW213800   3.295   0.609   2.209
 4301SOL     OW13801   2.091   5.975   5.394
 4301SOL    HW113802   2.046   5.890   5.368
 4301SOL    HW213803   2.056   6.050   5.338
 4302SOL     OW13804   3.552   5.008   6.405
 4302SOL    HW113805   3.569   5.054   6.491
 4302SOL    HW213806   3.527   5.075   6.335
 4303SOL     OW13807   4.398   5.474   3.733
 4303SOL    HW113808   4.476   5.531   3.706
 4303SOL    HW213809   4.423   5.378   3.725
 4304SOL     OW13810   3.033   4.039   1.857
 4304SOL    HW113811   2.994   3.956   1.819
 4304SOL    HW213812   2.990   4.119   1.815
 4305SOL     OW13813   0.749   6.217   5.890
 4305SOL    HW113814   0.755   6.118   5.878
 4305SOL    HW213815   0.793   6.263   5.812
 4306SOL     OW13816   5.799   3.424   5.105
 4306SOL    HW113817   5.812   3.465   5.196
 4306SOL    HW213818   5.877   3.450   5.047
 4307SOL     OW13819   6.913   1.361   5.509
 4307SOL    HW113820   6.814   1.348   5.515
 4307SOL    HW213821   6.937   1.391   5.417
 4308SOL     OW13822   4.140   5.530   6.451
 4308SOL    HW113823   4.089   5.613   6.431
 4308SOL    HW213824   4.238   5.547   6.438
 4309SOL     OW13825   2.380   1.797   0.773
 4309SOL    HW113826   2.389   1.861   0.697
 4309SOL    HW213827   2.368   1.704   0.738
 4310SOL     OW13828   6.215   1.980   3.636
 4310SOL    HW113829   6.189   1.890   3.670
 4310SOL    HW213830   6.185   1.990   3.541
 4311SOL     OW13831   0.446   6.993   1.430
 4311SOL    HW113832   0.542   6.979   1.406
 4311SOL    HW213833   0.390   6.925   1.383
 4312SOL     OW13834   0.031   3.904   2.126
 4312SOL    HW113835   6.995   3.918   2.206
 4312SOL    HW213836   6.995   3.908   2.043
 4313SOL     OW13837   1.037   3.722   0.323
 4313SOL    HW113838   1.115   3.753   0.377
 4313SOL    HW213839   1.027   3.623   0.334
 4314SOL     OW13840   1.842   1.390   5.362
 4314SOL    HW113841   1.854   1.472   5.306
 4314SOL    HW213842   1.925   1.373   5.415
 4315SOL     OW13843   2.389   2.217   5.462
 4315SOL    HW113844   2.415   2.132   5.506
 4315SOL    HW213845   2.472   2.270   5.442
 4316SOL     OW13846   4.259   5.584   1.906
 4316SOL    HW113847   4.195   5.661   1.901
 4316SOL    HW213848   4.266   5.553   2.001
 4317SOL     OW13849   5.079   0.805   4.934
 4317SOL    HW113850   5.097   0.725   4.876
 4317SOL    HW213851   5.003   0.857   4.897
 4318SOL     OW13852   1.629   6.193   4.120
 4318SOL    HW113853   1.584   6.196   4.031
 4318SOL    HW213854   1.561   6.172   4.191
 4319SOL     OW13855   1.292   4.124   2.505
 4319SOL    HW113856   1.220   4.190   2.482
 4319SOL    HW213857   1.256   4.057   2.570
 4320SOL     OW13858   3.632   6.922   0.997
 4320SOL    HW113859   3.579   6.994   1.041
 4320SOL    HW213860   3.694   6.880   1.063
 4321SOL     OW13861   0.004   5.909   3.014
 4321SOL    HW113862   0.019   5.818   2.975
 4321SOL    HW213863   0.086   5.965   2.999
 4322SOL     OW13864   2.383   2.149   3.791
 4322SOL    HW113865   2.303   2.198   3.755
 4322SOL    HW213866   2.431   2.105   3.715
 4323SOL     OW13867   4.693   4.643   0.860
 4323SOL    HW113868   4.697   4.575   0.933
 4323SOL    HW213869   4.765   4.624   0.793
 4324SOL     OW13870   0.330   4.380   6.052
 4324SOL    HW113871   0.322   4.280   6.056
 4324SOL    HW213872   0.406   4.409   6.110
 4325SOL     OW13873   1.410   0.104   1.100
 4325SOL    HW113874   1.500   0.117   1.141
 4325SOL    HW213875   1.413   0.026   1.037
 4326SOL     OW13876   4.790   2.516   2.509
 4326SOL    HW113877   4.714   2.484   2.565
 4326SOL    HW213878   4.786   2.615   2.501
 4327SOL     OW13879   2.741   6.402   3.906
 4327SOL    HW113880   2.775   6.482   3.955
 4327SOL    HW213881   2.660   6.427   3.854
 4328SOL     OW13882   5.985   0.355   3.292
 4328SOL    HW113883   5.898   0.318   3.326
 4328SOL    HW213884   6.047   0.280   3.270
 4329SOL     OW13885   6.168   3.784   0.036
 4329SOL    HW113886   6.230   3.722   0.083
 4329SOL    HW213887   6.162   3.870   0.086
 4330SOL     OW13888   2.502   4.830   4.317
 4330SOL    HW113889   2.426   4.845   4.379
 4330SOL    HW213890   2.492   4.891   4.238
 4331SOL     OW13891   5.732   1.906   2.207
 4331SOL    HW113892   5.787   1.965   2.266
 4331SOL    HW213893   5.648   1.881   2.254
 4332SOL     OW13894   6.895   5.512   1.229
 4332SOL    HW113895   6.825   5.552   1.289
 4332SOL    HW213896   6.984   5.550   1.253
 4333SOL     OW13897   3.974   2.877   6.245
 4333SOL    HW113898   3.996   2.958   6.299
 4333SOL    HW213899   3.924   2.812   6.302
 4334SOL     OW13900   0.076   2.935   4.023
 4334SOL    HW113901   0.061   3.032   4.003
 4334SOL    HW213902   0.164   2.923   4.068
 4335SOL     OW13903   2.455   4.285   1.851
 4335SOL    HW113904   2.391   4.315   1.921
 4335SOL    HW213905   2.421   4.201   1.808
 4336SOL     OW13906   2.861   5.288   5.458
 4336SOL    HW113907   2.944   5.233   5.458
 4336SOL    HW213908   2.861   5.347   5.377
 4337SOL     OW13909   6.931   4.498   3.626
 4337SOL    HW113910   6.851   4.557   3.633
 4337SOL    HW213911   7.002   4.544   3.572
 4338SOL     OW13912   3.010   2.546   6.522
 4338SOL    HW113913   3.011   2.515   6.427
 4338SOL    HW213914   2.923   2.591   6.542
 4339SOL     OW13915   4.213   4.670   5.236
 4339SOL    HW113916   4.243   4.575   5.225
 4339SOL    HW213917   4.212   4.715   5.147
 4340SOL     OW13918   0.204   4.103   1.417
 4340SOL    HW113919   0.136   4.126   1.486
 4340SOL    HW213920   0.168   4.032   1.357
 4341SOL     OW13921   6.001   5.830   1.562
 4341SOL    HW113922   6.095   5.816   1.533
 4341SOL    HW213923   5.952   5.885   1.494
 4342SOL     OW13924   5.339   3.192   2.518
 4342SOL    HW113925   5.297   3.154   2.435
 4342SOL    HW213926   5.267   3.217   2.583
 4343SOL     OW13927   3.635   0.476   6.372
 4343SOL    HW113928   3.657   0.416   6.448
 4343SOL    HW213929   3.705   0.468   6.301
 4344SOL     OW13930   0.910   3.793   2.804
 4344SOL    HW113931   0.963   3.878   2.793
 4344SOL    HW213932   0.903   3.770   2.901
 4345SOL     OW13933   3.823   3.728   2.733
 4345SOL    HW113934   3.803   3.657   2.665
 4345SOL    HW213935   3.917   3.715   2.767
 4346SOL     OW13936   0.823   3.116   2.712
 4346SOL    HW113937   0.919   3.097   2.730
 4346SOL    HW213938   0.811   3.133   2.614
 4347SOL     OW13939   6.344   5.257   0.579
 4347SOL    HW113940   6.419   5.310   0.540
 4347SOL    HW213941   6.313   5.301   0.663
 4348SOL     OW13942   5.966   4.763   5.688
 4348SOL    HW113943   5.888   4.710   5.721
 4348SOL    HW213944   5.940   4.814   5.606
 4349SOL     OW13945   0.686   3.543   4.117
 4349SOL    HW113946   0.674   3.500   4.027
 4349SOL    HW213947   0.747   3.622   4.108
 4350SOL     OW13948   4.370   1.038   4.195
 4350SOL    HW113949   4.272   1.045   4.178
 4350SOL    HW213950   4.410   0.970   4.133
 4351SOL     OW13951   0.127   5.622   1.246
 4351SOL    HW113952   0.134   5.701   1.184
 4351SOL    HW213953   0.152   5.651   1.339
 4352SOL     OW13954   3.679   5.048   1.900
 4352SOL    HW113955   3.665   4.950   1.912
 4352SOL    HW213956   3.612   5.098   1.955
 4353SOL     OW13957   2.773   3.748   0.540
 4353SOL    HW113958   2.862   3.724   0.502
 4353SOL    HW213959   2.770   3.724   0.637
 4354SOL     OW13960   5.817   5.896   2.581
 4354SOL    HW113961   5.811   5.855   2.490
 4354SOL    HW213962   5.888   5.851   2.634
 4355SOL     OW13963   2.153   4.871   3.084
 4355SOL    HW113964   2.193   4.942   3.141
 4355SOL    HW213965   2.213   4.852   3.007
 4356SOL     OW13966   5.916   3.018   5.336
 4356SOL    HW113967   5.901   3.114   5.357
 4356SOL    HW213968   5.933   3.007   5.238
 4357SOL     OW13969   5.694   6.396   2.285
 4357SOL    HW113970   5.641   6.393   2.369
 4357SOL    HW213971   5.636   6.368   2.208
 4358SOL     OW13972   2.710   1.318   0.352
 4358SOL    HW113973   2.749   1.314   0.260
 4358SOL    HW213974   2.617   1.354   0.348
 4359SOL     OW13975   2.487   2.214   1.560
 4359SOL    HW113976   2.420   2.149   1.595
 4359SOL    HW213977   2.522   2.270   1.634
 4360SOL     OW13978   2.458   5.628   4.124
 4360SOL    HW113979   2.474   5.648   4.028
 4360SOL    HW213980   2.411   5.705   4.167
 4361SOL     OW13981   1.011   1.815   0.360
 4361SOL    HW113982   1.005   1.878   0.437
 4361SOL    HW213983   0.959   1.852   0.283
 4362SOL     OW13984   1.142   5.016   3.214
 4362SOL    HW113985   1.190   5.086   3.267
 4362SOL    HW213986   1.167   4.926   3.248
 4363SOL     OW13987   3.659   0.666   2.006
 4363SOL    HW113988   3.590   0.594   2.005
 4363SOL    HW213989   3.727   0.645   2.076
 4364SOL     OW13990   2.932   3.730   2.739
 4364SOL    HW113991   2.919   3.652   2.678
 4364SOL    HW213992   2.955   3.811   2.685
 4365SOL     OW13993   2.111   1.171   1.007
 4365SOL    HW113994   2.107   1.224   0.922
 4365SOL    HW213995   2.035   1.197   1.066
 4366SOL     OW13996   4.866   6.076   4.668
 4366SOL    HW113997   4.878   6.053   4.572
 4366SOL    HW213998   4.814   6.161   4.676
 4367SOL     OW13999   2.563   6.113   2.259
 4367SOL    HW114000   2.547   6.117   2.160
 4367SOL    HW214001   2.497   6.172   2.306
 4368SOL     OW14002   4.946   3.828   4.257
 4368SOL    HW114003   5.031   3.831   4.206
 4368SOL    HW214004   4.869   3.824   4.194
 4369SOL     OW14005   5.654   4.162   3.452
 4369SOL    HW114006   5.726   4.126   3.512
 4369SOL    HW214007   5.638   4.258   3.474
 4370SOL     OW14008   4.116   5.062   0.594
 4370SOL    HW114009   4.110   5.095   0.688
 4370SOL    HW214010   4.047   5.107   0.538
 4371SOL     OW14011   3.477   1.083   2.661
 4371SOL    HW114012   3.384   1.063   2.690
 4371SOL    HW214013   3.533   1.000   2.671
 4372SOL     OW14014   1.537   4.613   4.430
 4372SOL    HW114015   1.592   4.530   4.425
 4372SOL    HW214016   1.442   4.592   4.407
 4373SOL     OW14017   4.535   0.746   0.508
 4373SOL    HW114018   4.527   0.651   0.538
 4373SOL    HW214019   4.588   0.749   0.423
 4374SOL     OW14020   2.684   0.074   0.320
 4374SOL    HW114021   2.597   0.033   0.345
 4374SOL    HW214022   2.669   0.141   0.247
 4375SOL     OW14023   3.741   1.578   5.813
 4375SOL    HW114024   3.835   1.548   5.799
 4375SOL    HW214025   3.727   1.601   5.910
 4376SOL     OW14026   2.240   5.829   0.082
 4376SOL    HW114027   2.191   5.742   0.090
 4376SOL    HW214028   2.338   5.812   0.084
 4377SOL     OW14029   5.061   5.818   6.912
 4377SOL    HW114030   5.035   5.734   6.959
 4377SOL    HW214031   4.996   5.891   6.935
 4378SOL     OW14032   2.966   4.924   2.700
 4378SOL    HW114033   2.902   4.879   2.763
 4378SOL    HW214034   3.056   4.931   2.744
 4379SOL     OW14035   0.224   6.817   1.274
 4379SOL    HW114036   0.293   6.811   1.202
 4379SOL    HW214037   0.172   6.732   1.278
 4380SOL     OW14038   1.956   5.586   4.098
 4380SOL    HW114039   2.035   5.621   4.148
 4380SOL    HW214040   1.879   5.649   4.108
 4381SOL     OW14041   4.751   5.877   5.458
 4381SOL    HW114042   4.681   5.812   5.432
 4381SOL    HW214043   4.710   5.967   5.472
 4382SOL     OW14044   5.605   3.778   2.692
 4382SOL    HW114045   5.549   3.857   2.663
 4382SOL    HW214046   5.549   3.695   2.689
 4383SOL     OW14047   1.108   1.570   0.577
 4383SOL    HW114048   1.116   1.555   0.478
 4383SOL    HW214049   1.082   1.485   0.622
 4384SOL     OW14050   3.775   6.582   1.612
 4384SOL    HW114051   3.846   6.524   1.573
 4384SOL    HW214052   3.706   6.602   1.543
 4385SOL     OW14053   5.948   2.465   2.513
 4385SOL    HW114054   6.027   2.503   2.563
 4385SOL    HW214055   5.963   2.477   2.415
 4386SOL     OW14056   2.057   3.889   6.746
 4386SOL    HW114057   2.051   3.916   6.842
 4386SOL    HW214058   2.028   3.965   6.688
 4387SOL     OW14059   6.693   2.465   1.693
 4387SOL    HW114060   6.607   2.443   1.647
 4387SOL    HW214061   6.765   2.404   1.661
 4388SOL     OW14062   3.150   1.956   5.702
 4388SOL    HW114063   3.105   1.867   5.711
 4388SOL    HW214064   3.107   2.008   5.629
 4389SOL     OW14065   6.027   2.057   2.602
 4389SOL    HW114066   6.028   1.968   2.648
 4389SOL    HW214067   6.118   2.098   2.606
 4390SOL     OW14068   4.081   2.789   1.243
 4390SOL    HW114069   4.031   2.777   1.157
 4390SOL    HW214070   4.026   2.844   1.306
 4391SOL     OW14071   0.265   6.403   0.341
 4391SOL    HW114072   0.240   6.423   0.436
 4391SOL    HW214073   0.193   6.434   0.280
 4392SOL     OW14074   5.459   4.242   4.906
 4392SOL    HW114075   5.416   4.327   4.938
 4392SOL    HW214076   5.426   4.165   4.960
 4393SOL     OW14077   5.375   6.129   3.321
 4393SOL    HW114078   5.359   6.053   3.385
 4393SOL    HW214079   5.314   6.205   3.344
 4394SOL     OW14080   4.691   0.903   2.541
 4394SOL    HW114081   4.607   0.898   2.487
 4394SOL    HW214082   4.737   0.814   2.539
 4395SOL     OW14083   5.336   1.474   1.378
 4395SOL    HW114084   5.345   1.397   1.316
 4395SOL    HW214085   5.258   1.531   1.351
 4396SOL     OW14086   1.541   1.261   3.803
 4396SOL    HW114087   1.578   1.282   3.712
 4396SOL    HW214088   1.593   1.311   3.872
 4397SOL     OW14089   5.412   0.182   6.068
 4397SOL    HW114090   5.477   0.144   6.134
 4397SOL    HW214091   5.357   0.109   6.029
 4398SOL     OW14092   0.491   5.603   4.298
 4398SOL    HW114093   0.554   5.580   4.224
 4398SOL    HW214094   0.495   5.531   4.368
 4399SOL     OW14095   3.152   1.284   2.395
 4399SOL    HW114096   3.109   1.362   2.350
 4399SOL    HW214097   3.138   1.292   2.494
 4400SOL     OW14098   4.107   5.906   3.528
 4400SOL    HW114099   4.153   5.994   3.544
 4400SOL    HW214100   4.145   5.863   3.446
 4401SOL     OW14101   5.807   5.720   4.977
 4401SOL    HW114102   5.873   5.671   5.035
 4401SOL    HW214103   5.740   5.655   4.941
 4402SOL     OW14104   6.805   6.304   2.574
 4402SOL    HW114105   6.707   6.304   2.593
 4402SOL    HW214106   6.825   6.244   2.497
 4403SOL     OW14107   0.160   0.926   2.887
 4403SOL    HW114108   0.187   0.916   2.983
 4403SOL    HW214109   0.232   0.974   2.837
 4404SOL     OW14110   2.107   4.626   2.880
 4404SOL    HW114111   2.012   4.620   2.909
 4404SOL    HW214112   2.145   4.714   2.908
 4405SOL     OW14113   2.822   3.857   5.707
 4405SOL    HW114114   2.899   3.918   5.691
 4405SOL    HW214115   2.809   3.845   5.806
 4406SOL     OW14116   5.668   3.107   1.757
 4406SOL    HW114117   5.732   3.178   1.727
 4406SOL    HW214118   5.677   3.094   1.856
 4407SOL     OW14119   6.788   0.606   6.929
 4407SOL    HW114120   6.713   0.604   6.864
 4407SOL    HW214121   6.753   0.625   7.021
 4408SOL     OW14122   4.170   6.391   0.809
 4408SOL    HW114123   4.119   6.315   0.768
 4408SOL    HW214124   4.218   6.358   0.891
 4409SOL     OW14125   2.588   1.686   2.837
 4409SOL    HW114126   2.587   1.667   2.935
 4409SOL    HW214127   2.682   1.679   2.803
 4410SOL     OW14128   2.068   5.561   1.318
 4410SOL    HW114129   2.131   5.569   1.395
 4410SOL    HW214130   1.977   5.534   1.351
 4411SOL     OW14131   3.939   3.959   2.527
 4411SOL    HW114132   3.952   4.024   2.601
 4411SOL    HW214133   4.000   3.881   2.540
 4412SOL     OW14134   3.369   1.700   5.924
 4412SOL    HW114135   3.270   1.707   5.937
 4412SOL    HW214136   3.407   1.634   5.989
 4413SOL     OW14137   4.694   5.262   3.615
 4413SOL    HW114138   4.595   5.261   3.626
 4413SOL    HW214139   4.738   5.227   3.698
 4414SOL     OW14140   3.378   5.479   1.511
 4414SOL    HW114141   3.393   5.394   1.562
 4414SOL    HW214142   3.288   5.477   1.469
 4415SOL     OW14143   4.590   1.475   1.011
 4415SOL    HW114144   4.670   1.519   0.971
 4415SOL    HW214145   4.509   1.532   0.995
 4416SOL     OW14146   2.575   2.149   4.814
 4416SOL    HW114147   2.614   2.231   4.856
 4416SOL    HW214148   2.475   2.157   4.812
 4417SOL     OW14149   5.975   0.200   1.239
 4417SOL    HW114150   6.026   0.147   1.307
 4417SOL    HW214151   5.904   0.253   1.285
 4418SOL     OW14152   4.845   1.319   3.759
 4418SOL    HW114153   4.765   1.317   3.699
 4418SOL    HW214154   4.901   1.237   3.745
 4419SOL     OW14155   6.415   5.300   6.344
 4419SOL    HW114156   6.460   5.370   6.399
 4419SOL    HW214157   6.468   5.283   6.261
 4420SOL     OW14158   4.206   0.927   0.261
 4420SOL    HW114159   4.175   0.888   0.174
 4420SOL    HW214160   4.286   0.985   0.245
 4421SOL     OW14161   0.729   1.633   3.573
 4421SOL    HW114162   0.715   1.547   3.524
 4421SOL    HW214163   0.734   1.613   3.672
 4422SOL     OW14164   1.852   4.853   6.017
 4422SOL    HW114165   1.779   4.915   5.991
 4422SOL    HW214166   1.835   4.817   6.109
 4423SOL     OW14167   0.041   1.521   6.430
 4423SOL    HW114168   7.014   1.596   6.474
 4423SOL    HW214169   0.017   1.518   6.333
 4424SOL     OW14170   0.934   5.989   3.346
 4424SOL    HW114171   0.986   6.028   3.422
 4424SOL    HW214172   0.847   6.038   3.337
 4425SOL     OW14173   5.112   4.445   0.606
 4425SOL    HW114174   5.151   4.497   0.530
 4425SOL    HW214175   5.043   4.499   0.652
 4426SOL     OW14176   0.769   0.551   6.078
 4426SOL    HW114177   0.786   0.615   6.152
 4426SOL    HW214178   0.762   0.458   6.115
 4427SOL     OW14179   1.127   5.912   3.712
 4427SOL    HW114180   1.101   5.993   3.660
 4427SOL    HW214181   1.128   5.933   3.810
 4428SOL     OW14182   1.884   6.843   3.301
 4428SOL    HW114183   1.786   6.828   3.313
 4428SOL    HW214184   1.907   6.838   3.203
 4429SOL     OW14185   3.554   0.320   3.045
 4429SOL    HW114186   3.568   0.301   3.142
 4429SOL    HW214187   3.487   0.255   3.008
 4430SOL     OW14188   1.280   0.560   1.859
 4430SOL    HW114189   1.330   0.642   1.885
 4430SOL    HW214190   1.209   0.583   1.792
 4431SOL     OW14191   2.599   2.194   3.125
 4431SOL    HW114192   2.598   2.096   3.102
 4431SOL    HW214193   2.631   2.206   3.219
 4432SOL     OW14194   3.106   3.221   3.634
 4432SOL    HW114195   3.022   3.219   3.579
 4432SOL    HW214196   3.169   3.288   3.595
 4433SOL     OW14197   6.294   0.312   2.983
 4433SOL    HW114198   6.268   0.261   3.065
 4433SOL    HW214199   6.256   0.405   2.989
 4434SOL     OW14200   4.776   2.287   4.669
 4434SOL    HW114201   4.782   2.386   4.682
 4434SOL    HW214202   4.865   2.253   4.636
 4435SOL     OW14203   4.098   3.265   2.256
 4435SOL    HW114204   4.012   3.311   2.235
 4435SOL    HW214205   4.081   3.168   2.275
 4436SOL     OW14206   5.230   0.098   0.806
 4436SOL    HW114207   5.327   0.085   0.785
 4436SOL    HW214208   5.221   0.167   0.878
 4437SOL     OW14209   3.586   0.368   5.132
 4437SOL    HW114210   3.627   0.350   5.221
 4437SOL    HW214211   3.592   0.286   5.075
 4438SOL     OW14212   4.291   3.502   6.585
 4438SOL    HW114213   4.384   3.473   6.561
 4438SOL    HW214214   4.275   3.595   6.553
 4439SOL     OW14215   2.231   4.813   2.414
 4439SOL    HW114216   2.315   4.844   2.459
 4439SOL    HW214217   2.252   4.781   2.322
 4440SOL     OW14218   6.354   1.108   0.365
 4440SOL    HW114219   6.302   1.170   0.306
 4440SOL    HW214220   6.448   1.142   0.374
 4441SOL     OW14221   6.089   1.178   3.378
 4441SOL    HW114222   6.173   1.159   3.429
 4441SOL    HW214223   6.096   1.138   3.286
 4442SOL     OW14224   1.642   5.610   1.821
 4442SOL    HW114225   1.675   5.667   1.896
 4442SOL    HW214226   1.552   5.641   1.792
 4443SOL     OW14227   2.462   1.447   6.677
 4443SOL    HW114228   2.392   1.516   6.655
 4443SOL    HW214229   2.551   1.480   6.647
 4444SOL     OW14230   4.755   1.234   3.095
 4444SOL    HW114231   4.753   1.251   2.996
 4444SOL    HW214232   4.763   1.136   3.111
 4445SOL     OW14233   1.082   0.695   6.409
 4445SOL    HW114234   1.141   0.724   6.334
 4445SOL    HW214235   1.094   0.757   6.487
 4446SOL     OW14236   5.026   4.799   3.690
 4446SOL    HW114237   5.013   4.711   3.735
 4446SOL    HW214238   5.106   4.845   3.729
 4447SOL     OW14239   4.865   2.762   5.263
 4447SOL    HW114240   4.875   2.838   5.328
 4447SOL    HW214241   4.813   2.688   5.306
 4448SOL     OW14242   2.075   3.483   6.688
 4448SOL    HW114243   2.000   3.418   6.696
 4448SOL    HW214244   2.157   3.437   6.656
 4449SOL     OW14245   0.335   1.402   5.383
 4449SOL    HW114246   0.404   1.403   5.311
 4449SOL    HW214247   0.270   1.476   5.368
 4450SOL     OW14248   3.495   3.517   2.359
 4450SOL    HW114249   3.584   3.540   2.397
 4450SOL    HW214250   3.503   3.506   2.260
 4451SOL     OW14251   0.119   3.893   1.183
 4451SOL    HW114252   0.085   3.855   1.270
 4451SOL    HW214253   0.043   3.897   1.118
 4452SOL     OW14254   6.407   3.851   6.274
 4452SOL    HW114255   6.425   3.850   6.176
 4452SOL    HW214256   6.488   3.817   6.323
 4453SOL     OW14257   4.942   1.720   0.764
 4453SOL    HW114258   4.903   1.709   0.673
 4453SOL    HW214259   5.036   1.753   0.757
 4454SOL     OW14260   4.782   2.675   1.414
 4454SOL    HW114261   4.685   2.685   1.394
 4454SOL    HW214262   4.796   2.597   1.475
 4455SOL     OW14263   4.144   2.213   1.968
 4455SOL    HW114264   4.059   2.186   2.012
 4455SOL    HW214265   4.189   2.285   2.021
 4456SOL     OW14266   1.191   5.907   2.522
 4456SOL    HW114267   1.133   5.851   2.580
 4456SOL    HW214268   1.178   5.882   2.426
 4457SOL     OW14269   4.723   1.698   6.817
 4457SOL    HW114270   4.746   1.637   6.740
 4457SOL    HW214271   4.790   1.772   6.821
 4458SOL     OW14272   4.079   1.635   0.725
 4458SOL    HW114273   3.992   1.599   0.759
 4458SOL    HW214274   4.095   1.602   0.632
 4459SOL     OW14275   5.507   6.743   5.249
 4459SOL    HW114276   5.518   6.790   5.336
 4459SOL    HW214277   5.475   6.649   5.266
 4460SOL     OW14278   1.261   1.308   6.492
 4460SOL    HW114279   1.166   1.301   6.524
 4460SOL    HW214280   1.284   1.404   6.475
 4461SOL     OW14281   2.181   6.519   2.174
 4461SOL    HW114282   2.095   6.495   2.220
 4461SOL    HW214283   2.254   6.528   2.241
 4462SOL     OW14284   0.029   4.819   0.806
 4462SOL    HW114285   6.968   4.875   0.804
 4462SOL    HW214286   0.003   4.723   0.817
 4463SOL     OW14287   1.521   4.067   6.113
 4463SOL    HW114288   1.545   4.008   6.190
 4463SOL    HW214289   1.422   4.084   6.114
 4464SOL     OW14290   6.406   2.778   6.986
 4464SOL    HW114291   6.416   2.731   6.899
 4464SOL    HW214292   6.456   2.864   6.984
 4465SOL     OW14293   0.689   6.017   0.442
 4465SOL    HW114294   0.744   5.979   0.517
 4465SOL    HW214295   0.667   5.945   0.377
 4466SOL     OW14296   6.889   2.878   3.045
 4466SOL    HW114297   6.978   2.857   3.004
 4466SOL    HW214298   6.822   2.810   3.017
 4467SOL     OW14299   1.467   0.318   3.255
 4467SOL    HW114300   1.467   0.268   3.168
 4467SOL    HW214301   1.510   0.407   3.242
 4468SOL     OW14302   2.171   2.219   0.685
 4468SOL    HW114303   2.250   2.191   0.738
 4468SOL    HW214304   2.148   2.314   0.706
 4469SOL     OW14305   4.697   7.014   0.287
 4469SOL    HW114306   4.696   7.010   0.187
 4469SOL    HW214307   4.646   0.073   0.317
 4470SOL     OW14308   4.680   4.850   1.268
 4470SOL    HW114309   4.621   4.827   1.190
 4470SOL    HW214310   4.729   4.768   1.297
 4471SOL     OW14311   6.386   2.527   0.533
 4471SOL    HW114312   6.333   2.442   0.534
 4471SOL    HW214313   6.470   2.513   0.481
 4472SOL     OW14314   1.810   4.577   1.257
 4472SOL    HW114315   1.740   4.645   1.237
 4472SOL    HW214316   1.852   4.597   1.345
 4473SOL     OW14317   0.130   0.560   6.312
 4473SOL    HW114318   0.217   0.586   6.354
 4473SOL    HW214319   0.146   0.488   6.244
 4474SOL     OW14320   5.939   0.567   4.150
 4474SOL    HW114321   6.030   0.527   4.134
 4474SOL    HW214322   5.886   0.507   4.209
 4475SOL     OW14323   1.788   4.103   0.676
 4475SOL    HW114324   1.742   4.183   0.637
 4475SOL    HW214325   1.876   4.131   0.714
 4476SOL     OW14326   5.029   6.693   2.243
 4476SOL    HW114327   4.988   6.641   2.319
 4476SOL    HW214328   5.129   6.691   2.252
 4477SOL     OW14329   1.201   1.621   0.974
 4477SOL    HW114330   1.275   1.618   1.042
 4477SOL    HW214331   1.203   1.708   0.926
 4478SOL     OW14332   1.705   4.694   2.183
 4478SOL    HW114333   1.742   4.769   2.237
 4478SOL    HW214334   1.708   4.718   2.086
 4479SOL     OW14335   0.954   0.281   5.968
 4479SOL    HW114336   0.958   0.381   5.957
 4479SOL    HW214337   1.046   0.243   5.960
 4480SOL     OW14338   0.051   4.151   3.881
 4480SOL    HW114339   0.062   4.068   3.935
 4480SOL    HW214340   7.007   4.212   3.927
 4481SOL     OW14341   0.776   0.576   4.146
 4481SOL    HW114342   0.758   0.494   4.200
 4481SOL    HW214343   0.708   0.647   4.169
 4482SOL     OW14344   1.091   3.865   3.534
 4482SOL    HW114345   1.149   3.784   3.526
 4482SOL    HW214346   1.031   3.855   3.614
 4483SOL     OW14347   5.418   2.846   0.966
 4483SOL    HW114348   5.382   2.891   1.048
 4483SOL    HW214349   5.392   2.750   0.966
 4484SOL     OW14350   3.502   3.614   6.068
 4484SOL    HW114351   3.552   3.606   5.982
 4484SOL    HW214352   3.504   3.527   6.116
 4485SOL     OW14353   4.413   0.687   0.084
 4485SOL    HW114354   4.349   0.644   0.148
 4485SOL    HW214355   4.376   0.685   7.013
 4486SOL     OW14356   5.925   3.070   3.897
 4486SOL    HW114357   5.960   3.074   3.991
 4486SOL    HW214358   5.833   3.031   3.897
 4487SOL     OW14359   3.005   2.951   5.918
 4487SOL    HW114360   3.062   3.028   5.948
 4487SOL    HW214361   3.007   2.944   5.818
 4488SOL     OW14362   6.621   1.658   6.416
 4488SOL    HW114363   6.657   1.685   6.327
 4488SOL    HW214364   6.687   1.599   6.463
 4489SOL     OW14365   6.924   1.258   3.091
 4489SOL    HW114366   6.916   1.357   3.104
 4489SOL    HW214367   7.015   1.228   3.119
 4490SOL     OW14368   6.662   2.158   3.653
 4490SOL    HW114369   6.612   2.072   3.649
 4490SOL    HW214370   6.679   2.191   3.560
 4491SOL     OW14371   2.036   3.732   2.665
 4491SOL    HW114372   1.964   3.663   2.664
 4491SOL    HW214373   2.012   3.805   2.600
 4492SOL     OW14374   5.077   5.120   6.041
 4492SOL    HW114375   5.100   5.023   6.030
 4492SOL    HW214376   5.033   5.153   5.957
 4493SOL     OW14377   5.984   4.883   3.606
 4493SOL    HW114378   5.905   4.939   3.633
 4493SOL    HW214379   6.062   4.906   3.665
 4494SOL     OW14380   5.854   2.940   3.090
 4494SOL    HW114381   5.776   2.878   3.087
 4494SOL    HW214382   5.874   2.965   3.185
 4495SOL     OW14383   4.588   6.171   1.971
 4495SOL    HW114384   4.621   6.114   1.896
 4495SOL    HW214385   4.555   6.258   1.934
 4496SOL     OW14386   5.476   4.473   5.981
 4496SOL    HW114387   5.439   4.537   5.913
 4496SOL    HW214388   5.480   4.381   5.942
 4497SOL     OW14389   6.217   5.151   0.930
 4497SOL    HW114390   6.123   5.178   0.951
 4497SOL    HW214391   6.272   5.233   0.913
 4498SOL     OW14392   0.994   4.083   0.165
 4498SOL    HW114393   0.950   4.085   0.075
 4498SOL    HW214394   0.924   4.073   0.236
 4499SOL     OW14395   5.496   3.558   6.259
 4499SOL    HW114396   5.450   3.497   6.323
 4499SOL    HW214397   5.591   3.528   6.246
 4500SOL     OW14398   3.075   3.783   3.494
 4500SOL    HW114399   3.162   3.796   3.542
 4500SOL    HW214400   3.073   3.844   3.414
 4501SOL     OW14401   1.616   5.251   4.934
 4501SOL    HW114402   1.568   5.246   4.846
 4501SOL    HW214403   1.554   5.222   5.007
 4502SOL     OW14404   6.683   3.077   6.748
 4502SOL    HW114405   6.602   3.049   6.799
 4502SOL    HW214406   6.735   3.143   6.803
 4503SOL     OW14407   1.814   3.436   2.628
 4503SOL    HW114408   1.753   3.400   2.699
 4503SOL    HW214409   1.774   3.518   2.589
 4504SOL     OW14410   4.492   2.528   4.003
 4504SOL    HW114411   4.404   2.572   3.991
 4504SOL    HW214412   4.480   2.438   4.044
 4505SOL     OW14413   1.626   5.187   6.903
 4505SOL    HW114414   1.698   5.222   6.963
 4505SOL    HW214415   1.649   5.210   6.808
 4506SOL     OW14416   4.313   0.009   4.919
 4506SOL    HW114417   4.287   0.019   5.015
 4506SOL    HW214418   4.233   0.019   4.861
 4507SOL     OW14419   6.327   3.269   1.768
 4507SOL    HW114420   6.281   3.274   1.679
 4507SOL    HW214421   6.342   3.174   1.793
 4508SOL     OW14422   2.298   3.786   6.779
 4508SOL    HW114423   2.205   3.795   6.742
 4508SOL    HW214424   2.310   3.849   6.855
 4509SOL     OW14425   0.388   2.178   3.523
 4509SOL    HW114426   0.439   2.223   3.596
 4509SOL    HW214427   0.407   2.080   3.524
 4510SOL     OW14428   3.815   6.414   5.546
 4510SOL    HW114429   3.837   6.317   5.542
 4510SOL    HW214430   3.751   6.436   5.472
 4511SOL     OW14431   6.208   2.179   6.145
 4511SOL    HW114432   6.302   2.196   6.114
 4511SOL    HW214433   6.144   2.231   6.090
 4512SOL     OW14434   2.574   4.538   6.751
 4512SOL    HW114435   2.558   4.595   6.670
 4512SOL    HW214436   2.646   4.580   6.807
 4513SOL     OW14437   5.676   1.411   2.119
 4513SOL    HW114438   5.772   1.430   2.097
 4513SOL    HW214439   5.654   1.318   2.090
 4514SOL     OW14440   3.627   0.958   5.833
 4514SOL    HW114441   3.693   1.030   5.857
 4514SOL    HW214442   3.556   0.997   5.774
 4515SOL     OW14443   6.413   4.987   0.792
 4515SOL    HW114444   6.324   5.029   0.810
 4515SOL    HW214445   6.399   4.895   0.755
 4516SOL     OW14446   0.830   6.937   3.918
 4516SOL    HW114447   0.874   6.927   4.007
 4516SOL    HW214448   0.884   6.890   3.848
 4517SOL     OW14449   3.791   0.490   6.150
 4517SOL    HW114450   3.869   0.428   6.146
 4517SOL    HW214451   3.762   0.514   6.058
 4518SOL     OW14452   1.424   0.329   3.529
 4518SOL    HW114453   1.448   0.358   3.436
 4518SOL    HW214454   1.507   0.309   3.580
 4519SOL     OW14455   6.194   2.557   5.019
 4519SOL    HW114456   6.241   2.512   5.095
 4519SOL    HW214457   6.098   2.527   5.017
 4520SOL     OW14458   6.980   4.200   2.547
 4520SOL    HW114459   6.908   4.262   2.578
 4520SOL    HW214460   0.019   4.248   2.484
 4521SOL     OW14461   5.126   1.646   6.257
 4521SOL    HW114462   5.035   1.687   6.251
 4521SOL    HW214463   5.191   1.699   6.202
 4522SOL     OW14464   5.414   0.349   3.163
 4522SOL    HW114465   5.428   0.359   3.065
 4522SOL    HW214466   5.433   0.255   3.190
 4523SOL     OW14467   4.738   3.205   6.243
 4523SOL    HW114468   4.760   3.302   6.250
 4523SOL    HW214469   4.699   3.173   6.329
 4524SOL     OW14470   6.379   0.148   4.875
 4524SOL    HW114471   6.478   0.159   4.862
 4524SOL    HW214472   6.347   0.212   4.945
 4525SOL     OW14473   6.276   2.192   5.296
 4525SOL    HW114474   6.344   2.162   5.229
 4525SOL    HW214475   6.310   2.175   5.388
 4526SOL     OW14476   3.387   0.719   1.052
 4526SOL    HW114477   3.321   0.758   1.115
 4526SOL    HW214478   3.449   0.791   1.019
 4527SOL     OW14479   4.388   6.484   3.752
 4527SOL    HW114480   4.405   6.390   3.780
 4527SOL    HW214481   4.295   6.492   3.718
 4528SOL     OW14482   4.990   6.788   5.992
 4528SOL    HW114483   5.028   6.805   6.084
 4528SOL    HW214484   5.035   6.848   5.926
 4529SOL     OW14485   4.253   0.219   3.639
 4529SOL    HW114486   4.161   0.197   3.606
 4529SOL    HW214487   4.287   0.301   3.592
 4530SOL     OW14488   0.481   3.014   5.143
 4530SOL    HW114489   0.489   2.915   5.141
 4530SOL    HW214490   0.434   3.042   5.227
 4531SOL     OW14491   6.842   3.837   3.707
 4531SOL    HW114492   6.795   3.887   3.634
 4531SOL    HW214493   6.940   3.836   3.689
 4532SOL     OW14494   6.911   1.583   0.393
 4532SOL    HW114495   6.982   1.550   0.455
 4532SOL    HW214496   6.953   1.632   0.317
 4533SOL     OW14497   3.363   6.106   2.249
 4533SOL    HW114498   3.381   6.149   2.338
 4533SOL    HW214499   3.437   6.128   2.186
 4534SOL     OW14500   0.221   4.221   5.392
 4534SOL    HW114501   0.258   4.193   5.481
 4534SOL    HW214502   0.217   4.321   5.387
 4535SOL     OW14503   5.064   2.607   3.161
 4535SOL    HW114504   5.099   2.535   3.101
 4535SOL    HW214505   5.096   2.592   3.254
 4536SOL     OW14506   6.666   0.577   4.261
 4536SOL    HW114507   6.676   0.510   4.335
 4536SOL    HW214508   6.733   0.558   4.190
 4537SOL     OW14509   4.425   3.239   6.256
 4537SOL    HW114510   4.444   3.152   6.301
 4537SOL    HW214511   4.486   3.249   6.177
 4538SOL     OW14512   3.163   1.795   2.019
 4538SOL    HW114513   3.165   1.737   2.100
 4538SOL    HW214514   3.134   1.887   2.045
 4539SOL     OW14515   2.351   2.258   2.497
 4539SOL    HW114516   2.314   2.310   2.574
 4539SOL    HW214517   2.422   2.195   2.530
 4540SOL     OW14518   3.180   3.052   5.030
 4540SOL    HW114519   3.122   3.132   5.015
 4540SOL    HW214520   3.235   3.066   5.112
 4541SOL     OW14521   6.278   1.189   1.518
 4541SOL    HW114522   6.320   1.141   1.595
 4541SOL    HW214523   6.189   1.225   1.546
 4542SOL     OW14524   4.903   6.909   3.085
 4542SOL    HW114525   4.896   6.810   3.070
 4542SOL    HW214526   4.814   6.951   3.067
 4543SOL     OW14527   5.741   2.005   1.518
 4543SOL    HW114528   5.770   2.076   1.583
 4543SOL    HW214529   5.771   2.030   1.426
 4544SOL     OW14530   4.143   4.950   0.012
 4544SOL    HW114531   4.172   5.046   0.007
 4544SOL    HW214532   4.218   4.891   7.003
 4545SOL     OW14533   4.024   3.998   6.157
 4545SOL    HW114534   4.094   3.930   6.136
 4545SOL    HW214535   3.998   3.992   6.254
 4546SOL     OW14536   0.193   6.406   6.757
 4546SOL    HW114537   0.093   6.396   6.757
 4546SOL    HW214538   0.217   6.503   6.753
 4547SOL     OW14539   4.390   1.691   1.808
 4547SOL    HW114540   4.399   1.725   1.714
 4547SOL    HW214541   4.373   1.593   1.807
 4548SOL     OW14542   0.930   3.495   3.865
 4548SOL    HW114543   0.887   3.440   3.936
 4548SOL    HW214544   1.029   3.496   3.879
 4549SOL     OW14545   4.107   1.764   2.039
 4549SOL    HW114546   4.118   1.846   2.095
 4549SOL    HW214547   4.152   1.777   1.950
 4550SOL     OW14548   1.716   5.988   4.650
 4550SOL    HW114549   1.686   5.922   4.581
 4550SOL    HW214550   1.805   5.960   4.686
 4551SOL     OW14551   7.018   3.057   0.277
 4551SOL    HW114552   0.046   2.970   0.275
 4551SOL    HW214553   6.932   3.048   0.227
 4552SOL     OW14554   6.474   2.967   4.233
 4552SOL    HW114555   6.538   3.025   4.182
 4552SOL    HW214556   6.454   2.884   4.182
 4553SOL     OW14557   5.285   4.888   0.261
 4553SOL    HW114558   5.366   4.931   0.222
 4553SOL    HW214559   5.259   4.809   0.206
 4554SOL     OW14560   5.736   0.209   3.300
 4554SOL    HW114561   5.654   0.187   3.247
 4554SOL    HW214562   5.730   0.168   3.391
 4555SOL     OW14563   4.239   2.000   6.616
 4555SOL    HW114564   4.310   1.990   6.546
 4555SOL    HW214565   4.188   2.084   6.599
 4556SOL     OW14566   5.065   0.813   5.227
 4556SOL    HW114567   5.022   0.888   5.277
 4556SOL    HW214568   5.070   0.837   5.130
 4557SOL     OW14569   5.453   0.484   5.025
 4557SOL    HW114570   5.538   0.490   5.076
 4557SOL    HW214571   5.379   0.454   5.085
 4558SOL     OW14572   6.081   3.350   5.909
 4558SOL    HW114573   6.168   3.342   5.861
 4558SOL    HW214574   6.044   3.441   5.894
 4559SOL     OW14575   0.517   6.326   1.522
 4559SOL    HW114576   0.606   6.367   1.500
 4559SOL    HW214577   0.465   6.312   1.438
 4560SOL     OW14578   5.215   2.843   2.543
 4560SOL    HW114579   5.232   2.844   2.642
 4560SOL    HW214580   5.156   2.765   2.521
 4561SOL     OW14581   3.186   0.825   6.362
 4561SOL    HW114582   3.246   0.853   6.436
 4561SOL    HW214583   3.191   0.725   6.350
 4562SOL     OW14584   2.140   4.904   5.442
 4562SOL    HW114585   2.101   4.821   5.403
 4562SOL    HW214586   2.238   4.906   5.426
 4563SOL     OW14587   5.557   2.524   6.468
 4563SOL    HW114588   5.627   2.591   6.444
 4563SOL    HW214589   5.582   2.434   6.431
 4564SOL     OW14590   0.871   5.506   6.965
 4564SOL    HW114591   0.781   5.542   6.990
 4564SOL    HW214592   0.928   5.580   6.931
 4565SOL     OW14593   2.775   0.915   4.029
 4565SOL    HW114594   2.755   0.885   4.122
 4565SOL    HW214595   2.873   0.913   4.014
 4566SOL     OW14596   1.770   1.436   0.526
 4566SOL    HW114597   1.704   1.438   0.602
 4566SOL    HW214598   1.843   1.502   0.545
 4567SOL     OW14599   6.309   1.300   1.182
 4567SOL    HW114600   6.315   1.246   1.266
 4567SOL    HW214601   6.214   1.305   1.153
 4568SOL     OW14602   3.710   4.850   4.100
 4568SOL    HW114603   3.803   4.849   4.136
 4568SOL    HW214604   3.648   4.887   4.169
 4569SOL     OW14605   0.367   2.154   3.206
 4569SOL    HW114606   0.315   2.144   3.121
 4569SOL    HW214607   0.328   2.229   3.260
 4570SOL     OW14608   5.605   5.185   4.397
 4570SOL    HW114609   5.565   5.213   4.484
 4570SOL    HW214610   5.702   5.212   4.395
 4571SOL     OW14611   3.755   2.899   4.233
 4571SOL    HW114612   3.798   2.895   4.323
 4571SOL    HW214613   3.676   2.837   4.231
 4572SOL     OW14614   2.041   5.264   1.926
 4572SOL    HW114615   2.085   5.178   1.952
 4572SOL    HW214616   2.096   5.310   1.856
 4573SOL     OW14617   4.654   7.010   0.804
 4573SOL    HW114618   4.712   0.058   0.847
 4573SOL    HW214619   4.711   6.934   0.773
 4574SOL     OW14620   0.476   4.182   1.527
 4574SOL    HW114621   0.556   4.138   1.487
 4574SOL    HW214622   0.393   4.146   1.483
 4575SOL     OW14623   0.054   6.427   2.582
 4575SOL    HW114624   0.122   6.394   2.647
 4575SOL    HW214625   6.984   6.413   2.619
 4576SOL     OW14626   3.584   6.221   3.622
 4576SOL    HW114627   3.532   6.301   3.652
 4576SOL    HW214628   3.530   6.168   3.558
 4577SOL     OW14629   1.544   2.388   3.829
 4577SOL    HW114630   1.521   2.437   3.913
 4577SOL    HW214631   1.493   2.302   3.826
 4578SOL     OW14632   0.400   4.789   4.140
 4578SOL    HW114633   0.417   4.817   4.235
 4578SOL    HW214634   0.443   4.700   4.124
 4579SOL     OW14635   5.445   2.090   4.630
 4579SOL    HW114636   5.465   1.992   4.629
 4579SOL    HW214637   5.390   2.114   4.551
 4580SOL     OW14638   6.905   5.722   6.989
 4580SOL    HW114639   7.000   5.694   6.990
 4580SOL    HW214640   6.899   5.822   7.002
 4581SOL     OW14641   3.148   6.283   3.670
 4581SOL    HW114642   3.062   6.319   3.705
 4581SOL    HW214643   3.154   6.300   3.572
 4582SOL     OW14644   4.892   6.617   3.370
 4582SOL    HW114645   4.825   6.663   3.429
 4582SOL    HW214646   4.859   6.614   3.276
 4583SOL     OW14647   3.593   1.347   5.695
 4583SOL    HW114648   3.506   1.385   5.726
 4583SOL    HW214649   3.667   1.407   5.723
 4584SOL     OW14650   1.259   5.282   6.308
 4584SOL    HW114651   1.168   5.242   6.304
 4584SOL    HW214652   1.310   5.258   6.225
 4585SOL     OW14653   3.143   6.467   2.325
 4585SOL    HW114654   3.242   6.475   2.317
 4585SOL    HW214655   3.105   6.438   2.237
 4586SOL     OW14656   2.829   6.347   2.150
 4586SOL    HW114657   2.906   6.305   2.103
 4586SOL    HW214658   2.765   6.276   2.179
 4587SOL     OW14659   3.059   5.191   0.656
 4587SOL    HW114660   3.047   5.210   0.559
 4587SOL    HW214661   3.073   5.277   0.705
 4588SOL     OW14662   3.891   4.362   5.260
 4588SOL    HW114663   3.860   4.289   5.199
 4588SOL    HW214664   3.914   4.324   5.349
 4589SOL     OW14665   1.024   1.951   3.008
 4589SOL    HW114666   1.097   1.896   2.966
 4589SOL    HW214667   0.967   1.893   3.065
 4590SOL     OW14668   4.210   6.310   2.923
 4590SOL    HW114669   4.217   6.374   2.847
 4590SOL    HW214670   4.217   6.216   2.890
 4591SOL     OW14671   6.218   6.691   5.293
 4591SOL    HW114672   6.175   6.635   5.221
 4591SOL    HW214673   6.246   6.631   5.368
 4592SOL     OW14674   3.326   1.198   5.986
 4592SOL    HW114675   3.422   1.188   6.009
 4592SOL    HW214676   3.273   1.125   6.030
 4593SOL     OW14677   4.592   6.137   1.403
 4593SOL    HW114678   4.556   6.045   1.384
 4593SOL    HW214679   4.692   6.133   1.404
 4594SOL     OW14680   3.437   1.885   2.552
 4594SOL    HW114681   3.383   1.899   2.469
 4594SOL    HW214682   3.426   1.964   2.612
 4595SOL     OW14683   5.088   3.608   6.202
 4595SOL    HW114684   5.146   3.642   6.275
 4595SOL    HW214685   4.993   3.635   6.219
 4596SOL     OW14686   5.282   0.510   2.469
 4596SOL    HW114687   5.343   0.510   2.549
 4596SOL    HW214688   5.311   0.583   2.406
 4597SOL     OW14689   6.747   4.674   5.910
 4597SOL    HW114690   6.729   4.594   5.967
 4597SOL    HW214691   6.740   4.757   5.965
 4598SOL     OW14692   3.396   3.790   0.642
 4598SOL    HW114693   3.373   3.746   0.728
 4598SOL    HW214694   3.450   3.728   0.586
 4599SOL     OW14695   2.083   5.379   0.430
 4599SOL    HW114696   2.027   5.313   0.379
 4599SOL    HW214697   2.073   5.361   0.528
 4600SOL     OW14698   3.560   4.773   1.379
 4600SOL    HW114699   3.469   4.788   1.342
 4600SOL    HW214700   3.553   4.720   1.464
 4601SOL     OW14701   1.693   5.787   4.444
 4601SOL    HW114702   1.614   5.777   4.382
 4601SOL    HW214703   1.768   5.831   4.395
 4602SOL     OW14704   1.429   0.787   1.177
 4602SOL    HW114705   1.518   0.778   1.131
 4602SOL    HW214706   1.393   0.696   1.198
 4603SOL     OW14707   2.877   1.595   2.069
 4603SOL    HW114708   2.892   1.645   1.984
 4603SOL    HW214709   2.821   1.514   2.049
 4604SOL     OW14710   1.581   0.616   2.067
 4604SOL    HW114711   1.547   0.629   2.160
 4604SOL    HW214712   1.534   0.680   2.005
 4605SOL     OW14713   4.634   6.500   5.812
 4605SOL    HW114714   4.729   6.530   5.817
 4605SOL    HW214715   4.630   6.401   5.796
 4606SOL     OW14716   6.631   6.301   5.015
 4606SOL    HW114717   6.591   6.389   5.038
 4606SOL    HW214718   6.706   6.314   4.950
 4607SOL     OW14719   2.761   2.540   1.517
 4607SOL    HW114720   2.743   2.573   1.609
 4607SOL    HW214721   2.851   2.571   1.487
 4608SOL     OW14722   1.821   3.827   4.805
 4608SOL    HW114723   1.749   3.886   4.767
 4608SOL    HW214724   1.886   3.883   4.856
 4609SOL     OW14725   3.197   0.121   0.026
 4609SOL    HW114726   3.219   0.026   0.049
 4609SOL    HW214727   3.112   0.147   0.073
 4610SOL     OW14728   0.092   2.962   7.001
 4610SOL    HW114729   0.109   3.056   0.009
 4610SOL    HW214730   0.109   2.900   0.056
 4611SOL     OW14731   1.534   3.829   6.691
 4611SOL    HW114732   1.629   3.801   6.673
 4611SOL    HW214733   1.520   3.838   6.789
 4612SOL     OW14734   2.585   0.229   6.597
 4612SOL    HW114735   2.685   0.232   6.595
 4612SOL    HW214736   2.552   0.276   6.679
 4613SOL     OW14737   3.817   5.134   1.647
 4613SOL    HW114738   3.800   5.107   1.741
 4613SOL    HW214739   3.839   5.231   1.643
 4614SOL     OW14740   2.464   5.024   0.076
 4614SOL    HW114741   2.425   4.941   0.035
 4614SOL    HW214742   2.434   5.031   0.171
 4615SOL     OW14743   6.748   3.316   0.352
 4615SOL    HW114744   6.679   3.345   0.286
 4615SOL    HW214745   6.704   3.274   0.432
 4616SOL     OW14746   6.149   0.400   0.631
 4616SOL    HW114747   6.228   0.424   0.575
 4616SOL    HW214748   6.176   0.398   0.727
 4617SOL     OW14749   0.236   4.144   2.436
 4617SOL    HW114750   0.238   4.050   2.469
 4617SOL    HW214751   0.322   4.189   2.460
 4618SOL     OW14752   0.528   2.688   6.288
 4618SOL    HW114753   0.476   2.773   6.304
 4618SOL    HW214754   0.573   2.693   6.199
 4619SOL     OW14755   3.544   0.315   3.581
 4619SOL    HW114756   3.508   0.234   3.628
 4619SOL    HW214757   3.643   0.320   3.594
 4620SOL     OW14758   2.358   5.523   6.379
 4620SOL    HW114759   2.456   5.545   6.379
 4620SOL    HW214760   2.346   5.426   6.359
 4621SOL     OW14761   0.319   0.077   6.236
 4621SOL    HW114762   0.260   0.010   6.280
 4621SOL    HW214763   0.327   0.159   6.293
 4622SOL     OW14764   2.487   3.258   0.989
 4622SOL    HW114765   2.483   3.348   1.032
 4622SOL    HW214766   2.497   3.269   0.890
 4623SOL     OW14767   5.625   5.203   2.507
 4623SOL    HW114768   5.536   5.166   2.482
 4623SOL    HW214769   5.619   5.303   2.513
 4624SOL     OW14770   5.009   0.192   5.686
 4624SOL    HW114771   4.979   0.278   5.726
 4624SOL    HW214772   4.955   0.172   5.604
 4625SOL     OW14773   1.647   3.836   6.258
 4625SOL    HW114774   1.712   3.867   6.327
 4625SOL    HW214775   1.690   3.766   6.200
 4626SOL     OW14776   5.750   5.741   2.063
 4626SOL    HW114777   5.699   5.662   2.099
 4626SOL    HW214778   5.805   5.781   2.137
 4627SOL     OW14779   1.938   6.894   5.628
 4627SOL    HW114780   1.977   6.985   5.614
 4627SOL    HW214781   1.961   6.863   5.721
 4628SOL     OW14782   0.119   3.032   1.955
 4628SOL    HW114783   0.105   2.953   1.896
 4628SOL    HW214784   0.031   3.077   1.972
 4629SOL     OW14785   4.100   4.905   4.532
 4629SOL    HW114786   4.080   4.890   4.629
 4629SOL    HW214787   4.039   4.976   4.496
 4630SOL     OW14788   1.567   6.972   2.436
 4630SOL    HW114789   1.655   6.939   2.470
 4630SOL    HW214790   1.582   0.017   2.362
 4631SOL     OW14791   1.756   0.734   2.775
 4631SOL    HW114792   1.770   0.688   2.863
 4631SOL    HW214793   1.815   0.814   2.770
 4632SOL     OW14794   5.697   5.539   4.348
 4632SOL    HW114795   5.753   5.570   4.425
 4632SOL    HW214796   5.607   5.512   4.382
 4633SOL     OW14797   5.430   2.570   5.571
 4633SOL    HW114798   5.446   2.490   5.513
 4633SOL    HW214799   5.442   2.544   5.667
 4634SOL     OW14800   3.680   4.730   0.642
 4634SOL    HW114801   3.662   4.828   0.646
 4634SOL    HW214802   3.606   4.681   0.688
 4635SOL     OW14803   5.025   3.558   1.405
 4635SOL    HW114804   4.951   3.500   1.438
 4635SOL    HW214805   5.106   3.546   1.462
 4636SOL     OW14806   0.992   5.732   1.316
 4636SOL    HW114807   0.921   5.789   1.275
 4636SOL    HW214808   1.049   5.693   1.244
 4637SOL     OW14809   1.455   0.646   4.651
 4637SOL    HW114810   1.495   0.622   4.562
 4637SOL    HW214811   1.519   0.621   4.724
 4638SOL     OW14812   4.464   4.352   6.214
 4638SOL    HW114813   4.402   4.312   6.147
 4638SOL    HW214814   4.541   4.396   6.167
 4639SOL     OW14815   0.238   2.519   5.040
 4639SOL    HW114816   0.146   2.553   5.062
 4639SOL    HW214817   0.239   2.486   4.946
 4640SOL     OW14818   6.350   4.578   2.476
 4640SOL    HW114819   6.281   4.577   2.548
 4640SOL    HW214820   6.422   4.643   2.500
 4641SOL     OW14821   3.044   3.994   5.537
 4641SOL    HW114822   3.018   4.082   5.576
 4641SOL    HW214823   2.973   3.964   5.474
 4642SOL     OW14824   6.718   5.904   3.892
 4642SOL    HW114825   6.731   5.814   3.849
 4642SOL    HW214826   6.702   5.973   3.822
 4643SOL     OW14827   3.938   2.901   1.025
 4643SOL    HW114828   3.845   2.892   1.059
 4643SOL    HW214829   3.936   2.934   0.930
 4644SOL     OW14830   3.489   4.920   5.234
 4644SOL    HW114831   3.397   4.908   5.271
 4644SOL    HW214832   3.555   4.870   5.290
 4645SOL     OW14833   1.967   6.442   4.820
 4645SOL    HW114834   2.061   6.409   4.805
 4645SOL    HW214835   1.927   6.392   4.897
 4646SOL     OW14836   3.880   0.626   1.407
 4646SOL    HW114837   3.834   0.574   1.479
 4646SOL    HW214838   3.945   0.689   1.449
 4647SOL     OW14839   6.882   0.587   5.033
 4647SOL    HW114840   6.817   0.512   5.048
 4647SOL    HW214841   6.874   0.653   5.107
 4648SOL     OW14842   1.817   4.955   2.704
 4648SOL    HW114843   1.911   4.951   2.672
 4648SOL    HW214844   1.800   4.881   2.769
 4649SOL     OW14845   5.754   6.500   5.941
 4649SOL    HW114846   5.658   6.474   5.938
 4649SOL    HW214847   5.763   6.598   5.924
 4650SOL     OW14848   0.084   4.658   1.735
 4650SOL    HW114849   0.084   4.576   1.678
 4650SOL    HW214850   0.117   4.636   1.826
 4651SOL     OW14851   6.274   1.877   2.308
 4651SOL    HW114852   6.188   1.875   2.360
 4651SOL    HW214853   6.277   1.961   2.253
 4652SOL     OW14854   0.102   5.893   5.565
 4652SOL    HW114855   0.185   5.916   5.616
 4652SOL    HW214856   0.057   5.814   5.607
 4653SOL     OW14857   0.552   5.545   6.936
 4653SOL    HW114858   0.518   5.522   6.844
 4653SOL    HW214859   0.524   5.638   6.959
 4654SOL     OW14860   1.062   1.700   6.361
 4654SOL    HW114861   1.074   1.652   6.274
 4654SOL    HW214862   1.068   1.635   6.436
 4655SOL     OW14863   0.485   5.164   3.369
 4655SOL    HW114864   0.444   5.105   3.299
 4655SOL    HW214865   0.419   5.234   3.396
 4656SOL     OW14866   2.437   6.976   3.076
 4656SOL    HW114867   2.472   6.902   3.133
 4656SOL    HW214868   2.374   6.939   3.008
 4657SOL     OW14869   6.175   0.181   6.574
 4657SOL    HW114870   6.177   0.258   6.637
 4657SOL    HW214871   6.115   0.110   6.609
 4658SOL     OW14872   5.046   0.866   3.999
 4658SOL    HW114873   5.061   0.877   3.901
 4658SOL    HW214874   4.953   0.832   4.015
 4659SOL     OW14875   2.379   2.384   4.692
 4659SOL    HW114876   2.321   2.444   4.746
 4659SOL    HW214877   2.466   2.430   4.672
 4660SOL     OW14878   0.016   1.060   5.849
 4660SOL    HW114879   0.003   1.072   5.750
 4660SOL    HW214880   0.017   1.150   5.893
 4661SOL     OW14881   4.131   3.562   3.584
 4661SOL    HW114882   4.099   3.649   3.622
 4661SOL    HW214883   4.165   3.504   3.658
 4662SOL     OW14884   5.654   0.401   3.739
 4662SOL    HW114885   5.582   0.363   3.681
 4662SOL    HW214886   5.649   0.501   3.737
 4663SOL     OW14887   0.956   1.888   1.897
 4663SOL    HW114888   0.950   1.961   1.828
 4663SOL    HW214889   0.950   1.799   1.852
 4664SOL     OW14890   3.892   3.637   0.232
 4664SOL    HW114891   3.874   3.690   0.315
 4664SOL    HW214892   3.807   3.624   0.181
 4665SOL     OW14893   5.136   0.487   6.630
 4665SOL    HW114894   5.091   0.569   6.597
 4665SOL    HW214895   5.198   0.510   6.706
 4666SOL     OW14896   2.142   1.619   0.301
 4666SOL    HW114897   2.155   1.717   0.320
 4666SOL    HW214898   2.199   1.566   0.364
 4667SOL     OW14899   0.629   5.223   4.545
 4667SOL    HW114900   0.592   5.315   4.532
 4667SOL    HW214901   0.667   5.190   4.459
 4668SOL     OW14902   5.479   1.402   5.541
 4668SOL    HW114903   5.380   1.407   5.530
 4668SOL    HW214904   5.501   1.403   5.639
 4669SOL     OW14905   2.749   0.921   1.286
 4669SOL    HW114906   2.756   0.974   1.370
 4669SOL    HW214907   2.841   0.899   1.252
 4670SOL     OW14908   2.277   1.373   4.654
 4670SOL    HW114909   2.262   1.472   4.653
 4670SOL    HW214910   2.310   1.346   4.745
 4671SOL     OW14911   5.474   2.439   1.170
 4671SOL    HW114912   5.392   2.478   1.129
 4671SOL    HW214913   5.456   2.416   1.266
 4672SOL     OW14914   2.893   2.745   5.421
 4672SOL    HW114915   2.973   2.784   5.467
 4672SOL    HW214916   2.830   2.818   5.396
 4673SOL     OW14917   4.428   0.923   2.428
 4673SOL    HW114918   4.432   0.936   2.328
 4673SOL    HW214919   4.357   0.983   2.466
 4674SOL     OW14920   5.374   6.475   5.256
 4674SOL    HW114921   5.311   6.489   5.180
 4674SOL    HW214922   5.394   6.377   5.266
 4675SOL     OW14923   1.014   4.219   6.183
 4675SOL    HW114924   1.039   4.272   6.102
 4675SOL    HW214925   1.015   4.280   6.263
 4676SOL     OW14926   0.517   4.560   4.050
 4676SOL    HW114927   0.482   4.552   3.957
 4676SOL    HW214928   0.509   4.472   4.096
 4677SOL     OW14929   1.559   3.175   0.795
 4677SOL    HW114930   1.583   3.124   0.712
 4677SOL    HW214931   1.468   3.215   0.784
 4678SOL     OW14932   1.126   4.316   2.194
 4678SOL    HW114933   1.152   4.409   2.220
 4678SOL    HW214934   1.072   4.319   2.110
 4679SOL     OW14935   4.271   6.917   1.614
 4679SOL    HW114936   4.358   6.868   1.625
 4679SOL    HW214937   4.242   6.952   1.703
 4680SOL     OW14938   2.150   0.363   6.829
 4680SOL    HW114939   2.164   0.358   6.730
 4680SOL    HW214940   2.237   0.381   6.874
 4681SOL     OW14941   5.085   5.707   2.232
 4681SOL    HW114942   5.126   5.737   2.318
 4681SOL    HW214943   5.156   5.678   2.168
 4682SOL     OW14944   3.678   4.029   6.283
 4682SOL    HW114945   3.624   4.041   6.200
 4682SOL    HW214946   3.625   4.059   6.362
 4683SOL     OW14947   5.937   4.605   3.650
 4683SOL    HW114948   5.955   4.703   3.658
 4683SOL    HW214949   5.982   4.570   3.567
 4684SOL     OW14950   5.538   6.237   6.446
 4684SOL    HW114951   5.447   6.230   6.487
 4684SOL    HW214952   5.601   6.279   6.511
 4685SOL     OW14953   3.435   4.208   3.968
 4685SOL    HW114954   3.401   4.298   3.996
 4685SOL    HW214955   3.520   4.188   4.016
 4686SOL     OW14956   1.415   6.738   0.052
 4686SOL    HW114957   1.371   6.824   0.077
 4686SOL    HW214958   1.351   6.681   7.021
 4687SOL     OW14959   2.508   0.457   2.727
 4687SOL    HW114960   2.592   0.442   2.779
 4687SOL    HW214961   2.531   0.485   2.634
 4688SOL     OW14962   5.245   2.497   6.034
 4688SOL    HW114963   5.321   2.433   6.047
 4688SOL    HW214964   5.160   2.454   6.065
 4689SOL     OW14965   6.752   0.998   1.606
 4689SOL    HW114966   6.791   1.073   1.661
 4689SOL    HW214967   6.765   0.912   1.654
 4690SOL     OW14968   2.748   2.196   1.056
 4690SOL    HW114969   2.704   2.179   1.144
 4690SOL    HW214970   2.753   2.295   1.040
 4691SOL     OW14971   6.206   4.073   2.431
 4691SOL    HW114972   6.295   4.116   2.414
 4691SOL    HW214973   6.221   3.981   2.469
 4692SOL     OW14974   5.064   3.051   2.429
 4692SOL    HW114975   5.117   2.974   2.467
 4692SOL    HW214976   5.108   3.083   2.345
 4693SOL     OW14977   0.866   0.741   2.506
 4693SOL    HW114978   0.871   0.812   2.577
 4693SOL    HW214979   0.941   0.676   2.519
 4694SOL     OW14980   2.135   0.361   6.368
 4694SOL    HW114981   2.174   0.315   6.447
 4694SOL    HW214982   2.055   0.310   6.336
 4695SOL     OW14983   2.225   5.114   2.818
 4695SOL    HW114984   2.176   5.112   2.731
 4695SOL    HW214985   2.317   5.075   2.805
 4696SOL     OW14986   1.389   6.044   6.044
 4696SOL    HW114987   1.479   6.005   6.063
 4696SOL    HW214988   1.400   6.134   6.003
 4697SOL     OW14989   4.455   5.612   1.495
 4697SOL    HW114990   4.395   5.556   1.438
 4697SOL    HW214991   4.528   5.555   1.532
 4698SOL     OW14992   5.656   1.148   4.818
 4698SOL    HW114993   5.672   1.072   4.882
 4698SOL    HW214994   5.711   1.226   4.846
 4699SOL     OW14995   1.846   0.545   2.997
 4699SOL    HW114996   1.903   0.531   2.916
 4699SOL    HW214997   1.803   0.458   3.023
 4700SOL     OW14998   5.999   1.826   2.747
 4700SOL    HW114999   5.905   1.792   2.739
 4700SOL    HW215000   6.063   1.750   2.736
 4701SOL     OW15001   3.212   2.587   1.742
 4701SOL    HW115002   3.140   2.534   1.787
 4701SOL    HW215003   3.259   2.644   1.810
 4702SOL     OW15004   5.707   5.422   6.615
 4702SOL    HW115005   5.692   5.481   6.694
 4702SOL    HW215006   5.706   5.477   6.532
 4703SOL     OW15007   0.814   4.730   3.183
 4703SOL    HW115008   0.840   4.826   3.172
 4703SOL    HW215009   0.836   4.681   3.099
 4704SOL     OW15010   1.043   4.827   4.233
 4704SOL    HW115011   1.077   4.853   4.142
 4704SOL    HW215012   1.045   4.727   4.241
 4705SOL     OW15013   3.361   1.896   1.798
 4705SOL    HW115014   3.357   1.843   1.882
 4705SOL    HW215015   3.278   1.951   1.789
 4706SOL     OW15016   2.485   0.804   1.441
 4706SOL    HW115017   2.428   0.797   1.358
 4706SOL    HW215018   2.573   0.760   1.424
 4707SOL     OW15019   1.520   5.307   2.389
 4707SOL    HW115020   1.569   5.360   2.459
 4707SOL    HW215021   1.554   5.213   2.389
 4708SOL     OW15022   1.714   2.594   4.904
 4708SOL    HW115023   1.704   2.685   4.864
 4708SOL    HW215024   1.635   2.539   4.881
 4709SOL     OW15025   5.363   4.635   5.793
 4709SOL    HW115026   5.355   4.718   5.739
 4709SOL    HW215027   5.344   4.556   5.734
 4710SOL     OW15028   5.905   6.277   5.195
 4710SOL    HW115029   5.941   6.301   5.285
 4710SOL    HW215030   5.962   6.207   5.153
 4711SOL     OW15031   4.961   4.408   2.256
 4711SOL    HW115032   4.885   4.429   2.194
 4711SOL    HW215033   5.002   4.493   2.289
 4712SOL     OW15034   4.752   4.089   5.945
 4712SOL    HW115035   4.780   4.131   5.859
 4712SOL    HW215036   4.654   4.104   5.960
 4713SOL     OW15037   5.441   4.164   0.890
 4713SOL    HW115038   5.390   4.156   0.805
 4713SOL    HW215039   5.442   4.259   0.920
 4714SOL     OW15040   4.136   2.224   6.535
 4714SOL    HW115041   4.189   2.247   6.454
 4714SOL    HW215042   4.039   2.238   6.516
 4715SOL     OW15043   6.888   1.351   1.416
 4715SOL    HW115044   6.826   1.336   1.338
 4715SOL    HW215045   6.887   1.448   1.441
 4716SOL     OW15046   3.643   4.761   5.737
 4716SOL    HW115047   3.643   4.664   5.761
 4716SOL    HW215048   3.636   4.771   5.637
 4717SOL     OW15049   2.220   4.542   5.640
 4717SOL    HW115050   2.219   4.443   5.627
 4717SOL    HW215051   2.128   4.578   5.626
 4718SOL     OW15052   4.751   4.517   1.095
 4718SOL    HW115053   4.690   4.440   1.114
 4718SOL    HW215054   4.844   4.483   1.084
 4719SOL     OW15055   6.729   4.164   3.872
 4719SOL    HW115056   6.811   4.208   3.908
 4719SOL    HW215057   6.662   4.234   3.847
 4720SOL     OW15058   2.430   3.246   6.801
 4720SOL    HW115059   2.501   3.236   6.732
 4720SOL    HW215060   2.444   3.178   6.873
 4721SOL     OW15061   0.432   2.554   3.286
 4721SOL    HW115062   0.436   2.654   3.296
 4721SOL    HW215063   0.354   2.519   3.337
 4722SOL     OW15064   0.880   5.781   6.852
 4722SOL    HW115065   0.834   5.844   6.789
 4722SOL    HW215066   0.960   5.742   6.806
 4723SOL     OW15067   3.239   4.809   6.610
 4723SOL    HW115068   3.154   4.756   6.610
 4723SOL    HW215069   3.312   4.755   6.568
 4724SOL     OW15070   0.607   0.275   4.623
 4724SOL    HW115071   0.519   0.231   4.641
 4724SOL    HW215072   0.661   0.219   4.561
 4725SOL     OW15073   5.753   5.584   1.341
 4725SOL    HW115074   5.743   5.683   1.330
 4725SOL    HW215075   5.713   5.537   1.262
 4726SOL     OW15076   2.039   2.641   5.548
 4726SOL    HW115077   2.008   2.581   5.622
 4726SOL    HW215078   2.138   2.628   5.535
 4727SOL     OW15079   6.828   4.372   1.304
 4727SOL    HW115080   6.809   4.449   1.243
 4727SOL    HW215081   6.859   4.407   1.393
 4728SOL     OW15082   5.719   1.923   4.454
 4728SOL    HW115083   5.731   1.987   4.378
 4728SOL    HW215084   5.773   1.954   4.533
 4729SOL     OW15085   5.894   1.387   1.931
 4729SOL    HW115086   5.895   1.438   1.845
 4729SOL    HW215087   5.963   1.424   1.993
 4730SOL     OW15088   3.814   0.367   3.600
 4730SOL    HW115089   3.879   0.425   3.551
 4730SOL    HW215090   3.862   0.292   3.643
 4731SOL     OW15091   2.826   6.739   1.023
 4731SOL    HW115092   2.771   6.780   0.950
 4731SOL    HW215093   2.841   6.807   1.095
 4732SOL     OW15094   0.716   5.062   5.071
 4732SOL    HW115095   0.646   5.004   5.030
 4732SOL    HW215096   0.685   5.157   5.069
 4733SOL     OW15097   1.675   4.071   2.703
 4733SOL    HW115098   1.744   4.095   2.635
 4733SOL    HW215099   1.627   3.989   2.675
 4734SOL     OW15100   4.615   4.190   6.937
 4734SOL    HW115101   4.649   4.192   6.843
 4734SOL    HW215102   4.668   4.253   6.994
 4735SOL     OW15103   0.502   0.419   5.077
 4735SOL    HW115104   0.602   0.431   5.071
 4735SOL    HW215105   0.477   0.328   5.044
 4736SOL     OW15106   6.632   1.674   3.665
 4736SOL    HW115107   6.689   1.656   3.745
 4736SOL    HW215108   6.546   1.623   3.674
 4737SOL     OW15109   2.010   4.761   6.775
 4737SOL    HW115110   1.974   4.672   6.803
 4737SOL    HW215111   1.938   4.830   6.783
 4738SOL     OW15112   1.052   5.217   4.142
 4738SOL    HW115113   0.974   5.165   4.108
 4738SOL    HW215114   1.135   5.189   4.094
 4739SOL     OW15115   5.695   3.433   2.917
 4739SOL    HW115116   5.726   3.509   2.859
 4739SOL    HW215117   5.610   3.396   2.880
 4740SOL     OW15118   1.019   0.264   0.693
 4740SOL    HW115119   1.024   0.262   0.792
 4740SOL    HW215120   1.094   0.209   0.655
 4741SOL     OW15121   5.713   4.814   1.121
 4741SOL    HW115122   5.789   4.852   1.069
 4741SOL    HW215123   5.733   4.820   1.219
 4742SOL     OW15124   2.379   5.616   2.562
 4742SOL    HW115125   2.386   5.523   2.525
 4742SOL    HW215126   2.440   5.677   2.512
 4743SOL     OW15127   2.740   3.390   0.295
 4743SOL    HW115128   2.681   3.411   0.373
 4743SOL    HW215129   2.811   3.460   0.288
 4744SOL     OW15130   2.550   1.982   5.281
 4744SOL    HW115131   2.504   1.949   5.363
 4744SOL    HW215132   2.485   1.986   5.205
 4745SOL     OW15133   3.670   5.220   5.058
 4745SOL    HW115134   3.746   5.158   5.034
 4745SOL    HW215135   3.583   5.176   5.034
 4746SOL     OW15136   5.981   1.138   1.436
 4746SOL    HW115137   5.970   1.160   1.339
 4746SOL    HW215138   6.044   1.062   1.447
 4747SOL     OW15139   0.450   2.767   1.963
 4747SOL    HW115140   0.454   2.668   1.976
 4747SOL    HW215141   0.358   2.792   1.934
 4748SOL     OW15142   1.624   0.569   0.951
 4748SOL    HW115143   1.719   0.562   0.920
 4748SOL    HW215144   1.568   0.605   0.876
 4749SOL     OW15145   2.782   6.980   6.454
 4749SOL    HW115146   2.838   6.943   6.380
 4749SOL    HW215147   2.820   0.045   6.485
 4750SOL     OW15148   0.868   1.839   4.719
 4750SOL    HW115149   0.818   1.892   4.787
 4750SOL    HW215150   0.906   1.758   4.762
 4751SOL     OW15151   1.216   3.741   5.445
 4751SOL    HW115152   1.174   3.660   5.487
 4751SOL    HW215153   1.150   3.784   5.384
 4752SOL     OW15154   1.719   6.027   1.337
 4752SOL    HW115155   1.655   5.973   1.392
 4752SOL    HW215156   1.724   5.988   1.244
 4753SOL     OW15157   0.256   6.678   5.698
 4753SOL    HW115158   0.310   6.596   5.679
 4753SOL    HW215159   0.300   6.731   5.770
 4754SOL     OW15160   0.997   0.898   6.934
 4754SOL    HW115161   1.011   0.808   6.895
 4754SOL    HW215162   1.060   0.963   6.892
 4755SOL     OW15163   2.807   0.628   1.428
 4755SOL    HW115164   2.851   0.629   1.338
 4755SOL    HW215165   2.859   0.684   1.491
 4756SOL     OW15166   4.899   2.866   1.560
 4756SOL    HW115167   4.858   2.801   1.496
 4756SOL    HW215168   4.968   2.921   1.513
 4757SOL     OW15169   2.452   1.409   1.711
 4757SOL    HW115170   2.359   1.403   1.748
 4757SOL    HW215171   2.470   1.504   1.684
 4758SOL     OW15172   5.430   3.893   5.334
 4758SOL    HW115173   5.397   3.963   5.397
 4758SOL    HW215174   5.357   3.868   5.271
 4759SOL     OW15175   6.108   4.045   6.106
 4759SOL    HW115176   6.193   4.096   6.106
 4759SOL    HW215177   6.097   3.997   6.019
 4760SOL     OW15178   1.739   2.923   0.545
 4760SOL    HW115179   1.727   2.837   0.594
 4760SOL    HW215180   1.656   2.978   0.554
 4761SOL     OW15181   1.491   5.865   5.759
 4761SOL    HW115182   1.398   5.831   5.777
 4761SOL    HW215183   1.555   5.820   5.821
 4762SOL     OW15184   4.039   6.852   2.060
 4762SOL    HW115185   3.988   6.782   2.110
 4762SOL    HW215186   4.137   6.837   2.073
 4763SOL     OW15187   5.653   5.098   4.825
 4763SOL    HW115188   5.670   5.144   4.912
 4763SOL    HW215189   5.696   5.008   4.825
 4764SOL     OW15190   3.707   3.760   4.447
 4764SOL    HW115191   3.734   3.756   4.544
 4764SOL    HW215192   3.751   3.839   4.404
 4765SOL     OW15193   6.946   4.702   5.726
 4765SOL    HW115194   6.950   4.602   5.714
 4765SOL    HW215195   6.870   4.725   5.787
 4766SOL     OW15196   3.225   0.361   3.218
 4766SOL    HW115197   3.264   0.446   3.183
 4766SOL    HW215198   3.297   0.306   3.259
 4767SOL     OW15199   4.177   6.387   6.630
 4767SOL    HW115200   4.096   6.352   6.584
 4767SOL    HW215201   4.181   6.352   6.724
 4768SOL     OW15202   0.862   0.901   5.197
 4768SOL    HW115203   0.813   0.988   5.199
 4768SOL    HW215204   0.812   0.833   5.250
 4769SOL     OW15205   3.512   1.079   1.501
 4769SOL    HW115206   3.565   1.006   1.460
 4769SOL    HW215207   3.566   1.163   1.503
 4770SOL     OW15208   2.106   0.253   4.040
 4770SOL    HW115209   2.154   0.165   4.048
 4770SOL    HW215210   2.081   0.285   4.132
 4771SOL     OW15211   3.965   4.651   5.298
 4771SOL    HW115212   4.054   4.680   5.264
 4771SOL    HW215213   3.960   4.551   5.299
 4772SOL     OW15214   2.017   3.215   6.996
 4772SOL    HW115215   1.930   3.250   0.010
 4772SOL    HW215216   2.001   3.131   6.944
 4773SOL     OW15217   0.213   5.229   4.251
 4773SOL    HW115218   0.277   5.277   4.191
 4773SOL    HW215219   0.143   5.184   4.196
 4774SOL     OW15220   1.789   4.461   6.734
 4774SOL    HW115221   1.725   4.386   6.718
 4774SOL    HW215222   1.879   4.437   6.697
 4775SOL     OW15223   2.274   1.464   2.580
 4775SOL    HW115224   2.213   1.457   2.501
 4775SOL    HW215225   2.364   1.495   2.550
 4776SOL     OW15226   4.153   4.733   2.179
 4776SOL    HW115227   4.177   4.762   2.271
 4776SOL    HW215228   4.055   4.744   2.165
 4777SOL     OW15229   2.907   3.931   1.471
 4777SOL    HW115230   3.007   3.931   1.482
 4777SOL    HW215231   2.873   4.025   1.476
 4778SOL     OW15232   5.080   3.890   2.807
 4778SOL    HW115233   5.058   3.918   2.900
 4778SOL    HW215234   5.139   3.810   2.809
 4779SOL     OW15235   4.943   0.717   2.724
 4779SOL    HW115236   4.964   0.814   2.722
 4779SOL    HW215237   4.922   0.689   2.818
 4780SOL     OW15238   1.621   0.004   5.528
 4780SOL    HW115239   1.581   0.095   5.516
 4780SOL    HW215240   1.690   7.011   5.457
 4781SOL     OW15241   2.661   5.591   2.933
 4781SOL    HW115242   2.619   5.585   3.024
 4781SOL    HW215243   2.667   5.500   2.893
 4782SOL     OW15244   5.879   5.858   0.174
 4782SOL    HW115245   5.868   5.782   0.239
 4782SOL    HW215246   5.809   5.927   0.193
 4783SOL     OW15247   6.366   3.844   2.485
 4783SOL    HW115248   6.419   3.865   2.402
 4783SOL    HW215249   6.424   3.854   2.565
 4784SOL     OW15250   5.911   4.197   4.978
 4784SOL    HW115251   5.849   4.128   5.017
 4784SOL    HW215252   5.858   4.277   4.949
 4785SOL     OW15253   6.066   6.848   0.824
 4785SOL    HW115254   6.048   6.847   0.726
 4785SOL    HW215255   6.154   6.892   0.841
 4786SOL     OW15256   1.419   2.978   2.153
 4786SOL    HW115257   1.473   3.036   2.093
 4786SOL    HW215258   1.360   2.919   2.099
 4787SOL     OW15259   4.393   2.231   2.877
 4787SOL    HW115260   4.363   2.214   2.783
 4787SOL    HW215261   4.314   2.233   2.937
 4788SOL     OW15262   1.673   6.324   5.605
 4788SOL    HW115263   1.767   6.358   5.597
 4788SOL    HW215264   1.675   6.227   5.629
 4789SOL     OW15265   5.987   6.974   0.488
 4789SOL    HW115266   5.993   6.958   0.389
 4789SOL    HW215267   5.895   7.007   0.510
 4790SOL     OW15268   5.319   0.490   6.835
 4790SOL    HW115269   5.301   0.392   6.835
 4790SOL    HW215270   5.295   0.529   6.924
 4791SOL     OW15271   4.704   1.809   3.288
 4791SOL    HW115272   4.793   1.827   3.328
 4791SOL    HW215273   4.700   1.848   3.196
 4792SOL     OW15274   3.185   2.358   1.438
 4792SOL    HW115275   3.154   2.330   1.347
 4792SOL    HW215276   3.128   2.433   1.471
 4793SOL     OW15277   0.679   0.260   6.786
 4793SOL    HW115278   0.633   0.235   6.701
 4793SOL    HW215279   0.623   0.325   6.836
 4794SOL     OW15280   4.232   1.218   1.788
 4794SOL    HW115281   4.223   1.141   1.851
 4794SOL    HW215282   4.313   1.205   1.731
 4795SOL     OW15283   5.614   2.887   4.275
 4795SOL    HW115284   5.676   2.905   4.351
 4795SOL    HW215285   5.527   2.851   4.310
 4796SOL     OW15286   5.877   3.746   0.605
 4796SOL    HW115287   5.812   3.822   0.598
 4796SOL    HW215288   5.966   3.780   0.633
 4797SOL     OW15289   0.363   4.973   4.895
 4797SOL    HW115290   0.318   5.005   4.811
 4797SOL    HW215291   0.452   4.934   4.872
 4798SOL     OW15292   7.001   4.367   5.744
 4798SOL    HW115293   6.978   4.386   5.840
 4798SOL    HW215294   0.077   4.346   5.738
 4799SOL     OW15295   3.702   1.176   5.182
 4799SOL    HW115296   3.689   1.212   5.275
 4799SOL    HW215297   3.664   1.084   5.177
 4800SOL     OW15298   2.042   1.960   3.732
 4800SOL    HW115299   2.131   1.919   3.712
 4800SOL    HW215300   1.969   1.899   3.702
 4801SOL     OW15301   0.762   2.874   0.761
 4801SOL    HW115302   0.672   2.887   0.719
 4801SOL    HW215303   0.822   2.950   0.735
 4802SOL     OW15304   1.863   0.191   1.937
 4802SOL    HW115305   1.919   0.272   1.951
 4802SOL    HW215306   1.886   0.121   2.004
 4803SOL     OW15307   0.486   0.145   1.174
 4803SOL    HW115308   0.448   0.095   1.096
 4803SOL    HW215309   0.420   0.214   1.205
 4804SOL     OW15310   3.849   5.050   0.144
 4804SOL    HW115311   3.913   4.973   0.150
 4804SOL    HW215312   3.877   5.121   0.209
 4805SOL     OW15313   0.461   0.930   1.036
 4805SOL    HW115314   0.417   0.841   1.023
 4805SOL    HW215315   0.477   0.973   0.947
 4806SOL     OW15316   0.115   2.629   3.260
 4806SOL    HW115317   0.149   2.582   3.342
 4806SOL    HW215318   0.177   2.704   3.237
 4807SOL     OW15319   0.596   6.497   1.970
 4807SOL    HW115320   0.614   6.571   1.904
 4807SOL    HW215321   0.679   6.443   1.982
 4808SOL     OW15322   5.182   2.972   0.821
 4808SOL    HW115323   5.094   2.938   0.854
 4808SOL    HW215324   5.256   2.915   0.856
 4809SOL     OW15325   4.163   6.679   6.593
 4809SOL    HW115326   4.247   6.626   6.605
 4809SOL    HW215327   4.085   6.624   6.623
 4810SOL     OW15328   1.081   0.289   1.406
 4810SOL    HW115329   1.036   0.369   1.367
 4810SOL    HW215330   1.089   0.217   1.337
 4811SOL     OW15331   5.265   5.487   2.781
 4811SOL    HW115332   5.229   5.399   2.751
 4811SOL    HW215333   5.365   5.481   2.790
 4812SOL     OW15334   6.597   5.311   4.060
 4812SOL    HW115335   6.612   5.405   4.090
 4812SOL    HW215336   6.667   5.285   3.993
 4813SOL     OW15337   5.474   3.336   2.780
 4813SOL    HW115338   5.378   3.309   2.790
 4813SOL    HW215339   5.481   3.411   2.714
 4814SOL     OW15340   6.330   3.563   1.690
 4814SOL    HW115341   6.318   3.467   1.717
 4814SOL    HW215342   6.367   3.615   1.767
 4815SOL     OW15343   4.263   0.167   2.990
 4815SOL    HW115344   4.238   0.117   3.073
 4815SOL    HW215345   4.323   0.111   2.934
 4816SOL     OW15346   5.298   4.900   3.187
 4816SOL    HW115347   5.268   4.994   3.173
 4816SOL    HW215348   5.284   4.875   3.283
 4817SOL     OW15349   0.028   1.524   0.092
 4817SOL    HW115350   0.022   1.607   0.147
 4817SOL    HW215351   6.972   1.464   0.113
 4818SOL     OW15352   0.558   5.843   3.505
 4818SOL    HW115353   0.626   5.770   3.497
 4818SOL    HW215354   0.558   5.878   3.598
 4819SOL     OW15355   2.026   3.048   1.124
 4819SOL    HW115356   2.107   3.102   1.148
 4819SOL    HW215357   1.969   3.035   1.206
 4820SOL     OW15358   0.450   2.981   2.766
 4820SOL    HW115359   0.522   3.037   2.807
 4820SOL    HW215360   0.420   3.023   2.680
 4821SOL     OW15361   0.419   5.440   3.427
 4821SOL    HW115362   0.504   5.481   3.462
 4821SOL    HW215363   0.385   5.495   3.351
 4822SOL     OW15364   2.317   4.432   4.268
 4822SOL    HW115365   2.311   4.451   4.366
 4822SOL    HW215366   2.332   4.518   4.218
 4823SOL     OW15367   1.705   2.890   1.104
 4823SOL    HW115368   1.708   2.980   1.063
 4823SOL    HW215369   1.724   2.820   1.035
 4824SOL     OW15370   6.139   1.673   0.042
 4824SOL    HW115371   6.047   1.699   0.014
 4824SOL    HW215372   6.139   1.652   0.140
 4825SOL     OW15373   1.459   0.006   3.749
 4825SOL    HW115374   1.518   0.084   3.774
 4825SOL    HW215375   1.507   6.970   3.683
 4826SOL     OW15376   3.613   6.500   1.137
 4826SOL    HW115377   3.515   6.498   1.119
 4826SOL    HW215378   3.658   6.431   1.081
 4827SOL     OW15379   6.910   1.630   1.450
 4827SOL    HW115380   6.845   1.706   1.454
 4827SOL    HW215381   6.965   1.628   1.533
 4828SOL     OW15382   5.369   1.799   5.533
 4828SOL    HW115383   5.271   1.788   5.515
 4828SOL    HW215384   5.392   1.896   5.532
 4829SOL     OW15385   4.089   6.516   5.190
 4829SOL    HW115386   4.022   6.562   5.248
 4829SOL    HW215387   4.162   6.580   5.166
 4830SOL     OW15388   1.925   6.339   3.540
 4830SOL    HW115389   1.911   6.436   3.520
 4830SOL    HW215390   2.021   6.316   3.527
 4831SOL     OW15391   3.199   4.827   5.359
 4831SOL    HW115392   3.240   4.799   5.446
 4831SOL    HW215393   3.122   4.768   5.339
 4832SOL     OW15394   4.047   3.405   4.415
 4832SOL    HW115395   4.076   3.492   4.456
 4832SOL    HW215396   4.064   3.407   4.317
 4833SOL     OW15397   6.521   2.659   5.226
 4833SOL    HW115398   6.504   2.737   5.286
 4833SOL    HW215399   6.487   2.575   5.269
 4834SOL     OW15400   1.283   5.260   1.460
 4834SOL    HW115401   1.304   5.355   1.434
 4834SOL    HW215402   1.186   5.252   1.479
 4835SOL     OW15403   0.181   3.183   6.408
 4835SOL    HW115404   0.228   3.097   6.390
 4835SOL    HW215405   0.087   3.164   6.438
 4836SOL     OW15406   4.302   2.039   5.780
 4836SOL    HW115407   4.213   2.049   5.825
 4836SOL    HW215408   4.293   2.064   5.683
 4837SOL     OW15409   1.210   3.626   4.438
 4837SOL    HW115410   1.305   3.638   4.408
 4837SOL    HW215411   1.207   3.564   4.516
 4838SOL     OW15412   2.107   3.841   5.925
 4838SOL    HW115413   2.140   3.788   6.003
 4838SOL    HW215414   2.007   3.842   5.925
 4839SOL     OW15415   2.625   1.088   1.083
 4839SOL    HW115416   2.687   1.160   1.113
 4839SOL    HW215417   2.645   1.004   1.133
 4840SOL     OW15418   5.059   3.278   5.172
 4840SOL    HW115419   5.040   3.278   5.073
 4840SOL    HW215420   5.002   3.347   5.216
 4841SOL     OW15421   2.622   6.689   2.876
 4841SOL    HW115422   2.693   6.745   2.833
 4841SOL    HW215423   2.573   6.637   2.806
 4842SOL     OW15424   3.654   5.842   3.347
 4842SOL    HW115425   3.726   5.777   3.323
 4842SOL    HW215426   3.609   5.875   3.264
 4843SOL     OW15427   6.567   1.379   0.568
 4843SOL    HW115428   6.548   1.315   0.642
 4843SOL    HW215429   6.602   1.464   0.607
 4844SOL     OW15430   1.353   5.876   6.418
 4844SOL    HW115431   1.446   5.879   6.382
 4844SOL    HW215432   1.309   5.964   6.405
 4845SOL     OW15433   4.891   3.847   5.101
 4845SOL    HW115434   4.880   3.874   5.006
 4845SOL    HW215435   4.855   3.755   5.115
 4846SOL     OW15436   6.348   3.553   4.905
 4846SOL    HW115437   6.264   3.501   4.890
 4846SOL    HW215438   6.406   3.547   4.823
 4847SOL     OW15439   3.024   6.798   6.775
 4847SOL    HW115440   2.938   6.828   6.733
 4847SOL    HW215441   3.008   6.714   6.827
 4848SOL     OW15442   4.722   1.829   3.575
 4848SOL    HW115443   4.710   1.768   3.497
 4848SOL    HW215444   4.656   1.806   3.646
 4849SOL     OW15445   2.212   6.644   1.623
 4849SOL    HW115446   2.302   6.605   1.642
 4849SOL    HW215447   2.217   6.743   1.625
 4850SOL     OW15448   3.349   6.519   1.683
 4850SOL    HW115449   3.346   6.561   1.592
 4850SOL    HW215450   3.271   6.458   1.694
 4851SOL     OW15451   4.102   4.621   6.867
 4851SOL    HW115452   4.072   4.575   6.950
 4851SOL    HW215453   4.034   4.690   6.841
 4852SOL     OW15454   4.996   5.234   5.793
 4852SOL    HW115455   5.016   5.186   5.707
 4852SOL    HW215456   4.939   5.314   5.774
 4853SOL     OW15457   4.237   0.414   2.782
 4853SOL    HW115458   4.270   0.376   2.696
 4853SOL    HW215459   4.213   0.340   2.845
 4854SOL     OW15460   4.601   6.872   2.481
 4854SOL    HW115461   4.563   6.835   2.396
 4854SOL    HW215462   4.699   6.856   2.483
 4855SOL     OW15463   4.995   5.465   5.417
 4855SOL    HW115464   4.944   5.462   5.503
 4855SOL    HW215465   4.932   5.446   5.341
 4856SOL     OW15466   0.126   3.155   2.994
 4856SOL    HW115467   0.112   3.067   2.949
 4856SOL    HW215468   0.105   3.147   3.092
 4857SOL     OW15469   2.229   2.543   4.860
 4857SOL    HW115470   2.240   2.478   4.935
 4857SOL    HW215471   2.135   2.541   4.827
 4858SOL     OW15472   1.421   6.076   4.860
 4858SOL    HW115473   1.513   6.108   4.838
 4858SOL    HW215474   1.354   6.137   4.818
 4859SOL     OW15475   6.717   5.673   3.152
 4859SOL    HW115476   6.702   5.583   3.193
 4859SOL    HW215477   6.635   5.729   3.165
 4860SOL     OW15478   3.635   5.502   1.909
 4860SOL    HW115479   3.543   5.464   1.904
 4860SOL    HW215480   3.681   5.467   1.991
 4861SOL     OW15481   0.396   4.562   5.589
 4861SOL    HW115482   0.367   4.481   5.640
 4861SOL    HW215483   0.363   4.556   5.495
 4862SOL     OW15484   1.968   6.474   4.505
 4862SOL    HW115485   1.952   6.376   4.498
 4862SOL    HW215486   1.994   6.496   4.599
 4863SOL     OW15487   5.895   1.555   1.693
 4863SOL    HW115488   5.856   1.488   1.629
 4863SOL    HW215489   5.833   1.633   1.700
 4864SOL     OW15490   2.345   2.122   1.175
 4864SOL    HW115491   2.351   2.143   1.077
 4864SOL    HW215492   2.437   2.106   1.212
 4865SOL     OW15493   3.801   6.437   4.756
 4865SOL    HW115494   3.879   6.443   4.818
 4865SOL    HW215495   3.727   6.496   4.788
 4866SOL     OW15496   0.646   5.457   1.579
 4866SOL    HW115497   0.547   5.463   1.565
 4866SOL    HW215498   0.693   5.504   1.504
 4867SOL     OW15499   5.401   4.770   4.732
 4867SOL    HW115500   5.438   4.791   4.822
 4867SOL    HW215501   5.468   4.716   4.681
 4868SOL     OW15502   1.592   5.322   1.835
 4868SOL    HW115503   1.576   5.306   1.932
 4868SOL    HW215504   1.600   5.421   1.818
 4869SOL     OW15505   6.640   1.630   1.940
 4869SOL    HW115506   6.642   1.586   2.031
 4869SOL    HW215507   6.546   1.631   1.906
 4870SOL     OW15508   5.823   0.973   1.146
 4870SOL    HW115509   5.887   0.905   1.182
 4870SOL    HW215510   5.730   0.938   1.152
 4871SOL     OW15511   1.504   3.772   4.567
 4871SOL    HW115512   1.466   3.756   4.659
 4871SOL    HW215513   1.554   3.858   4.566
 4872SOL     OW15514   1.148   1.359   4.021
 4872SOL    HW115515   1.079   1.389   4.087
 4872SOL    HW215516   1.211   1.434   4.003
 4873SOL     OW15517   1.137   6.448   5.392
 4873SOL    HW115518   1.168   6.395   5.471
 4873SOL    HW215519   1.132   6.545   5.417
 4874SOL     OW15520   6.140   2.599   3.089
 4874SOL    HW115521   6.236   2.590   3.117
 4874SOL    HW215522   6.104   2.510   3.063
 4875SOL     OW15523   0.068   2.969   6.203
 4875SOL    HW115524   0.113   2.924   6.126
 4875SOL    HW215525   0.089   2.920   6.288
 4876SOL     OW15526   0.083   1.669   6.889
 4876SOL    HW115527   0.082   1.620   6.976
 4876SOL    HW215528   0.108   1.606   6.815
 4877SOL     OW15529   5.886   0.800   1.672
 4877SOL    HW115530   5.805   0.855   1.692
 4877SOL    HW215531   5.911   0.745   1.752
 4878SOL     OW15532   0.654   2.981   1.622
 4878SOL    HW115533   0.660   3.070   1.666
 4878SOL    HW215534   0.745   2.949   1.598
 4879SOL     OW15535   4.267   5.954   3.171
 4879SOL    HW115536   4.310   5.986   3.256
 4879SOL    HW215537   4.168   5.951   3.183
 4880SOL     OW15538   5.979   1.837   5.561
 4880SOL    HW115539   5.955   1.918   5.508
 4880SOL    HW215540   5.993   1.759   5.499
 4881SOL     OW15541   2.692   5.939   5.806
 4881SOL    HW115542   2.668   6.004   5.878
 4881SOL    HW215543   2.618   5.933   5.740
 4882SOL     OW15544   5.275   6.346   0.100
 4882SOL    HW115545   5.332   6.418   0.060
 4882SOL    HW215546   5.184   6.348   0.059
 4883SOL     OW15547   6.246   5.097   6.400
 4883SOL    HW115548   6.304   5.174   6.372
 4883SOL    HW215549   6.268   5.018   6.344
 4884SOL     OW15550   4.247   6.661   1.796
 4884SOL    HW115551   4.201   6.693   1.713
 4884SOL    HW215552   4.339   6.629   1.773
 4885SOL     OW15553   1.986   6.940   2.420
 4885SOL    HW115554   1.935   6.906   2.500
 4885SOL    HW215555   2.065   6.992   2.451
 4886SOL     OW15556   6.051   1.084   5.930
 4886SOL    HW115557   6.119   1.081   6.003
 4886SOL    HW215558   6.098   1.095   5.842
 4887SOL     OW15559   0.552   1.878   5.338
 4887SOL    HW115560   0.595   1.968   5.330
 4887SOL    HW215561   0.617   1.807   5.312
 4888SOL     OW15562   3.306   6.193   1.843
 4888SOL    HW115563   3.260   6.232   1.763
 4888SOL    HW215564   3.309   6.094   1.835
 4889SOL     OW15565   1.405   3.323   6.261
 4889SOL    HW115566   1.343   3.385   6.308
 4889SOL    HW215567   1.446   3.259   6.326
 4890SOL     OW15568   0.268   0.639   4.158
 4890SOL    HW115569   0.238   0.606   4.247
 4890SOL    HW215570   0.251   0.738   4.152
 4891SOL     OW15571   1.077   4.422   0.779
 4891SOL    HW115572   1.091   4.337   0.830
 4891SOL    HW215573   1.142   4.428   0.704
 4892SOL     OW15574   1.884   5.253   2.441
 4892SOL    HW115575   1.888   5.304   2.355
 4892SOL    HW215576   1.847   5.312   2.513
 4893SOL     OW15577   0.362   3.885   6.820
 4893SOL    HW115578   0.390   3.868   6.914
 4893SOL    HW215579   0.262   3.880   6.813
 4894SOL     OW15580   0.718   0.355   2.863
 4894SOL    HW115581   0.797   0.384   2.808
 4894SOL    HW215582   0.749   0.301   2.941
 4895SOL     OW15583   5.787   4.165   6.822
 4895SOL    HW115584   5.787   4.065   6.817
 4895SOL    HW215585   5.693   4.198   6.830
 4896SOL     OW15586   4.155   6.530   3.616
 4896SOL    HW115587   4.102   6.572   3.542
 4896SOL    HW215588   4.111   6.445   3.644
 4897SOL     OW15589   2.498   5.750   6.566
 4897SOL    HW115590   2.457   5.798   6.489
 4897SOL    HW215591   2.551   5.672   6.533
 4898SOL     OW15592   6.193   1.971   4.562
 4898SOL    HW115593   6.106   1.922   4.552
 4898SOL    HW215594   6.175   2.064   4.595
 4899SOL     OW15595   5.009   4.632   4.378
 4899SOL    HW115596   4.957   4.625   4.293
 4899SOL    HW215597   5.053   4.544   4.397
 4900SOL     OW15598   0.587   6.519   4.735
 4900SOL    HW115599   0.627   6.521   4.643
 4900SOL    HW215600   0.652   6.479   4.799
 4901SOL     OW15601   0.220   6.620   3.169
 4901SOL    HW115602   0.127   6.628   3.133
 4901SOL    HW215603   0.240   6.698   3.229
 4902SOL     OW15604   3.305   4.637   1.292
 4902SOL    HW115605   3.264   4.727   1.310
 4902SOL    HW215606   3.237   4.566   1.304
 4903SOL     OW15607   5.525   5.449   5.998
 4903SOL    HW115608   5.525   5.478   6.094
 4903SOL    HW215609   5.617   5.419   5.972
 4904SOL     OW15610   3.085   0.157   3.374
 4904SOL    HW115611   3.034   0.087   3.323
 4904SOL    HW215612   3.128   0.220   3.309
 4905SOL     OW15613   6.612   2.978   3.237
 4905SOL    HW115614   6.703   3.015   3.216
 4905SOL    HW215615   6.542   3.045   3.212
 4906SOL     OW15616   5.085   0.760   1.040
 4906SOL    HW115617   5.137   0.771   0.955
 4906SOL    HW215618   4.993   0.800   1.028
 4907SOL     OW15619   2.549   1.688   2.092
 4907SOL    HW115620   2.504   1.600   2.101
 4907SOL    HW215621   2.632   1.689   2.149
 4908SOL     OW15622   4.063   6.157   0.704
 4908SOL    HW115623   4.119   6.129   0.781
 4908SOL    HW215624   4.023   6.077   0.659
 4909SOL     OW15625   6.695   0.095   5.042
 4909SOL    HW115626   6.787   0.059   5.026
 4909SOL    HW215627   6.700   0.180   5.094
 4910SOL     OW15628   5.889   6.706   6.125
 4910SOL    HW115629   5.828   6.776   6.088
 4910SOL    HW215630   5.837   6.641   6.178
 4911SOL     OW15631   0.845   4.029   6.649
 4911SOL    HW115632   0.784   3.953   6.673
 4911SOL    HW215633   0.910   3.999   6.579
 4912SOL     OW15634   2.380   2.520   1.591
 4912SOL    HW115635   2.345   2.613   1.584
 4912SOL    HW215636   2.437   2.512   1.673
 4913SOL     OW15637   2.768   3.150   1.819
 4913SOL    HW115638   2.813   3.190   1.899
 4913SOL    HW215639   2.688   3.205   1.794
 4914SOL     OW15640   1.287   6.951   2.377
 4914SOL    HW115641   1.374   6.934   2.424
 4914SOL    HW215642   1.281   0.027   2.353
 4915SOL     OW15643   2.543   6.357   3.352
 4915SOL    HW115644   2.549   6.416   3.271
 4915SOL    HW215645   2.635   6.333   3.383
 4916SOL     OW15646   1.894   2.154   2.380
 4916SOL    HW115647   1.895   2.184   2.475
 4916SOL    HW215648   1.982   2.172   2.337
 4917SOL     OW15649   1.897   4.197   5.830
 4917SOL    HW115650   1.867   4.146   5.910
 4917SOL    HW215651   1.918   4.291   5.856
 4918SOL     OW15652   1.980   0.413   3.853
 4918SOL    HW115653   2.043   0.491   3.861
 4918SOL    HW215654   2.003   0.344   3.922
 4919SOL     OW15655   2.540   3.327   1.709
 4919SOL    HW115656   2.465   3.357   1.767
 4919SOL    HW215657   2.603   3.403   1.693
 4920SOL     OW15658   3.577   0.627   0.341
 4920SOL    HW115659   3.659   0.609   0.396
 4920SOL    HW215660   3.497   0.588   0.388
 4921SOL     OW15661   0.150   4.898   1.630
 4921SOL    HW115662   0.173   4.846   1.548
 4921SOL    HW215663   0.139   4.836   1.707
 4922SOL     OW15664   1.180   2.713   6.046
 4922SOL    HW115665   1.098   2.695   6.100
 4922SOL    HW215666   1.257   2.663   6.085
 4923SOL     OW15667   2.788   2.352   6.872
 4923SOL    HW115668   2.742   2.374   6.786
 4923SOL    HW215669   2.887   2.357   6.860
 4924SOL     OW15670   6.796   3.387   4.418
 4924SOL    HW115671   6.815   3.450   4.494
 4924SOL    HW215672   6.801   3.436   4.331
 4925SOL     OW15673   4.673   5.862   6.182
 4925SOL    HW115674   4.756   5.812   6.157
 4925SOL    HW215675   4.628   5.817   6.259
 4926SOL     OW15676   4.225   3.241   0.348
 4926SOL    HW115677   4.229   3.326   0.295
 4926SOL    HW215678   4.281   3.250   0.430
 4927SOL     OW15679   2.858   3.313   2.332
 4927SOL    HW115680   2.854   3.408   2.363
 4927SOL    HW215681   2.800   3.256   2.390
 4928SOL     OW15682   0.580   0.584   0.532
 4928SOL    HW115683   0.570   0.492   0.570
 4928SOL    HW215684   0.676   0.602   0.513
 4929SOL     OW15685   1.276   4.541   4.408
 4929SOL    HW115686   1.275   4.452   4.455
 4929SOL    HW215687   1.206   4.542   4.337
 4930SOL     OW15688   0.116   3.203   0.470
 4930SOL    HW115689   0.151   3.131   0.530
 4930SOL    HW215690   0.046   3.165   0.409
 4931SOL     OW15691   6.117   6.419   1.401
 4931SOL    HW115692   6.143   6.451   1.492
 4931SOL    HW215693   6.194   6.372   1.359
 4932SOL     OW15694   3.265   1.387   1.096
 4932SOL    HW115695   3.223   1.420   1.180
 4932SOL    HW215696   3.365   1.387   1.107
 4933SOL     OW15697   2.921   0.068   4.804
 4933SOL    HW115698   2.905   0.083   4.901
 4933SOL    HW215699   2.862   0.129   4.751
 4934SOL     OW15700   2.299   5.781   5.085
 4934SOL    HW115701   2.315   5.683   5.077
 4934SOL    HW215702   2.383   5.826   5.116
 4935SOL     OW15703   2.108   1.957   0.621
 4935SOL    HW115704   2.028   1.916   0.665
 4935SOL    HW215705   2.120   2.051   0.654
 4936SOL     OW15706   5.369   5.569   1.269
 4936SOL    HW115707   5.310   5.538   1.195
 4936SOL    HW215708   5.371   5.500   1.341
 4937SOL     OW15709   1.021   3.414   4.676
 4937SOL    HW115710   0.967   3.437   4.757
 4937SOL    HW215711   1.118   3.412   4.699
 4938SOL     OW15712   3.296   4.705   1.746
 4938SOL    HW115713   3.277   4.800   1.721
 4938SOL    HW215714   3.382   4.701   1.796
 4939SOL     OW15715   0.994   1.479   1.096
 4939SOL    HW115716   0.913   1.525   1.060
 4939SOL    HW215717   1.076   1.528   1.065
 4940SOL     OW15718   1.036   1.985   5.742
 4940SOL    HW115719   1.049   2.075   5.701
 4940SOL    HW215720   1.095   1.919   5.696
 4941SOL     OW15721   3.973   2.590   5.384
 4941SOL    HW115722   4.034   2.571   5.307
 4941SOL    HW215723   4.021   2.571   5.469
 4942SOL     OW15724   6.940   1.542   3.398
 4942SOL    HW115725   6.872   1.478   3.362
 4942SOL    HW215726   7.019   1.544   3.337
 4943SOL     OW15727   5.020   2.446   6.939
 4943SOL    HW115728   5.070   2.518   6.987
 4943SOL    HW215729   4.970   2.486   6.862
 4944SOL     OW15730   0.833   4.859   0.611
 4944SOL    HW115731   0.765   4.817   0.551
 4944SOL    HW215732   0.918   4.806   0.607
 4945SOL     OW15733   2.899   0.230   5.930
 4945SOL    HW115734   2.992   0.268   5.937
 4945SOL    HW215735   2.863   0.214   6.022
 4946SOL     OW15736   2.705   5.643   7.005
 4946SOL    HW115737   2.745   5.560   0.022
 4946SOL    HW215738   2.761   5.676   6.929
 4947SOL     OW15739   0.692   0.493   0.920
 4947SOL    HW115740   0.740   0.549   0.988
 4947SOL    HW215741   0.737   0.503   0.831
 4948SOL     OW15742   1.633   2.249   1.882
 4948SOL    HW115743   1.679   2.338   1.879
 4948SOL    HW215744   1.583   2.236   1.796
 4949SOL     OW15745   0.038   4.059   5.850
 4949SOL    HW115746   0.051   3.990   5.922
 4949SOL    HW215747   6.963   4.082   5.843
 4950SOL     OW15748   3.882   4.428   5.745
 4950SOL    HW115749   3.957   4.453   5.684
 4950SOL    HW215750   3.901   4.462   5.838
 4951SOL     OW15751   4.899   5.418   2.641
 4951SOL    HW115752   4.978   5.450   2.588
 4951SOL    HW215753   4.909   5.447   2.736
 4952SOL     OW15754   1.310   0.886   6.997
 4952SOL    HW115755   1.315   0.934   0.063
 4952SOL    HW215756   1.403   0.863   6.966
 4953SOL     OW15757   1.183   2.077   4.843
 4953SOL    HW115758   1.173   2.176   4.829
 4953SOL    HW215759   1.241   2.039   4.770
 4954SOL     OW15760   2.935   3.789   5.318
 4954SOL    HW115761   2.928   3.882   5.280
 4954SOL    HW215762   2.889   3.725   5.256
 4955SOL     OW15763   3.832   5.789   6.471
 4955SOL    HW115764   3.798   5.822   6.558
 4955SOL    HW215765   3.915   5.838   6.446
 4956SOL     OW15766   2.843   0.095   5.083
 4956SOL    HW115767   2.809   0.004   5.107
 4956SOL    HW215768   2.765   0.155   5.066
 4957SOL     OW15769   5.617   5.054   6.805
 4957SOL    HW115770   5.559   4.976   6.828
 4957SOL    HW215771   5.699   5.052   6.861
 4958SOL     OW15772   3.414   5.017   0.939
 4958SOL    HW115773   3.330   4.971   0.967
 4958SOL    HW215774   3.440   4.985   0.848
 4959SOL     OW15775   6.643   2.456   2.795
 4959SOL    HW115776   6.715   2.390   2.818
 4959SOL    HW215777   6.555   2.423   2.830
 4960SOL     OW15778   5.335   4.486   3.578
 4960SOL    HW115779   5.351   4.573   3.624
 4960SOL    HW215780   5.270   4.499   3.503
 4961SOL     OW15781   3.500   2.503   1.661
 4961SOL    HW115782   3.407   2.518   1.626
 4961SOL    HW215783   3.503   2.415   1.709
 4962SOL     OW15784   1.353   2.840   0.436
 4962SOL    HW115785   1.400   2.783   0.504
 4962SOL    HW215786   1.389   2.820   0.345
 4963SOL     OW15787   0.890   4.025   6.029
 4963SOL    HW115788   0.934   4.094   6.086
 4963SOL    HW215789   0.899   4.050   5.933
 4964SOL     OW15790   1.916   5.366   4.649
 4964SOL    HW115791   1.870   5.454   4.643
 4964SOL    HW215792   2.011   5.381   4.678
 4965SOL     OW15793   1.882   6.807   3.036
 4965SOL    HW115794   1.860   6.886   2.978
 4965SOL    HW215795   1.979   6.784   3.025
 4966SOL     OW15796   4.329   0.372   5.096
 4966SOL    HW115797   4.307   0.384   5.192
 4966SOL    HW215798   4.246   0.356   5.043
 4967SOL     OW15799   4.192   4.729   4.350
 4967SOL    HW115800   4.167   4.785   4.429
 4967SOL    HW215801   4.230   4.642   4.382
 4968SOL     OW15802   0.218   2.909   3.669
 4968SOL    HW115803   0.141   2.849   3.646
 4968SOL    HW215804   0.182   2.994   3.708
 4969SOL     OW15805   0.286   6.183   4.095
 4969SOL    HW115806   0.361   6.173   4.030
 4969SOL    HW215807   0.319   6.161   4.187
 4970SOL     OW15808   2.040   1.503   1.458
 4970SOL    HW115809   1.996   1.499   1.368
 4970SOL    HW215810   2.011   1.586   1.505
 4971SOL     OW15811   0.153   6.261   1.807
 4971SOL    HW115812   0.171   6.210   1.892
 4971SOL    HW215813   0.230   6.321   1.788
 4972SOL     OW15814   0.802   4.624   0.281
 4972SOL    HW115815   0.779   4.586   0.192
 4972SOL    HW215816   0.886   4.583   0.315
 4973SOL     OW15817   5.971   1.369   0.400
 4973SOL    HW115818   5.926   1.304   0.339
 4973SOL    HW215819   6.040   1.322   0.455
 4974SOL     OW15820   3.469   0.097   4.820
 4974SOL    HW115821   3.544   0.098   4.753
 4974SOL    HW215822   3.382   0.091   4.772
 4975SOL     OW15823   5.283   4.790   1.148
 4975SOL    HW115824   5.197   4.840   1.138
 4975SOL    HW215825   5.359   4.847   1.118
 4976SOL     OW15826   0.876   6.870   3.487
 4976SOL    HW115827   0.917   6.830   3.569
 4976SOL    HW215828   0.795   6.922   3.512
 4977SOL     OW15829   1.767   3.838   5.938
 4977SOL    HW115830   1.667   3.843   5.932
 4977SOL    HW215831   1.805   3.823   5.846
 4978SOL     OW15832   6.065   4.615   4.450
 4978SOL    HW115833   6.023   4.525   4.462
 4978SOL    HW215834   6.079   4.632   4.352
 4979SOL     OW15835   2.373   6.850   6.751
 4979SOL    HW115836   2.398   6.877   6.844
 4979SOL    HW215837   2.393   6.753   6.738
 4980SOL     OW15838   5.706   2.740   3.985
 4980SOL    HW115839   5.734   2.757   4.080
 4980SOL    HW215840   5.679   2.827   3.943
 4981SOL     OW15841   3.331   5.629   3.124
 4981SOL    HW115842   3.415   5.577   3.142
 4981SOL    HW215843   3.253   5.583   3.165
 4982SOL     OW15844   3.736   2.130   5.161
 4982SOL    HW115845   3.805   2.131   5.233
 4982SOL    HW215846   3.648   2.102   5.199
 4983SOL     OW15847   6.063   4.287   2.490
 4983SOL    HW115848   6.090   4.306   2.584
 4983SOL    HW215849   6.126   4.221   2.449
 4984SOL     OW15850   4.959   3.821   4.819
 4984SOL    HW115851   5.007   3.768   4.749
 4984SOL    HW215852   4.911   3.758   4.881
 4985SOL     OW15853   5.809   0.712   2.186
 4985SOL    HW115854   5.856   0.771   2.251
 4985SOL    HW215855   5.751   0.647   2.235
 4986SOL     OW15856   0.611   5.383   1.226
 4986SOL    HW115857   0.674   5.436   1.283
 4986SOL    HW215858   0.660   5.304   1.188
 4987SOL     OW15859   1.999   1.587   2.910
 4987SOL    HW115860   2.030   1.671   2.954
 4987SOL    HW215861   2.015   1.593   2.812
 4988SOL     OW15862   6.475   5.570   3.844
 4988SOL    HW115863   6.559   5.527   3.811
 4988SOL    HW215864   6.478   5.579   3.943
 4989SOL     OW15865   5.674   0.046   3.550
 4989SOL    HW115866   5.579   0.068   3.573
 4989SOL    HW215867   5.700   6.982   3.595
 4990SOL     OW15868   4.544   1.703   6.160
 4990SOL    HW115869   4.455   1.660   6.148
 4990SOL    HW215870   4.532   1.796   6.196
 4991SOL     OW15871   1.722   5.753   5.895
 4991SOL    HW115872   1.821   5.765   5.899
 4991SOL    HW215873   1.700   5.659   5.868
 4992SOL     OW15874   1.434   3.644   4.236
 4992SOL    HW115875   1.462   3.695   4.155
 4992SOL    HW215876   1.456   3.547   4.223
 4993SOL     OW15877   2.657   6.259   4.171
 4993SOL    HW115878   2.608   6.344   4.152
 4993SOL    HW215879   2.752   6.267   4.142
 4994SOL     OW15880   4.171   5.373   5.530
 4994SOL    HW115881   4.231   5.423   5.592
 4994SOL    HW215882   4.101   5.324   5.582
 4995SOL     OW15883   0.374   0.750   5.810
 4995SOL    HW115884   0.456   0.785   5.856
 4995SOL    HW215885   0.401   0.710   5.722
 4996SOL     OW15886   0.114   1.047   3.933
 4996SOL    HW115887   0.187   1.114   3.920
 4996SOL    HW215888   0.133   0.992   4.014
 4997SOL     OW15889   3.892   1.241   0.874
 4997SOL    HW115890   3.828   1.173   0.837
 4997SOL    HW215891   3.975   1.241   0.820
 4998SOL     OW15892   0.836   3.434   3.375
 4998SOL    HW115893   0.784   3.516   3.399
 4998SOL    HW215894   0.917   3.460   3.322
 4999SOL     OW15895   0.901   2.555   3.512
 4999SOL    HW115896   0.990   2.566   3.468
 4999SOL    HW215897   0.831   2.543   3.442
 5000SOL     OW15898   2.655   6.671   3.392
 5000SOL    HW115899   2.601   6.635   3.468
 5000SOL    HW215900   2.705   6.752   3.422
 5001SOL     OW15901   0.237   6.092   3.294
 5001SOL    HW115902   0.240   6.182   3.249
 5001SOL    HW215903   0.144   6.055   3.287
 5002SOL     OW15904   1.242   4.696   4.077
 5002SOL    HW115905   1.253   4.791   4.049
 5002SOL    HW215906   1.162   4.657   4.033
 5003SOL     OW15907   3.712   0.639   2.796
 5003SOL    HW115908   3.789   0.583   2.766
 5003SOL    HW215909   3.628   0.604   2.755
 5004SOL     OW15910   3.724   5.887   0.142
 5004SOL    HW115911   3.761   5.886   0.049
 5004SOL    HW215912   3.670   5.805   0.158
 5005SOL     OW15913   2.923   2.636   0.637
 5005SOL    HW115914   2.955   2.692   0.560
 5005SOL    HW215915   2.942   2.684   0.722
 5006SOL     OW15916   5.136   1.350   2.455
 5006SOL    HW115917   5.226   1.366   2.414
 5006SOL    HW215918   5.078   1.300   2.391
 5007SOL     OW15919   6.107   5.702   1.969
 5007SOL    HW115920   6.171   5.645   2.020
 5007SOL    HW215921   6.025   5.649   1.948
 5008SOL     OW15922   5.429   0.645   3.465
 5008SOL    HW115923   5.518   0.608   3.438
 5008SOL    HW215924   5.356   0.590   3.423
 5009SOL     OW15925   0.059   2.228   0.703
 5009SOL    HW115926   0.020   2.318   0.724
 5009SOL    HW215927   7.017   2.157   0.733
 5010SOL     OW15928   4.170   3.895   1.088
 5010SOL    HW115929   4.173   3.825   1.159
 5010SOL    HW215930   4.234   3.968   1.110
 5011SOL     OW15931   1.404   2.907   6.429
 5011SOL    HW115932   1.309   2.904   6.460
 5011SOL    HW215933   1.433   3.003   6.421
 5012SOL     OW15934   6.062   1.290   6.429
 5012SOL    HW115935   6.006   1.305   6.348
 5012SOL    HW215936   6.004   1.253   6.502
 5013SOL     OW15937   5.269   6.848   5.790
 5013SOL    HW115938   5.295   6.766   5.842
 5013SOL    HW215939   5.237   6.918   5.853
 5014SOL     OW15940   5.297   3.229   1.163
 5014SOL    HW115941   5.321   3.133   1.174
 5014SOL    HW215942   5.199   3.236   1.141
 5015SOL     OW15943   6.357   5.503   4.286
 5015SOL    HW115944   6.272   5.553   4.298
 5015SOL    HW215945   6.391   5.473   4.375
 5016SOL     OW15946   1.921   3.234   5.920
 5016SOL    HW115947   1.949   3.330   5.921
 5016SOL    HW215948   1.821   3.229   5.931
 5017SOL     OW15949   0.383   3.125   1.877
 5017SOL    HW115950   0.340   3.135   1.788
 5017SOL    HW215951   0.319   3.081   1.941
 5018SOL     OW15952   1.099   0.657   6.897
 5018SOL    HW115953   1.174   0.714   6.930
 5018SOL    HW215954   1.126   0.611   6.813
 5019SOL     OW15955   1.631   4.170   4.221
 5019SOL    HW115956   1.644   4.077   4.256
 5019SOL    HW215957   1.537   4.180   4.187
 5020SOL     OW15958   2.226   0.320   4.387
 5020SOL    HW115959   2.285   0.350   4.313
 5020SOL    HW215960   2.282   0.277   4.459
 5021SOL     OW15961   2.311   1.065   1.177
 5021SOL    HW115962   2.398   1.089   1.134
 5021SOL    HW215963   2.237   1.114   1.131
 5022SOL     OW15964   6.711   2.847   1.045
 5022SOL    HW115965   6.748   2.939   1.031
 5022SOL    HW215966   6.700   2.830   1.143
 5023SOL     OW15967   0.419   4.067   2.695
 5023SOL    HW115968   0.480   4.031   2.766
 5023SOL    HW215969   0.341   4.005   2.684
 5024SOL     OW15970   4.653   3.860   0.999
 5024SOL    HW115971   4.668   3.765   0.972
 5024SOL    HW215972   4.599   3.863   1.083
 5025SOL     OW15973   4.721   1.444   4.689
 5025SOL    HW115974   4.728   1.542   4.708
 5025SOL    HW215975   4.762   1.393   4.764
 5026SOL     OW15976   5.230   6.779   4.423
 5026SOL    HW115977   5.267   6.763   4.514
 5026SOL    HW215978   5.137   6.741   4.417
 5027SOL     OW15979   5.446   6.355   0.693
 5027SOL    HW115980   5.399   6.289   0.751
 5027SOL    HW215981   5.379   6.408   0.641
 5028SOL     OW15982   5.912   2.266   2.197
 5028SOL    HW115983   5.999   2.255   2.149
 5028SOL    HW215984   5.852   2.325   2.143
 5029SOL     OW15985   5.773   1.696   1.945
 5029SOL    HW115986   5.734   1.608   1.970
 5029SOL    HW215987   5.719   1.769   1.987
 5030SOL     OW15988   0.680   3.557   6.619
 5030SOL    HW115989   0.646   3.647   6.593
 5030SOL    HW215990   0.699   3.503   6.537
 5031SOL     OW15991   6.368   0.135   6.035
 5031SOL    HW115992   6.302   0.209   6.048
 5031SOL    HW215993   6.452   0.156   6.085
 5032SOL     OW15994   2.711   3.301   5.835
 5032SOL    HW115995   2.803   3.325   5.867
 5032SOL    HW215996   2.718   3.234   5.761
 5033SOL     OW15997   2.292   6.944   6.336
 5033SOL    HW115998   2.348   7.007   6.390
 5033SOL    HW215999   2.344   6.861   6.316
 5034SOL     OW16000   4.192   6.362   4.634
 5034SOL    HW116001   4.185   6.318   4.723
 5034SOL    HW216002   4.104   6.403   4.609
 5035SOL     OW16003   2.100   3.492   3.945
 5035SOL    HW116004   2.169   3.496   4.018
 5035SOL    HW216005   2.078   3.397   3.926
 5036SOL     OW16006   1.389   2.666   4.685
 5036SOL    HW116007   1.392   2.762   4.657
 5036SOL    HW216008   1.366   2.609   4.606
 5037SOL     OW16009   4.623   4.203   0.951
 5037SOL    HW116010   4.563   4.252   1.015
 5037SOL    HW216011   4.568   4.156   0.883
 5038SOL     OW16012   3.551   3.282   3.279
 5038SOL    HW116013   3.452   3.287   3.293
 5038SOL    HW216014   3.597   3.286   3.367
 5039SOL     OW16015   1.381   3.837   6.950
 5039SOL    HW116016   1.356   3.767   6.883
 5039SOL    HW216017   1.305   3.850   7.015
 5040SOL     OW16018   0.247   1.488   6.100
 5040SOL    HW116019   0.251   1.491   6.000
 5040SOL    HW216020   0.312   1.554   6.138
 5041SOL     OW16021   6.697   2.228   1.022
 5041SOL    HW116022   6.773   2.291   1.009
 5041SOL    HW216023   6.650   2.214   0.935
 5042SOL     OW16024   1.233   2.563   6.334
 5042SOL    HW116025   1.175   2.638   6.366
 5042SOL    HW216026   1.316   2.558   6.391
 5043SOL     OW16027   3.611   6.305   1.622
 5043SOL    HW116028   3.701   6.333   1.658
 5043SOL    HW216029   3.542   6.369   1.654
 5044SOL     OW16030   6.674   5.391   6.994
 5044SOL    HW116031   6.715   5.434   0.053
 5044SOL    HW216032   6.638   5.301   7.019
 5045SOL     OW16033   5.429   2.659   6.981
 5045SOL    HW116034   5.386   2.662   6.891
 5045SOL    HW216035   5.508   2.598   6.978
 5046SOL     OW16036   4.114   3.482   2.481
 5046SOL    HW116037   4.061   3.426   2.545
 5046SOL    HW216038   4.129   3.432   2.396
 5047SOL     OW16039   2.128   3.652   3.716
 5047SOL    HW116040   2.184   3.730   3.743
 5047SOL    HW216041   2.110   3.595   3.797
 5048SOL     OW16042   2.574   0.589   6.407
 5048SOL    HW116043   2.630   0.661   6.448
 5048SOL    HW216044   2.633   0.518   6.369
 5049SOL     OW16045   4.473   1.996   6.856
 5049SOL    HW116046   4.381   2.006   6.816
 5049SOL    HW216047   4.477   1.911   6.909
 5050SOL     OW16048   1.772   0.372   0.714
 5050SOL    HW116049   1.721   0.314   0.778
 5050SOL    HW216050   1.826   0.438   0.766
 5051SOL     OW16051   4.958   5.288   1.159
 5051SOL    HW116052   4.906   5.223   1.213
 5051SOL    HW216053   4.952   5.263   1.062
 5052SOL     OW16054   2.347   1.989   5.090
 5052SOL    HW116055   2.261   1.949   5.123
 5052SOL    HW216056   2.327   2.065   5.028
 5053SOL     OW16057   0.434   1.244   1.572
 5053SOL    HW116058   0.423   1.264   1.475
 5053SOL    HW216059   0.345   1.245   1.617
 5054SOL     OW16060   3.952   5.784   3.955
 5054SOL    HW116061   3.901   5.803   3.871
 5054SOL    HW216062   4.050   5.784   3.935
 5055SOL     OW16063   0.045   3.904   6.096
 5055SOL    HW116064   0.046   3.979   6.162
 5055SOL    HW216065   7.002   3.834   6.125
 5056SOL     OW16066   5.745   3.790   3.685
 5056SOL    HW116067   5.673   3.838   3.735
 5056SOL    HW216068   5.831   3.796   3.735
 5057SOL     OW16069   0.736   5.364   2.380
 5057SOL    HW116070   0.783   5.447   2.411
 5057SOL    HW216071   0.796   5.285   2.392
 5058SOL     OW16072   2.608   5.359   5.805
 5058SOL    HW116073   2.699   5.331   5.778
 5058SOL    HW216074   2.544   5.344   5.729
 5059SOL     OW16075   6.782   0.562   2.011
 5059SOL    HW116076   6.774   0.599   2.104
 5059SOL    HW216077   6.877   0.538   1.992
 5060SOL     OW16078   6.878   2.394   6.129
 5060SOL    HW116079   6.895   2.375   6.225
 5060SOL    HW216080   6.779   2.396   6.113
 5061SOL     OW16081   5.279   4.419   0.899
 5061SOL    HW116082   5.313   4.449   0.809
 5061SOL    HW216083   5.221   4.490   0.938
 5062SOL     OW16084   6.453   0.605   1.018
 5062SOL    HW116085   6.404   0.685   0.982
 5062SOL    HW216086   6.394   0.555   1.082
 5063SOL     OW16087   1.506   6.001   2.026
 5063SOL    HW116088   1.491   6.055   2.109
 5063SOL    HW216089   1.472   6.051   1.947
 5064SOL     OW16090   5.048   3.320   0.137
 5064SOL    HW116091   5.020   3.346   0.044
 5064SOL    HW216092   5.139   3.280   0.134
 5065SOL     OW16093   2.882   6.630   5.867
 5065SOL    HW116094   2.892   6.676   5.779
 5065SOL    HW216095   2.971   6.620   5.910
 5066SOL     OW16096   4.845   5.075   1.316
 5066SOL    HW116097   4.785   4.996   1.302
 5066SOL    HW216098   4.940   5.048   1.301
 5067SOL     OW16099   5.301   1.338   6.786
 5067SOL    HW116100   5.289   1.415   6.723
 5067SOL    HW216101   5.349   1.370   6.867
 5068SOL     OW16102   3.749   4.995   1.415
 5068SOL    HW116103   3.674   4.933   1.438
 5068SOL    HW216104   3.790   5.031   1.499
 5069SOL     OW16105   0.231   5.089   2.783
 5069SOL    HW116106   0.293   5.157   2.744
 5069SOL    HW216107   0.225   5.010   2.721
 5070SOL     OW16108   4.915   3.463   4.226
 5070SOL    HW116109   5.011   3.490   4.220
 5070SOL    HW216110   4.888   3.456   4.322
 5071SOL     OW16111   3.972   1.098   6.940
 5071SOL    HW116112   4.018   1.186   6.953
 5071SOL    HW216113   3.891   1.095   6.999
 5072SOL     OW16114   1.179   4.596   1.472
 5072SOL    HW116115   1.090   4.627   1.439
 5072SOL    HW216116   1.178   4.593   1.572
 5073SOL     OW16117   4.361   1.983   4.300
 5073SOL    HW116118   4.455   1.984   4.265
 5073SOL    HW216119   4.336   1.889   4.323
 5074SOL     OW16120   3.873   5.025   5.041
 5074SOL    HW116121   3.951   5.073   5.081
 5074SOL    HW216122   3.851   4.945   5.097
 5075SOL     OW16123   6.540   6.720   3.812
 5075SOL    HW116124   6.582   6.779   3.743
 5075SOL    HW216125   6.441   6.733   3.811
 5076SOL     OW16126   3.987   0.617   0.929
 5076SOL    HW116127   3.944   0.547   0.872
 5076SOL    HW216128   4.084   0.622   0.908
 5077SOL     OW16129   6.954   2.569   2.514
 5077SOL    HW116130   6.991   2.488   2.559
 5077SOL    HW216131   0.007   2.631   2.489
 5078SOL     OW16132   6.876   1.131   3.783
 5078SOL    HW116133   6.928   1.075   3.848
 5078SOL    HW216134   6.843   1.074   3.708
 5079SOL     OW16135   4.268   4.794   4.986
 5079SOL    HW116136   4.275   4.855   4.908
 5079SOL    HW216137   4.324   4.712   4.969
 5080SOL     OW16138   5.864   0.430   5.766
 5080SOL    HW116139   5.835   0.469   5.854
 5080SOL    HW216140   5.896   0.336   5.781
 5081SOL     OW16141   2.888   3.653   3.018
 5081SOL    HW116142   2.889   3.554   3.020
 5081SOL    HW216143   2.927   3.686   2.932
 5082SOL     OW16144   6.940   0.600   5.915
 5082SOL    HW116145   6.905   0.560   5.999
 5082SOL    HW216146   6.913   0.696   5.910
 5083SOL     OW16147   1.260   5.782   1.998
 5083SOL    HW116148   1.231   5.706   1.940
 5083SOL    HW216149   1.286   5.860   1.940
 5084SOL     OW16150   1.995   5.784   2.620
 5084SOL    HW116151   2.009   5.686   2.636
 5084SOL    HW216152   1.935   5.796   2.541
 5085SOL     OW16153   6.803   2.949   6.537
 5085SOL    HW116154   6.900   2.971   6.541
 5085SOL    HW216155   6.754   2.997   6.609
 5086SOL     OW16156   6.987   4.852   4.353
 5086SOL    HW116157   6.992   4.897   4.263
 5086SOL    HW216158   6.919   4.779   4.350
 5087SOL     OW16159   6.808   5.593   5.291
 5087SOL    HW116160   6.732   5.529   5.298
 5087SOL    HW216161   6.806   5.656   5.368
 5088SOL     OW16162   5.991   0.682   0.167
 5088SOL    HW116163   6.017   0.722   0.255
 5088SOL    HW216164   6.021   0.741   0.093
 5089SOL     OW16165   5.399   2.680   3.954
 5089SOL    HW116166   5.356   2.766   3.982
 5089SOL    HW216167   5.499   2.690   3.957
 5090SOL     OW16168   1.418   5.209   0.758
 5090SOL    HW116169   1.329   5.181   0.722
 5090SOL    HW216170   1.491   5.161   0.709
 5091SOL     OW16171   1.522   6.907   3.324
 5091SOL    HW116172   1.547   6.813   3.348
 5091SOL    HW216173   1.438   6.933   3.372
 5092SOL     OW16174   3.472   2.920   1.290
 5092SOL    HW116175   3.375   2.896   1.282
 5092SOL    HW216176   3.510   2.879   1.373
 5093SOL     OW16177   1.216   2.012   1.173
 5093SOL    HW116178   1.295   2.058   1.216
 5093SOL    HW216179   1.198   2.054   1.084
 5094SOL     OW16180   0.021   0.215   6.882
 5094SOL    HW116181   0.040   0.313   6.887
 5094SOL    HW216182   0.040   0.182   6.789
 5095SOL     OW16183   3.726   0.387   5.352
 5095SOL    HW116184   3.816   0.429   5.339
 5095SOL    HW216185   3.732   0.317   5.423
 5096SOL     OW16186   3.587   5.782   2.751
 5096SOL    HW116187   3.634   5.867   2.776
 5096SOL    HW216188   3.643   5.704   2.778
 5097SOL     OW16189   0.769   1.443   6.311
 5097SOL    HW116190   0.852   1.402   6.273
 5097SOL    HW216191   0.743   1.522   6.256
 5098SOL     OW16192   6.657   2.973   2.767
 5098SOL    HW116193   6.748   2.940   2.743
 5098SOL    HW216194   6.595   2.895   2.777
 5099SOL     OW16195   0.778   0.349   4.301
 5099SOL    HW116196   0.814   0.403   4.377
 5099SOL    HW216197   0.826   0.261   4.296
 5100SOL     OW16198   4.848   5.492   6.197
 5100SOL    HW116199   4.934   5.448   6.225
 5100SOL    HW216200   4.868   5.581   6.156
 5101SOL     OW16201   4.388   6.110   0.575
 5101SOL    HW116202   4.318   6.084   0.509
 5101SOL    HW216203   4.354   6.184   0.632
 5102SOL     OW16204   3.890   5.535   4.150
 5102SOL    HW116205   3.814   5.506   4.090
 5102SOL    HW216206   3.920   5.626   4.123
 5103SOL     OW16207   1.545   1.331   4.229
 5103SOL    HW116208   1.575   1.373   4.315
 5103SOL    HW216209   1.487   1.252   4.249
 5104SOL     OW16210   0.857   0.132   0.943
 5104SOL    HW116211   0.782   0.168   0.999
 5104SOL    HW216212   0.820   0.073   0.872
 5105SOL     OW16213   2.264   2.881   6.549
 5105SOL    HW116214   2.313   2.947   6.605
 5105SOL    HW216215   2.229   2.925   6.467
 5106SOL     OW16216   2.689   0.126   2.254
 5106SOL    HW116217   2.648   0.159   2.339
 5106SOL    HW216218   2.677   0.027   2.247
 5107SOL     OW16219   1.628   0.808   6.521
 5107SOL    HW116220   1.725   0.834   6.521
 5107SOL    HW216221   1.582   0.851   6.444
 5108SOL     OW16222   2.870   3.432   3.688
 5108SOL    HW116223   2.899   3.415   3.782
 5108SOL    HW216224   2.858   3.530   3.674
 5109SOL     OW16225   0.257   1.566   1.654
 5109SOL    HW116226   0.293   1.607   1.570
 5109SOL    HW216227   0.158   1.573   1.656
 5110SOL     OW16228   2.306   5.487   5.059
 5110SOL    HW116229   2.227   5.430   5.035
 5110SOL    HW216230   2.383   5.464   5.000
 5111SOL     OW16231   1.897   1.367   6.880
 5111SOL    HW116232   1.927   1.273   6.898
 5111SOL    HW216233   1.809   1.366   6.833
 5112SOL     OW16234   0.438   0.115   3.385
 5112SOL    HW116235   0.488   0.202   3.383
 5112SOL    HW216236   0.454   0.064   3.301
 5113SOL     OW16237   0.749   0.348   6.344
 5113SOL    HW116238   0.834   0.374   6.389
 5113SOL    HW216239   0.686   0.426   6.345
 5114SOL     OW16240   4.166   5.451   6.829
 5114SOL    HW116241   4.191   5.421   6.737
 5114SOL    HW216242   4.075   5.417   6.852
 5115SOL     OW16243   2.163   3.805   4.889
 5115SOL    HW116244   2.167   3.735   4.960
 5115SOL    HW216245   2.202   3.891   4.923
 5116SOL     OW16246   6.353   3.275   0.841
 5116SOL    HW116247   6.308   3.259   0.754
 5116SOL    HW216248   6.287   3.312   0.907
 5117SOL     OW16249   2.790   5.001   3.363
 5117SOL    HW116250   2.727   4.925   3.377
 5117SOL    HW216251   2.843   5.017   3.446
 5118SOL     OW16252   4.123   6.393   1.816
 5118SOL    HW116253   4.147   6.487   1.793
 5118SOL    HW216254   4.167   6.367   1.902
 5119SOL     OW16255   6.182   0.254   2.324
 5119SOL    HW116256   6.213   0.295   2.409
 5119SOL    HW216257   6.112   0.312   2.282
 5120SOL     OW16258   3.525   1.594   2.306
 5120SOL    HW116259   3.542   1.537   2.387
 5120SOL    HW216260   3.433   1.573   2.271
 5121SOL     OW16261   1.189   3.243   4.056
 5121SOL    HW116262   1.149   3.215   4.144
 5121SOL    HW216263   1.262   3.180   4.031
 5122SOL     OW16264   2.261   5.704   3.348
 5122SOL    HW116265   2.178   5.760   3.356
 5122SOL    HW216266   2.243   5.613   3.386
 5123SOL     OW16267   6.154   3.881   2.039
 5123SOL    HW116268   6.189   3.818   2.108
 5123SOL    HW216269   6.154   3.835   1.950
 5124SOL     OW16270   2.625   6.733   0.829
 5124SOL    HW116271   2.543   6.788   0.812
 5124SOL    HW216272   2.607   6.671   0.907
 5125SOL     OW16273   6.964   1.894   5.892
 5125SOL    HW116274   7.004   1.944   5.968
 5125SOL    HW216275   6.978   1.796   5.906
 5126SOL     OW16276   4.239   2.387   6.873
 5126SOL    HW116277   4.184   2.303   6.875
 5126SOL    HW216278   4.311   2.378   6.804
 5127SOL     OW16279   5.729   3.329   6.506
 5127SOL    HW116280   5.721   3.352   6.409
 5127SOL    HW216281   5.641   3.294   6.539
 5128SOL     OW16282   6.930   6.781   6.660
 5128SOL    HW116283   6.934   6.794   6.759
 5128SOL    HW216284   6.889   6.862   6.618
 5129SOL     OW16285   4.726   2.685   3.343
 5129SOL    HW116286   4.664   2.642   3.278
 5129SOL    HW216287   4.782   2.753   3.296
 5130SOL     OW16288   1.089   6.475   4.982
 5130SOL    HW116289   1.102   6.506   4.888
 5130SOL    HW216290   1.178   6.460   5.026
 5131SOL     OW16291   3.817   4.876   3.707
 5131SOL    HW116292   3.758   4.829   3.773
 5131SOL    HW216293   3.766   4.891   3.622
 5132SOL     OW16294   3.597   1.792   6.663
 5132SOL    HW116295   3.523   1.820   6.724
 5132SOL    HW216296   3.655   1.871   6.642
 5133SOL     OW16297   4.673   4.635   6.651
 5133SOL    HW116298   4.695   4.697   6.726
 5133SOL    HW216299   4.614   4.562   6.684
 5134SOL     OW16300   6.132   6.027   0.226
 5134SOL    HW116301   6.115   6.125   0.238
 5134SOL    HW216302   6.049   5.983   0.192
 5135SOL     OW16303   6.830   2.599   2.267
 5135SOL    HW116304   6.776   2.669   2.314
 5135SOL    HW216305   6.889   2.553   2.333
 5136SOL     OW16306   0.969   1.301   5.305
 5136SOL    HW116307   1.011   1.237   5.368
 5136SOL    HW216308   0.944   1.253   5.221
 5137SOL     OW16309   5.238   0.520   3.289
 5137SOL    HW116310   5.232   0.611   3.249
 5137SOL    HW216311   5.280   0.458   3.223
 5138SOL     OW16312   3.514   2.880   2.428
 5138SOL    HW116313   3.473   2.901   2.517
 5138SOL    HW216314   3.458   2.919   2.356
 5139SOL     OW16315   3.960   0.528   5.200
 5139SOL    HW116316   4.004   0.593   5.262
 5139SOL    HW216317   3.887   0.574   5.149
 5140SOL     OW16318   3.350   3.697   6.499
 5140SOL    HW116319   3.433   3.724   6.451
 5140SOL    HW216320   3.303   3.778   6.534
 5141SOL     OW16321   0.875   2.729   1.625
 5141SOL    HW116322   0.908   2.823   1.629
 5141SOL    HW216323   0.915   2.683   1.546
 5142SOL     OW16324   0.639   0.229   2.475
 5142SOL    HW116325   0.673   0.210   2.384
 5142SOL    HW216326   0.714   0.261   2.533
 5143SOL     OW16327   0.307   6.139   2.438
 5143SOL    HW116328   0.341   6.107   2.350
 5143SOL    HW216329   0.231   6.082   2.467
 5144SOL     OW16330   2.162   3.058   5.226
 5144SOL    HW116331   2.238   3.066   5.161
 5144SOL    HW216332   2.173   2.973   5.279
 5145SOL     OW16333   2.425   5.601   5.635
 5145SOL    HW116334   2.505   5.564   5.589
 5145SOL    HW216335   2.436   5.699   5.650
 5146SOL     OW16336   5.900   5.819   6.492
 5146SOL    HW116337   5.926   5.728   6.527
 5146SOL    HW216338   5.806   5.840   6.519
 5147SOL     OW16339   5.590   2.131   3.441
 5147SOL    HW116340   5.558   2.072   3.367
 5147SOL    HW216341   5.690   2.133   3.441
 5148SOL     OW16342   6.871   1.218   0.164
 5148SOL    HW116343   6.870   1.186   0.069
 5148SOL    HW216344   6.839   1.312   0.168
 5149SOL     OW16345   4.306   5.519   4.099
 5149SOL    HW116346   4.331   5.612   4.071
 5149SOL    HW216347   4.351   5.498   4.186
 5150SOL     OW16348   6.390   0.412   3.843
 5150SOL    HW116349   6.377   0.432   3.746
 5150SOL    HW216350   6.309   0.439   3.894
 5151SOL     OW16351   5.386   5.524   1.744
 5151SOL    HW116352   5.460   5.466   1.712
 5151SOL    HW216353   5.381   5.521   1.844
 5152SOL     OW16354   1.883   1.811   0.156
 5152SOL    HW116355   1.926   1.806   0.246
 5152SOL    HW216356   1.954   1.819   0.086
 5153SOL     OW16357   2.120   1.879   0.348
 5153SOL    HW116358   2.097   1.911   0.440
 5153SOL    HW216359   2.152   1.956   0.293
 5154SOL     OW16360   0.522   2.657   0.545
 5154SOL    HW116361   0.448   2.612   0.595
 5154SOL    HW216362   0.550   2.600   0.468
 5155SOL     OW16363   1.777   1.342   0.271
 5155SOL    HW116364   1.770   1.397   0.354
 5155SOL    HW216365   1.792   1.401   0.192
 5156SOL     OW16366   5.662   4.974   5.528
 5156SOL    HW116367   5.603   5.026   5.466
 5156SOL    HW216368   5.727   5.035   5.572
 5157SOL     OW16369   3.750   0.777   1.771
 5157SOL    HW116370   3.752   0.877   1.780
 5157SOL    HW216371   3.702   0.737   1.849
 5158SOL     OW16372   1.498   2.233   1.646
 5158SOL    HW116373   1.539   2.175   1.576
 5158SOL    HW216374   1.487   2.326   1.612
 5159SOL     OW16375   6.398   3.293   6.031
 5159SOL    HW116376   6.428   3.346   6.110
 5159SOL    HW216377   6.360   3.205   6.061
 5160SOL     OW16378   6.468   0.009   3.640
 5160SOL    HW116379   6.410   6.951   3.623
 5160SOL    HW216380   6.436   0.055   3.723
 5161SOL     OW16381   1.071   1.990   6.587
 5161SOL    HW116382   0.990   1.958   6.636
 5161SOL    HW216383   1.090   2.085   6.612
 5162SOL     OW16384   6.925   0.139   4.813
 5162SOL    HW116385   6.936   0.050   4.857
 5162SOL    HW216386   6.959   0.134   4.719
 5163SOL     OW16387   2.941   0.073   2.175
 5163SOL    HW116388   2.857   0.113   2.215
 5163SOL    HW216389   2.986   0.142   2.119
 5164SOL     OW16390   2.919   3.902   0.150
 5164SOL    HW116391   2.899   3.882   0.246
 5164SOL    HW216392   2.872   3.834   0.093
 5165SOL     OW16393   1.628   4.858   6.618
 5165SOL    HW116394   1.717   4.863   6.663
 5165SOL    HW216395   1.568   4.928   6.655
 5166SOL     OW16396   0.093   4.878   6.914
 5166SOL    HW116397   0.148   4.900   6.834
 5166SOL    HW216398   7.017   4.881   6.890
 5167SOL     OW16399   5.642   3.979   5.623
 5167SOL    HW116400   5.677   4.069   5.648
 5167SOL    HW216401   5.713   3.910   5.641
 5168SOL     OW16402   4.498   1.946   2.982
 5168SOL    HW116403   4.576   1.994   2.940
 5168SOL    HW216404   4.456   2.005   3.051
 5169SOL     OW16405   5.431   5.745   4.362
 5169SOL    HW116406   5.519   5.788   4.382
 5169SOL    HW216407   5.357   5.809   4.383
 5170SOL     OW16408   2.496   4.124   5.803
 5170SOL    HW116409   2.549   4.105   5.886
 5170SOL    HW216410   2.525   4.211   5.764
 5171SOL     OW16411   2.074   6.784   6.089
 5171SOL    HW116412   2.066   6.845   6.168
 5171SOL    HW216413   2.110   6.696   6.119
 5172SOL     OW16414   5.977   5.987   6.149
 5172SOL    HW116415   5.926   6.032   6.076
 5172SOL    HW216416   5.937   5.898   6.168
 5173SOL     OW16417   4.411   5.618   4.637
 5173SOL    HW116418   4.350   5.693   4.612
 5173SOL    HW216419   4.397   5.594   4.733
 5174SOL     OW16420   1.451   6.712   2.698
 5174SOL    HW116421   1.543   6.707   2.736
 5174SOL    HW216422   1.385   6.677   2.765
 5175SOL     OW16423   2.805   2.730   6.288
 5175SOL    HW116424   2.725   2.790   6.289
 5175SOL    HW216425   2.831   2.708   6.382
 5176SOL     OW16426   6.223   5.910   6.208
 5176SOL    HW116427   6.201   5.857   6.290
 5176SOL    HW216428   6.138   5.934   6.160
 5177SOL     OW16429   5.793   6.622   0.563
 5177SOL    HW116430   5.742   6.553   0.614
 5177SOL    HW216431   5.881   6.585   0.534
 5178SOL     OW16432   0.822   4.381   1.406
 5178SOL    HW116433   0.722   4.379   1.395
 5178SOL    HW216434   0.855   4.474   1.389
 5179SOL     OW16435   4.625   5.878   3.258
 5179SOL    HW116436   4.715   5.869   3.302
 5179SOL    HW216437   4.583   5.788   3.249
 5180SOL     OW16438   1.033   4.261   2.529
 5180SOL    HW116439   0.966   4.327   2.496
 5180SOL    HW216440   1.036   4.182   2.467
 5181SOL     OW16441   6.837   1.283   5.970
 5181SOL    HW116442   6.759   1.318   6.022
 5181SOL    HW216443   6.834   1.319   5.877
 5182SOL     OW16444   2.387   6.255   2.422
 5182SOL    HW116445   2.394   6.195   2.502
 5182SOL    HW216446   2.412   6.348   2.448
 5183SOL     OW16447   4.579   2.583   3.133
 5183SOL    HW116448   4.571   2.622   3.041
 5183SOL    HW216449   4.500   2.525   3.152
 5184SOL     OW16450   2.229   1.663   3.193
 5184SOL    HW116451   2.176   1.582   3.219
 5184SOL    HW216452   2.168   1.732   3.154
 5185SOL     OW16453   6.918   0.139   2.182
 5185SOL    HW116454   7.008   0.184   2.183
 5185SOL    HW216455   6.849   0.204   2.215
 5186SOL     OW16456   6.194   2.788   6.594
 5186SOL    HW116457   6.241   2.707   6.626
 5186SOL    HW216458   6.259   2.850   6.550
 5187SOL     OW16459   1.351   4.712   5.401
 5187SOL    HW116460   1.414   4.767   5.345
 5187SOL    HW216461   1.323   4.631   5.350
 5188SOL     OW16462   7.001   0.696   1.888
 5188SOL    HW116463   0.030   0.731   1.967
 5188SOL    HW216464   6.927   0.760   1.865
 5189SOL     OW16465   4.702   6.216   0.116
 5189SOL    HW116466   4.738   6.286   0.176
 5189SOL    HW216467   4.620   6.176   0.156
 5190SOL     OW16468   1.792   4.496   0.465
 5190SOL    HW116469   1.733   4.507   0.385
 5190SOL    HW216470   1.816   4.586   0.501
 5191SOL     OW16471   2.576   4.526   1.809
 5191SOL    HW116472   2.637   4.525   1.888
 5191SOL    HW216473   2.513   4.449   1.815
 5192SOL     OW16474   0.799   4.743   2.619
 5192SOL    HW116475   0.741   4.816   2.583
 5192SOL    HW216476   0.833   4.687   2.543
 5193SOL     OW16477   4.671   1.031   5.580
 5193SOL    HW116478   4.680   0.932   5.567
 5193SOL    HW216479   4.588   1.064   5.536
 5194SOL     OW16480   4.643   1.462   5.207
 5194SOL    HW116481   4.573   1.489   5.274
 5194SOL    HW216482   4.702   1.391   5.247
 5195SOL     OW16483   1.035   0.551   5.451
 5195SOL    HW116484   0.992   0.607   5.521
 5195SOL    HW216485   1.133   0.543   5.470
 5196SOL     OW16486   5.437   6.542   2.970
 5196SOL    HW116487   5.453   6.631   2.926
 5196SOL    HW216488   5.340   6.532   2.991
 5197SOL     OW16489   1.160   2.973   4.710
 5197SOL    HW116490   1.229   3.038   4.743
 5197SOL    HW216491   1.082   2.974   4.772
 5198SOL     OW16492   5.758   4.620   2.972
 5198SOL    HW116493   5.742   4.525   2.999
 5198SOL    HW216494   5.671   4.667   2.962
 5199SOL     OW16495   0.212   4.368   0.564
 5199SOL    HW116496   0.287   4.428   0.593
 5199SOL    HW216497   0.230   4.275   0.597
 5200SOL     OW16498   6.173   3.696   5.198
 5200SOL    HW116499   6.191   3.599   5.187
 5200SOL    HW216500   6.206   3.746   5.117
 5201SOL     OW16501   0.659   6.059   4.651
 5201SOL    HW116502   0.603   6.135   4.620
 5201SOL    HW216503   0.638   5.978   4.597
 5202SOL     OW16504   0.817   4.583   2.219
 5202SOL    HW116505   0.881   4.543   2.153
 5202SOL    HW216506   0.861   4.658   2.267
 5203SOL     OW16507   6.203   3.000   6.785
 5203SOL    HW116508   6.124   3.033   6.837
 5203SOL    HW216509   6.178   2.918   6.733
 5204SOL     OW16510   4.922   5.499   6.631
 5204SOL    HW116511   4.967   5.450   6.705
 5204SOL    HW216512   4.910   5.437   6.552
 5205SOL     OW16513   2.460   6.985   7.009
 5205SOL    HW116514   2.513   6.908   0.024
 5205SOL    HW216515   2.490   0.048   0.031
 5206SOL     OW16516   0.521   3.978   4.828
 5206SOL    HW116517   0.471   3.895   4.854
 5206SOL    HW216518   0.464   4.032   4.767
 5207SOL     OW16519   1.905   4.460   3.558
 5207SOL    HW116520   1.851   4.537   3.526
 5207SOL    HW216521   1.998   4.492   3.579
 5208SOL     OW16522   4.855   0.675   6.838
 5208SOL    HW116523   4.838   0.716   6.748
 5208SOL    HW216524   4.946   0.703   6.870
 5209SOL     OW16525   5.579   5.596   3.081
 5209SOL    HW116526   5.641   5.532   3.125
 5209SOL    HW216527   5.630   5.654   3.017
 5210SOL     OW16528   5.008   4.273   2.709
 5210SOL    HW116529   4.981   4.232   2.797
 5210SOL    HW216530   5.019   4.201   2.641
 5211SOL     OW16531   3.066   3.931   2.133
 5211SOL    HW116532   3.086   3.962   2.226
 5211SOL    HW216533   3.044   4.010   2.076
 5212SOL     OW16534   0.907   0.556   0.048
 5212SOL    HW116535   0.975   0.580   7.000
 5212SOL    HW216536   0.891   0.457   0.045
 5213SOL     OW16537   4.386   2.302   6.323
 5213SOL    HW116538   4.375   2.296   6.224
 5213SOL    HW216539   4.344   2.388   6.356
 5214SOL     OW16540   5.147   1.390   0.119
 5214SOL    HW116541   5.074   1.349   0.064
 5214SOL    HW216542   5.135   1.362   0.215
 5215SOL     OW16543   5.308   5.141   3.100
 5215SOL    HW116544   5.374   5.106   3.033
 5215SOL    HW216545   5.257   5.217   3.061
 5216SOL     OW16546   4.556   5.657   1.956
 5216SOL    HW116547   4.576   5.721   1.881
 5216SOL    HW216548   4.528   5.569   1.918
 5217SOL     OW16549   2.952   4.860   3.557
 5217SOL    HW116550   2.902   4.928   3.610
 5217SOL    HW216551   2.887   4.799   3.512
 5218SOL     OW16552   1.962   0.221   4.363
 5218SOL    HW116553   1.947   0.208   4.461
 5218SOL    HW216554   2.044   0.275   4.349
 5219SOL     OW16555   2.223   6.977   1.101
 5219SOL    HW116556   2.292   0.028   1.090
 5219SOL    HW216557   2.237   6.930   1.188
 5220SOL     OW16558   0.931   6.663   1.703
 5220SOL    HW116559   0.990   6.715   1.641
 5220SOL    HW216560   0.967   6.570   1.713
 5221SOL     OW16561   4.386   1.232   6.446
 5221SOL    HW116562   4.287   1.222   6.453
 5221SOL    HW216563   4.430   1.144   6.461
 5222SOL     OW16564   0.583   6.956   2.853
 5222SOL    HW116565   0.547   6.910   2.934
 5222SOL    HW216566   0.549   0.029   2.851
 5223SOL     OW16567   4.915   6.723   0.617
 5223SOL    HW116568   4.863   6.783   0.679
 5223SOL    HW216569   5.011   6.721   0.646
 5224SOL     OW16570   5.328   1.566   3.337
 5224SOL    HW116571   5.350   1.614   3.252
 5224SOL    HW216572   5.404   1.576   3.402
 5225SOL     OW16573   6.696   6.821   5.431
 5225SOL    HW116574   6.623   6.847   5.368
 5225SOL    HW216575   6.670   6.737   5.479
 5226SOL     OW16576   2.919   6.331   4.146
 5226SOL    HW116577   2.929   6.302   4.050
 5226SOL    HW216578   3.010   6.337   4.188
 5227SOL     OW16579   4.937   3.423   3.611
 5227SOL    HW116580   5.022   3.392   3.569
 5227SOL    HW216581   4.920   3.372   3.696
 5228SOL     OW16582   5.098   1.048   1.579
 5228SOL    HW116583   5.177   1.038   1.518
 5228SOL    HW216584   5.026   0.985   1.549
 5229SOL     OW16585   1.233   3.879   4.043
 5229SOL    HW116586   1.333   3.880   4.046
 5229SOL    HW216587   1.199   3.792   4.079
 5230SOL     OW16588   1.149   6.556   6.219
 5230SOL    HW116589   1.189   6.571   6.129
 5230SOL    HW216590   1.067   6.499   6.209
 5231SOL     OW16591   3.701   3.400   2.857
 5231SOL    HW116592   3.656   3.313   2.837
 5231SOL    HW216593   3.645   3.453   2.921
 5232SOL     OW16594   4.770   3.014   5.158
 5232SOL    HW116595   4.808   2.923   5.172
 5232SOL    HW216596   4.807   3.054   5.074
 5233SOL     OW16597   0.480   0.195   2.872
 5233SOL    HW116598   0.388   0.219   2.904
 5233SOL    HW216599   0.543   0.269   2.894
 5234SOL     OW16600   4.028   5.250   1.466
 5234SOL    HW116601   4.001   5.328   1.410
 5234SOL    HW216602   3.954   5.182   1.466
 5235SOL     OW16603   0.744   3.304   1.163
 5235SOL    HW116604   0.685   3.369   1.210
 5235SOL    HW216605   0.807   3.353   1.102
 5236SOL     OW16606   5.636   3.570   1.226
 5236SOL    HW116607   5.539   3.547   1.225
 5236SOL    HW216608   5.650   3.657   1.178
 5237SOL     OW16609   1.999   1.659   3.869
 5237SOL    HW116610   1.940   1.681   3.791
 5237SOL    HW216611   1.963   1.702   3.952
 5238SOL     OW16612   1.965   3.590   1.098
 5238SOL    HW116613   2.046   3.557   1.147
 5238SOL    HW216614   1.938   3.679   1.135
 5239SOL     OW16615   3.103   3.421   4.874
 5239SOL    HW116616   3.167   3.447   4.802
 5239SOL    HW216617   3.040   3.351   4.839
 5240SOL     OW16618   3.465   1.682   4.793
 5240SOL    HW116619   3.383   1.734   4.815
 5240SOL    HW216620   3.546   1.737   4.816
 5241SOL     OW16621   3.103   5.780   5.559
 5241SOL    HW116622   3.074   5.731   5.477
 5241SOL    HW216623   3.022   5.805   5.612
 5242SOL     OW16624   4.542   0.921   5.284
 5242SOL    HW116625   4.623   0.925   5.226
 5242SOL    HW216626   4.533   0.829   5.324
 5243SOL     OW16627   0.471   4.071   0.257
 5243SOL    HW116628   0.391   4.129   0.263
 5243SOL    HW216629   0.452   3.983   0.300
 5244SOL     OW16630   6.276   3.154   0.106
 5244SOL    HW116631   6.233   3.179   0.193
 5244SOL    HW216632   6.210   3.161   0.032
 5245SOL     OW16633   4.491   4.759   6.513
 5245SOL    HW116634   4.567   4.711   6.558
 5245SOL    HW216635   4.449   4.823   6.578
 5246SOL     OW16636   1.470   2.931   2.952
 5246SOL    HW116637   1.561   2.953   2.989
 5246SOL    HW216638   1.435   3.010   2.902
 5247SOL     OW16639   0.074   4.494   0.805
 5247SOL    HW116640   0.062   4.483   0.706
 5247SOL    HW216641   7.007   4.516   0.847
 5248SOL     OW16642   4.969   0.033   0.391
 5248SOL    HW116643   4.894   0.029   0.325
 5248SOL    HW216644   5.051   0.070   0.347
 5249SOL     OW16645   1.378   5.643   6.220
 5249SOL    HW116646   1.383   5.595   6.307
 5249SOL    HW216647   1.471   5.657   6.185
 5250SOL     OW16648   1.179   1.789   5.616
 5250SOL    HW116649   1.274   1.814   5.637
 5250SOL    HW216650   1.171   1.689   5.612
 5251SOL     OW16651   0.870   3.088   1.288
 5251SOL    HW116652   0.833   3.158   1.227
 5251SOL    HW216653   0.863   2.999   1.243
 5252SOL     OW16654   4.755   6.477   0.991
 5252SOL    HW116655   4.733   6.471   1.088
 5252SOL    HW216656   4.833   6.538   0.978
 5253SOL     OW16657   6.013   2.507   3.346
 5253SOL    HW116658   5.957   2.559   3.410
 5253SOL    HW216659   6.074   2.570   3.297
 5254SOL     OW16660   4.892   0.404   4.358
 5254SOL    HW116661   4.989   0.380   4.370
 5254SOL    HW216662   4.835   0.329   4.390
 5255SOL     OW16663   3.350   6.221   4.616
 5255SOL    HW116664   3.317   6.126   4.617
 5255SOL    HW216665   3.422   6.232   4.684
 5256SOL     OW16666   5.661   6.673   2.226
 5256SOL    HW116667   5.723   6.747   2.251
 5256SOL    HW216668   5.701   6.586   2.253
 5257SOL     OW16669   3.533   0.872   3.149
 5257SOL    HW116670   3.573   0.787   3.185
 5257SOL    HW216671   3.456   0.900   3.206
 5258SOL     OW16672   5.718   1.765   1.616
 5258SOL    HW116673   5.741   1.854   1.577
 5258SOL    HW216674   5.632   1.732   1.575
 5259SOL     OW16675   5.514   4.393   1.619
 5259SOL    HW116676   5.472   4.362   1.704
 5259SOL    HW216677   5.444   4.406   1.549
 5260SOL     OW16678   4.942   3.210   1.925
 5260SOL    HW116679   4.857   3.162   1.946
 5260SOL    HW216680   4.939   3.242   1.830
 5261SOL     OW16681   2.718   2.357   4.914
 5261SOL    HW116682   2.652   2.415   4.962
 5261SOL    HW216683   2.794   2.336   4.976
 5262SOL     OW16684   2.163   0.029   2.065
 5262SOL    HW116685   2.069   0.036   2.099
 5262SOL    HW216686   2.194   6.956   2.072
 5263SOL     OW16687   0.319   6.504   6.986
 5263SOL    HW116688   0.271   6.431   6.938
 5263SOL    HW216689   0.410   6.515   6.947
 5264SOL     OW16690   0.723   1.861   1.175
 5264SOL    HW116691   0.644   1.803   1.193
 5264SOL    HW216692   0.698   1.932   1.108
 5265SOL     OW16693   5.429   4.934   2.655
 5265SOL    HW116694   5.466   4.966   2.743
 5265SOL    HW216695   5.491   4.865   2.617
 5266SOL     OW16696   0.976   6.880   1.047
 5266SOL    HW116697   0.985   6.809   1.117
 5266SOL    HW216698   0.894   6.934   1.065
 5267SOL     OW16699   4.566   3.723   5.312
 5267SOL    HW116700   4.630   3.757   5.381
 5267SOL    HW216701   4.617   3.675   5.240
 5268SOL     OW16702   5.997   5.282   5.350
 5268SOL    HW116703   5.945   5.305   5.268
 5268SOL    HW216704   6.079   5.232   5.325
 5269SOL     OW16705   2.003   4.434   5.928
 5269SOL    HW116706   2.098   4.454   5.906
 5269SOL    HW216707   1.990   4.435   6.028
 5270SOL     OW16708   6.175   2.569   2.621
 5270SOL    HW116709   6.142   2.652   2.576
 5270SOL    HW216710   6.269   2.551   2.593
 5271SOL     OW16711   5.051   4.457   5.410
 5271SOL    HW116712   5.130   4.491   5.360
 5271SOL    HW216713   4.975   4.442   5.347
 5272SOL     OW16714   1.753   1.270   4.034
 5272SOL    HW116715   1.703   1.311   4.111
 5272SOL    HW216716   1.830   1.218   4.069
 5273SOL     OW16717   0.302   0.454   4.751
 5273SOL    HW116718   0.303   0.519   4.826
 5273SOL    HW216719   0.212   0.454   4.707
 5274SOL     OW16720   0.340   5.891   4.259
 5274SOL    HW116721   0.266   5.854   4.315
 5274SOL    HW216722   0.343   5.844   4.171
 5275SOL     OW16723   1.698   6.690   0.047
 5275SOL    HW116724   1.600   6.670   0.049
 5275SOL    HW216725   1.717   6.759   6.998
 5276SOL     OW16726   0.048   0.172   0.593
 5276SOL    HW116727   6.986   0.221   0.618
 5276SOL    HW216728   0.113   0.235   0.550
 5277SOL     OW16729   1.209   1.531   2.145
 5277SOL    HW116730   1.239   1.556   2.053
 5277SOL    HW216731   1.288   1.524   2.205
 5278SOL     OW16732   0.339   3.853   6.395
 5278SOL    HW116733   0.388   3.821   6.313
 5278SOL    HW216734   0.287   3.778   6.434
 5279SOL     OW16735   2.429   6.189   6.593
 5279SOL    HW116736   2.438   6.192   6.494
 5279SOL    HW216737   2.344   6.143   6.618
 5280SOL     OW16738   5.101   6.657   5.244
 5280SOL    HW116739   5.132   6.711   5.165
 5280SOL    HW216740   5.114   6.710   5.328
 5281SOL     OW16741   2.510   6.941   5.346
 5281SOL    HW116742   2.573   6.892   5.406
 5281SOL    HW216743   2.514   0.018   5.367
 5282SOL     OW16744   0.741   6.966   0.778
 5282SOL    HW116745   0.658   6.983   0.725
 5282SOL    HW216746   0.736   6.875   0.820
 5283SOL     OW16747   1.027   0.829   3.675
 5283SOL    HW116748   0.976   0.749   3.645
 5283SOL    HW216749   1.122   0.803   3.694
 5284SOL     OW16750   4.738   3.067   1.631
 5284SOL    HW116751   4.675   3.044   1.705
 5284SOL    HW216752   4.792   2.986   1.608
 5285SOL     OW16753   1.269   1.915   3.956
 5285SOL    HW116754   1.221   1.980   4.015
 5285SOL    HW216755   1.286   1.830   4.006
 5286SOL     OW16756   6.256   2.934   1.604
 5286SOL    HW116757   6.275   2.874   1.527
 5286SOL    HW216758   6.161   2.964   1.600
 5287SOL     OW16759   1.451   5.199   1.053
 5287SOL    HW116760   1.514   5.277   1.048
 5287SOL    HW216761   1.438   5.161   0.961
 5288SOL     OW16762   4.114   0.477   1.307
 5288SOL    HW116763   4.030   0.505   1.354
 5288SOL    HW216764   4.090   0.430   1.222
 5289SOL     OW16765   2.288   4.502   5.921
 5289SOL    HW116766   2.304   4.463   5.830
 5289SOL    HW216767   2.357   4.572   5.939
 5290SOL     OW16768   2.129   3.463   4.833
 5290SOL    HW116769   2.082   3.503   4.755
 5290SOL    HW216770   2.185   3.533   4.878
 5291SOL     OW16771   3.556   4.984   4.286
 5291SOL    HW116772   3.548   5.084   4.281
 5291SOL    HW216773   3.467   4.942   4.270
 5292SOL     OW16774   0.424   3.602   5.372
 5292SOL    HW116775   0.479   3.574   5.451
 5292SOL    HW216776   0.400   3.698   5.381
 5293SOL     OW16777   2.282   6.973   4.716
 5293SOL    HW116778   2.370   6.926   4.707
 5293SOL    HW216779   2.228   6.958   4.634
 5294SOL     OW16780   5.036   0.123   5.196
 5294SOL    HW116781   5.110   0.108   5.131
 5294SOL    HW216782   4.960   0.169   5.150
 5295SOL     OW16783   2.195   0.789   2.764
 5295SOL    HW116784   2.185   0.777   2.666
 5295SOL    HW216785   2.290   0.770   2.790
 5296SOL     OW16786   4.581   4.538   1.661
 5296SOL    HW116787   4.519   4.481   1.607
 5296SOL    HW216788   4.654   4.482   1.700
 5297SOL     OW16789   2.635   5.626   5.938
 5297SOL    HW116790   2.661   5.699   5.875
 5297SOL    HW216791   2.623   5.540   5.888
 5298SOL     OW16792   2.190   1.268   0.569
 5298SOL    HW116793   2.247   1.186   0.559
 5298SOL    HW216794   2.100   1.252   0.529
 5299SOL     OW16795   2.734   1.519   1.743
 5299SOL    HW116796   2.662   1.487   1.681
 5299SOL    HW216797   2.730   1.468   1.829
 5300SOL     OW16798   2.760   4.758   6.782
 5300SOL    HW116799   2.834   4.776   6.847
 5300SOL    HW216800   2.705   4.840   6.771
 5301SOL     OW16801   5.824   0.086   6.125
 5301SOL    HW116802   5.848   0.130   6.038
 5301SOL    HW216803   5.790   7.015   6.107
 5302SOL     OW16804   5.681   6.142   2.621
 5302SOL    HW116805   5.720   6.186   2.701
 5302SOL    HW216806   5.727   6.055   2.604
 5303SOL     OW16807   0.759   5.262   5.902
 5303SOL    HW116808   0.766   5.360   5.889
 5303SOL    HW216809   0.726   5.243   5.995
 5304SOL     OW16810   0.123   0.695   2.729
 5304SOL    HW116811   0.174   0.612   2.750
 5304SOL    HW216812   0.136   0.761   2.803
 5305SOL     OW16813   0.119   4.859   3.653
 5305SOL    HW116814   0.205   4.898   3.622
 5305SOL    HW216815   0.128   4.828   3.747
 5306SOL     OW16816   0.303   2.888   5.998
 5306SOL    HW116817   0.246   2.918   5.922
 5306SOL    HW216818   0.329   2.792   5.985
 5307SOL     OW16819   6.825   1.926   1.632
 5307SOL    HW116820   6.918   1.948   1.605
 5307SOL    HW216821   6.826   1.864   1.711
 5308SOL     OW16822   1.448   3.993   3.387
 5308SOL    HW116823   1.547   4.009   3.389
 5308SOL    HW216824   1.404   4.068   3.338
 5309SOL     OW16825   6.251   5.220   3.173
 5309SOL    HW116826   6.345   5.238   3.202
 5309SOL    HW216827   6.188   5.251   3.243
 5310SOL     OW16828   5.669   2.475   2.580
 5310SOL    HW116829   5.645   2.536   2.505
 5310SOL    HW216830   5.757   2.432   2.563
 5311SOL     OW16831   6.060   0.315   0.354
 5311SOL    HW116832   6.078   0.332   0.451
 5311SOL    HW216833   5.964   0.334   0.333
 5312SOL     OW16834   6.543   6.539   0.338
 5312SOL    HW116835   6.471   6.470   0.343
 5312SOL    HW216836   6.586   6.550   0.428
 5313SOL     OW16837   0.920   6.320   5.720
 5313SOL    HW116838   0.923   6.393   5.651
 5313SOL    HW216839   0.992   6.335   5.788
 5314SOL     OW16840   5.983   0.698   1.897
 5314SOL    HW116841   5.909   0.728   1.958
 5314SOL    HW216842   6.062   0.672   1.952
 5315SOL     OW16843   4.702   1.689   4.175
 5315SOL    HW116844   4.638   1.659   4.105
 5315SOL    HW216845   4.782   1.731   4.132
 5316SOL     OW16846   0.772   2.195   4.936
 5316SOL    HW116847   0.826   2.189   4.852
 5316SOL    HW216848   0.834   2.207   5.014
 5317SOL     OW16849   5.883   2.676   6.869
 5317SOL    HW116850   5.972   2.718   6.887
 5317SOL    HW216851   5.821   2.745   6.831
 5318SOL     OW16852   0.014   4.185   6.711
 5318SOL    HW116853   7.006   4.280   6.702
 5318SOL    HW216854   6.977   4.126   6.657
 5319SOL     OW16855   4.282   6.776   2.061
 5319SOL    HW116856   4.261   6.716   1.984
 5319SOL    HW216857   4.378   6.805   2.055
 5320SOL     OW16858   4.091   5.780   1.103
 5320SOL    HW116859   4.057   5.873   1.089
 5320SOL    HW216860   4.089   5.758   1.200
 5321SOL     OW16861   1.791   4.387   5.238
 5321SOL    HW116862   1.725   4.344   5.299
 5321SOL    HW216863   1.879   4.340   5.245
 5322SOL     OW16864   5.112   6.642   1.975
 5322SOL    HW116865   5.057   6.676   2.051
 5322SOL    HW216866   5.065   6.661   1.889
 5323SOL     OW16867   4.629   0.511   5.931
 5323SOL    HW116868   4.676   0.567   5.863
 5323SOL    HW216869   4.577   0.571   5.993
 5324SOL     OW16870   1.924   1.908   0.970
 5324SOL    HW116871   1.882   1.975   1.031
 5324SOL    HW216872   1.858   1.836   0.949
 5325SOL     OW16873   2.111   1.843   5.224
 5325SOL    HW116874   2.159   1.756   5.232
 5325SOL    HW216875   2.126   1.897   5.308
 5326SOL     OW16876   6.247   6.571   2.372
 5326SOL    HW116877   6.305   6.608   2.445
 5326SOL    HW216878   6.201   6.646   2.325
 5327SOL     OW16879   0.020   3.317   5.735
 5327SOL    HW116880   0.032   3.255   5.657
 5327SOL    HW216881   0.075   3.399   5.719
 5328SOL     OW16882   4.762   5.459   0.230
 5328SOL    HW116883   4.685   5.436   0.171
 5328SOL    HW216884   4.768   5.393   0.305
 5329SOL     OW16885   1.166   6.685   6.460
 5329SOL    HW116886   1.168   6.653   6.366
 5329SOL    HW216887   1.210   6.774   6.466
 5330SOL     OW16888   1.977   4.653   1.461
 5330SOL    HW116889   1.951   4.590   1.534
 5330SOL    HW216890   1.984   4.746   1.499
 5331SOL     OW16891   6.256   0.619   6.613
 5331SOL    HW116892   6.232   0.679   6.689
 5331SOL    HW216893   6.226   0.525   6.633
 5332SOL     OW16894   0.613   4.698   1.600
 5332SOL    HW116895   0.609   4.662   1.506
 5332SOL    HW216896   0.703   4.739   1.616
 5333SOL     OW16897   0.978   6.360   4.552
 5333SOL    HW116898   0.893   6.356   4.500
 5333SOL    HW216899   0.969   6.309   4.637
 5334SOL     OW16900   3.572   0.223   4.541
 5334SOL    HW116901   3.618   0.136   4.559
 5334SOL    HW216902   3.639   0.297   4.546
 5335SOL     OW16903   6.796   5.558   0.157
 5335SOL    HW116904   6.824   5.607   0.240
 5335SOL    HW216905   6.837   5.603   0.078
 5336SOL     OW16906   0.689   3.744   2.136
 5336SOL    HW116907   0.621   3.719   2.068
 5336SOL    HW216908   0.776   3.765   2.091
 5337SOL     OW16909   5.385   4.158   1.399
 5337SOL    HW116910   5.345   4.178   1.489
 5337SOL    HW216911   5.408   4.243   1.353
 5338SOL     OW16912   6.360   1.408   6.710
 5338SOL    HW116913   6.337   1.376   6.618
 5338SOL    HW216914   6.286   1.466   6.744
 5339SOL     OW16915   6.318   0.360   2.538
 5339SOL    HW116916   6.327   0.302   2.619
 5339SOL    HW216917   6.406   0.403   2.518
 5340SOL     OW16918   5.381   2.421   5.787
 5340SOL    HW116919   5.308   2.363   5.753
 5340SOL    HW216920   5.347   2.478   5.862
 5341SOL     OW16921   4.096   0.040   0.200
 5341SOL    HW116922   4.100   6.983   0.138
 5341SOL    HW216923   4.066   0.121   0.150
 5342SOL     OW16924   2.761   0.932   6.088
 5342SOL    HW116925   2.793   0.916   6.181
 5342SOL    HW216926   2.821   0.999   6.044
 5343SOL     OW16927   3.344   4.015   2.075
 5343SOL    HW116928   3.263   3.987   2.023
 5343SOL    HW216929   3.421   4.028   2.013
 5344SOL     OW16930   2.540   2.455   3.054
 5344SOL    HW116931   2.541   2.362   3.091
 5344SOL    HW216932   2.536   2.521   3.130
 5345SOL     OW16933   4.556   6.808   1.996
 5345SOL    HW116934   4.654   6.798   2.014
 5345SOL    HW216935   4.523   6.728   1.946
 5346SOL     OW16936   2.223   6.491   3.233
 5346SOL    HW116937   2.212   6.468   3.136
 5346SOL    HW216938   2.204   6.588   3.247
 5347SOL     OW16939   0.012   1.817   2.403
 5347SOL    HW116940   0.006   1.793   2.306
 5347SOL    HW216941   6.982   1.902   2.419
 5348SOL     OW16942   6.797   0.849   0.380
 5348SOL    HW116943   6.874   0.873   0.438
 5348SOL    HW216944   6.725   0.918   0.389
 5349SOL     OW16945   6.485   0.483   1.702
 5349SOL    HW116946   6.461   0.416   1.632
 5349SOL    HW216947   6.421   0.560   1.696
 5350SOL     OW16948   2.517   0.818   6.760
 5350SOL    HW116949   2.553   0.837   6.668
 5350SOL    HW216950   2.468   0.899   6.793
 5351SOL     OW16951   4.213   0.998   1.936
 5351SOL    HW116952   4.214   0.929   1.864
 5351SOL    HW216953   4.275   0.971   2.010
 5352SOL     OW16954   2.923   6.072   3.573
 5352SOL    HW116955   2.831   6.072   3.534
 5352SOL    HW216956   2.990   6.075   3.499
 5353SOL     OW16957   5.846   0.415   5.494
 5353SOL    HW116958   5.936   0.386   5.461
 5353SOL    HW216959   5.845   0.410   5.594
 5354SOL     OW16960   1.138   3.938   1.061
 5354SOL    HW116961   1.184   4.012   1.012
 5354SOL    HW216962   1.069   3.896   1.002
 5355SOL     OW16963   4.335   1.735   4.952
 5355SOL    HW116964   4.372   1.799   4.885
 5355SOL    HW216965   4.241   1.762   4.975
 5356SOL     OW16966   5.915   3.556   1.145
 5356SOL    HW116967   5.820   3.539   1.171
 5356SOL    HW216968   5.931   3.519   1.053
 5357SOL     OW16969   3.397   6.953   0.331
 5357SOL    HW116970   3.439   6.948   0.422
 5357SOL    HW216971   3.425   6.874   0.277
 5358SOL     OW16972   4.342   3.172   1.295
 5358SOL    HW116973   4.377   3.084   1.326
 5358SOL    HW216974   4.259   3.158   1.241
 5359SOL     OW16975   2.677   0.205   6.872
 5359SOL    HW116976   2.732   0.131   6.833
 5359SOL    HW216977   2.666   0.191   6.970
 5360SOL     OW16978   4.134   7.006   6.672
 5360SOL    HW116979   4.158   6.915   6.637
 5360SOL    HW216980   4.049   0.015   6.629
 5361SOL     OW16981   2.080   0.755   5.948
 5361SOL    HW116982   2.079   0.667   5.995
 5361SOL    HW216983   2.168   0.800   5.962
 5362SOL     OW16984   4.214   5.843   3.916
 5362SOL    HW116985   4.223   5.792   3.831
 5362SOL    HW216986   4.288   5.817   3.978
 5363SOL     OW16987   0.389   5.412   5.545
 5363SOL    HW116988   0.443   5.467   5.610
 5363SOL    HW216989   0.446   5.338   5.509
 5364SOL     OW16990   0.531   6.435   6.803
 5364SOL    HW116991   0.474   6.455   6.723
 5364SOL    HW216992   0.580   6.349   6.790
 5365SOL     OW16993   3.916   2.160   6.273
 5365SOL    HW116994   3.876   2.137   6.184
 5365SOL    HW216995   3.946   2.077   6.319
 5366SOL     OW16996   3.725   3.999   6.981
 5366SOL    HW116997   3.812   3.968   6.943
 5366SOL    HW216998   3.652   3.980   6.916
 5367SOL     OW16999   0.525   4.314   0.827
 5367SOL    HW117000   0.522   4.388   0.759
 5367SOL    HW217001   0.591   4.337   0.899
 5368SOL     OW17002   6.356   0.801   3.856
 5368SOL    HW117003   6.398   0.792   3.766
 5368SOL    HW217004   6.427   0.797   3.926
 5369SOL     OW17005   1.501   3.861   2.678
 5369SOL    HW117006   1.410   3.896   2.653
 5369SOL    HW217007   1.509   3.767   2.646
 5370SOL     OW17008   3.891   2.941   1.429
 5370SOL    HW117009   3.972   2.947   1.488
 5370SOL    HW217010   3.810   2.929   1.486
 5371SOL     OW17011   1.485   4.087   5.496
 5371SOL    HW117012   1.462   4.005   5.548
 5371SOL    HW217013   1.537   4.061   5.415
 5372SOL     OW17014   2.890   4.933   3.121
 5372SOL    HW117015   2.866   4.953   3.217
 5372SOL    HW217016   2.810   4.895   3.075
 5373SOL     OW17017   2.547   4.883   3.931
 5373SOL    HW117018   2.596   4.801   3.958
 5373SOL    HW217019   2.502   4.924   4.011
 5374SOL     OW17020   3.164   2.318   0.480
 5374SOL    HW117021   3.192   2.414   0.468
 5374SOL    HW217022   3.233   2.270   0.534
 5375SOL     OW17023   1.722   4.397   4.366
 5375SOL    HW117024   1.702   4.309   4.324
 5375SOL    HW217025   1.755   4.461   4.296
 5376SOL     OW17026   2.868   4.090   6.976
 5376SOL    HW117027   2.864   4.184   7.009
 5376SOL    HW217028   2.884   4.028   0.031
 5377SOL     OW17029   0.760   1.539   1.443
 5377SOL    HW117030   0.859   1.536   1.454
 5377SOL    HW217031   0.728   1.454   1.400
 5378SOL     OW17032   4.526   6.617   0.228
 5378SOL    HW117033   4.592   6.661   0.290
 5378SOL    HW217034   4.436   6.615   0.272
 5379SOL     OW17035   6.722   6.691   1.650
 5379SOL    HW117036   6.667   6.775   1.651
 5379SOL    HW217037   6.755   6.672   1.743
 5380SOL     OW17038   2.661   0.256   4.367
 5380SOL    HW117039   2.622   0.167   4.392
 5380SOL    HW217040   2.727   0.284   4.437
 5381SOL     OW17041   5.361   3.710   1.391
 5381SOL    HW117042   5.364   3.612   1.368
 5381SOL    HW217043   5.315   3.722   1.479
 5382SOL     OW17044   1.468   0.379   1.660
 5382SOL    HW117045   1.376   0.379   1.619
 5382SOL    HW217046   1.461   0.356   1.757
 5383SOL     OW17047   2.291   2.126   4.799
 5383SOL    HW117048   2.293   2.194   4.872
 5383SOL    HW217049   2.271   2.171   4.712
 5384SOL     OW17050   5.875   0.088   4.153
 5384SOL    HW117051   5.852   0.146   4.232
 5384SOL    HW217052   5.797   0.082   4.092
 5385SOL     OW17053   2.914   3.538   2.489
 5385SOL    HW117054   2.921   3.614   2.425
 5385SOL    HW217055   3.003   3.524   2.534
 5386SOL     OW17056   5.439   0.115   5.622
 5386SOL    HW117057   5.439   0.191   5.687
 5386SOL    HW217058   5.495   0.139   5.543
 5387SOL     OW17059   3.037   5.297   1.323
 5387SOL    HW117060   2.953   5.284   1.271
 5387SOL    HW217061   3.111   5.326   1.262
 5388SOL     OW17062   5.967   6.676   2.417
 5388SOL    HW117063   5.898   6.744   2.442
 5388SOL    HW217064   6.054   6.700   2.460
 5389SOL     OW17065   4.684   2.185   1.239
 5389SOL    HW117066   4.632   2.271   1.236
 5389SOL    HW217067   4.735   2.174   1.154
 5390SOL     OW17068   6.265   4.620   6.002
 5390SOL    HW117069   6.188   4.681   6.022
 5390SOL    HW217070   6.255   4.584   5.909
 5391SOL     OW17071   2.786   3.704   0.013
 5391SOL    HW117072   2.787   3.750   6.945
 5391SOL    HW217073   2.810   3.608   0.002
 5392SOL     OW17074   6.235   2.776   2.443
 5392SOL    HW117075   6.265   2.871   2.447
 5392SOL    HW217076   6.233   2.745   2.348
 5393SOL     OW17077   6.003   6.871   6.311
 5393SOL    HW117078   5.971   6.804   6.244
 5393SOL    HW217079   6.102   6.880   6.304
 5394SOL     OW17080   1.353   4.274   5.773
 5394SOL    HW117081   1.309   4.314   5.692
 5394SOL    HW217082   1.441   4.318   5.788
 5395SOL     OW17083   4.649   0.740   0.222
 5395SOL    HW117084   4.563   0.708   0.181
 5395SOL    HW217085   4.717   0.667   0.220
 5396SOL     OW17086   5.281   3.158   2.248
 5396SOL    HW117087   5.311   3.228   2.184
 5396SOL    HW217088   5.273   3.070   2.200
 5397SOL     OW17089   0.452   3.028   1.428
 5397SOL    HW117090   0.524   2.985   1.483
 5397SOL    HW217091   0.461   2.999   1.333
 5398SOL     OW17092   3.561   3.135   1.932
 5398SOL    HW117093   3.603   3.046   1.947
 5398SOL    HW217094   3.583   3.167   1.839
 5399SOL     OW17095   1.331   6.202   0.235
 5399SOL    HW117096   1.260   6.256   0.189
 5399SOL    HW217097   1.306   6.105   0.230
 5400SOL     OW17098   2.391   4.322   6.721
 5400SOL    HW117099   2.364   4.232   6.688
 5400SOL    HW217100   2.463   4.359   6.661
 5401SOL     OW17101   6.514   2.374   1.500
 5401SOL    HW117102   6.438   2.424   1.459
 5401SOL    HW217103   6.499   2.276   1.490
 5402SOL     OW17104   1.764   6.360   2.578
 5402SOL    HW117105   1.781   6.341   2.675
 5402SOL    HW217106   1.706   6.441   2.570
 5403SOL     OW17107   6.143   3.507   6.886
 5403SOL    HW117108   6.228   3.456   6.876
 5403SOL    HW217109   6.098   3.481   6.972
 5404SOL     OW17110   1.706   2.965   3.074
 5404SOL    HW117111   1.743   3.031   3.140
 5404SOL    HW217112   1.780   2.907   3.040
 5405SOL     OW17113   6.814   4.067   5.945
 5405SOL    HW117114   6.796   3.968   5.940
 5405SOL    HW217115   6.822   4.094   6.041
 5406SOL     OW17116   1.783   0.029   4.813
 5406SOL    HW117117   1.685   0.028   4.792
 5406SOL    HW217118   1.827   6.975   4.764
 5407SOL     OW17119   4.189   3.394   6.842
 5407SOL    HW117120   4.166   3.300   6.815
 5407SOL    HW217121   4.217   3.446   6.762
 5408SOL     OW17122   3.144   1.438   0.069
 5408SOL    HW117123   3.076   1.482   0.126
 5408SOL    HW217124   3.142   1.478   6.999
 5409SOL     OW17125   3.816   0.723   2.399
 5409SOL    HW117126   3.868   0.804   2.426
 5409SOL    HW217127   3.718   0.740   2.410
 5410SOL     OW17128   1.625   2.591   2.515
 5410SOL    HW117129   1.715   2.593   2.558
 5410SOL    HW217130   1.598   2.495   2.501
 5411SOL     OW17131   1.148   5.120   4.624
 5411SOL    HW117132   1.202   5.132   4.708
 5411SOL    HW217133   1.129   5.023   4.610
 5412SOL     OW17134   5.883   2.669   1.478
 5412SOL    HW117135   5.800   2.640   1.431
 5412SOL    HW217136   5.863   2.683   1.575
 5413SOL     OW17137   2.677   0.348   2.091
 5413SOL    HW117138   2.621   0.407   2.149
 5413SOL    HW217139   2.697   0.263   2.139
 5414SOL     OW17140   4.458   0.800   5.851
 5414SOL    HW117141   4.556   0.820   5.854
 5414SOL    HW217142   4.444   0.710   5.809
 5415SOL     OW17143   5.677   4.322   1.959
 5415SOL    HW117144   5.775   4.301   1.969
 5415SOL    HW217145   5.623   4.246   1.995
 5416SOL     OW17146   4.579   5.315   4.169
 5416SOL    HW117147   4.621   5.406   4.170
 5416SOL    HW217148   4.491   5.317   4.216
 5417SOL     OW17149   3.771   6.935   5.174
 5417SOL    HW117150   3.678   6.901   5.189
 5417SOL    HW217151   3.813   6.959   5.262
 5418SOL     OW17152   3.401   0.437   2.806
 5418SOL    HW117153   3.431   0.428   2.901
 5418SOL    HW217154   3.401   0.347   2.762
 5419SOL     OW17155   3.479   4.324   6.764
 5419SOL    HW117156   3.504   4.316   6.860
 5419SOL    HW217157   3.442   4.416   6.747
 5420SOL     OW17158   1.382   1.604   2.665
 5420SOL    HW117159   1.290   1.596   2.626
 5420SOL    HW217160   1.382   1.571   2.759
 5421SOL     OW17161   1.535   3.324   1.467
 5421SOL    HW117162   1.621   3.329   1.416
 5421SOL    HW217163   1.550   3.355   1.561
 5422SOL     OW17164   2.093   4.184   0.825
 5422SOL    HW117165   2.185   4.148   0.840
 5422SOL    HW217166   2.091   4.238   0.741
 5423SOL     OW17167   5.865   3.822   6.117
 5423SOL    HW117168   5.945   3.776   6.077
 5423SOL    HW217169   5.896   3.894   6.180
 5424SOL     OW17170   5.565   3.647   5.317
 5424SOL    HW117171   5.489   3.619   5.259
 5424SOL    HW217172   5.534   3.718   5.380
 5425SOL     OW17173   5.494   0.702   4.833
 5425SOL    HW117174   5.451   0.630   4.886
 5425SOL    HW217175   5.450   0.710   4.743
 5426SOL     OW17176   0.131   6.975   5.163
 5426SOL    HW117177   0.217   6.942   5.202
 5426SOL    HW217178   0.055   6.950   5.223
 5427SOL     OW17179   4.205   5.973   0.135
 5427SOL    HW117180   4.185   5.991   0.039
 5427SOL    HW217181   4.177   5.880   0.158
 5428SOL     OW17182   1.388   0.565   6.334
 5428SOL    HW117183   1.469   0.508   6.346
 5428SOL    HW217184   1.416   0.657   6.308
 5429SOL     OW17185   1.594   2.549   6.720
 5429SOL    HW117186   1.594   2.451   6.739
 5429SOL    HW217187   1.688   2.580   6.704
 5430SOL     OW17188   1.890   2.069   5.373
 5430SOL    HW117189   1.861   2.095   5.281
 5430SOL    HW217190   1.885   2.149   5.433
 5431SOL     OW17191   3.704   5.999   4.579
 5431SOL    HW117192   3.720   6.093   4.548
 5431SOL    HW217193   3.612   5.971   4.554
 5432SOL     OW17194   5.725   6.171   1.451
 5432SOL    HW117195   5.740   6.263   1.414
 5432SOL    HW217196   5.778   6.160   1.535
 5433SOL     OW17197   0.004   2.017   4.558
 5433SOL    HW117198   0.062   2.093   4.531
 5433SOL    HW217199   0.057   1.932   4.556
 5434SOL     OW17200   2.940   6.748   5.615
 5434SOL    HW117201   2.948   6.847   5.606
 5434SOL    HW217202   3.031   6.707   5.617
 5435SOL     OW17203   4.463   1.164   1.630
 5435SOL    HW117204   4.435   1.127   1.541
 5435SOL    HW217205   4.563   1.175   1.631
 5436SOL     OW17206   5.493   3.753   2.325
 5436SOL    HW117207   5.411   3.799   2.359
 5436SOL    HW217208   5.467   3.673   2.271
 5437SOL     OW17209   3.414   4.042   6.414
 5437SOL    HW117210   3.361   4.112   6.367
 5437SOL    HW217211   3.395   4.047   6.512
 5438SOL     OW17212   6.721   1.540   1.694
 5438SOL    HW117213   6.696   1.567   1.787
 5438SOL    HW217214   6.659   1.468   1.663
 5439SOL     OW17215   1.575   2.531   1.230
 5439SOL    HW117216   1.519   2.614   1.227
 5439SOL    HW217217   1.583   2.500   1.325
 5440SOL     OW17218   1.657   2.026   0.717
 5440SOL    HW117219   1.662   2.123   0.738
 5440SOL    HW217220   1.749   1.986   0.721
 5441SOL     OW17221   4.211   1.634   4.104
 5441SOL    HW117222   4.190   1.720   4.058
 5441SOL    HW217223   4.174   1.558   4.051
 5442SOL     OW17224   3.529   0.561   2.612
 5442SOL    HW117225   3.440   0.537   2.651
 5442SOL    HW217226   3.556   0.494   2.544
 5443SOL     OW17227   3.219   6.710   5.566
 5443SOL    HW117228   3.310   6.701   5.527
 5443SOL    HW217229   3.209   6.800   5.608
 5444SOL     OW17230   0.245   6.821   3.352
 5444SOL    HW117231   0.261   6.880   3.432
 5444SOL    HW217232   0.180   6.865   3.291
 5445SOL     OW17233   5.494   3.572   1.705
 5445SOL    HW117234   5.440   3.504   1.656
 5445SOL    HW217235   5.566   3.607   1.646
 5446SOL     OW17236   6.766   5.722   6.026
 5446SOL    HW117237   6.714   5.703   5.942
 5446SOL    HW217238   6.750   5.817   6.053
 5447SOL     OW17239   3.087   1.992   0.789
 5447SOL    HW117240   3.154   2.055   0.827
 5447SOL    HW217241   3.009   1.986   0.852
 5448SOL     OW17242   5.431   2.217   6.007
 5448SOL    HW117243   5.523   2.238   5.974
 5448SOL    HW217244   5.376   2.181   5.932
 5449SOL     OW17245   0.461   3.468   0.012
 5449SOL    HW117246   0.527   3.459   0.087
 5449SOL    HW217247   0.405   3.550   0.027
 5450SOL     OW17248   2.021   6.743   0.671
 5450SOL    HW117249   1.956   6.716   0.743
 5450SOL    HW217250   2.080   6.815   0.706
 5451SOL     OW17251   1.389   0.322   2.580
 5451SOL    HW117252   1.342   0.324   2.668
 5451SOL    HW217253   1.470   0.263   2.586
 5452SOL     OW17254   2.919   4.189   5.661
 5452SOL    HW117255   2.890   4.240   5.742
 5452SOL    HW217256   2.841   4.175   5.600
 5453SOL     OW17257   6.302   4.878   6.246
 5453SOL    HW117258   6.376   4.812   6.258
 5453SOL    HW217259   6.250   4.854   6.164
 5454SOL     OW17260   0.305   4.095   6.041
 5454SOL    HW117261   0.216   4.075   6.000
 5454SOL    HW217262   0.377   4.051   5.988
 5455SOL     OW17263   6.777   3.116   1.046
 5455SOL    HW117264   6.747   3.164   1.128
 5455SOL    HW217265   6.715   3.136   0.970
 5456SOL     OW17266   3.340   6.369   1.073
 5456SOL    HW117267   3.286   6.311   1.011
 5456SOL    HW217268   3.282   6.442   1.109
 5457SOL     OW17269   5.914   3.617   0.179
 5457SOL    HW117270   5.965   3.669   0.247
 5457SOL    HW217271   5.915   3.666   0.092
 5458SOL     OW17272   2.587   4.579   6.381
 5458SOL    HW117273   2.657   4.631   6.332
 5458SOL    HW217274   2.621   4.486   6.398
 5459SOL     OW17275   2.096   4.862   5.925
 5459SOL    HW117276   2.007   4.855   5.971
 5459SOL    HW217277   2.162   4.804   5.972
 5460SOL     OW17278   3.460   0.098   1.880
 5460SOL    HW117279   3.534   0.114   1.945
 5460SOL    HW217280   3.372   0.105   1.928
 5461SOL     OW17281   4.690   6.618   5.023
 5461SOL    HW117282   4.765   6.648   4.964
 5461SOL    HW217283   4.613   6.681   5.014
 5462SOL     OW17284   0.940   6.977   1.644
 5462SOL    HW117285   0.900   6.944   1.730
 5462SOL    HW217286   0.945   0.056   1.647
 5463SOL     OW17287   6.591   3.158   0.830
 5463SOL    HW117288   6.498   3.193   0.838
 5463SOL    HW217289   6.619   3.160   0.734
 5464SOL     OW17290   2.301   6.636   4.376
 5464SOL    HW117291   2.260   6.545   4.371
 5464SOL    HW217292   2.337   6.661   4.286
 5465SOL     OW17293   2.321   6.593   6.377
 5465SOL    HW117294   2.376   6.535   6.317
 5465SOL    HW217295   2.303   6.545   6.463
 5466SOL     OW17296   5.112   4.686   4.659
 5466SOL    HW117297   5.209   4.704   4.644
 5466SOL    HW217298   5.063   4.692   4.572
 5467SOL     OW17299   6.387   1.713   1.878
 5467SOL    HW117300   6.387   1.809   1.853
 5467SOL    HW217301   6.318   1.664   1.823
 5468SOL     OW17302   4.239   1.804   5.472
 5468SOL    HW117303   4.275   1.723   5.518
 5468SOL    HW217304   4.198   1.777   5.384
 5469SOL     OW17305   4.529   4.525   0.406
 5469SOL    HW117306   4.470   4.605   0.419
 5469SOL    HW217307   4.551   4.486   0.495
 5470SOL     OW17308   0.875   5.030   3.191
 5470SOL    HW117309   0.973   5.013   3.198
 5470SOL    HW217310   0.846   5.092   3.263
 5471SOL     OW17311   6.213   4.880   2.251
 5471SOL    HW117312   6.188   4.788   2.280
 5471SOL    HW217313   6.211   4.886   2.151
 5472SOL     OW17314   4.173   5.320   6.039
 5472SOL    HW117315   4.087   5.269   6.036
 5472SOL    HW217316   4.154   5.417   6.024
 5473SOL     OW17317   1.471   3.202   3.708
 5473SOL    HW117318   1.407   3.233   3.636
 5473SOL    HW217319   1.419   3.176   3.789
 5474SOL     OW17320   1.708   6.390   3.692
 5474SOL    HW117321   1.794   6.376   3.642
 5474SOL    HW217322   1.671   6.480   3.669
 5475SOL     OW17323   3.019   2.620   1.518
 5475SOL    HW117324   3.086   2.628   1.591
 5475SOL    HW217325   2.999   2.710   1.480
 5476SOL     OW17326   1.412   3.672   6.234
 5476SOL    HW117327   1.498   3.717   6.260
 5476SOL    HW217328   1.342   3.694   6.301
 5477SOL     OW17329   1.877   2.946   2.314
 5477SOL    HW117330   1.881   3.046   2.318
 5477SOL    HW217331   1.784   2.917   2.294
 5478SOL     OW17332   6.791   6.122   6.423
 5478SOL    HW117333   6.763   6.179   6.346
 5478SOL    HW217334   6.773   6.026   6.402
 5479SOL     OW17335   4.722   0.372   4.657
 5479SOL    HW117336   4.630   0.404   4.680
 5479SOL    HW217337   4.788   0.442   4.681
 5480SOL     OW17338   0.562   2.823   5.517
 5480SOL    HW117339   0.602   2.761   5.450
 5480SOL    HW217340   0.470   2.848   5.488
 5481SOL     OW17341   4.618   6.720   4.196
 5481SOL    HW117342   4.552   6.660   4.149
 5481SOL    HW217343   4.670   6.772   4.129
 5482SOL     OW17344   1.530   4.282   1.945
 5482SOL    HW117345   1.527   4.353   1.874
 5482SOL    HW217346   1.436   4.258   1.971
 5483SOL     OW17347   0.955   2.976   6.087
 5483SOL    HW117348   1.002   3.041   6.027
 5483SOL    HW217349   0.925   2.897   6.033
 5484SOL     OW17350   5.443   0.153   4.937
 5484SOL    HW117351   5.523   0.184   4.886
 5484SOL    HW217352   5.449   0.185   5.031
 5485SOL     OW17353   3.656   0.142   4.999
 5485SOL    HW117354   3.582   0.103   4.943
 5485SOL    HW217355   3.664   0.091   5.084
 5486SOL     OW17356   2.669   5.484   4.555
 5486SOL    HW117357   2.664   5.519   4.649
 5486SOL    HW217358   2.762   5.452   4.536
 5487SOL     OW17359   3.176   5.211   5.517
 5487SOL    HW117360   3.264   5.197   5.563
 5487SOL    HW217361   3.174   5.303   5.478
 5488SOL     OW17362   5.391   2.003   0.711
 5488SOL    HW117363   5.445   1.998   0.795
 5488SOL    HW217364   5.448   1.976   0.633
 5489SOL     OW17365   6.997   3.492   3.913
 5489SOL    HW117366   0.065   3.517   3.876
 5489SOL    HW217367   6.964   3.565   3.972
 5490SOL     OW17368   1.436   5.891   2.624
 5490SOL    HW117369   1.353   5.893   2.568
 5490SOL    HW217370   1.493   5.814   2.596
 5491SOL     OW17371   5.999   4.098   0.405
 5491SOL    HW117372   6.001   4.194   0.380
 5491SOL    HW217373   6.029   4.087   0.500
 5492SOL     OW17374   6.920   1.968   6.355
 5492SOL    HW117375   6.827   2.003   6.367
 5492SOL    HW217376   6.985   2.043   6.368
 5493SOL     OW17377   4.213   3.900   0.462
 5493SOL    HW117378   4.239   3.996   0.471
 5493SOL    HW217379   4.168   3.886   0.374
 5494SOL     OW17380   5.858   3.285   5.385
 5494SOL    HW117381   5.861   3.375   5.341
 5494SOL    HW217382   5.802   3.290   5.467
 5495SOL     OW17383   5.673   6.808   0.096
 5495SOL    HW117384   5.675   6.846   0.188
 5495SOL    HW217385   5.698   6.711   0.099
 5496SOL     OW17386   4.099   6.978   5.176
 5496SOL    HW117387   4.180   6.993   5.233
 5496SOL    HW217388   4.047   0.042   5.170
 5497SOL     OW17389   0.743   0.270   4.855
 5497SOL    HW117390   0.834   0.281   4.815
 5497SOL    HW217391   0.674   0.282   4.783
 5498SOL     OW17392   0.169   5.378   1.113
 5498SOL    HW117393   0.180   5.467   1.157
 5498SOL    HW217394   0.082   5.337   1.142
 5499SOL     OW17395   2.112   0.044   4.894
 5499SOL    HW117396   2.020   0.024   4.859
 5499SOL    HW217397   2.180   0.005   4.833
 5500SOL     OW17398   2.550   0.526   1.337
 5500SOL    HW117399   2.555   0.562   1.244
 5500SOL    HW217400   2.638   0.538   1.383
 5501SOL     OW17401   3.962   3.415   6.995
 5501SOL    HW117402   3.963   3.362   0.059
 5501SOL    HW217403   4.055   3.424   6.961
 5502SOL     OW17404   5.077   3.422   6.676
 5502SOL    HW117405   5.084   3.324   6.656
 5502SOL    HW217406   5.168   3.463   6.674
 5503SOL     OW17407   5.752   3.177   0.884
 5503SOL    HW117408   5.788   3.088   0.910
 5503SOL    HW217409   5.653   3.178   0.898
 5504SOL     OW17410   4.333   2.197   0.056
 5504SOL    HW117411   4.337   2.105   0.094
 5504SOL    HW217412   4.392   2.203   6.997
 5505SOL     OW17413   3.155   4.925   3.375
 5505SOL    HW117414   3.089   4.918   3.450
 5505SOL    HW217415   3.119   4.876   3.295
 5506SOL     OW17416   6.325   2.691   6.074
 5506SOL    HW117417   6.381   2.719   5.997
 5506SOL    HW217418   6.262   2.765   6.099
 5507SOL     OW17419   3.602   0.072   6.755
 5507SOL    HW117420   3.605   0.142   6.683
 5507SOL    HW217421   3.694   0.057   6.789
 5508SOL     OW17422   0.434   0.751   6.151
 5508SOL    HW117423   0.494   0.721   6.077
 5508SOL    HW217424   0.340   0.752   6.119
 5509SOL     OW17425   6.431   4.893   0.261
 5509SOL    HW117426   6.522   4.869   0.295
 5509SOL    HW217427   6.421   4.863   0.167
 5510SOL     OW17428   5.043   5.361   6.830
 5510SOL    HW117429   5.030   5.262   6.829
 5510SOL    HW217430   5.042   5.393   6.925
 5511SOL     OW17431   0.926   2.645   6.203
 5511SOL    HW117432   0.886   2.668   6.292
 5511SOL    HW217433   0.853   2.627   6.137
 5512SOL     OW17434   1.997   0.357   2.345
 5512SOL    HW117435   1.982   0.378   2.441
 5512SOL    HW217436   1.975   0.437   2.289
 5513SOL     OW17437   3.763   4.727   0.117
 5513SOL    HW117438   3.796   4.632   0.118
 5513SOL    HW217439   3.776   4.767   0.208
 5514SOL     OW17440   3.766   1.123   0.069
 5514SOL    HW117441   3.719   1.210   0.074
 5514SOL    HW217442   3.773   1.083   0.160
 5515SOL     OW17443   2.670   5.334   2.258
 5515SOL    HW117444   2.648   5.299   2.167
 5515SOL    HW217445   2.639   5.428   2.266
 5516SOL     OW17446   1.877   2.323   5.516
 5516SOL    HW117447   1.974   2.335   5.499
 5516SOL    HW217448   1.851   2.372   5.600
 5517SOL     OW17449   1.375   2.191   3.300
 5517SOL    HW117450   1.279   2.203   3.323
 5517SOL    HW217451   1.409   2.274   3.255
 5518SOL     OW17452   4.667   5.068   6.864
 5518SOL    HW117453   4.619   5.071   6.952
 5518SOL    HW217454   4.657   5.155   6.817
 5519SOL     OW17455   4.939   2.734   4.990
 5519SOL    HW117456   4.979   2.643   4.975
 5519SOL    HW217457   4.906   2.742   5.084
 5520SOL     OW17458   4.649   0.492   1.487
 5520SOL    HW117459   4.605   0.567   1.536
 5520SOL    HW217460   4.642   0.408   1.542
 5521SOL     OW17461   4.628   6.505   2.412
 5521SOL    HW117462   4.535   6.537   2.432
 5521SOL    HW217463   4.650   6.526   2.317
 5522SOL     OW17464   6.016   6.474   0.474
 5522SOL    HW117465   6.055   6.565   0.487
 5522SOL    HW217466   6.016   6.425   0.561
 5523SOL     OW17467   5.132   1.936   0.735
 5523SOL    HW117468   5.098   1.939   0.641
 5523SOL    HW217469   5.224   1.975   0.738
 5524SOL     OW17470   2.634   1.383   3.628
 5524SOL    HW117471   2.609   1.476   3.654
 5524SOL    HW217472   2.682   1.385   3.540
 5525SOL     OW17473   6.282   1.174   0.933
 5525SOL    HW117474   6.292   1.229   1.017
 5525SOL    HW217475   6.336   1.090   0.942
 5526SOL     OW17476   5.384   4.714   3.706
 5526SOL    HW117477   5.484   4.711   3.704
 5526SOL    HW217478   5.354   4.804   3.736
 5527SOL     OW17479   6.342   0.185   2.760
 5527SOL    HW117480   6.271   0.117   2.742
 5527SOL    HW217481   6.318   0.238   2.841
 5528SOL     OW17482   1.264   1.985   6.988
 5528SOL    HW117483   1.341   2.042   7.016
 5528SOL    HW217484   1.179   2.021   0.006
 5529SOL     OW17485   3.558   0.795   2.460
 5529SOL    HW117486   3.476   0.798   2.403
 5529SOL    HW217487   3.543   0.732   2.536
 5530SOL     OW17488   0.053   1.938   0.970
 5530SOL    HW117489   0.048   2.013   1.035
 5530SOL    HW217490   0.149   1.916   0.952
 5531SOL     OW17491   1.759   4.171   1.627
 5531SOL    HW117492   1.665   4.201   1.613
 5531SOL    HW217493   1.767   4.128   1.717
 5532SOL     OW17494   0.843   2.954   6.857
 5532SOL    HW117495   0.930   2.932   6.901
 5532SOL    HW217496   0.859   2.978   6.761
 5533SOL     OW17497   3.739   1.184   2.613
 5533SOL    HW117498   3.645   1.163   2.637
 5533SOL    HW217499   3.801   1.146   2.682
 5534SOL     OW17500   1.281   0.304   4.527
 5534SOL    HW117501   1.209   0.267   4.586
 5534SOL    HW217502   1.244   0.318   4.435
 5535SOL     OW17503   0.177   1.862   3.081
 5535SOL    HW117504   0.251   1.873   3.148
 5535SOL    HW217505   0.214   1.871   2.989
 5536SOL     OW17506   4.852   6.402   4.496
 5536SOL    HW117507   4.849   6.502   4.495
 5536SOL    HW217508   4.781   6.367   4.556
 5537SOL     OW17509   2.889   2.176   3.593
 5537SOL    HW117510   2.928   2.092   3.630
 5537SOL    HW217511   2.871   2.240   3.668
 5538SOL     OW17512   4.654   5.012   4.233
 5538SOL    HW117513   4.555   5.002   4.227
 5538SOL    HW217514   4.677   5.078   4.304
 5539SOL     OW17515   2.277   4.626   6.809
 5539SOL    HW117516   2.318   4.645   6.719
 5539SOL    HW217517   2.179   4.643   6.805
 5540SOL     OW17518   4.099   5.309   1.947
 5540SOL    HW117519   4.035   5.382   1.922
 5540SOL    HW217520   4.139   5.329   2.037
 5541SOL     OW17521   4.374   1.120   5.666
 5541SOL    HW117522   4.334   1.030   5.648
 5541SOL    HW217523   4.372   1.175   5.582
 5542SOL     OW17524   5.293   4.433   6.742
 5542SOL    HW117525   5.337   4.382   6.816
 5542SOL    HW217526   5.194   4.419   6.746
 5543SOL     OW17527   0.384   2.080   4.858
 5543SOL    HW117528   0.416   2.168   4.820
 5543SOL    HW217529   0.389   2.083   4.957
 5544SOL     OW17530   5.368   0.885   6.714
 5544SOL    HW117531   5.335   0.939   6.791
 5544SOL    HW217532   5.453   0.839   6.739
 5545SOL     OW17533   2.534   2.544   1.817
 5545SOL    HW117534   2.620   2.593   1.801
 5545SOL    HW217535   2.551   2.464   1.874
 5546SOL     OW17536   4.276   4.870   5.956
 5546SOL    HW117537   4.359   4.889   6.007
 5546SOL    HW217538   4.274   4.925   5.873
 5547SOL     OW17539   3.474   5.914   4.485
 5547SOL    HW117540   3.518   5.878   4.403
 5547SOL    HW217541   3.396   5.972   4.458
 5548SOL     OW17542   0.319   1.999   4.507
 5548SOL    HW117543   0.418   2.000   4.519
 5548SOL    HW217544   0.281   2.088   4.535
 5549SOL     OW17545   3.297   5.054   6.949
 5549SOL    HW117546   3.336   4.965   6.925
 5549SOL    HW217547   3.303   5.115   6.870
 5550SOL     OW17548   2.600   5.829   2.365
 5550SOL    HW117549   2.692   5.816   2.329
 5550SOL    HW217550   2.572   5.924   2.352
 5551SOL     OW17551   0.771   1.365   2.969
 5551SOL    HW117552   0.714   1.321   2.900
 5551SOL    HW217553   0.714   1.403   3.041
 5552SOL     OW17554   0.982   2.520   2.215
 5552SOL    HW117555   1.061   2.548   2.270
 5552SOL    HW217556   0.984   2.567   2.127
 5553SOL     OW17557   4.475   6.031   6.550
 5553SOL    HW117558   4.537   6.054   6.625
 5553SOL    HW217559   4.408   6.104   6.539
 5554SOL     OW17560   3.293   1.174   4.536
 5554SOL    HW117561   3.301   1.110   4.460
 5554SOL    HW217562   3.378   1.176   4.588
 5555SOL     OW17563   1.017   6.088   1.334
 5555SOL    HW117564   1.036   6.014   1.270
 5555SOL    HW217565   1.101   6.140   1.352
 5556SOL     OW17566   0.620   0.898   4.500
 5556SOL    HW117567   0.522   0.881   4.495
 5556SOL    HW217568   0.659   0.843   4.574
 5557SOL     OW17569   2.665   0.724   2.840
 5557SOL    HW117570   2.744   0.663   2.845
 5557SOL    HW217571   2.690   0.809   2.795
 5558SOL     OW17572   4.978   2.366   5.462
 5558SOL    HW117573   4.951   2.364   5.366
 5558SOL    HW217574   4.898   2.383   5.520
 5559SOL     OW17575   1.754   0.893   1.135
 5559SOL    HW117576   1.785   0.798   1.138
 5559SOL    HW217577   1.742   0.927   1.228
 5560SOL     OW17578   0.094   1.148   4.308
 5560SOL    HW117579   0.050   1.152   4.398
 5560SOL    HW217580   0.185   1.188   4.313
 5561SOL     OW17581   1.325   3.976   2.126
 5561SOL    HW117582   1.297   4.031   2.047
 5561SOL    HW217583   1.372   4.034   2.192
 5562SOL     OW17584   3.253   2.112   6.866
 5562SOL    HW117585   3.290   2.188   6.812
 5562SOL    HW217586   3.322   2.041   6.876
 5563SOL     OW17587   4.060   4.211   1.601
 5563SOL    HW117588   3.976   4.191   1.551
 5563SOL    HW217589   4.064   4.309   1.622
 5564SOL     OW17590   5.156   2.164   1.325
 5564SOL    HW117591   5.107   2.088   1.283
 5564SOL    HW217592   5.197   2.134   1.411
 5565SOL     OW17593   2.490   2.488   5.030
 5565SOL    HW117594   2.505   2.464   5.126
 5565SOL    HW217595   2.471   2.585   5.022
 5566SOL     OW17596   2.234   3.903   0.252
 5566SOL    HW117597   2.149   3.880   0.300
 5566SOL    HW217598   2.257   3.830   0.188
 5567SOL     OW17599   1.533   5.269   3.042
 5567SOL    HW117600   1.588   5.210   2.983
 5567SOL    HW217601   1.592   5.317   3.107
 5568SOL     OW17602   3.545   2.468   0.044
 5568SOL    HW117603   3.635   2.491   0.007
 5568SOL    HW217604   3.496   2.552   0.067
 5569SOL     OW17605   4.691   1.952   6.587
 5569SOL    HW117606   4.653   2.037   6.552
 5569SOL    HW217607   4.790   1.957   6.587
 5570SOL     OW17608   1.386   3.140   5.120
 5570SOL    HW117609   1.334   3.110   5.200
 5570SOL    HW217610   1.466   3.193   5.150
 5571SOL     OW17611   6.714   4.446   6.445
 5571SOL    HW117612   6.790   4.510   6.430
 5571SOL    HW217613   6.628   4.496   6.445
 5572SOL     OW17614   0.362   3.290   5.306
 5572SOL    HW117615   0.358   3.374   5.361
 5572SOL    HW217616   0.451   3.282   5.263
 5573SOL     OW17617   6.949   4.207   0.218
 5573SOL    HW117618   6.955   4.293   0.168
 5573SOL    HW217619   6.884   4.216   0.293
 5574SOL     OW17620   1.492   0.136   4.110
 5574SOL    HW117621   1.590   0.124   4.099
 5574SOL    HW217622   1.451   0.158   4.021
 5575SOL     OW17623   1.109   1.158   2.359
 5575SOL    HW117624   1.042   1.107   2.305
 5575SOL    HW217625   1.173   1.203   2.297
 5576SOL     OW17626   5.575   6.720   5.777
 5576SOL    HW117627   5.582   6.817   5.800
 5576SOL    HW217628   5.509   6.676   5.838
 5577SOL     OW17629   2.285   4.527   4.532
 5577SOL    HW117630   2.379   4.537   4.565
 5577SOL    HW217631   2.221   4.555   4.604
 5578SOL     OW17632   3.208   2.249   6.483
 5578SOL    HW117633   3.180   2.338   6.520
 5578SOL    HW217634   3.212   2.254   6.384
 5579SOL     OW17635   5.194   5.077   1.878
 5579SOL    HW117636   5.234   5.031   1.799
 5579SOL    HW217637   5.124   5.142   1.846
 5580SOL     OW17638   5.311   1.338   1.631
 5580SOL    HW117639   5.215   1.333   1.662
 5580SOL    HW217640   5.317   1.401   1.553
 5581SOL     OW17641   2.649   2.735   0.657
 5581SOL    HW117642   2.661   2.822   0.704
 5581SOL    HW217643   2.735   2.683   0.661
 5582SOL     OW17644   3.943   3.059   3.117
 5582SOL    HW117645   4.003   2.996   3.068
 5582SOL    HW217646   3.863   3.010   3.151
 5583SOL     OW17647   4.238   0.636   0.281
 5583SOL    HW117648   4.244   0.578   0.362
 5583SOL    HW217649   4.240   0.732   0.308
 5584SOL     OW17650   4.893   3.416   3.297
 5584SOL    HW117651   4.864   3.426   3.392
 5584SOL    HW217652   4.855   3.332   3.259
 5585SOL     OW17653   0.646   0.002   3.573
 5585SOL    HW117654   0.563   0.027   3.524
 5585SOL    HW217655   0.643   0.040   3.666
 5586SOL     OW17656   2.136   0.980   6.629
 5586SOL    HW117657   2.198   1.037   6.575
 5586SOL    HW217658   2.057   1.034   6.656
 5587SOL     OW17659   3.111   6.368   3.421
 5587SOL    HW117660   3.113   6.284   3.367
 5587SOL    HW217661   3.154   6.442   3.369
 5588SOL     OW17662   5.018   6.875   6.504
 5588SOL    HW117663   4.984   6.969   6.497
 5588SOL    HW217664   5.118   6.875   6.509
 5589SOL     OW17665   2.344   3.811   0.753
 5589SOL    HW117666   2.391   3.731   0.791
 5589SOL    HW217667   2.258   3.782   0.710
 5590SOL     OW17668   6.589   0.265   3.572
 5590SOL    HW117669   6.531   0.184   3.559
 5590SOL    HW217670   6.675   0.237   3.616
 5591SOL     OW17671   5.495   0.177   0.754
 5591SOL    HW117672   5.512   0.268   0.791
 5591SOL    HW217673   5.576   0.144   0.705
 5592SOL     OW17674   1.239   2.654   2.274
 5592SOL    HW117675   1.225   2.575   2.334
 5592SOL    HW217676   1.268   2.623   2.184
 5593SOL     OW17677   2.223   4.648   4.842
 5593SOL    HW117678   2.210   4.559   4.886
 5593SOL    HW217679   2.308   4.689   4.876
 5594SOL     OW17680   2.713   1.487   6.563
 5594SOL    HW117681   2.718   1.547   6.643
 5594SOL    HW217682   2.783   1.513   6.497
 5595SOL     OW17683   0.832   3.115   6.572
 5595SOL    HW117684   0.746   3.148   6.610
 5595SOL    HW217685   0.825   3.110   6.472
 5596SOL     OW17686   4.901   3.315   4.488
 5596SOL    HW117687   4.861   3.227   4.462
 5596SOL    HW217688   4.868   3.341   4.578
 5597SOL     OW17689   6.617   1.489   6.812
 5597SOL    HW117690   6.644   1.515   6.904
 5597SOL    HW217691   6.549   1.415   6.817
 5598SOL     OW17692   6.527   1.152   3.938
 5598SOL    HW117693   6.598   1.222   3.946
 5598SOL    HW217694   6.438   1.193   3.958
 5599SOL     OW17695   5.357   3.044   3.031
 5599SOL    HW117696   5.438   2.995   2.999
 5599SOL    HW217697   5.296   2.980   3.079
 5600SOL     OW17698   1.933   2.630   1.938
 5600SOL    HW117699   1.888   2.574   1.869
 5600SOL    HW217700   1.871   2.704   1.966
 5601SOL     OW17701   5.953   2.916   5.771
 5601SOL    HW117702   5.909   2.992   5.818
 5601SOL    HW217703   5.887   2.842   5.757
 5602SOL     OW17704   5.941   1.956   2.988
 5602SOL    HW117705   6.011   2.027   2.996
 5602SOL    HW217706   5.950   1.909   2.900
 5603SOL     OW17707   3.585   2.383   6.567
 5603SOL    HW117708   3.670   2.397   6.619
 5603SOL    HW217709   3.578   2.287   6.541
 5604SOL     OW17710   1.204   5.704   3.002
 5604SOL    HW117711   1.218   5.644   3.081
 5604SOL    HW217712   1.246   5.793   3.019
 5605SOL     OW17713   4.319   0.301   4.035
 5605SOL    HW117714   4.405   0.300   4.087
 5605SOL    HW217715   4.249   0.249   4.084
 5606SOL     OW17716   4.508   3.390   0.912
 5606SOL    HW117717   4.470   3.431   0.829
 5606SOL    HW217718   4.583   3.447   0.946
 5607SOL     OW17719   6.948   2.493   3.076
 5607SOL    HW117720   6.944   2.407   3.128
 5607SOL    HW217721   0.017   2.534   3.088
 5608SOL     OW17722   5.599   0.306   3.995
 5608SOL    HW117723   5.505   0.321   4.024
 5608SOL    HW217724   5.610   0.339   3.901
 5609SOL     OW17725   6.424   0.616   0.334
 5609SOL    HW117726   6.487   0.625   0.257
 5609SOL    HW217727   6.432   0.696   0.394
 5610SOL     OW17728   6.067   5.932   5.740
 5610SOL    HW117729   5.971   5.906   5.734
 5610SOL    HW217730   6.075   6.025   5.774
 5611SOL     OW17731   6.429   3.661   1.943
 5611SOL    HW117732   6.471   3.651   2.033
 5611SOL    HW217733   6.396   3.754   1.932
 5612SOL     OW17734   4.313   1.758   1.214
 5612SOL    HW117735   4.370   1.679   1.237
 5612SOL    HW217736   4.351   1.840   1.255
 5613SOL     OW17737   6.587   4.962   5.655
 5613SOL    HW117738   6.521   4.950   5.729
 5613SOL    HW217739   6.675   4.991   5.693
 5614SOL     OW17740   4.734   1.965   4.906
 5614SOL    HW117741   4.697   1.952   4.998
 5614SOL    HW217742   4.808   2.033   4.909
 5615SOL     OW17743   0.493   2.978   3.128
 5615SOL    HW117744   0.498   2.878   3.122
 5615SOL    HW217745   0.547   3.018   3.054
 5616SOL     OW17746   1.558   3.384   1.743
 5616SOL    HW117747   1.597   3.442   1.814
 5616SOL    HW217748   1.464   3.359   1.767
 5617SOL     OW17749   1.020   5.168   6.238
 5617SOL    HW117750   1.029   5.109   6.158
 5617SOL    HW217751   0.930   5.212   6.236
 5618SOL     OW17752   4.808   0.148   2.963
 5618SOL    HW117753   4.811   0.108   2.871
 5618SOL    HW217754   4.740   0.099   3.018
 5619SOL     OW17755   3.266   3.248   3.308
 5619SOL    HW117756   3.187   3.187   3.308
 5619SOL    HW217757   3.250   3.322   3.242
 5620SOL     OW17758   5.299   4.428   4.997
 5620SOL    HW117759   5.314   4.489   5.075
 5620SOL    HW217760   5.213   4.452   4.951
 5621SOL     OW17761   1.155   2.897   6.657
 5621SOL    HW117762   1.246   2.896   6.697
 5621SOL    HW217763   1.092   2.846   6.715
 5622SOL     OW17764   5.103   5.781   3.535
 5622SOL    HW117765   5.123   5.813   3.628
 5622SOL    HW217766   5.018   5.729   3.535
 5623SOL     OW17767   4.468   4.577   3.716
 5623SOL    HW117768   4.383   4.628   3.721
 5623SOL    HW217769   4.476   4.519   3.797
 5624SOL     OW17770   4.828   3.947   4.034
 5624SOL    HW117771   4.739   3.993   4.033
 5624SOL    HW217772   4.901   4.015   4.042
 5625SOL     OW17773   2.603   6.233   5.791
 5625SOL    HW117774   2.631   6.327   5.813
 5625SOL    HW217775   2.607   6.221   5.692
 5626SOL     OW17776   1.531   5.666   6.559
 5626SOL    HW117777   1.458   5.731   6.581
 5626SOL    HW217778   1.492   5.583   6.520
 5627SOL     OW17779   1.186   5.684   0.514
 5627SOL    HW117780   1.102   5.637   0.541
 5627SOL    HW217781   1.177   5.782   0.535
 5628SOL     OW17782   1.761   2.976   6.997
 5628SOL    HW117783   1.706   2.895   6.978
 5628SOL    HW217784   1.807   2.965   0.064
 5629SOL     OW17785   6.701   3.591   4.647
 5629SOL    HW117786   6.607   3.565   4.672
 5629SOL    HW217787   6.754   3.608   4.730
 5630SOL     OW17788   1.923   4.127   0.389
 5630SOL    HW117789   1.886   4.143   0.480
 5630SOL    HW217790   2.008   4.178   0.377
 5631SOL     OW17791   3.830   0.592   2.183
 5631SOL    HW117792   3.811   0.649   2.263
 5631SOL    HW217793   3.842   0.497   2.212
 5632SOL     OW17794   3.867   5.981   6.917
 5632SOL    HW117795   3.924   6.063   6.931
 5632SOL    HW217796   3.926   5.903   6.897
 5633SOL     OW17797   1.489   5.857   5.255
 5633SOL    HW117798   1.558   5.832   5.187
 5633SOL    HW217799   1.526   5.847   5.347
 5634SOL     OW17800   2.629   0.767   1.908
 5634SOL    HW117801   2.595   0.818   1.987
 5634SOL    HW217802   2.561   0.768   1.836
 5635SOL     OW17803   3.678   0.955   2.057
 5635SOL    HW117804   3.665   0.973   2.155
 5635SOL    HW217805   3.683   0.856   2.042
 5636SOL     OW17806   5.281   0.636   5.277
 5636SOL    HW117807   5.225   0.707   5.235
 5636SOL    HW217808   5.364   0.676   5.316
 5637SOL     OW17809   5.126   6.765   5.007
 5637SOL    HW117810   5.211   6.730   4.967
 5637SOL    HW217811   5.115   6.862   4.983
 5638SOL     OW17812   7.008   5.739   0.265
 5638SOL    HW117813   0.030   5.829   0.260
 5638SOL    HW217814   6.939   5.739   0.337
 5639SOL     OW17815   3.241   0.173   2.063
 5639SOL    HW117816   3.186   0.256   2.053
 5639SOL    HW217817   3.195   0.097   2.016
 5640SOL     OW17818   3.217   6.893   3.488
 5640SOL    HW117819   3.312   6.920   3.500
 5640SOL    HW217820   3.160   6.937   3.558
 5641SOL     OW17821   6.725   4.680   3.653
 5641SOL    HW117822   6.643   4.625   3.672
 5641SOL    HW217823   6.701   4.777   3.657
 5642SOL     OW17824   2.072   3.295   6.378
 5642SOL    HW117825   2.057   3.214   6.322
 5642SOL    HW217826   2.149   3.278   6.441
 5643SOL     OW17827   6.049   2.767   4.080
 5643SOL    HW117828   6.019   2.682   4.124
 5643SOL    HW217829   6.047   2.755   3.981
 5644SOL     OW17830   3.828   0.773   6.115
 5644SOL    HW117831   3.905   0.780   6.051
 5644SOL    HW217832   3.844   0.697   6.177
 5645SOL     OW17833   5.748   6.649   2.988
 5645SOL    HW117834   5.731   6.605   2.900
 5645SOL    HW217835   5.730   6.585   3.063
 5646SOL     OW17836   6.333   0.148   3.842
 5646SOL    HW117837   6.236   0.136   3.862
 5646SOL    HW217838   6.350   0.243   3.816
 5647SOL     OW17839   6.533   3.666   6.760
 5647SOL    HW117840   6.492   3.757   6.749
 5647SOL    HW217841   6.559   3.653   6.856
 5648SOL     OW17842   2.354   1.974   4.006
 5648SOL    HW117843   2.318   1.885   3.980
 5648SOL    HW217844   2.345   2.037   3.928
 5649SOL     OW17845   1.055   0.458   5.772
 5649SOL    HW117846   0.985   0.525   5.748
 5649SOL    HW217847   1.134   0.505   5.812
 5650SOL     OW17848   6.888   5.379   5.073
 5650SOL    HW117849   6.986   5.367   5.058
 5650SOL    HW217850   6.872   5.469   5.114
 5651SOL     OW17851   6.039   1.394   2.405
 5651SOL    HW117852   5.962   1.458   2.405
 5651SOL    HW217853   6.014   1.311   2.455
 5652SOL     OW17854   5.595   4.450   0.114
 5652SOL    HW117855   5.646   4.364   0.111
 5652SOL    HW217856   5.544   4.455   0.200
 5653SOL     OW17857   2.090   5.960   0.392
 5653SOL    HW117858   2.168   5.916   0.348
 5653SOL    HW217859   2.078   5.922   0.484
 5654SOL     OW17860   1.452   6.862   0.313
 5654SOL    HW117861   1.415   6.787   0.258
 5654SOL    HW217862   1.437   6.843   0.410
 5655SOL     OW17863   6.366   5.037   2.975
 5655SOL    HW117864   6.339   5.111   3.037
 5655SOL    HW217865   6.285   5.003   2.927
 5656SOL     OW17866   3.723   5.598   6.731
 5656SOL    HW117867   3.742   5.696   6.735
 5656SOL    HW217868   3.626   5.582   6.750
 5657SOL     OW17869   4.509   5.401   1.855
 5657SOL    HW117870   4.525   5.355   1.943
 5657SOL    HW217871   4.415   5.433   1.851
 5658SOL     OW17872   4.889   6.570   5.878
 5658SOL    HW117873   4.916   6.660   5.911
 5658SOL    HW217874   4.966   6.525   5.835
 5659SOL     OW17875   2.891   3.708   3.689
 5659SOL    HW117876   2.961   3.725   3.620
 5659SOL    HW217877   2.809   3.762   3.668
 5660SOL     OW17878   6.983   6.095   1.628
 5660SOL    HW117879   0.034   6.132   1.686
 5660SOL    HW217880   6.906   6.067   1.685
 5661SOL     OW17881   6.149   6.082   4.381
 5661SOL    HW117882   6.212   6.160   4.384
 5661SOL    HW217883   6.197   6.000   4.413
 5662SOL     OW17884   1.957   4.974   4.960
 5662SOL    HW117885   1.943   5.056   4.906
 5662SOL    HW217886   1.889   4.905   4.935
 5663SOL     OW17887   2.388   4.036   1.415
 5663SOL    HW117888   2.400   4.135   1.426
 5663SOL    HW217889   2.435   4.006   1.332
 5664SOL     OW17890   6.569   6.131   1.918
 5664SOL    HW117891   6.538   6.159   2.009
 5664SOL    HW217892   6.624   6.205   1.877
 5665SOL     OW17893   1.183   1.267   5.850
 5665SOL    HW117894   1.258   1.333   5.849
 5665SOL    HW217895   1.099   1.313   5.878
 5666SOL     OW17896   5.743   5.670   0.011
 5666SOL    HW117897   5.789   5.749   0.049
 5666SOL    HW217898   5.807   5.594   0.004
 5667SOL     OW17899   5.859   4.676   2.461
 5667SOL    HW117900   5.847   4.593   2.407
 5667SOL    HW217901   5.932   4.732   2.420
 5668SOL     OW17902   6.323   2.861   6.362
 5668SOL    HW117903   6.361   2.769   6.362
 5668SOL    HW217904   6.241   2.864   6.304
 5669SOL     OW17905   0.420   3.093   4.908
 5669SOL    HW117906   0.498   3.045   4.868
 5669SOL    HW217907   0.426   3.089   5.008
 5670SOL     OW17908   1.732   3.676   2.538
 5670SOL    HW117909   1.637   3.662   2.511
 5670SOL    HW217910   1.773   3.747   2.481
 5671SOL     OW17911   0.814   0.600   5.267
 5671SOL    HW117912   0.894   0.571   5.320
 5671SOL    HW217913   0.824   0.569   5.173
 5672SOL     OW17914   5.152   3.917   6.044
 5672SOL    HW117915   5.053   3.913   6.026
 5672SOL    HW217916   5.167   3.924   6.143
 5673SOL     OW17917   1.323   6.914   0.905
 5673SOL    HW117918   1.230   6.948   0.892
 5673SOL    HW217919   1.322   6.836   0.968
 5674SOL     OW17920   0.043   3.075   1.348
 5674SOL    HW117921   0.090   3.055   1.262
 5674SOL    HW217922   7.013   3.160   1.339
 5675SOL     OW17923   3.838   1.193   6.002
 5675SOL    HW117924   3.903   1.249   6.053
 5675SOL    HW217925   3.887   1.139   5.933
 5676SOL     OW17926   2.803   6.843   1.708
 5676SOL    HW117927   2.727   6.806   1.762
 5676SOL    HW217928   2.889   6.805   1.743
 5677SOL     OW17929   6.565   0.202   2.966
 5677SOL    HW117930   6.558   0.293   2.925
 5677SOL    HW217931   6.500   0.195   3.043
 5678SOL     OW17932   1.306   5.427   3.147
 5678SOL    HW117933   1.355   5.511   3.170
 5678SOL    HW217934   1.368   5.365   3.099
 5679SOL     OW17935   3.379   5.420   5.763
 5679SOL    HW117936   3.454   5.479   5.733
 5679SOL    HW217937   3.405   5.324   5.749
 5680SOL     OW17938   1.694   6.855   6.832
 5680SOL    HW117939   1.635   6.897   6.901
 5680SOL    HW217940   1.773   6.913   6.816
 5681SOL     OW17941   2.772   4.050   6.548
 5681SOL    HW117942   2.704   4.055   6.622
 5681SOL    HW217943   2.862   4.074   6.584
 5682SOL     OW17944   1.675   3.583   4.470
 5682SOL    HW117945   1.618   3.664   4.483
 5682SOL    HW217946   1.735   3.597   4.391
 5683SOL     OW17947   4.070   3.850   5.013
 5683SOL    HW117948   4.056   3.754   4.992
 5683SOL    HW217949   4.163   3.876   4.986
 5684SOL     OW17950   2.994   3.164   2.987
 5684SOL    HW117951   2.927   3.229   2.949
 5684SOL    HW217952   3.074   3.161   2.927
 5685SOL     OW17953   0.371   5.731   1.817
 5685SOL    HW117954   0.385   5.786   1.735
 5685SOL    HW217955   0.310   5.779   1.880
 5686SOL     OW17956   3.433   4.327   0.139
 5686SOL    HW117957   3.358   4.319   0.073
 5686SOL    HW217958   3.518   4.295   0.097
 5687SOL     OW17959   4.398   5.584   6.400
 5687SOL    HW117960   4.453   5.536   6.332
 5687SOL    HW217961   4.437   5.674   6.418
 5688SOL     OW17962   5.430   1.655   1.950
 5688SOL    HW117963   5.459   1.570   1.905
 5688SOL    HW217964   5.360   1.633   2.019
 5689SOL     OW17965   4.376   3.651   5.755
 5689SOL    HW117966   4.375   3.574   5.819
 5689SOL    HW217967   4.431   3.627   5.676
 5690SOL     OW17968   4.082   6.715   2.554
 5690SOL    HW117969   3.992   6.735   2.515
 5690SOL    HW217970   4.148   6.783   2.523
 5691SOL     OW17971   3.236   0.245   4.129
 5691SOL    HW117972   3.314   0.183   4.118
 5691SOL    HW217973   3.224   0.267   4.226
 5692SOL     OW17974   5.533   2.845   6.195
 5692SOL    HW117975   5.434   2.835   6.197
 5692SOL    HW217976   5.575   2.782   6.260
 5693SOL     OW17977   4.827   2.283   2.373
 5693SOL    HW117978   4.864   2.368   2.409
 5693SOL    HW217979   4.757   2.248   2.435
 5694SOL     OW17980   1.326   1.698   4.140
 5694SOL    HW117981   1.339   1.615   4.085
 5694SOL    HW217982   1.299   1.673   4.232
 5695SOL     OW17983   1.872   3.683   3.527
 5695SOL    HW117984   1.958   3.679   3.578
 5695SOL    HW217985   1.803   3.732   3.581
 5696SOL     OW17986   3.212   0.501   5.720
 5696SOL    HW117987   3.193   0.462   5.810
 5696SOL    HW217988   3.269   0.437   5.668
 5697SOL     OW17989   6.404   3.935   0.362
 5697SOL    HW117990   6.318   3.956   0.316
 5697SOL    HW217991   6.392   3.946   0.461
 5698SOL     OW17992   1.313   4.195   3.277
 5698SOL    HW117993   1.261   4.279   3.260
 5698SOL    HW217994   1.348   4.160   3.190
 5699SOL     OW17995   7.014   2.604   5.167
 5699SOL    HW117996   0.006   2.525   5.227
 5699SOL    HW217997   6.917   2.626   5.162
 5700SOL     OW17998   1.005   5.321   3.513
 5700SOL    HW117999   0.939   5.376   3.463
 5700SOL    HW218000   1.054   5.379   3.578
 5701SOL     OW18001   5.476   4.245   2.355
 5701SOL    HW118002   5.519   4.206   2.437
 5701SOL    HW218003   5.391   4.291   2.381
 5702SOL     OW18004   2.894   0.032   6.855
 5702SOL    HW118005   2.983   7.010   6.838
 5702SOL    HW218006   2.823   6.984   6.863
 5703SOL     OW18007   4.698   4.334   1.807
 5703SOL    HW118008   4.617   4.328   1.866
 5703SOL    HW218009   4.780   4.329   1.863
 5704SOL     OW18010   5.117   4.195   3.248
 5704SOL    HW118011   5.118   4.156   3.340
 5704SOL    HW218012   5.207   4.182   3.206
 5705SOL     OW18013   6.319   1.682   3.229
 5705SOL    HW118014   6.397   1.621   3.243
 5705SOL    HW218015   6.266   1.650   3.150
 5706SOL     OW18016   1.857   1.284   6.511
 5706SOL    HW118017   1.778   1.225   6.530
 5706SOL    HW218018   1.876   1.284   6.413
 5707SOL     OW18019   2.887   1.451   6.878
 5707SOL    HW118020   2.835   1.525   6.836
 5707SOL    HW218021   2.983   1.459   6.852
 5708SOL     OW18022   6.819   0.414   1.309
 5708SOL    HW118023   6.795   0.458   1.223
 5708SOL    HW218024   6.833   0.317   1.294
 5709SOL     OW18025   1.303   2.455   1.152
 5709SOL    HW118026   1.398   2.471   1.180
 5709SOL    HW218027   1.266   2.377   1.201
 5710SOL     OW18028   3.281   4.501   6.650
 5710SOL    HW118029   3.347   4.575   6.633
 5710SOL    HW218030   3.274   4.444   6.568
 5711SOL     OW18031   5.435   1.211   5.103
 5711SOL    HW118032   5.493   1.292   5.090
 5711SOL    HW218033   5.491   1.135   5.134
 5712SOL     OW18034   6.501   6.277   6.729
 5712SOL    HW118035   6.597   6.254   6.745
 5712SOL    HW218036   6.480   6.266   6.632
 5713SOL     OW18037   0.093   2.891   2.889
 5713SOL    HW118038   0.047   2.869   2.803
 5713SOL    HW218039   0.190   2.866   2.882
 5714SOL     OW18040   2.120   0.830   6.315
 5714SOL    HW118041   2.102   0.914   6.263
 5714SOL    HW218042   2.216   0.804   6.304
 5715SOL     OW18043   1.811   0.061   3.726
 5715SOL    HW118044   1.836   6.987   3.706
 5715SOL    HW218045   1.857   0.122   3.661
 5716SOL     OW18046   1.736   2.179   5.126
 5716SOL    HW118047   1.657   2.131   5.091
 5716SOL    HW218048   1.809   2.178   5.057
 5717SOL     OW18049   0.540   3.786   6.570
 5717SOL    HW118050   0.497   3.786   6.660
 5717SOL    HW218051   0.479   3.830   6.504
 5718SOL     OW18052   2.479   5.288   5.571
 5718SOL    HW118053   2.384   5.297   5.538
 5718SOL    HW218054   2.542   5.305   5.495
 5719SOL     OW18055   2.090   0.935   0.838
 5719SOL    HW118056   2.120   0.996   0.912
 5719SOL    HW218057   1.999   0.963   0.807
 5720SOL     OW18058   1.508   5.728   4.100
 5720SOL    HW118059   1.422   5.778   4.112
 5720SOL    HW218060   1.488   5.634   4.070
 5721SOL     OW18061   6.815   4.597   0.551
 5721SOL    HW118062   6.818   4.683   0.600
 5721SOL    HW218063   6.725   4.554   0.563
 5722SOL     OW18064   5.756   1.294   3.902
 5722SOL    HW118065   5.740   1.276   3.805
 5722SOL    HW218066   5.809   1.219   3.941
 5723SOL     OW18067   1.095   4.356   1.184
 5723SOL    HW118068   1.059   4.433   1.238
 5723SOL    HW218069   1.143   4.391   1.104
 5724SOL     OW18070   4.731   2.529   5.481
 5724SOL    HW118071   4.636   2.552   5.500
 5724SOL    HW218072   4.735   2.471   5.399
 5725SOL     OW18073   5.336   6.282   5.775
 5725SOL    HW118074   5.245   6.325   5.776
 5725SOL    HW218075   5.371   6.280   5.681
 5726SOL     OW18076   4.415   4.231   5.718
 5726SOL    HW118077   4.470   4.221   5.801
 5726SOL    HW218078   4.401   4.142   5.676
 5727SOL     OW18079   5.548   2.333   4.161
 5727SOL    HW118080   5.490   2.276   4.104
 5727SOL    HW218081   5.624   2.369   4.106
 5728SOL     OW18082   4.724   0.782   5.498
 5728SOL    HW118083   4.719   0.682   5.504
 5728SOL    HW218084   4.810   0.809   5.456
 5729SOL     OW18085   1.649   2.649   4.471
 5729SOL    HW118086   1.584   2.720   4.446
 5729SOL    HW218087   1.604   2.560   4.469
 5730SOL     OW18088   3.771   4.859   0.348
 5730SOL    HW118089   3.724   4.928   0.403
 5730SOL    HW218090   3.858   4.896   0.315
 5731SOL     OW18091   4.189   1.527   4.793
 5731SOL    HW118092   4.109   1.552   4.848
 5731SOL    HW218093   4.251   1.605   4.788
 5732SOL     OW18094   5.700   4.138   3.994
 5732SOL    HW118095   5.636   4.171   3.925
 5732SOL    HW218096   5.755   4.214   4.027
 5733SOL     OW18097   2.667   0.289   1.650
 5733SOL    HW118098   2.707   0.372   1.688
 5733SOL    HW218099   2.611   0.243   1.720
 5734SOL     OW18100   1.542   6.645   6.384
 5734SOL    HW118101   1.568   6.688   6.298
 5734SOL    HW218102   1.480   6.569   6.366
 5735SOL     OW18103   5.228   1.039   1.839
 5735SOL    HW118104   5.204   1.074   1.929
 5735SOL    HW218105   5.202   1.107   1.769
 5736SOL     OW18106   6.005   4.223   6.590
 5736SOL    HW118107   6.047   4.135   6.566
 5736SOL    HW218108   5.953   4.213   6.675
 5737SOL     OW18109   5.522   5.826   2.237
 5737SOL    HW118110   5.496   5.848   2.330
 5737SOL    HW218111   5.584   5.896   2.201
 5738SOL     OW18112   2.602   0.731   1.134
 5738SOL    HW118113   2.667   0.787   1.184
 5738SOL    HW218114   2.512   0.776   1.134
 5739SOL     OW18115   2.675   0.764   5.888
 5739SOL    HW118116   2.575   0.759   5.881
 5739SOL    HW218117   2.700   0.821   5.966
 5740SOL     OW18118   4.854   3.734   2.624
 5740SOL    HW118119   4.952   3.711   2.624
 5740SOL    HW218120   4.812   3.700   2.708
 5741SOL     OW18121   1.536   3.382   4.303
 5741SOL    HW118122   1.618   3.334   4.335
 5741SOL    HW218123   1.545   3.480   4.322
 5742SOL     OW18124   6.291   6.425   2.971
 5742SOL    HW118125   6.364   6.358   2.978
 5742SOL    HW218126   6.210   6.392   3.019
 5743SOL     OW18127   3.685   5.632   0.446
 5743SOL    HW118128   3.684   5.604   0.350
 5743SOL    HW218129   3.644   5.723   0.454
 5744SOL     OW18130   5.369   5.917   3.513
 5744SOL    HW118131   5.442   5.853   3.537
 5744SOL    HW218132   5.281   5.871   3.519
 5745SOL     OW18133   1.109   2.895   2.300
 5745SOL    HW118134   1.084   2.887   2.396
 5745SOL    HW218135   1.159   2.813   2.272
 5746SOL     OW18136   5.145   0.367   2.906
 5746SOL    HW118137   5.228   0.313   2.892
 5746SOL    HW218138   5.100   0.338   2.990
 5747SOL     OW18139   1.773   6.979   1.219
 5747SOL    HW118140   1.780   6.881   1.202
 5747SOL    HW218141   1.729   6.995   1.307
 5748SOL     OW18142   6.252   6.584   0.070
 5748SOL    HW118143   6.300   6.668   0.095
 5748SOL    HW218144   6.264   6.567   6.993
 5749SOL     OW18145   1.980   6.146   6.207
 5749SOL    HW118146   2.000   6.050   6.227
 5749SOL    HW218147   2.009   6.168   6.114
 5750SOL     OW18148   6.429   2.583   4.222
 5750SOL    HW118149   6.521   2.612   4.248
 5750SOL    HW218150   6.412   2.607   4.126
 5751SOL     OW18151   0.788   3.700   4.585
 5751SOL    HW118152   0.873   3.738   4.548
 5751SOL    HW218153   0.746   3.640   4.516
 5752SOL     OW18154   5.246   0.560   0.066
 5752SOL    HW118155   5.229   0.469   0.105
 5752SOL    HW218156   5.166   0.618   0.083
 5753SOL     OW18157   3.580   4.072   4.872
 5753SOL    HW118158   3.548   4.105   4.783
 5753SOL    HW218159   3.503   4.035   4.924
 5754SOL     OW18160   6.847   6.167   1.168
 5754SOL    HW118161   6.812   6.132   1.081
 5754SOL    HW218162   6.946   6.154   1.171
 5755SOL     OW18163   1.281   3.368   6.556
 5755SOL    HW118164   1.222   3.288   6.572
 5755SOL    HW218165   1.327   3.392   6.642
 5756SOL     OW18166   6.444   6.155   2.180
 5756SOL    HW118167   6.368   6.172   2.242
 5756SOL    HW218168   6.508   6.092   2.223
 5757SOL     OW18169   6.995   1.388   3.686
 5757SOL    HW118170   6.953   1.297   3.691
 5757SOL    HW218171   6.940   1.446   3.625
 5758SOL     OW18172   6.212   6.563   2.752
 5758SOL    HW118173   6.280   6.636   2.742
 5758SOL    HW218174   6.242   6.499   2.823
 5759SOL     OW18175   2.550   0.295   2.429
 5759SOL    HW118176   2.539   0.288   2.529
 5759SOL    HW218177   2.461   0.282   2.386
 5760SOL     OW18178   1.380   2.614   6.998
 5760SOL    HW118179   1.326   2.586   6.919
 5760SOL    HW218180   1.429   2.535   0.013
 5761SOL     OW18181   6.381   6.711   4.448
 5761SOL    HW118182   6.410   6.669   4.362
 5761SOL    HW218183   6.456   6.707   4.514
 5762SOL     OW18184   0.807   5.537   6.013
 5762SOL    HW118185   0.873   5.606   6.044
 5762SOL    HW218186   0.752   5.506   6.091
 5763SOL     OW18187   5.519   0.443   0.874
 5763SOL    HW118188   5.485   0.517   0.932
 5763SOL    HW218189   5.617   0.430   0.890
 5764SOL     OW18190   4.789   6.658   4.398
 5764SOL    HW118191   4.726   6.663   4.475
 5764SOL    HW218192   4.738   6.668   4.312
 5765SOL     OW18193   6.458   4.899   2.321
 5765SOL    HW118194   6.469   4.818   2.379
 5765SOL    HW218195   6.368   4.897   2.277
 5766SOL     OW18196   0.653   1.347   4.023
 5766SOL    HW118197   0.714   1.274   4.054
 5766SOL    HW218198   0.704   1.434   4.020
 5767SOL     OW18199   3.912   6.849   6.812
 5767SOL    HW118200   3.838   6.803   6.762
 5767SOL    HW218201   3.991   6.859   6.752
 5768SOL     OW18202   1.129   0.842   5.207
 5768SOL    HW118203   1.151   0.863   5.112
 5768SOL    HW218204   1.032   0.861   5.224
 5769SOL     OW18205   1.221   2.951   5.798
 5769SOL    HW118206   1.264   2.883   5.857
 5769SOL    HW218207   1.279   3.033   5.794
 5770SOL     OW18208   2.065   4.452   1.865
 5770SOL    HW118209   2.025   4.414   1.949
 5770SOL    HW218210   2.102   4.378   1.810
 5771SOL     OW18211   2.776   5.030   3.674
 5771SOL    HW118212   2.684   5.006   3.705
 5771SOL    HW218213   2.794   5.126   3.692
 5772SOL     OW18214   3.240   6.983   2.710
 5772SOL    HW118215   3.169   6.954   2.774
 5772SOL    HW218216   3.235   6.926   2.628
 5773SOL     OW18217   5.731   1.258   2.592
 5773SOL    HW118218   5.759   1.205   2.512
 5773SOL    HW218219   5.763   1.352   2.584
 5774SOL     OW18220   0.760   6.742   2.932
 5774SOL    HW118221   0.799   6.701   2.849
 5774SOL    HW218222   0.723   6.832   2.909
 5775SOL     OW18223   6.262   4.895   1.985
 5775SOL    HW118224   6.286   4.974   1.929
 5775SOL    HW218225   6.201   4.835   1.933
 5776SOL     OW18226   2.506   1.047   4.378
 5776SOL    HW118227   2.417   1.069   4.420
 5776SOL    HW218228   2.563   1.130   4.376
 5777SOL     OW18229   1.915   6.888   1.986
 5777SOL    HW118230   1.952   6.855   1.899
 5777SOL    HW218231   1.954   6.835   2.061
 5778SOL     OW18232   6.813   0.796   1.036
 5778SOL    HW118233   6.911   0.787   1.016
 5778SOL    HW218234   6.799   0.795   1.135
 5779SOL     OW18235   5.702   1.369   6.748
 5779SOL    HW118236   5.659   1.316   6.675
 5779SOL    HW218237   5.681   1.466   6.736
 5780SOL     OW18238   5.050   4.844   4.108
 5780SOL    HW118239   5.078   4.934   4.076
 5780SOL    HW218240   4.969   4.815   4.057
 5781SOL     OW18241   1.299   5.601   5.930
 5781SOL    HW118242   1.327   5.610   6.026
 5781SOL    HW218243   1.246   5.681   5.904
 5782SOL     OW18244   0.223   0.779   6.941
 5782SOL    HW118245   0.130   0.803   6.968
 5782SOL    HW218246   0.253   0.698   6.992
 5783SOL     OW18247   2.506   2.420   0.326
 5783SOL    HW118248   2.507   2.485   0.251
 5783SOL    HW218249   2.591   2.429   0.379
 5784SOL     OW18250   6.763   6.160   6.909
 5784SOL    HW118251   6.807   6.132   6.994
 5784SOL    HW218252   6.805   6.243   6.875
 5785SOL     OW18253   1.083   1.283   0.525
 5785SOL    HW118254   1.043   1.219   0.590
 5785SOL    HW218255   1.158   1.239   0.476
 5786SOL     OW18256   6.271   5.430   1.361
 5786SOL    HW118257   6.274   5.399   1.266
 5786SOL    HW218258   6.349   5.391   1.411
 5787SOL     OW18259   2.249   3.027   6.331
 5787SOL    HW118260   2.315   3.082   6.281
 5787SOL    HW218261   2.163   3.022   6.280
 5788SOL     OW18262   3.425   0.558   3.547
 5788SOL    HW118263   3.459   0.464   3.554
 5788SOL    HW218264   3.331   0.563   3.580
 5789SOL     OW18265   3.845   4.968   6.402
 5789SOL    HW118266   3.769   4.999   6.458
 5789SOL    HW218267   3.900   5.047   6.374
 5790SOL     OW18268   1.233   3.295   3.570
 5790SOL    HW118269   1.172   3.281   3.649
 5790SOL    HW218270   1.216   3.224   3.502
 5791SOL     OW18271   2.045   0.336   3.340
 5791SOL    HW118272   1.951   0.363   3.317
 5791SOL    HW218273   2.084   0.283   3.265
 5792SOL     OW18274   6.758   2.616   2.960
 5792SOL    HW118275   6.828   2.563   3.009
 5792SOL    HW218276   6.708   2.555   2.899
 5793SOL     OW18277   0.157   0.890   4.228
 5793SOL    HW118278   0.092   0.821   4.258
 5793SOL    HW218279   0.135   0.978   4.270
 5794SOL     OW18280   5.762   4.848   6.006
 5794SOL    HW118281   5.689   4.837   6.074
 5794SOL    HW218282   5.730   4.815   5.917
 5795SOL     OW18283   5.602   4.161   6.584
 5795SOL    HW118284   5.522   4.162   6.524
 5795SOL    HW218285   5.658   4.080   6.564
 5796SOL     OW18286   2.907   2.309   0.617
 5796SOL    HW118287   2.988   2.300   0.560
 5796SOL    HW218288   2.856   2.223   0.616
 5797SOL     OW18289   3.137   2.764   6.089
 5797SOL    HW118290   3.197   2.743   6.011
 5797SOL    HW218291   3.067   2.829   6.061
 5798SOL     OW18292   6.717   5.416   4.490
 5798SOL    HW118293   6.695   5.503   4.448
 5798SOL    HW218294   6.810   5.419   4.526
 5799SOL     OW18295   5.171   0.881   3.776
 5799SOL    HW118296   5.228   0.956   3.807
 5799SOL    HW218297   5.220   0.794   3.789
 5800SOL     OW18298   6.010   5.734   6.825
 5800SOL    HW118299   6.101   5.749   6.864
 5800SOL    HW218300   6.019   5.701   6.731
 5801SOL     OW18301   1.932   0.952   2.836
 5801SOL    HW118302   1.940   0.975   2.933
 5801SOL    HW218303   2.017   0.909   2.805
 5802SOL     OW18304   0.445   2.307   4.535
 5802SOL    HW118305   0.461   2.381   4.470
 5802SOL    HW218306   0.476   2.335   4.626
 5803SOL     OW18307   1.783   4.831   0.848
 5803SOL    HW118308   1.684   4.830   0.863
 5803SOL    HW218309   1.823   4.750   0.892
 5804SOL     OW18310   6.514   3.067   5.760
 5804SOL    HW118311   6.505   3.158   5.719
 5804SOL    HW218312   6.603   3.028   5.735
 5805SOL     OW18313   6.010   3.161   6.896
 5805SOL    HW118314   5.946   3.157   6.973
 5805SOL    HW218315   5.966   3.206   6.818
 5806SOL     OW18316   0.213   6.754   6.650
 5806SOL    HW118317   0.241   6.798   6.735
 5806SOL    HW218318   0.122   6.785   6.625
 5807SOL     OW18319   2.140   3.752   1.950
 5807SOL    HW118320   2.054   3.737   1.901
 5807SOL    HW218321   2.181   3.665   1.975
 5808SOL     OW18322   6.693   2.054   3.240
 5808SOL    HW118323   6.607   2.003   3.233
 5808SOL    HW218324   6.678   2.136   3.295
 5809SOL     OW18325   6.675   3.141   4.151
 5809SOL    HW118326   6.731   3.089   4.086
 5809SOL    HW218327   6.666   3.235   4.119
 5810SOL     OW18328   2.614   2.353   2.747
 5810SOL    HW118329   2.574   2.444   2.734
 5810SOL    HW218330   2.554   2.300   2.808
 5811SOL     OW18331   2.753   1.333   2.450
 5811SOL    HW118332   2.657   1.358   2.467
 5811SOL    HW218333   2.811   1.410   2.476
 5812SOL     OW18334   4.613   0.723   4.691
 5812SOL    HW118335   4.533   0.752   4.638
 5812SOL    HW218336   4.681   0.682   4.628
 5813SOL     OW18337   1.432   1.142   5.290
 5813SOL    HW118338   1.419   1.239   5.269
 5813SOL    HW218339   1.526   1.116   5.267
 5814SOL     OW18340   0.416   5.219   1.069
 5814SOL    HW118341   0.394   5.124   1.093
 5814SOL    HW218342   0.338   5.278   1.089
 5815SOL     OW18343   3.258   1.358   3.427
 5815SOL    HW118344   3.339   1.316   3.386
 5815SOL    HW218345   3.267   1.357   3.527
 5816SOL     OW18346   4.963   6.689   1.022
 5816SOL    HW118347   5.010   6.605   0.994
 5816SOL    HW218348   5.015   6.769   0.989
 5817SOL     OW18349   5.541   2.052   5.692
 5817SOL    HW118350   5.565   2.148   5.680
 5817SOL    HW218351   5.617   1.994   5.664
 5818SOL     OW18352   6.238   6.869   5.655
 5818SOL    HW118353   6.281   6.789   5.615
 5818SOL    HW218354   6.186   6.842   5.736
 5819SOL     OW18355   5.478   0.703   0.999
 5819SOL    HW118356   5.409   0.651   1.049
 5819SOL    HW218357   5.512   0.777   1.056
 5820SOL     OW18358   6.001   5.428   2.853
 5820SOL    HW118359   6.020   5.387   2.764
 5820SOL    HW218360   6.082   5.419   2.912
 5821SOL     OW18361   3.670   6.931   2.128
 5821SOL    HW118362   3.695   6.884   2.044
 5821SOL    HW218363   3.735   7.006   2.145
 5822SOL     OW18364   0.671   1.125   2.458
 5822SOL    HW118365   0.574   1.148   2.457
 5822SOL    HW218366   0.687   1.045   2.400
 5823SOL     OW18367   2.290   2.688   4.363
 5823SOL    HW118368   2.346   2.700   4.281
 5823SOL    HW218369   2.343   2.640   4.433
 5824SOL     OW18370   4.340   0.438   3.535
 5824SOL    HW118371   4.371   0.467   3.445
 5824SOL    HW218372   4.394   0.484   3.606
 5825SOL     OW18373   2.632   1.159   0.818
 5825SOL    HW118374   2.728   1.156   0.790
 5825SOL    HW218375   2.619   1.100   0.897
 5826SOL     OW18376   6.362   0.389   4.496
 5826SOL    HW118377   6.397   0.300   4.526
 5826SOL    HW218378   6.357   0.450   4.575
 5827SOL     OW18379   1.176   5.130   5.359
 5827SOL    HW118380   1.159   5.196   5.433
 5827SOL    HW218381   1.166   5.037   5.395
 5828SOL     OW18382   6.886   2.898   1.738
 5828SOL    HW118383   6.930   2.863   1.656
 5828SOL    HW218384   6.864   2.994   1.726
 5829SOL     OW18385   1.543   1.654   1.810
 5829SOL    HW118386   1.541   1.698   1.720
 5829SOL    HW218387   1.600   1.708   1.872
 5830SOL     OW18388   2.660   0.926   5.634
 5830SOL    HW118389   2.566   0.933   5.667
 5830SOL    HW218390   2.711   0.861   5.690
 5831SOL     OW18391   5.749   6.029   2.981
 5831SOL    HW118392   5.815   6.093   2.942
 5831SOL    HW218393   5.667   6.078   3.010
 5832SOL     OW18394   3.780   3.437   4.732
 5832SOL    HW118395   3.742   3.354   4.692
 5832SOL    HW218396   3.875   3.448   4.703
 5833SOL     OW18397   3.682   3.216   5.044
 5833SOL    HW118398   3.674   3.315   5.034
 5833SOL    HW218399   3.616   3.183   5.111
 5834SOL     OW18400   6.195   0.713   0.484
 5834SOL    HW118401   6.269   0.688   0.547
 5834SOL    HW218402   6.213   0.804   0.446
 5835SOL     OW18403   5.307   2.926   3.988
 5835SOL    HW118404   5.212   2.940   4.016
 5835SOL    HW218405   5.323   2.971   3.901
 5836SOL     OW18406   3.635   6.574   2.523
 5836SOL    HW118407   3.630   6.475   2.535
 5836SOL    HW218408   3.550   6.616   2.555
 5837SOL     OW18409   4.869   5.019   6.216
 5837SOL    HW118410   4.950   5.064   6.179
 5837SOL    HW218411   4.891   4.923   6.235
 5838SOL     OW18412   0.171   2.003   5.359
 5838SOL    HW118413   0.266   2.022   5.382
 5838SOL    HW218414   0.119   1.985   5.443
 5839SOL     OW18415   6.934   2.935   2.652
 5839SOL    HW118416   6.883   2.861   2.610
 5839SOL    HW218417   6.906   3.023   2.612
 5840SOL     OW18418   2.092   5.560   0.227
 5840SOL    HW118419   2.081   5.500   0.306
 5840SOL    HW218420   2.173   5.532   0.174
 5841SOL     OW18421   6.281   2.191   2.615
 5841SOL    HW118422   6.255   2.275   2.662
 5841SOL    HW218423   6.351   2.212   2.546
 5842SOL     OW18424   3.918   2.865   0.417
 5842SOL    HW118425   3.909   2.821   0.507
 5842SOL    HW218426   3.831   2.907   0.392
 5843SOL     OW18427   1.458   2.736   1.469
 5843SOL    HW118428   1.553   2.752   1.495
 5843SOL    HW218429   1.448   2.749   1.370
 5844SOL     OW18430   1.054   6.047   6.965
 5844SOL    HW118431   1.022   5.963   6.921
 5844SOL    HW218432   0.979   6.113   6.970
 5845SOL     OW18433   1.297   1.971   4.597
 5845SOL    HW118434   1.314   1.898   4.531
 5845SOL    HW218435   1.214   2.021   4.572
 5846SOL     OW18436   0.437   3.332   6.352
 5846SOL    HW118437   0.501   3.269   6.308
 5846SOL    HW218438   0.357   3.281   6.384
 5847SOL     OW18439   1.625   2.174   3.541
 5847SOL    HW118440   1.655   2.254   3.489
 5847SOL    HW218441   1.681   2.095   3.518
 5848SOL     OW18442   1.087   4.920   3.970
 5848SOL    HW118443   1.143   4.993   3.931
 5848SOL    HW218444   1.065   4.853   3.899
 5849SOL     OW18445   3.396   6.577   5.231
 5849SOL    HW118446   3.428   6.576   5.326
 5849SOL    HW218447   3.369   6.485   5.204
 5850SOL     OW18448   1.110   3.890   3.225
 5850SOL    HW118449   1.065   3.971   3.262
 5850SOL    HW218450   1.182   3.860   3.288
 5851SOL     OW18451   5.347   2.891   2.080
 5851SOL    HW118452   5.285   2.880   2.002
 5851SOL    HW218453   5.421   2.824   2.073
 5852SOL     OW18454   3.851   5.816   2.523
 5852SOL    HW118455   3.877   5.761   2.603
 5852SOL    HW218456   3.916   5.892   2.513
 5853SOL     OW18457   3.939   4.209   5.464
 5853SOL    HW118458   4.029   4.235   5.500
 5853SOL    HW218459   3.935   4.110   5.452
 5854SOL     OW18460   0.742   1.116   6.668
 5854SOL    HW118461   0.723   1.210   6.694
 5854SOL    HW218462   0.737   1.057   6.748
 5855SOL     OW18463   1.691   0.995   5.018
 5855SOL    HW118464   1.700   1.051   4.935
 5855SOL    HW218465   1.690   1.055   5.098
 5856SOL     OW18466   2.217   5.422   3.403
 5856SOL    HW118467   2.187   5.395   3.312
 5856SOL    HW218468   2.291   5.362   3.433
 5857SOL     OW18469   0.164   2.290   6.083
 5857SOL    HW118470   0.071   2.325   6.073
 5857SOL    HW218471   0.219   2.355   6.135
 5858SOL     OW18472   3.526   6.525   3.267
 5858SOL    HW118473   3.580   6.514   3.183
 5858SOL    HW218474   3.588   6.539   3.344
 5859SOL     OW18475   6.565   5.896   1.465
 5859SOL    HW118476   6.619   5.812   1.464
 5859SOL    HW218477   6.540   5.918   1.559
 5860SOL     OW18478   1.154   3.761   1.266
 5860SOL    HW118479   1.146   3.805   1.176
 5860SOL    HW218480   1.225   3.808   1.319
 5861SOL     OW18481   6.008   2.170   3.916
 5861SOL    HW118482   6.080   2.209   3.859
 5861SOL    HW218483   5.946   2.242   3.945
 5862SOL     OW18484   4.874   4.316   3.267
 5862SOL    HW118485   4.885   4.401   3.318
 5862SOL    HW218486   4.963   4.273   3.255
 5863SOL     OW18487   1.762   1.337   0.932
 5863SOL    HW118488   1.719   1.418   0.891
 5863SOL    HW218489   1.846   1.315   0.882
 5864SOL     OW18490   4.596   5.087   0.605
 5864SOL    HW118491   4.513   5.068   0.554
 5864SOL    HW218492   4.631   5.178   0.581
 5865SOL     OW18493   4.624   1.246   3.566
 5865SOL    HW118494   4.676   1.182   3.509
 5865SOL    HW218495   4.570   1.195   3.633
 5866SOL     OW18496   3.225   1.016   6.601
 5866SOL    HW118497   3.257   1.107   6.628
 5866SOL    HW218498   3.303   0.963   6.567
 5867SOL     OW18499   0.436   2.682   0.887
 5867SOL    HW118500   0.535   2.668   0.895
 5867SOL    HW218501   0.419   2.764   0.832
 5868SOL     OW18502   1.529   7.009   4.720
 5868SOL    HW118503   1.488   0.078   4.716
 5868SOL    HW218504   1.520   6.964   4.631
 5869SOL     OW18505   3.169   4.980   3.701
 5869SOL    HW118506   3.097   4.929   3.655
 5869SOL    HW218507   3.148   5.078   3.698
 5870SOL     OW18508   5.349   4.921   4.500
 5870SOL    HW118509   5.382   5.014   4.516
 5870SOL    HW218510   5.351   4.869   4.585
 5871SOL     OW18511   2.727   3.096   0.311
 5871SOL    HW118512   2.630   3.073   0.314
 5871SOL    HW218513   2.737   3.196   0.313
 5872SOL     OW18514   3.896   5.920   4.362
 5872SOL    HW118515   3.868   5.938   4.268
 5872SOL    HW218516   3.821   5.943   4.425
 5873SOL     OW18517   2.312   3.720   0.074
 5873SOL    HW118518   2.254   3.668   0.010
 5873SOL    HW218519   2.391   3.664   0.099
 5874SOL     OW18520   1.278   4.334   6.914
 5874SOL    HW118521   1.250   4.382   6.831
 5874SOL    HW218522   1.304   4.240   6.890
 5875SOL     OW18523   4.678   2.056   0.140
 5875SOL    HW118524   4.621   2.114   0.199
 5875SOL    HW218525   4.708   2.109   0.061
 5876SOL     OW18526   3.836   4.278   6.188
 5876SOL    HW118527   3.786   4.364   6.199
 5876SOL    HW218528   3.774   4.201   6.202
 5877SOL     OW18529   6.379   0.408   2.006
 5877SOL    HW118530   6.401   0.313   2.030
 5877SOL    HW218531   6.372   0.416   1.907
 5878SOL     OW18532   5.113   4.665   2.215
 5878SOL    HW118533   5.058   4.705   2.142
 5878SOL    HW218534   5.202   4.638   2.178
 5879SOL     OW18535   3.601   3.243   5.501
 5879SOL    HW118536   3.583   3.264   5.597
 5879SOL    HW218537   3.529   3.284   5.444
 5880SOL     OW18538   6.100   2.869   6.202
 5880SOL    HW118539   6.013   2.852   6.249
 5880SOL    HW218540   6.096   2.959   6.158
 5881SOL     OW18541   1.549   6.509   2.536
 5881SOL    HW118542   1.511   6.478   2.449
 5881SOL    HW218543   1.521   6.603   2.552
 5882SOL     OW18544   1.751   4.949   5.604
 5882SOL    HW118545   1.717   4.992   5.688
 5882SOL    HW218546   1.737   5.012   5.528
 5883SOL     OW18547   6.156   4.770   0.176
 5883SOL    HW118548   6.241   4.755   0.226
 5883SOL    HW218549   6.142   4.868   0.163
 5884SOL     OW18550   6.989   1.013   2.706
 5884SOL    HW118551   6.920   1.076   2.741
 5884SOL    HW218552   0.023   0.979   2.781
 5885SOL     OW18553   6.999   5.242   0.783
 5885SOL    HW118554   0.027   5.325   0.810
 5885SOL    HW218555   6.936   5.264   0.708
 5886SOL     OW18556   1.669   4.622   3.628
 5886SOL    HW118557   1.635   4.540   3.674
 5886SOL    HW218558   1.628   4.629   3.537
 5887SOL     OW18559   2.458   3.018   0.647
 5887SOL    HW118560   2.364   2.985   0.637
 5887SOL    HW218561   2.486   3.011   0.742
 5888SOL     OW18562   2.619   6.357   1.652
 5888SOL    HW118563   2.616   6.303   1.736
 5888SOL    HW218564   2.558   6.317   1.584
 5889SOL     OW18565   5.878   1.129   2.066
 5889SOL    HW118566   5.870   1.216   2.018
 5889SOL    HW218567   5.958   1.130   2.125
 5890SOL     OW18568   2.196   5.118   3.447
 5890SOL    HW118569   2.119   5.181   3.453
 5890SOL    HW218570   2.232   5.100   3.539
 5891SOL     OW18571   2.458   3.983   6.405
 5891SOL    HW118572   2.554   4.009   6.417
 5891SOL    HW218573   2.442   3.895   6.449
 5892SOL     OW18574   0.719   3.192   0.418
 5892SOL    HW118575   0.759   3.175   0.327
 5892SOL    HW218576   0.642   3.130   0.432
 5893SOL     OW18577   0.688   6.553   0.949
 5893SOL    HW118578   0.626   6.476   0.967
 5893SOL    HW218579   0.667   6.628   1.013
 5894SOL     OW18580   1.813   6.164   6.883
 5894SOL    HW118581   1.849   6.071   6.887
 5894SOL    HW218582   1.888   6.228   6.866
 5895SOL     OW18583   5.650   4.547   3.278
 5895SOL    HW118584   5.664   4.482   3.204
 5895SOL    HW218585   5.625   4.499   3.362
 5896SOL     OW18586   5.563   2.342   2.152
 5896SOL    HW118587   5.487   2.343   2.087
 5896SOL    HW218588   5.566   2.430   2.201
 5897SOL     OW18589   3.575   2.363   0.507
 5897SOL    HW118590   3.618   2.333   0.592
 5897SOL    HW218591   3.634   2.430   0.461
 5898SOL     OW18592   2.171   1.300   6.596
 5898SOL    HW118593   2.236   1.375   6.612
 5898SOL    HW218594   2.082   1.338   6.570
 5899SOL     OW18595   0.396   6.564   6.565
 5899SOL    HW118596   0.483   6.614   6.571
 5899SOL    HW218597   0.320   6.628   6.573
 5900SOL     OW18598   6.033   6.186   2.611
 5900SOL    HW118599   6.011   6.123   2.537
 5900SOL    HW218600   6.009   6.279   2.584
 5901SOL     OW18601   2.529   0.560   4.800
 5901SOL    HW118602   2.498   0.642   4.751
 5901SOL    HW218603   2.535   0.579   4.897
 5902SOL     OW18604   3.924   3.850   5.751
 5902SOL    HW118605   3.988   3.778   5.726
 5902SOL    HW218606   3.974   3.936   5.762
 5903SOL     OW18607   6.503   1.794   5.513
 5903SOL    HW118608   6.477   1.699   5.528
 5903SOL    HW218609   6.506   1.812   5.415
 5904SOL     OW18610   0.610   5.106   1.344
 5904SOL    HW118611   0.550   5.127   1.422
 5904SOL    HW218612   0.700   5.146   1.359
 5905SOL     OW18613   5.821   2.063   4.697
 5905SOL    HW118614   5.792   2.090   4.789
 5905SOL    HW218615   5.858   2.143   4.650
 5906SOL     OW18616   4.272   1.310   5.835
 5906SOL    HW118617   4.300   1.242   5.768
 5906SOL    HW218618   4.347   1.373   5.852
 5907SOL     OW18619   1.353   3.401   5.849
 5907SOL    HW118620   1.334   3.333   5.920
 5907SOL    HW218621   1.363   3.491   5.891
 5908SOL     OW18622   4.590   3.826   6.205
 5908SOL    HW118623   4.571   3.812   6.107
 5908SOL    HW218624   4.598   3.923   6.224
 5909SOL     OW18625   6.562   4.962   3.684
 5909SOL    HW118626   6.551   4.941   3.781
 5909SOL    HW218627   6.493   4.911   3.631
 5910SOL     OW18628   3.165   4.492   0.704
 5910SOL    HW118629   3.115   4.501   0.618
 5910SOL    HW218630   3.262   4.474   0.684
 5911SOL     OW18631   6.494   6.980   6.923
 5911SOL    HW118632   6.518   6.884   6.912
 5911SOL    HW218633   6.566   0.007   6.973
 5912SOL     OW18634   0.949   3.337   4.987
 5912SOL    HW118635   0.943   3.430   4.949
 5912SOL    HW218636   1.001   3.340   5.073
 5913SOL     OW18637   1.655   2.252   4.625
 5913SOL    HW118638   1.696   2.165   4.597
 5913SOL    HW218639   1.670   2.320   4.553
 5914SOL     OW18640   1.699   6.170   0.608
 5914SOL    HW118641   1.764   6.231   0.654
 5914SOL    HW218642   1.608   6.211   0.610
 5915SOL     OW18643   5.517   3.231   4.417
 5915SOL    HW118644   5.485   3.215   4.324
 5915SOL    HW218645   5.445   3.206   4.482
 5916SOL     OW18646   3.356   0.167   6.139
 5916SOL    HW118647   3.439   0.218   6.119
 5916SOL    HW218648   3.310   0.208   6.218
 5917SOL     OW18649   3.350   4.083   2.617
 5917SOL    HW118650   3.441   4.106   2.654
 5917SOL    HW218651   3.344   4.115   2.523
 5918SOL     OW18652   2.789   2.057   4.162
 5918SOL    HW118653   2.789   1.996   4.241
 5918SOL    HW218654   2.717   2.028   4.098
 5919SOL     OW18655   1.583   2.275   6.721
 5919SOL    HW118656   1.578   2.229   6.810
 5919SOL    HW218657   1.499   2.259   6.670
 5920SOL     OW18658   2.387   5.535   0.177
 5920SOL    HW118659   2.451   5.458   0.172
 5920SOL    HW218660   2.412   5.603   0.108
 5921SOL     OW18661   3.926   5.230   5.994
 5921SOL    HW118662   3.871   5.270   6.067
 5921SOL    HW218663   3.908   5.132   5.987
 5922SOL     OW18664   5.985   4.299   1.337
 5922SOL    HW118665   5.902   4.266   1.383
 5922SOL    HW218666   5.961   4.329   1.244
 5923SOL     OW18667   6.879   0.561   3.446
 5923SOL    HW118668   6.934   0.577   3.364
 5923SOL    HW218669   6.911   0.478   3.492
 5924SOL     OW18670   5.863   1.664   5.106
 5924SOL    HW118671   5.879   1.593   5.038
 5924SOL    HW218672   5.766   1.687   5.109
 5925SOL     OW18673   6.253   5.952   0.474
 5925SOL    HW118674   6.206   5.994   0.396
 5925SOL    HW218675   6.194   5.883   0.515
 5926SOL     OW18676   3.150   5.311   2.547
 5926SOL    HW118677   3.082   5.341   2.613
 5926SOL    HW218678   3.115   5.233   2.496
 5927SOL     OW18679   2.345   5.427   2.083
 5927SOL    HW118680   2.354   5.334   2.047
 5927SOL    HW218681   2.433   5.474   2.079
 5928SOL     OW18682   0.527   6.214   1.247
 5928SOL    HW118683   0.625   6.214   1.226
 5928SOL    HW218684   0.483   6.290   1.201
 5929SOL     OW18685   0.978   6.784   5.174
 5929SOL    HW118686   1.058   6.726   5.189
 5929SOL    HW218687   1.001   6.878   5.200
 5930SOL     OW18688   6.357   1.265   5.152
 5930SOL    HW118689   6.381   1.174   5.117
 5930SOL    HW218690   6.263   1.287   5.126
 5931SOL     OW18691   5.931   4.968   1.031
 5931SOL    HW118692   5.977   5.005   1.112
 5931SOL    HW218693   5.890   5.044   0.979
 5932SOL     OW18694   2.284   0.304   0.173
 5932SOL    HW118695   2.250   0.255   0.092
 5932SOL    HW218696   2.211   0.361   0.211
 5933SOL     OW18697   5.988   3.735   2.415
 5933SOL    HW118698   5.897   3.694   2.422
 5933SOL    HW218699   6.039   3.716   2.499
 5934SOL     OW18700   3.332   4.119   2.341
 5934SOL    HW118701   3.292   4.114   2.249
 5934SOL    HW218702   3.430   4.102   2.335
 5935SOL     OW18703   4.056   3.751   2.885
 5935SOL    HW118704   4.119   3.804   2.942
 5935SOL    HW218705   4.047   3.658   2.922
 5936SOL     OW18706   5.990   6.251   6.279
 5936SOL    HW118707   6.030   6.328   6.229
 5936SOL    HW218708   5.970   6.177   6.215
 5937SOL     OW18709   1.655   4.522   0.237
 5937SOL    HW118710   1.583   4.528   0.168
 5937SOL    HW218711   1.704   4.435   0.226
 5938SOL     OW18712   1.998   4.060   1.063
 5938SOL    HW118713   2.079   4.017   1.104
 5938SOL    HW218714   2.025   4.108   0.979
 5939SOL     OW18715   1.934   1.139   2.649
 5939SOL    HW118716   1.930   1.067   2.719
 5939SOL    HW218717   1.942   1.097   2.559
 5940SOL     OW18718   4.016   5.338   3.668
 5940SOL    HW118719   4.047   5.299   3.754
 5940SOL    HW218720   4.094   5.348   3.606
 5941SOL     OW18721   6.615   3.488   2.754
 5941SOL    HW118722   6.579   3.394   2.750
 5941SOL    HW218723   6.615   3.527   2.662
 5942SOL     OW18724   6.493   1.905   5.255
 5942SOL    HW118725   6.411   1.958   5.234
 5942SOL    HW218726   6.574   1.959   5.234
 5943SOL     OW18727   0.823   5.216   0.757
 5943SOL    HW118728   0.765   5.290   0.789
 5943SOL    HW218729   0.875   5.179   0.834
 5944SOL     OW18730   5.054   2.025   2.855
 5944SOL    HW118731   5.015   2.099   2.908
 5944SOL    HW218732   5.067   2.055   2.760
 5945SOL     OW18733   6.780   4.989   5.873
 5945SOL    HW118734   6.693   4.979   5.923
 5945SOL    HW218735   6.854   4.949   5.927
 5946SOL     OW18736   4.019   2.898   5.239
 5946SOL    HW118737   3.967   2.881   5.155
 5946SOL    HW218738   4.116   2.881   5.222
 5947SOL     OW18739   4.341   3.783   1.467
 5947SOL    HW118740   4.261   3.732   1.499
 5947SOL    HW218741   4.376   3.839   1.542
 5948SOL     OW18742   3.524   5.150   3.601
 5948SOL    HW118743   3.623   5.163   3.599
 5948SOL    HW218744   3.503   5.052   3.590
 5949SOL     OW18745   4.553   4.474   2.650
 5949SOL    HW118746   4.505   4.423   2.721
 5949SOL    HW218747   4.651   4.456   2.657
 5950SOL     OW18748   6.229   2.687   3.855
 5950SOL    HW118749   6.235   2.593   3.889
 5950SOL    HW218750   6.218   2.685   3.755
 5951SOL     OW18751   1.895   6.820   3.981
 5951SOL    HW118752   1.925   6.855   4.070
 5951SOL    HW218753   1.795   6.820   3.977
 5952SOL     OW18754   6.888   6.263   4.857
 5952SOL    HW118755   6.964   6.306   4.808
 5952SOL    HW218756   6.916   6.173   4.891
 5953SOL     OW18757   0.714   3.486   6.339
 5953SOL    HW118758   0.722   3.561   6.273
 5953SOL    HW218759   0.631   3.434   6.322
 5954SOL     OW18760   0.870   5.024   6.824
 5954SOL    HW118761   0.929   4.945   6.809
 5954SOL    HW218762   0.923   5.099   6.864
 5955SOL     OW18763   4.370   5.277   2.759
 5955SOL    HW118764   4.423   5.263   2.676
 5955SOL    HW218765   4.396   5.364   2.801
 5956SOL     OW18766   6.956   1.992   0.097
 5956SOL    HW118767   6.885   1.963   0.033
 5956SOL    HW218768   6.913   2.034   0.177
 5957SOL     OW18769   4.928   0.100   5.448
 5957SOL    HW118770   4.973   0.100   5.359
 5957SOL    HW218771   4.909   0.006   5.476
 5958SOL     OW18772   1.411   5.291   2.798
 5958SOL    HW118773   1.394   5.204   2.752
 5958SOL    HW218774   1.470   5.276   2.877
 5959SOL     OW18775   2.133   0.731   6.732
 5959SOL    HW118776   2.081   0.674   6.669
 5959SOL    HW218777   2.161   0.815   6.686
 5960SOL     OW18778   3.358   6.857   4.888
 5960SOL    HW118779   3.407   6.938   4.855
 5960SOL    HW218780   3.291   6.884   4.957
 5961SOL     OW18781   2.406   1.221   6.085
 5961SOL    HW118782   2.483   1.245   6.026
 5961SOL    HW218783   2.321   1.249   6.041
 5962SOL     OW18784   5.139   4.966   2.748
 5962SOL    HW118785   5.138   5.063   2.723
 5962SOL    HW218786   5.210   4.919   2.695
 5963SOL     OW18787   3.979   3.870   2.022
 5963SOL    HW118788   4.025   3.781   2.031
 5963SOL    HW218789   4.036   3.932   1.967
 5964SOL     OW18790   1.496   3.867   5.882
 5964SOL    HW118791   1.477   3.880   5.785
 5964SOL    HW218792   1.455   3.942   5.934
 5965SOL     OW18793   2.364   1.150   4.094
 5965SOL    HW118794   2.406   1.142   4.003
 5965SOL    HW218795   2.323   1.062   4.119
 5966SOL     OW18796   1.952   6.452   4.159
 5966SOL    HW118797   1.867   6.496   4.128
 5966SOL    HW218798   1.932   6.398   4.241
 5967SOL     OW18799   4.448   6.492   2.169
 5967SOL    HW118800   4.411   6.482   2.077
 5967SOL    HW218801   4.442   6.405   2.218
 5968SOL     OW18802   0.280   2.033   4.196
 5968SOL    HW118803   0.318   2.036   4.289
 5968SOL    HW218804   0.344   1.986   4.135
 5969SOL     OW18805   5.493   2.918   2.746
 5969SOL    HW118806   5.409   2.945   2.699
 5969SOL    HW218807   5.561   2.990   2.734
 5970SOL     OW18808   2.009   3.221   3.642
 5970SOL    HW118809   2.015   3.234   3.543
 5970SOL    HW218810   1.957   3.137   3.661
 5971SOL     OW18811   2.458   6.567   2.710
 5971SOL    HW118812   2.525   6.564   2.636
 5971SOL    HW218813   2.416   6.477   2.721
 5972SOL     OW18814   4.734   6.940   1.632
 5972SOL    HW118815   4.745   6.983   1.542
 5972SOL    HW218816   4.789   6.989   1.700
 5973SOL     OW18817   0.975   4.231   3.153
 5973SOL    HW118818   0.880   4.255   3.134
 5973SOL    HW218819   0.982   4.133   3.171
 5974SOL     OW18820   1.038   3.886   6.483
 5974SOL    HW118821   1.079   3.907   6.395
 5974SOL    HW218822   0.948   3.846   6.469
 5975SOL     OW18823   2.080   3.607   6.954
 5975SOL    HW118824   2.103   3.543   0.007
 5975SOL    HW218825   2.064   3.556   6.870
 5976SOL     OW18826   3.643   3.211   4.626
 5976SOL    HW118827   3.713   3.140   4.629
 5976SOL    HW218828   3.622   3.233   4.531
 5977SOL     OW18829   1.153   3.107   3.370
 5977SOL    HW118830   1.074   3.048   3.361
 5977SOL    HW218831   1.176   3.147   3.281
 5978SOL     OW18832   5.153   5.377   3.174
 5978SOL    HW118833   5.077   5.328   3.133
 5978SOL    HW218834   5.178   5.455   3.116
 5979SOL     OW18835   0.985   1.039   2.169
 5979SOL    HW118836   0.932   1.109   2.120
 5979SOL    HW218837   1.048   0.995   2.105
 5980SOL     OW18838   6.238   4.047   6.435
 5980SOL    HW118839   6.239   4.045   6.335
 5980SOL    HW218840   6.167   3.985   6.469
 5981SOL     OW18841   4.016   1.967   1.380
 5981SOL    HW118842   4.045   2.062   1.364
 5981SOL    HW218843   3.922   1.967   1.413
 5982SOL     OW18844   5.996   2.405   6.699
 5982SOL    HW118845   6.053   2.441   6.624
 5982SOL    HW218846   5.974   2.479   6.762
 5983SOL     OW18847   0.579   1.347   4.945
 5983SOL    HW118848   0.512   1.278   4.916
 5983SOL    HW218849   0.671   1.311   4.933
 5984SOL     OW18850   0.505   6.892   5.539
 5984SOL    HW118851   0.503   6.979   5.490
 5984SOL    HW218852   0.566   6.899   5.617
 5985SOL     OW18853   5.100   3.102   4.288
 5985SOL    HW118854   5.173   3.068   4.347
 5985SOL    HW218855   5.080   3.033   4.218
 5986SOL     OW18856   3.872   3.412   2.192
 5986SOL    HW118857   3.790   3.355   2.203
 5986SOL    HW218858   3.855   3.502   2.230
 5987SOL     OW18859   4.852   6.820   5.440
 5987SOL    HW118860   4.823   6.766   5.361
 5987SOL    HW218861   4.943   6.791   5.469
 5988SOL     OW18862   3.710   0.018   4.668
 5988SOL    HW118863   3.748   6.959   4.714
 5988SOL    HW218864   3.784   0.080   4.642
 5989SOL     OW18865   2.953   1.224   6.723
 5989SOL    HW118866   2.971   1.292   6.652
 5989SOL    HW218867   2.921   1.270   6.806
 5990SOL     OW18868   3.397   4.907   2.360
 5990SOL    HW118869   3.380   5.006   2.354
 5990SOL    HW218870   3.310   4.858   2.359
 5991SOL     OW18871   3.370   5.511   3.924
 5991SOL    HW118872   3.399   5.416   3.913
 5991SOL    HW218873   3.283   5.514   3.973
 5992SOL     OW18874   4.308   1.820   4.674
 5992SOL    HW118875   4.374   1.786   4.607
 5992SOL    HW218876   4.238   1.875   4.627
 5993SOL     OW18877   3.805   5.975   4.105
 5993SOL    HW118878   3.876   5.912   4.074
 5993SOL    HW218879   3.785   6.041   4.033
 5994SOL     OW18880   6.159   2.749   1.393
 5994SOL    HW118881   6.069   2.740   1.437
 5994SOL    HW218882   6.147   2.752   1.294
 5995SOL     OW18883   0.913   4.654   1.397
 5995SOL    HW118884   0.896   4.711   1.317
 5995SOL    HW218885   0.876   4.698   1.479
 5996SOL     OW18886   0.434   5.570   5.822
 5996SOL    HW118887   0.343   5.563   5.780
 5996SOL    HW218888   0.427   5.624   5.906
 5997SOL     OW18889   0.446   0.464   1.392
 5997SOL    HW118890   0.436   0.375   1.438
 5997SOL    HW218891   0.371   0.524   1.421
 5998SOL     OW18892   4.538   2.132   3.208
 5998SOL    HW118893   4.630   2.166   3.192
 5998SOL    HW218894   4.541   2.055   3.272
 5999SOL     OW18895   2.317   2.856   3.287
 5999SOL    HW118896   2.279   2.898   3.370
 5999SOL    HW218897   2.389   2.914   3.250
 6000SOL     OW18898   4.635   7.018   3.106
 6000SOL    HW118899   4.551   6.992   3.058
 6000SOL    HW218900   4.613   0.032   3.196
 6001SOL     OW18901   5.890   1.758   0.030
 6001SOL    HW118902   5.932   1.843   7.021
 6001SOL    HW218903   5.873   1.762   0.128
 6002SOL     OW18904   1.767   0.396   1.662
 6002SOL    HW118905   1.668   0.408   1.669
 6002SOL    HW218906   1.812   0.454   1.730
 6003SOL     OW18907   5.254   4.013   3.825
 6003SOL    HW118908   5.159   3.999   3.856
 6003SOL    HW218909   5.269   4.110   3.806
 6004SOL     OW18910   0.236   3.516   1.477
 6004SOL    HW118911   0.324   3.494   1.519
 6004SOL    HW218912   0.163   3.466   1.524
 6005SOL     OW18913   2.067   6.041   2.729
 6005SOL    HW118914   2.037   5.958   2.682
 6005SOL    HW218915   2.165   6.054   2.715
 6006SOL     OW18916   2.095   6.015   6.967
 6006SOL    HW118917   2.137   6.106   6.965
 6006SOL    HW218918   2.156   5.951   7.015
 6007SOL     OW18919   5.423   2.741   4.440
 6007SOL    HW118920   5.423   2.641   4.430
 6007SOL    HW218921   5.406   2.765   4.536
 6008SOL     OW18922   4.964   4.336   1.161
 6008SOL    HW118923   4.919   4.346   1.250
 6008SOL    HW218924   5.028   4.411   1.147
 6009SOL     OW18925   3.466   1.786   4.156
 6009SOL    HW118926   3.516   1.706   4.188
 6009SOL    HW218927   3.472   1.859   4.225
 6010SOL     OW18928   1.424   2.999   3.414
 6010SOL    HW118929   1.464   3.089   3.395
 6010SOL    HW218930   1.325   3.004   3.403
 6011SOL     OW18931   6.661   2.737   1.645
 6011SOL    HW118932   6.673   2.642   1.675
 6011SOL    HW218933   6.726   2.796   1.693
 6012SOL     OW18934   0.247   3.163   1.125
 6012SOL    HW118935   0.172   3.130   1.067
 6012SOL    HW218936   0.322   3.098   1.124
 6013SOL     OW18937   5.724   0.890   1.997
 6013SOL    HW118938   5.731   0.843   2.085
 6013SOL    HW218939   5.800   0.953   1.986
 6014SOL     OW18940   5.289   0.563   1.141
 6014SOL    HW118941   5.356   0.569   1.215
 6014SOL    HW218942   5.197   0.571   1.179
 6015SOL     OW18943   5.288   1.264   4.690
 6015SOL    HW118944   5.190   1.281   4.687
 6015SOL    HW218945   5.309   1.207   4.769
 6016SOL     OW18946   1.410   6.832   5.490
 6016SOL    HW118947   1.466   6.909   5.520
 6016SOL    HW218948   1.452   6.747   5.521
 6017SOL     OW18949   6.907   3.940   2.343
 6017SOL    HW118950   6.918   4.040   2.341
 6017SOL    HW218951   6.869   3.913   2.432
 6018SOL     OW18952   2.359   5.541   1.215
 6018SOL    HW118953   2.290   5.549   1.288
 6018SOL    HW218954   2.313   5.537   1.127
 6019SOL     OW18955   5.426   6.599   3.358
 6019SOL    HW118956   5.505   6.561   3.407
 6019SOL    HW218957   5.342   6.579   3.408
 6020SOL     OW18958   2.631   0.149   2.873
 6020SOL    HW118959   2.703   0.210   2.841
 6020SOL    HW218960   2.625   0.153   2.973
 6021SOL     OW18961   4.367   0.844   3.579
 6021SOL    HW118962   4.445   0.822   3.520
 6021SOL    HW218963   4.397   0.903   3.653
 6022SOL     OW18964   4.658   1.171   5.846
 6022SOL    HW118965   4.711   1.102   5.798
 6022SOL    HW218966   4.562   1.144   5.849
 6023SOL     OW18967   0.587   1.948   2.592
 6023SOL    HW118968   0.652   1.890   2.542
 6023SOL    HW218969   0.542   1.895   2.663
 6024SOL     OW18970   0.107   5.670   2.610
 6024SOL    HW118971   0.183   5.611   2.635
 6024SOL    HW218972   0.056   5.629   2.535
 6025SOL     OW18973   3.922   2.143   2.130
 6025SOL    HW118974   3.914   2.169   2.226
 6025SOL    HW218975   3.835   2.160   2.084
 6026SOL     OW18976   0.730   4.533   6.081
 6026SOL    HW118977   0.717   4.477   5.999
 6026SOL    HW218978   0.812   4.588   6.071
 6027SOL     OW18979   3.089   3.220   0.241
 6027SOL    HW118980   3.145   3.228   0.324
 6027SOL    HW218981   3.039   3.134   0.243
 6028SOL     OW18982   1.125   4.630   6.993
 6028SOL    HW118983   1.081   4.541   6.977
 6028SOL    HW218984   1.183   4.624   0.053
 6029SOL     OW18985   1.324   5.060   1.837
 6029SOL    HW118986   1.235   5.105   1.825
 6029SOL    HW218987   1.314   4.980   1.896
 6030SOL     OW18988   1.776   0.140   1.495
 6030SOL    HW118989   1.860   0.194   1.505
 6030SOL    HW218990   1.728   0.136   1.583
 6031SOL     OW18991   5.636   0.878   4.319
 6031SOL    HW118992   5.544   0.893   4.284
 6031SOL    HW218993   5.632   0.824   4.403
 6032SOL     OW18994   0.149   3.532   2.548
 6032SOL    HW118995   0.152   3.436   2.576
 6032SOL    HW218996   0.239   3.560   2.515
 6033SOL     OW18997   0.127   0.046   4.612
 6033SOL    HW118998   0.176   0.016   4.693
 6033SOL    HW218999   0.080   6.989   4.570
 6034SOL     OW19000   2.135   4.228   4.886
 6034SOL    HW119001   2.208   4.171   4.924
 6034SOL    HW219002   2.125   4.310   4.942
 6035SOL     OW19003   5.704   0.048   3.937
 6035SOL    HW119004   5.655   0.135   3.928
 6035SOL    HW219005   5.659   7.001   3.880
 6036SOL     OW19006   0.815   1.120   4.085
 6036SOL    HW119007   0.857   1.063   4.155
 6036SOL    HW219008   0.869   1.116   4.001
 6037SOL     OW19009   6.948   5.843   4.819
 6037SOL    HW119010   6.981   5.936   4.833
 6037SOL    HW219011   0.004   5.781   4.811
 6038SOL     OW19012   5.590   4.400   6.205
 6038SOL    HW119013   5.646   4.320   6.185
 6038SOL    HW219014   5.555   4.438   6.119
 6039SOL     OW19015   4.103   3.223   4.054
 6039SOL    HW119016   4.088   3.170   4.137
 6039SOL    HW219017   4.027   3.209   3.990
 6040SOL     OW19018   1.433   1.335   6.973
 6040SOL    HW119019   1.340   1.367   6.984
 6040SOL    HW219020   1.470   1.308   0.041
 6041SOL     OW19021   0.764   2.441   0.697
 6041SOL    HW119022   0.861   2.464   0.687
 6041SOL    HW219023   0.728   2.483   0.780
 6042SOL     OW19024   5.469   5.497   4.508
 6042SOL    HW119025   5.384   5.449   4.528
 6042SOL    HW219026   5.450   5.579   4.455
 6043SOL     OW19027   0.355   4.260   4.073
 6043SOL    HW119028   0.261   4.229   4.058
 6043SOL    HW219029   0.360   4.308   4.161
 6044SOL     OW19030   0.717   0.382   1.584
 6044SOL    HW119031   0.628   0.338   1.576
 6044SOL    HW219032   0.789   0.313   1.587
 6045SOL     OW19033   7.019   4.180   0.802
 6045SOL    HW119034   0.085   4.152   0.841
 6045SOL    HW219035   6.989   4.113   0.735
 6046SOL     OW19036   2.550   3.421   0.699
 6046SOL    HW119037   2.468   3.449   0.649
 6046SOL    HW219038   2.596   3.348   0.649
 6047SOL     OW19039   0.276   6.078   4.700
 6047SOL    HW119040   0.210   6.094   4.627
 6047SOL    HW219041   0.315   5.986   4.690
 6048SOL     OW19042   4.845   5.904   5.116
 6048SOL    HW119043   4.912   5.886   5.188
 6048SOL    HW219044   4.819   5.817   5.074
 6049SOL     OW19045   6.339   5.384   0.816
 6049SOL    HW119046   6.264   5.446   0.840
 6049SOL    HW219047   6.425   5.436   0.812
 6050SOL     OW19048   5.531   4.637   5.451
 6050SOL    HW119049   5.475   4.575   5.396
 6050SOL    HW219050   5.571   4.585   5.527
 6051SOL     OW19051   2.331   1.857   2.912
 6051SOL    HW119052   2.365   1.893   2.998
 6051SOL    HW219053   2.384   1.776   2.886
 6052SOL     OW19054   6.621   1.151   0.338
 6052SOL    HW119055   6.657   1.175   0.428
 6052SOL    HW219056   6.694   1.162   0.270
 6053SOL     OW19057   1.916   0.263   5.899
 6053SOL    HW119058   1.880   0.292   5.987
 6053SOL    HW219059   1.873   0.177   5.872
 6054SOL     OW19060   2.037   4.371   6.659
 6054SOL    HW119061   2.041   4.398   6.563
 6054SOL    HW219062   2.127   4.381   6.701
 6055SOL     OW19063   4.828   0.686   3.912
 6055SOL    HW119064   4.799   0.635   3.993
 6055SOL    HW219065   4.834   0.624   3.834
 6056SOL     OW19066   5.233   3.681   6.422
 6056SOL    HW119067   5.293   3.641   6.492
 6056SOL    HW219068   5.196   3.768   6.455
 6057SOL     OW19069   3.363   0.416   6.356
 6057SOL    HW119070   3.352   0.334   6.411
 6057SOL    HW219071   3.455   0.452   6.367
 6058SOL     OW19072   5.284   1.202   4.061
 6058SOL    HW119073   5.257   1.297   4.076
 6058SOL    HW219074   5.202   1.144   4.055
 6059SOL     OW19075   6.785   6.693   6.009
 6059SOL    HW119076   6.707   6.755   6.004
 6059SOL    HW219077   6.840   6.702   5.926
 6060SOL     OW19078   3.146   6.143   6.801
 6060SOL    HW119079   3.208   6.214   6.834
 6060SOL    HW219080   3.071   6.185   6.749
 6061SOL     OW19081   1.750   2.013   6.670
 6061SOL    HW119082   1.707   1.939   6.720
 6061SOL    HW219083   1.695   2.096   6.679
 6062SOL     OW19084   1.355   0.073   4.356
 6062SOL    HW119085   1.383   0.084   4.260
 6062SOL    HW219086   1.385   0.152   4.409
 6063SOL     OW19087   5.321   6.253   6.840
 6063SOL    HW119088   5.305   6.213   6.749
 6063SOL    HW219089   5.236   6.293   6.874
 6064SOL     OW19090   0.727   5.501   3.407
 6064SOL    HW119091   0.740   5.573   3.339
 6064SOL    HW219092   0.732   5.411   3.362
 6065SOL     OW19093   5.799   6.432   1.338
 6065SOL    HW119094   5.782   6.421   1.240
 6065SOL    HW219095   5.896   6.420   1.357
 6066SOL     OW19096   4.682   2.363   6.271
 6066SOL    HW119097   4.629   2.318   6.199
 6066SOL    HW219098   4.747   2.427   6.230
 6067SOL     OW19099   5.424   2.050   6.660
 6067SOL    HW119100   5.439   2.145   6.688
 6067SOL    HW219101   5.326   2.034   6.649
 6068SOL     OW19102   4.847   1.999   5.516
 6068SOL    HW119103   4.836   1.906   5.552
 6068SOL    HW219104   4.882   2.059   5.589
 6069SOL     OW19105   6.080   3.998   4.224
 6069SOL    HW119106   6.039   3.913   4.194
 6069SOL    HW219107   6.178   3.985   4.238
 6070SOL     OW19108   4.004   2.912   6.805
 6070SOL    HW119109   3.929   2.944   6.864
 6070SOL    HW219110   4.045   2.830   6.845
 6071SOL     OW19111   4.858   6.368   5.037
 6071SOL    HW119112   4.809   6.455   5.040
 6071SOL    HW219113   4.796   6.296   5.007
 6072SOL     OW19114   0.121   1.442   0.867
 6072SOL    HW119115   0.216   1.472   0.857
 6072SOL    HW219116   0.062   1.523   0.871
 6073SOL     OW19117   6.413   1.852   1.243
 6073SOL    HW119118   6.332   1.909   1.256
 6073SOL    HW219119   6.492   1.895   1.285
 6074SOL     OW19120   0.513   6.984   5.144
 6074SOL    HW119121   0.593   6.987   5.084
 6074SOL    HW219122   0.486   6.889   5.159
 6075SOL     OW19123   5.225   4.754   6.455
 6075SOL    HW119124   5.242   4.767   6.552
 6075SOL    HW219125   5.281   4.678   6.421
 6076SOL     OW19126   2.832   6.888   4.257
 6076SOL    HW119127   2.864   6.981   4.273
 6076SOL    HW219128   2.836   6.837   4.343
 6077SOL     OW19129   5.563   5.447   2.777
 6077SOL    HW119130   5.596   5.363   2.820
 6077SOL    HW219131   5.592   5.450   2.682
 6078SOL     OW19132   2.172   4.634   3.619
 6078SOL    HW119133   2.128   4.722   3.604
 6078SOL    HW219134   2.263   4.635   3.578
 6079SOL     OW19135   2.467   1.736   1.044
 6079SOL    HW119136   2.402   1.660   1.054
 6079SOL    HW219137   2.473   1.763   0.948
 6080SOL     OW19138   5.401   2.407   2.647
 6080SOL    HW119139   5.431   2.327   2.699
 6080SOL    HW219140   5.480   2.465   2.628
 6081SOL     OW19141   0.517   3.542   2.801
 6081SOL    HW119142   0.443   3.486   2.838
 6081SOL    HW219143   0.603   3.493   2.808
 6082SOL     OW19144   3.543   2.092   4.312
 6082SOL    HW119145   3.546   2.055   4.404
 6082SOL    HW219146   3.521   2.190   4.316
 6083SOL     OW19147   1.713   0.017   0.691
 6083SOL    HW119148   1.659   6.977   0.633
 6083SOL    HW219149   1.753   0.089   0.635
 6084SOL     OW19150   0.423   4.920   5.832
 6084SOL    HW119151   0.354   4.987   5.860
 6084SOL    HW219152   0.381   4.829   5.826
 6085SOL     OW19153   5.034   5.093   1.588
 6085SOL    HW119154   4.939   5.115   1.611
 6085SOL    HW219155   5.042   4.994   1.572
 6086SOL     OW19156   2.980   1.720   3.098
 6086SOL    HW119157   3.053   1.765   3.047
 6086SOL    HW219158   2.971   1.763   3.188
 6087SOL     OW19159   3.935   6.813   0.799
 6087SOL    HW119160   3.864   6.882   0.817
 6087SOL    HW219161   3.996   6.806   0.878
 6088SOL     OW19162   6.852   6.804   5.748
 6088SOL    HW119163   6.876   6.854   5.831
 6088SOL    HW219164   6.930   6.806   5.685
 6089SOL     OW19165   6.449   3.334   0.301
 6089SOL    HW119166   6.457   3.321   0.400
 6089SOL    HW219167   6.406   3.253   0.260
 6090SOL     OW19168   0.436   5.645   3.747
 6090SOL    HW119169   0.535   5.650   3.734
 6090SOL    HW219170   0.390   5.645   3.658
 6091SOL     OW19171   6.177   1.996   1.297
 6091SOL    HW119172   6.209   2.020   1.389
 6091SOL    HW219173   6.078   1.986   1.298
 6092SOL     OW19174   1.506   2.701   0.898
 6092SOL    HW119175   1.603   2.686   0.914
 6092SOL    HW219176   1.489   2.707   0.800
 6093SOL     OW19177   1.264   3.877   0.459
 6093SOL    HW119178   1.291   3.829   0.542
 6093SOL    HW219179   1.346   3.905   0.408
 6094SOL     OW19180   1.057   0.772   0.963
 6094SOL    HW119181   1.004   0.787   0.880
 6094SOL    HW219182   1.043   0.849   1.026
 6095SOL     OW19183   6.362   3.806   5.371
 6095SOL    HW119184   6.288   3.779   5.310
 6095SOL    HW219185   6.403   3.892   5.338
 6096SOL     OW19186   3.978   1.468   2.725
 6096SOL    HW119187   3.994   1.393   2.661
 6096SOL    HW219188   4.051   1.470   2.794
 6097SOL     OW19189   2.772   1.888   2.191
 6097SOL    HW119190   2.835   1.965   2.194
 6097SOL    HW219191   2.760   1.859   2.096
 6098SOL     OW19192   1.448   0.923   6.340
 6098SOL    HW119193   1.408   0.900   6.251
 6098SOL    HW219194   1.378   0.962   6.399
 6099SOL     OW19195   5.802   4.835   4.848
 6099SOL    HW119196   5.871   4.770   4.818
 6099SOL    HW219197   5.785   4.824   4.946
 6100SOL     OW19198   6.844   2.074   0.345
 6100SOL    HW119199   6.851   1.998   0.410
 6100SOL    HW219200   6.821   2.158   0.395
 6101SOL     OW19201   5.633   0.695   3.774
 6101SOL    HW119202   5.686   0.755   3.714
 6101SOL    HW219203   5.673   0.696   3.866
 6102SOL     OW19204   3.087   0.435   5.406
 6102SOL    HW119205   3.010   0.497   5.420
 6102SOL    HW219206   3.082   0.396   5.314
 6103SOL     OW19207   6.411   1.152   5.420
 6103SOL    HW119208   6.483   1.083   5.411
 6103SOL    HW219209   6.382   1.182   5.329
 6104SOL     OW19210   1.353   3.486   1.002
 6104SOL    HW119211   1.301   3.431   1.067
 6104SOL    HW219212   1.344   3.583   1.025
 6105SOL     OW19213   3.755   4.943   4.478
 6105SOL    HW119214   3.671   4.965   4.428
 6105SOL    HW219215   3.830   4.930   4.414
 6106SOL     OW19216   3.174   5.142   4.138
 6106SOL    HW119217   3.100   5.209   4.128
 6106SOL    HW219218   3.221   5.157   4.225
 6107SOL     OW19219   2.284   4.922   5.731
 6107SOL    HW119220   2.207   4.910   5.794
 6107SOL    HW219221   2.249   4.950   5.641
 6108SOL     OW19222   5.978   1.814   4.554
 6108SOL    HW119223   5.885   1.825   4.590
 6108SOL    HW219224   5.977   1.746   4.481
 6109SOL     OW19225   6.661   4.335   2.164
 6109SOL    HW119226   6.599   4.332   2.085
 6109SOL    HW219227   6.702   4.426   2.171
 6110SOL     OW19228   3.283   2.145   3.813
 6110SOL    HW119229   3.380   2.143   3.836
 6110SOL    HW219230   3.273   2.126   3.715
 6111SOL     OW19231   0.382   4.373   2.859
 6111SOL    HW119232   0.379   4.356   2.957
 6111SOL    HW219233   0.305   4.327   2.815
 6112SOL     OW19234   0.978   2.071   1.312
 6112SOL    HW119235   0.991   2.148   1.250
 6112SOL    HW219236   1.053   2.006   1.301
 6113SOL     OW19237   2.226   5.312   5.455
 6113SOL    HW119238   2.194   5.267   5.372
 6113SOL    HW219239   2.150   5.318   5.520
 6114SOL     OW19240   5.301   5.809   1.144
 6114SOL    HW119241   5.341   5.826   1.054
 6114SOL    HW219242   5.347   5.731   1.187
 6115SOL     OW19243   6.479   4.339   2.425
 6115SOL    HW119244   6.434   4.425   2.451
 6115SOL    HW219245   6.490   4.335   2.326
 6116SOL     OW19246   3.071   2.284   1.198
 6116SOL    HW119247   2.982   2.302   1.239
 6116SOL    HW219248   3.064   2.290   1.099
 6117SOL     OW19249   5.680   6.501   3.772
 6117SOL    HW119250   5.646   6.558   3.847
 6117SOL    HW219251   5.770   6.465   3.796
 6118SOL     OW19252   5.988   0.444   2.897
 6118SOL    HW119253   5.925   0.367   2.893
 6118SOL    HW219254   5.941   0.527   2.866
 6119SOL     OW19255   5.775   5.527   4.082
 6119SOL    HW119256   5.778   5.429   4.062
 6119SOL    HW219257   5.763   5.540   4.181
 6120SOL     OW19258   3.186   1.116   3.563
 6120SOL    HW119259   3.279   1.085   3.542
 6120SOL    HW219260   3.142   1.150   3.479
 6121SOL     OW19261   6.512   2.002   4.475
 6121SOL    HW119262   6.604   2.041   4.469
 6121SOL    HW219263   6.518   1.902   4.476
 6122SOL     OW19264   4.677   6.032   4.283
 6122SOL    HW119265   4.633   5.953   4.327
 6122SOL    HW219266   4.607   6.099   4.257
 6123SOL     OW19267   6.567   1.655   2.623
 6123SOL    HW119268   6.511   1.728   2.662
 6123SOL    HW219269   6.663   1.674   2.642
 6124SOL     OW19270   2.807   0.138   5.483
 6124SOL    HW119271   2.710   0.113   5.494
 6124SOL    HW219272   2.814   0.236   5.463
 6125SOL     OW19273   1.411   4.915   2.373
 6125SOL    HW119274   1.444   4.976   2.301
 6125SOL    HW219275   1.475   4.919   2.451
 6126SOL     OW19276   4.081   5.600   2.344
 6126SOL    HW119277   4.121   5.692   2.341
 6126SOL    HW219278   4.078   5.568   2.438
 6127SOL     OW19279   2.107   4.573   2.119
 6127SOL    HW119280   2.111   4.568   2.019
 6127SOL    HW219281   2.028   4.521   2.151
 6128SOL     OW19282   4.672   3.020   1.151
 6128SOL    HW119283   4.604   3.085   1.186
 6128SOL    HW219284   4.626   2.934   1.126
 6129SOL     OW19285   5.940   4.141   3.303
 6129SOL    HW119286   5.913   4.233   3.331
 6129SOL    HW219287   5.991   4.097   3.377
 6130SOL     OW19288   5.369   4.632   2.143
 6130SOL    HW119289   5.440   4.579   2.190
 6130SOL    HW219290   5.404   4.724   2.123
 6131SOL     OW19291   6.709   1.185   5.269
 6131SOL    HW119292   6.679   1.202   5.363
 6131SOL    HW219293   6.636   1.209   5.206
 6132SOL     OW19294   6.637   2.591   0.657
 6132SOL    HW119295   6.537   2.592   0.656
 6132SOL    HW219296   6.672   2.649   0.583
 6133SOL     OW19297   1.395   4.614   0.515
 6133SOL    HW119298   1.465   4.666   0.466
 6133SOL    HW219299   1.412   4.618   0.613
 6134SOL     OW19300   4.471   3.529   0.406
 6134SOL    HW119301   4.528   3.453   0.374
 6134SOL    HW219302   4.503   3.559   0.496
 6135SOL     OW19303   5.628   0.518   2.281
 6135SOL    HW119304   5.538   0.520   2.325
 6135SOL    HW219305   5.670   0.429   2.295
 6136SOL     OW19306   0.377   1.543   2.397
 6136SOL    HW119307   0.329   1.515   2.480
 6136SOL    HW219308   0.358   1.639   2.379
 6137SOL     OW19309   3.249   6.449   5.801
 6137SOL    HW119310   3.174   6.393   5.837
 6137SOL    HW219311   3.212   6.520   5.741
 6138SOL     OW19312   4.737   0.747   3.145
 6138SOL    HW119313   4.716   0.685   3.221
 6138SOL    HW219314   4.655   0.761   3.090
 6139SOL     OW19315   2.638   5.625   3.582
 6139SOL    HW119316   2.732   5.656   3.589
 6139SOL    HW219317   2.630   5.558   3.508
 6140SOL     OW19318   1.470   5.886   1.027
 6140SOL    HW119319   1.565   5.860   1.042
 6140SOL    HW219320   1.465   5.950   0.951
 6141SOL     OW19321   6.727   5.974   6.089
 6141SOL    HW119322   6.649   5.954   6.147
 6141SOL    HW219323   6.712   6.061   6.041
 6142SOL     OW19324   0.706   3.734   3.067
 6142SOL    HW119325   0.699   3.636   3.049
 6142SOL    HW219326   0.801   3.759   3.085
 6143SOL     OW19327   6.661   3.977   6.770
 6143SOL    HW119328   6.588   3.951   6.707
 6143SOL    HW219329   6.744   3.927   6.748
 6144SOL     OW19330   0.131   4.777   4.663
 6144SOL    HW119331   0.113   4.755   4.567
 6144SOL    HW219332   0.179   4.864   4.669
 6145SOL     OW19333   5.744   5.406   3.476
 6145SOL    HW119334   5.793   5.491   3.495
 6145SOL    HW219335   5.648   5.427   3.456
 6146SOL     OW19336   5.431   2.353   3.526
 6146SOL    HW119337   5.506   2.289   3.536
 6146SOL    HW219338   5.371   2.324   3.451
 6147SOL     OW19339   1.032   3.693   3.049
 6147SOL    HW119340   1.065   3.766   3.109
 6147SOL    HW219341   1.022   3.609   3.102
 6148SOL     OW19342   6.297   5.542   3.214
 6148SOL    HW119343   6.355   5.502   3.285
 6148SOL    HW219344   6.201   5.529   3.238
 6149SOL     OW19345   2.189   6.886   4.473
 6149SOL    HW119346   2.132   6.927   4.401
 6149SOL    HW219347   2.230   6.802   4.439
 6150SOL     OW19348   4.152   5.591   5.951
 6150SOL    HW119349   4.119   5.628   5.864
 6150SOL    HW219350   4.209   5.660   5.996
 6151SOL     OW19351   4.447   0.499   5.635
 6151SOL    HW119352   4.443   0.405   5.600
 6151SOL    HW219353   4.542   0.523   5.654
 6152SOL     OW19354   6.883   4.780   5.220
 6152SOL    HW119355   6.833   4.862   5.251
 6152SOL    HW219356   6.980   4.789   5.244
 6153SOL     OW19357   5.041   4.300   6.722
 6153SOL    HW119358   5.074   4.213   6.758
 6153SOL    HW219359   5.055   4.302   6.623
 6154SOL     OW19360   5.055   3.004   3.548
 6154SOL    HW119361   5.061   3.059   3.631
 6154SOL    HW219362   5.140   3.014   3.496
 6155SOL     OW19363   1.877   4.164   4.108
 6155SOL    HW119364   1.931   4.169   4.191
 6155SOL    HW219365   1.780   4.172   4.131
 6156SOL     OW19366   6.006   0.787   4.306
 6156SOL    HW119367   5.963   0.773   4.395
 6156SOL    HW219368   5.980   0.713   4.244
 6157SOL     OW19369   1.148   1.259   3.633
 6157SOL    HW119370   1.078   1.196   3.598
 6157SOL    HW219371   1.108   1.349   3.648
 6158SOL     OW19372   4.820   0.224   0.734
 6158SOL    HW119373   4.799   0.247   0.829
 6158SOL    HW219374   4.894   0.157   0.732
 6159SOL     OW19375   5.658   3.168   6.841
 6159SOL    HW119376   5.617   3.201   6.756
 6159SOL    HW219377   5.646   3.236   6.913
 6160SOL     OW19378   6.551   4.541   1.313
 6160SOL    HW119379   6.630   4.570   1.260
 6160SOL    HW219380   6.490   4.619   1.327
 6161SOL     OW19381   5.530   0.712   6.570
 6161SOL    HW119382   5.552   0.615   6.586
 6161SOL    HW219383   5.584   0.769   6.632
 6162SOL     OW19384   5.795   5.255   4.083
 6162SOL    HW119385   5.712   5.200   4.073
 6162SOL    HW219386   5.871   5.195   4.108
 6163SOL     OW19387   6.664   3.862   2.156
 6163SOL    HW119388   6.750   3.887   2.201
 6163SOL    HW219389   6.657   3.762   2.151
 6164SOL     OW19390   4.452   2.700   0.660
 6164SOL    HW119391   4.391   2.778   0.643
 6164SOL    HW219392   4.407   2.616   0.630
 6165SOL     OW19393   4.182   6.659   0.922
 6165SOL    HW119394   4.208   6.575   0.874
 6165SOL    HW219395   4.243   6.734   0.894
 6166SOL     OW19396   4.008   1.808   0.170
 6166SOL    HW119397   3.920   1.824   0.213
 6166SOL    HW219398   4.079   1.800   0.240
 6167SOL     OW19399   0.096   5.300   3.385
 6167SOL    HW119400   0.150   5.300   3.301
 6167SOL    HW219401   0.033   5.222   3.385
 6168SOL     OW19402   0.681   2.560   0.944
 6168SOL    HW119403   0.760   2.614   0.973
 6168SOL    HW219404   0.668   2.484   1.006
 6169SOL     OW19405   1.897   4.429   1.619
 6169SOL    HW119406   1.835   4.360   1.580
 6169SOL    HW219407   1.984   4.386   1.641
 6170SOL     OW19408   0.003   2.005   3.880
 6170SOL    HW119409   6.999   1.951   3.960
 6170SOL    HW219410   6.951   2.068   3.858
 6171SOL     OW19411   5.916   0.996   6.649
 6171SOL    HW119412   5.955   1.023   6.737
 6171SOL    HW219413   5.988   0.955   6.592
 6172SOL     OW19414   0.968   4.302   4.006
 6172SOL    HW119415   1.026   4.225   3.978
 6172SOL    HW219416   1.001   4.385   3.962
 6173SOL     OW19417   5.942   5.873   3.162
 6173SOL    HW119418   6.002   5.804   3.122
 6173SOL    HW219419   5.888   5.917   3.090
 6174SOL     OW19420   6.345   2.574   2.240
 6174SOL    HW119421   6.403   2.551   2.319
 6174SOL    HW219422   6.402   2.577   2.158
 6175SOL     OW19423   3.983   1.806   6.876
 6175SOL    HW119424   4.045   1.780   6.802
 6175SOL    HW219425   4.031   1.863   6.942
 6176SOL     OW19426   3.150   3.490   5.950
 6176SOL    HW119427   3.220   3.560   5.936
 6176SOL    HW219428   3.160   3.452   6.042
 6177SOL     OW19429   5.679   5.886   1.701
 6177SOL    HW119430   5.584   5.875   1.730
 6177SOL    HW219431   5.725   5.797   1.701
 6178SOL     OW19432   4.159   4.700   1.902
 6178SOL    HW119433   4.147   4.705   2.001
 6178SOL    HW219434   4.191   4.608   1.877
 6179SOL     OW19435   5.476   4.824   4.993
 6179SOL    HW119436   5.473   4.885   5.072
 6179SOL    HW219437   5.536   4.746   5.012
 6180SOL     OW19438   2.626   4.280   6.416
 6180SOL    HW119439   2.621   4.252   6.321
 6180SOL    HW219440   2.694   4.225   6.464
 6181SOL     OW19441   6.065   6.582   6.634
 6181SOL    HW119442   5.989   6.565   6.697
 6181SOL    HW219443   6.077   6.681   6.623
 6182SOL     OW19444   2.920   2.644   6.771
 6182SOL    HW119445   2.977   2.562   6.770
 6182SOL    HW219446   2.960   2.714   6.830
 6183SOL     OW19447   6.791   0.281   0.694
 6183SOL    HW119448   6.736   0.209   0.652
 6183SOL    HW219449   6.750   0.370   0.673
 6184SOL     OW19450   3.451   6.311   5.144
 6184SOL    HW119451   3.476   6.230   5.198
 6184SOL    HW219452   3.480   6.298   5.049
 6185SOL     OW19453   4.027   3.465   5.291
 6185SOL    HW119454   4.105   3.403   5.295
 6185SOL    HW219455   3.945   3.417   5.320
 6186SOL     OW19456   1.085   1.701   2.808
 6186SOL    HW119457   1.105   1.674   2.714
 6186SOL    HW219458   1.069   1.620   2.865
 6187SOL     OW19459   3.242   1.910   6.308
 6187SOL    HW119460   3.265   1.922   6.405
 6187SOL    HW219461   3.252   1.997   6.260
 6188SOL     OW19462   2.390   1.574   5.484
 6188SOL    HW119463   2.477   1.560   5.437
 6188SOL    HW219464   2.322   1.607   5.418
 6189SOL     OW19465   6.847   4.997   0.839
 6189SOL    HW119466   6.766   4.971   0.891
 6189SOL    HW219467   6.836   5.089   0.804
 6190SOL     OW19468   0.446   3.189   3.895
 6190SOL    HW119469   0.456   3.114   3.829
 6190SOL    HW219470   0.489   3.162   3.981
 6191SOL     OW19471   2.481   4.331   0.663
 6191SOL    HW119472   2.565   4.338   0.717
 6191SOL    HW219473   2.488   4.255   0.599
 6192SOL     OW19474   2.940   1.612   1.607
 6192SOL    HW119475   2.866   1.577   1.664
 6192SOL    HW219476   3.022   1.625   1.663
 6193SOL     OW19477   4.429   5.697   0.371
 6193SOL    HW119478   4.342   5.685   0.417
 6193SOL    HW219479   4.415   5.698   0.272
 6194SOL     OW19480   5.586   6.764   6.272
 6194SOL    HW119481   5.668   6.742   6.325
 6194SOL    HW219482   5.515   6.697   6.293
 6195SOL     OW19483   5.504   6.389   5.970
 6195SOL    HW119484   5.509   6.339   6.056
 6195SOL    HW219485   5.434   6.348   5.911
 6196SOL     OW19486   5.894   3.304   3.060
 6196SOL    HW119487   5.892   3.219   3.008
 6196SOL    HW219488   5.842   3.375   3.012
 6197SOL     OW19489   0.807   5.474   0.939
 6197SOL    HW119490   0.749   5.395   0.919
 6197SOL    HW219491   0.868   5.452   1.015
 6198SOL     OW19492   5.713   1.575   6.405
 6198SOL    HW119493   5.755   1.649   6.353
 6198SOL    HW219494   5.637   1.536   6.352
 6199SOL     OW19495   2.126   6.525   6.206
 6199SOL    HW119496   2.178   6.554   6.286
 6199SOL    HW219497   2.030   6.514   6.230
 6200SOL     OW19498   1.486   0.708   0.757
 6200SOL    HW119499   1.433   0.627   0.729
 6200SOL    HW219500   1.423   0.779   0.789
 6201SOL     OW19501   0.500   4.475   3.447
 6201SOL    HW119502   0.431   4.409   3.476
 6201SOL    HW219503   0.515   4.466   3.348
 6202SOL     OW19504   5.959   0.903   2.361
 6202SOL    HW119505   5.950   0.892   2.460
 6202SOL    HW219506   5.981   0.998   2.339
 6203SOL     OW19507   5.858   0.317   2.015
 6203SOL    HW119508   5.761   0.339   2.020
 6203SOL    HW219509   5.889   0.323   1.920
 6204SOL     OW19510   1.093   5.863   4.971
 6204SOL    HW119511   1.071   5.959   4.989
 6204SOL    HW219512   1.122   5.819   5.056
 6205SOL     OW19513   6.088   4.740   3.412
 6205SOL    HW119514   6.146   4.679   3.466
 6205SOL    HW219515   6.042   4.804   3.473
 6206SOL     OW19516   5.927   1.766   3.532
 6206SOL    HW119517   5.922   1.836   3.602
 6206SOL    HW219518   5.868   1.792   3.455
 6207SOL     OW19519   1.256   5.521   3.900
 6207SOL    HW119520   1.354   5.501   3.899
 6207SOL    HW219521   1.221   5.511   3.994
 6208SOL     OW19522   4.462   4.071   6.001
 6208SOL    HW119523   4.373   4.047   5.962
 6208SOL    HW219524   4.524   3.993   5.992
 6209SOL     OW19525   3.593   1.632   1.027
 6209SOL    HW119526   3.613   1.677   1.114
 6209SOL    HW219527   3.574   1.535   1.043
 6210SOL     OW19528   5.899   1.271   4.315
 6210SOL    HW119529   5.804   1.301   4.323
 6210SOL    HW219530   5.902   1.179   4.275
 6211SOL     OW19531   5.843   3.824   4.854
 6211SOL    HW119532   5.816   3.819   4.758
 6211SOL    HW219533   5.766   3.799   4.912
 6212SOL     OW19534   5.518   4.144   4.643
 6212SOL    HW119535   5.522   4.180   4.736
 6212SOL    HW219536   5.598   4.174   4.592
 6213SOL     OW19537   4.443   5.802   0.703
 6213SOL    HW119538   4.408   5.843   0.619
 6213SOL    HW219539   4.391   5.837   0.781
 6214SOL     OW19540   6.282   0.130   6.951
 6214SOL    HW119541   6.287   0.151   0.028
 6214SOL    HW219542   6.339   0.050   6.931
 6215SOL     OW19543   6.011   2.095   5.343
 6215SOL    HW119544   6.109   2.110   5.333
 6215SOL    HW219545   5.976   2.050   5.261
 6216SOL     OW19546   4.797   1.795   4.710
 6216SOL    HW119547   4.772   1.855   4.786
 6216SOL    HW219548   4.807   1.850   4.627
 6217SOL     OW19549   0.811   4.422   2.454
 6217SOL    HW119550   0.766   4.337   2.427
 6217SOL    HW219551   0.792   4.493   2.386
 6218SOL     OW19552   4.348   6.453   0.609
 6218SOL    HW119553   4.279   6.447   0.681
 6218SOL    HW219554   4.394   6.542   0.614
 6219SOL     OW19555   2.190   0.686   6.989
 6219SOL    HW119556   2.269   0.626   6.986
 6219SOL    HW219557   2.163   0.712   6.896
 6220SOL     OW19558   3.231   6.614   1.147
 6220SOL    HW119559   3.243   6.679   1.072
 6220SOL    HW219560   3.134   6.593   1.158
 6221SOL     OW19561   5.034   5.887   5.836
 6221SOL    HW119562   5.126   5.848   5.840
 6221SOL    HW219563   4.976   5.831   5.778
 6222SOL     OW19564   6.868   1.421   2.383
 6222SOL    HW119565   6.871   1.409   2.482
 6222SOL    HW219566   6.962   1.424   2.347
 6223SOL     OW19567   6.924   4.856   4.808
 6223SOL    HW119568   6.998   4.804   4.764
 6223SOL    HW219569   6.900   4.934   4.750
 6224SOL     OW19570   3.407   6.823   6.824
 6224SOL    HW119571   3.333   6.836   6.889
 6224SOL    HW219572   3.483   6.884   6.847
 6225SOL     OW19573   4.698   6.196   6.351
 6225SOL    HW119574   4.751   6.156   6.426
 6225SOL    HW219575   4.643   6.125   6.307
 6226SOL     OW19576   0.595   1.031   3.742
 6226SOL    HW119577   0.564   0.987   3.658
 6226SOL    HW219578   0.653   0.967   3.793
 6227SOL     OW19579   2.981   4.811   5.638
 6227SOL    HW119580   3.011   4.734   5.694
 6227SOL    HW219581   2.977   4.784   5.542
 6228SOL     OW19582   1.216   2.919   3.757
 6228SOL    HW119583   1.124   2.898   3.724
 6228SOL    HW219584   1.219   3.014   3.788
 6229SOL     OW19585   0.414   3.788   4.061
 6229SOL    HW119586   0.439   3.851   3.987
 6229SOL    HW219587   0.473   3.707   4.056
 6230SOL     OW19588   0.441   0.978   1.366
 6230SOL    HW119589   0.503   1.018   1.299
 6230SOL    HW219590   0.353   1.025   1.363
 6231SOL     OW19591   2.217   5.478   5.784
 6231SOL    HW119592   2.157   5.416   5.734
 6231SOL    HW219593   2.298   5.498   5.729
 6232SOL     OW19594   4.356   0.462   6.464
 6232SOL    HW119595   4.405   0.463   6.377
 6232SOL    HW219596   4.263   0.426   6.450
 6233SOL     OW19597   0.034   3.526   1.111
 6233SOL    HW119598   0.124   3.566   1.090
 6233SOL    HW219599   0.046   3.433   1.145
 6234SOL     OW19600   4.927   5.168   4.217
 6234SOL    HW119601   4.973   5.152   4.130
 6234SOL    HW219602   4.930   5.084   4.272
 6235SOL     OW19603   0.347   0.986   2.228
 6235SOL    HW119604   0.299   0.900   2.241
 6235SOL    HW219605   0.364   1.001   2.131
 6236SOL     OW19606   6.568   5.877   1.050
 6236SOL    HW119607   6.486   5.927   1.026
 6236SOL    HW219608   6.648   5.938   1.045
 6237SOL     OW19609   3.493   1.259   2.147
 6237SOL    HW119610   3.591   1.278   2.142
 6237SOL    HW219611   3.471   1.222   2.237
 6238SOL     OW19612   2.202   1.275   3.415
 6238SOL    HW119613   2.137   1.313   3.349
 6238SOL    HW219614   2.277   1.231   3.365
 6239SOL     OW19615   4.869   1.529   4.349
 6239SOL    HW119616   4.817   1.491   4.425
 6239SOL    HW219617   4.806   1.568   4.282
 6240SOL     OW19618   4.109   3.682   3.933
 6240SOL    HW119619   4.124   3.723   3.843
 6240SOL    HW219620   4.016   3.701   3.963
 6241SOL     OW19621   3.810   0.108   3.429
 6241SOL    HW119622   3.908   0.122   3.415
 6241SOL    HW219623   3.763   0.197   3.426
 6242SOL     OW19624   3.193   2.156   4.339
 6242SOL    HW119625   3.212   2.138   4.243
 6242SOL    HW219626   3.098   2.185   4.350
 6243SOL     OW19627   4.347   1.502   0.049
 6243SOL    HW119628   4.275   1.434   0.058
 6243SOL    HW219629   4.425   1.475   0.106
 6244SOL     OW19630   4.288   2.361   1.659
 6244SOL    HW119631   4.369   2.410   1.627
 6244SOL    HW219632   4.215   2.426   1.678
 6245SOL     OW19633   0.197   5.119   2.166
 6245SOL    HW119634   0.118   5.095   2.109
 6245SOL    HW219635   0.280   5.114   2.110
 6246SOL     OW19636   0.166   6.547   4.916
 6246SOL    HW119637   0.231   6.611   4.877
 6246SOL    HW219638   0.208   6.499   4.993
 6247SOL     OW19639   6.475   5.776   3.211
 6247SOL    HW119640   6.394   5.718   3.218
 6247SOL    HW219641   6.484   5.831   3.294
 6248SOL     OW19642   4.130   3.096   5.625
 6248SOL    HW119643   4.068   3.159   5.578
 6248SOL    HW219644   4.213   3.146   5.652
 6249SOL     OW19645   5.586   3.702   2.994
 6249SOL    HW119646   5.622   3.711   2.901
 6249SOL    HW219647   5.624   3.619   3.037
 6250SOL     OW19648   5.561   0.059   6.291
 6250SOL    HW119649   5.532   7.009   6.355
 6250SOL    HW219650   5.647   0.100   6.324
 6251SOL     OW19651   2.792   0.772   4.799
 6251SOL    HW119652   2.892   0.785   4.799
 6251SOL    HW219653   2.751   0.834   4.866
 6252SOL     OW19654   2.584   5.369   0.104
 6252SOL    HW119655   2.597   5.320   0.190
 6252SOL    HW219656   2.670   5.367   0.052
 6253SOL     OW19657   4.763   6.406   3.871
 6253SOL    HW119658   4.707   6.453   3.803
 6253SOL    HW219659   4.800   6.473   3.936
 6254SOL     OW19660   0.271   0.167   1.694
 6254SOL    HW119661   0.225   0.134   1.777
 6254SOL    HW219662   0.206   0.220   1.640
 6255SOL     OW19663   1.518   1.737   0.778
 6255SOL    HW119664   1.457   1.735   0.698
 6255SOL    HW219665   1.476   1.791   0.850
 6256SOL     OW19666   6.540   5.343   1.958
 6256SOL    HW119667   6.504   5.354   2.051
 6256SOL    HW219668   6.576   5.431   1.926
 6257SOL     OW19669   3.500   4.293   1.007
 6257SOL    HW119670   3.458   4.232   1.073
 6257SOL    HW219671   3.500   4.386   1.044
 6258SOL     OW19672   4.215   5.310   4.989
 6258SOL    HW119673   4.209   5.216   5.024
 6258SOL    HW219674   4.206   5.374   5.064
 6259SOL     OW19675   4.419   0.847   5.050
 6259SOL    HW119676   4.364   0.924   5.018
 6259SOL    HW219677   4.444   0.862   5.146
 6260SOL     OW19678   2.718   1.786   1.168
 6260SOL    HW119679   2.630   1.800   1.122
 6260SOL    HW219680   2.770   1.715   1.120
 6261SOL     OW19681   3.537   6.783   0.742
 6261SOL    HW119682   3.587   6.699   0.721
 6261SOL    HW219683   3.569   6.821   0.829
 6262SOL     OW19684   6.092   1.157   2.209
 6262SOL    HW119685   6.179   1.159   2.160
 6262SOL    HW219686   6.089   1.231   2.276
 6263SOL     OW19687   6.344   5.929   5.925
 6263SOL    HW119688   6.334   5.931   6.025
 6263SOL    HW219689   6.417   5.864   5.901
 6264SOL     OW19690   1.612   5.888   0.464
 6264SOL    HW119691   1.685   5.889   0.395
 6264SOL    HW219692   1.634   5.822   0.535
 6265SOL     OW19693   3.930   6.549   6.624
 6265SOL    HW119694   3.920   6.459   6.582
 6265SOL    HW219695   3.840   6.587   6.645
 6266SOL     OW19696   3.638   5.141   3.150
 6266SOL    HW119697   3.551   5.140   3.199
 6266SOL    HW219698   3.713   5.155   3.216
 6267SOL     OW19699   0.713   6.113   4.153
 6267SOL    HW119700   0.760   6.041   4.204
 6267SOL    HW219701   0.634   6.145   4.205
 6268SOL     OW19702   3.108   1.556   1.274
 6268SOL    HW119703   3.076   1.631   1.215
 6268SOL    HW219704   3.032   1.494   1.292
 6269SOL     OW19705   6.508   5.772   6.805
 6269SOL    HW119706   6.588   5.734   6.760
 6269SOL    HW219707   6.534   5.852   6.859
 6270SOL     OW19708   1.465   6.190   1.166
 6270SOL    HW119709   1.546   6.197   1.108
 6270SOL    HW219710   1.427   6.098   1.158
 6271SOL     OW19711   0.074   2.665   6.317
 6271SOL    HW119712   0.084   2.752   6.365
 6271SOL    HW219713   0.113   2.592   6.373
 6272SOL     OW19714   0.348   1.419   6.662
 6272SOL    HW119715   0.250   1.402   6.668
 6272SOL    HW219716   0.374   1.429   6.566
 6273SOL     OW19717   0.276   6.346   3.188
 6273SOL    HW119718   0.375   6.346   3.171
 6273SOL    HW219719   0.240   6.438   3.177
 6274SOL     OW19720   2.984   5.586   3.780
 6274SOL    HW119721   2.985   5.645   3.699
 6274SOL    HW219722   2.910   5.615   3.841
 6275SOL     OW19723   2.629   6.152   0.086
 6275SOL    HW119724   2.585   6.109   0.007
 6275SOL    HW219725   2.635   6.086   0.161
 6276SOL     OW19726   2.103   5.453   2.728
 6276SOL    HW119727   2.112   5.437   2.630
 6276SOL    HW219728   2.177   5.513   2.759
 6277SOL     OW19729   4.581   2.418   1.234
 6277SOL    HW119730   4.485   2.422   1.208
 6277SOL    HW219731   4.591   2.440   1.331
 6278SOL     OW19732   4.330   2.254   0.431
 6278SOL    HW119733   4.336   2.232   0.529
 6278SOL    HW219734   4.246   2.216   0.393
 6279SOL     OW19735   2.833   6.603   2.030
 6279SOL    HW119736   2.835   6.508   2.059
 6279SOL    HW219737   2.926   6.639   2.023
 6280SOL     OW19738   5.035   2.130   6.346
 6280SOL    HW119739   5.034   2.077   6.431
 6280SOL    HW219740   5.128   2.133   6.310
 6281SOL     OW19741   5.171   4.555   6.020
 6281SOL    HW119742   5.262   4.577   5.984
 6281SOL    HW219743   5.118   4.508   5.949
 6282SOL     OW19744   0.852   3.779   5.924
 6282SOL    HW119745   0.940   3.735   5.908
 6282SOL    HW219746   0.867   3.872   5.958
 6283SOL     OW19747   2.569   6.912   4.671
 6283SOL    HW119748   2.662   6.942   4.649
 6283SOL    HW219749   2.543   6.836   4.612
 6284SOL     OW19750   1.501   2.778   5.552
 6284SOL    HW119751   1.493   2.678   5.547
 6284SOL    HW219752   1.469   2.819   5.467
 6285SOL     OW19753   1.387   3.361   2.892
 6285SOL    HW119754   1.372   3.268   2.857
 6285SOL    HW219755   1.482   3.387   2.877
 6286SOL     OW19756   0.788   2.634   6.728
 6286SOL    HW119757   0.812   2.543   6.762
 6286SOL    HW219758   0.688   2.644   6.729
 6287SOL     OW19759   4.557   4.716   4.444
 6287SOL    HW119760   4.509   4.667   4.517
 6287SOL    HW219761   4.619   4.784   4.485
 6288SOL     OW19762   2.571   3.535   6.058
 6288SOL    HW119763   2.505   3.464   6.030
 6288SOL    HW219764   2.657   3.522   6.009
 6289SOL     OW19765   2.179   4.868   4.092
 6289SOL    HW119766   2.123   4.831   4.166
 6289SOL    HW219767   2.164   4.967   4.085
 6290SOL     OW19768   6.011   0.061   3.619
 6290SOL    HW119769   5.977   0.152   3.643
 6290SOL    HW219770   5.939   0.009   3.574
 6291SOL     OW19771   3.718   3.678   1.995
 6291SOL    HW119772   3.729   3.666   2.093
 6291SOL    HW219773   3.800   3.721   1.957
 6292SOL     OW19774   1.405   4.507   4.852
 6292SOL    HW119775   1.360   4.449   4.920
 6292SOL    HW219776   1.448   4.449   4.782
 6293SOL     OW19777   2.848   1.362   5.764
 6293SOL    HW119778   2.922   1.317   5.713
 6293SOL    HW219779   2.777   1.391   5.700
 6294SOL     OW19780   1.933   1.075   2.322
 6294SOL    HW119781   1.874   1.080   2.242
 6294SOL    HW219782   1.996   1.153   2.322
 6295SOL     OW19783   4.488   3.805   5.951
 6295SOL    HW119784   4.504   3.739   5.877
 6295SOL    HW219785   4.391   3.806   5.974
 6296SOL     OW19786   0.768   2.748   0.067
 6296SOL    HW119787   0.775   2.731   6.991
 6296SOL    HW219788   0.859   2.746   0.109
 6297SOL     OW19789   6.792   1.322   3.944
 6297SOL    HW119790   6.810   1.319   4.043
 6297SOL    HW219791   6.846   1.251   3.898
 6298SOL     OW19792   0.040   6.986   0.422
 6298SOL    HW119793   0.043   0.054   0.467
 6298SOL    HW219794   0.131   6.947   0.420
 6299SOL     OW19795   3.846   1.765   4.312
 6299SOL    HW119796   3.781   1.773   4.388
 6299SOL    HW219797   3.934   1.730   4.347
 6300SOL     OW19798   2.869   1.976   0.943
 6300SOL    HW119799   2.904   1.927   1.023
 6300SOL    HW219800   2.845   2.069   0.970
 6301SOL     OW19801   3.618   6.147   6.819
 6301SOL    HW119802   3.665   6.138   6.906
 6301SOL    HW219803   3.600   6.243   6.800
 6302SOL     OW19804   1.329   3.510   0.156
 6302SOL    HW119805   1.317   3.554   0.246
 6302SOL    HW219806   1.246   3.459   0.134
 6303SOL     OW19807   6.810   4.619   4.348
 6303SOL    HW119808   6.755   4.679   4.290
 6303SOL    HW219809   6.881   4.575   4.293
 6304SOL     OW19810   3.094   1.130   4.138
 6304SOL    HW119811   3.100   1.201   4.208
 6304SOL    HW219812   3.062   1.045   4.180
 6305SOL     OW19813   0.732   5.956   5.792
 6305SOL    HW119814   0.663   5.983   5.726
 6305SOL    HW219815   0.735   5.856   5.798
 6306SOL     OW19816   0.382   4.174   4.575
 6306SOL    HW119817   0.323   4.098   4.549
 6306SOL    HW219818   0.454   4.185   4.507
 6307SOL     OW19819   3.728   2.949   2.615
 6307SOL    HW119820   3.776   3.022   2.565
 6307SOL    HW219821   3.657   2.910   2.557
 6308SOL     OW19822   1.019   2.162   0.991
 6308SOL    HW119823   1.086   2.201   0.928
 6308SOL    HW219824   0.941   2.126   0.940
 6309SOL     OW19825   1.639   6.213   4.750
 6309SOL    HW119826   1.706   6.244   4.817
 6309SOL    HW219827   1.678   6.137   4.697
 6310SOL     OW19828   0.655   6.599   3.707
 6310SOL    HW119829   0.584   6.593   3.636
 6310SOL    HW219830   0.681   6.695   3.719
 6311SOL     OW19831   6.378   1.091   6.651
 6311SOL    HW119832   6.440   1.035   6.595
 6311SOL    HW219833   6.349   1.170   6.597
 6312SOL     OW19834   2.983   5.556   0.603
 6312SOL    HW119835   3.009   5.650   0.625
 6312SOL    HW219836   2.886   5.543   0.620
 6313SOL     OW19837   5.770   5.005   3.800
 6313SOL    HW119838   5.744   5.099   3.777
 6313SOL    HW219839   5.716   4.973   3.878
 6314SOL     OW19840   1.706   6.341   3.149
 6314SOL    HW119841   1.782   6.300   3.199
 6314SOL    HW219842   1.730   6.435   3.123
 6315SOL     OW19843   2.529   2.033   3.608
 6315SOL    HW119844   2.583   2.065   3.530
 6315SOL    HW219845   2.546   1.936   3.622
 6316SOL     OW19846   4.758   0.872   5.130
 6316SOL    HW119847   4.825   0.936   5.168
 6316SOL    HW219848   4.776   0.859   5.033
 6317SOL     OW19849   4.585   4.421   2.934
 6317SOL    HW119850   4.583   4.325   2.904
 6317SOL    HW219851   4.673   4.461   2.909
 6318SOL     OW19852   6.677   6.820   0.386
 6318SOL    HW119853   6.735   6.807   0.467
 6318SOL    HW219854   6.652   6.731   0.349
 6319SOL     OW19855   4.611   2.041   4.552
 6319SOL    HW119856   4.698   2.078   4.520
 6319SOL    HW219857   4.573   2.100   4.623
 6320SOL     OW19858   6.516   1.576   5.897
 6320SOL    HW119859   6.578   1.558   5.821
 6320SOL    HW219860   6.429   1.612   5.863
 6321SOL     OW19861   0.378   3.231   0.360
 6321SOL    HW119862   0.291   3.224   0.407
 6321SOL    HW219863   0.431   3.307   0.398
 6322SOL     OW19864   1.796   1.501   3.100
 6322SOL    HW119865   1.856   1.551   3.038
 6322SOL    HW219866   1.739   1.438   3.048
 6323SOL     OW19867   2.186   5.337   0.973
 6323SOL    HW119868   2.208   5.434   0.965
 6323SOL    HW219869   2.125   5.323   1.051
 6324SOL     OW19870   4.491   3.089   0.867
 6324SOL    HW119871   4.546   3.169   0.892
 6324SOL    HW219872   4.397   3.118   0.851
 6325SOL     OW19873   1.456   2.817   3.815
 6325SOL    HW119874   1.367   2.852   3.785
 6325SOL    HW219875   1.494   2.757   3.745
 6326SOL     OW19876   5.272   5.027   4.875
 6326SOL    HW119877   5.224   4.953   4.923
 6326SOL    HW219878   5.364   4.997   4.852
 6327SOL     OW19879   0.448   1.204   3.329
 6327SOL    HW119880   0.521   1.165   3.385
 6327SOL    HW219881   0.360   1.164   3.356
 6328SOL     OW19882   4.078   3.696   5.415
 6328SOL    HW119883   4.060   3.608   5.372
 6328SOL    HW219884   4.143   3.748   5.360
 6329SOL     OW19885   0.508   2.531   5.920
 6329SOL    HW119886   0.539   2.445   5.961
 6329SOL    HW219887   0.409   2.527   5.903
 6330SOL     OW19888   4.711   2.105   3.473
 6330SOL    HW119889   4.671   2.013   3.471
 6330SOL    HW219890   4.753   2.121   3.562
 6331SOL     OW19891   1.596   3.430   3.969
 6331SOL    HW119892   1.679   3.479   3.994
 6331SOL    HW219893   1.601   3.336   4.003
 6332SOL     OW19894   4.200   1.932   0.025
 6332SOL    HW119895   4.134   1.903   0.094
 6332SOL    HW219896   4.248   1.852   7.011
 6333SOL     OW19897   5.487   0.676   0.668
 6333SOL    HW119898   5.578   0.633   0.664
 6333SOL    HW219899   5.418   0.609   0.639
 6334SOL     OW19900   2.061   1.165   1.826
 6334SOL    HW119901   2.060   1.160   1.726
 6334SOL    HW219902   2.077   1.074   1.864
 6335SOL     OW19903   7.009   3.577   5.883
 6335SOL    HW119904   0.082   3.577   5.917
 6335SOL    HW219905   6.990   3.664   5.838
 6336SOL     OW19906   0.724   4.413   5.810
 6336SOL    HW119907   0.680   4.343   5.754
 6336SOL    HW219908   0.788   4.465   5.754
 6337SOL     OW19909   6.241   6.933   4.784
 6337SOL    HW119910   6.253   6.941   4.685
 6337SOL    HW219911   6.274   7.017   4.828
 6338SOL     OW19912   0.748   1.124   3.339
 6338SOL    HW119913   0.708   1.032   3.338
 6338SOL    HW219914   0.805   1.137   3.259
 6339SOL     OW19915   6.941   3.538   3.099
 6339SOL    HW119916   7.006   3.609   3.125
 6339SOL    HW219917   6.886   3.512   3.179
 6340SOL     OW19918   2.766   4.988   0.034
 6340SOL    HW119919   2.785   5.031   6.967
 6340SOL    HW219920   2.667   4.989   0.051
 6341SOL     OW19921   0.238   4.976   2.415
 6341SOL    HW119922   0.333   4.980   2.448
 6341SOL    HW219923   0.232   5.022   2.327
 6342SOL     OW19924   2.059   1.071   1.515
 6342SOL    HW119925   2.155   1.089   1.493
 6342SOL    HW219926   2.046   0.973   1.532
 6343SOL     OW19927   1.115   5.660   6.803
 6343SOL    HW119928   1.158   5.742   6.764
 6343SOL    HW219929   1.162   5.636   6.888
 6344SOL     OW19930   1.189   1.257   4.933
 6344SOL    HW119931   1.237   1.318   4.996
 6344SOL    HW219932   1.159   1.309   4.853
 6345SOL     OW19933   5.931   2.907   2.485
 6345SOL    HW119934   5.860   2.976   2.497
 6345SOL    HW219935   5.963   2.876   2.574
 6346SOL     OW19936   0.450   4.272   4.817
 6346SOL    HW119937   0.548   4.292   4.823
 6346SOL    HW219938   0.426   4.249   4.723
 6347SOL     OW19939   2.109   2.271   3.732
 6347SOL    HW119940   2.122   2.333   3.810
 6347SOL    HW219941   2.012   2.252   3.721
 6348SOL     OW19942   1.241   2.548   6.731
 6348SOL    HW119943   1.306   2.597   6.673
 6348SOL    HW219944   1.170   2.612   6.762
 6349SOL     OW19945   5.526   0.910   1.181
 6349SOL    HW119946   5.440   0.957   1.162
 6349SOL    HW219947   5.522   0.866   1.270
 6350SOL     OW19948   0.656   6.504   1.281
 6350SOL    HW119949   0.722   6.439   1.243
 6350SOL    HW219950   0.645   6.581   1.218
 6351SOL     OW19951   5.708   3.110   1.306
 6351SOL    HW119952   5.616   3.135   1.274
 6351SOL    HW219953   5.746   3.184   1.360
 6352SOL     OW19954   3.970   0.301   4.119
 6352SOL    HW119955   3.999   0.395   4.131
 6352SOL    HW219956   3.894   0.298   4.054
 6353SOL     OW19957   3.658   6.367   5.326
 6353SOL    HW119958   3.561   6.368   5.303
 6353SOL    HW219959   3.700   6.285   5.287
 6354SOL     OW19960   5.041   5.020   2.275
 6354SOL    HW119961   5.003   5.084   2.343
 6354SOL    HW219962   5.076   4.939   2.322
 6355SOL     OW19963   3.697   5.680   0.749
 6355SOL    HW119964   3.794   5.659   0.760
 6355SOL    HW219965   3.679   5.706   0.654
 6356SOL     OW19966   0.209   6.348   6.205
 6356SOL    HW119967   0.163   6.262   6.187
 6356SOL    HW219968   0.191   6.412   6.130
 6357SOL     OW19969   4.764   1.845   3.000
 6357SOL    HW119970   4.707   1.769   2.969
 6357SOL    HW219971   4.859   1.816   3.002
 6358SOL     OW19972   1.277   1.754   4.398
 6358SOL    HW119973   1.203   1.690   4.377
 6358SOL    HW219974   1.345   1.710   4.456
 6359SOL     OW19975   5.880   5.290   1.542
 6359SOL    HW119976   5.891   5.388   1.524
 6359SOL    HW219977   5.968   5.252   1.572
 6360SOL     OW19978   2.212   2.508   1.120
 6360SOL    HW119979   2.292   2.488   1.063
 6360SOL    HW219980   2.217   2.453   1.204
 6361SOL     OW19981   0.643   1.559   2.084
 6361SOL    HW119982   0.711   1.608   2.139
 6361SOL    HW219983   0.614   1.617   2.008
 6362SOL     OW19984   1.353   5.348   0.288
 6362SOL    HW119985   1.253   5.357   0.280
 6362SOL    HW219986   1.376   5.251   0.300
 6363SOL     OW19987   1.089   3.106   1.844
 6363SOL    HW119988   1.025   3.181   1.829
 6363SOL    HW219989   1.094   3.086   1.942
 6364SOL     OW19990   2.887   1.571   4.007
 6364SOL    HW119991   2.973   1.526   3.984
 6364SOL    HW219992   2.892   1.667   3.981
 6365SOL     OW19993   6.023   6.777   2.715
 6365SOL    HW119994   6.068   6.691   2.736
 6365SOL    HW219995   6.090   6.851   2.714
 6366SOL     OW19996   6.074   1.255   5.120
 6366SOL    HW119997   6.094   1.158   5.114
 6366SOL    HW219998   6.083   1.286   5.214
 6367SOL     OW19999   1.402   2.107   4.313
 6367SOL    HW120000   1.474   2.040   4.293
 6367SOL    HW220001   1.313   2.067   4.294
 6368SOL     OW20002   4.912   3.435   4.751
 6368SOL    HW120003   4.984   3.388   4.801
 6368SOL    HW220004   4.871   3.505   4.809
 6369SOL     OW20005   4.153   4.786   0.646
 6369SOL    HW120006   4.080   4.718   0.638
 6369SOL    HW220007   4.118   4.875   0.618
 6370SOL     OW20008   5.558   3.895   4.456
 6370SOL    HW120009   5.508   3.955   4.518
 6370SOL    HW220010   5.644   3.867   4.498
 6371SOL     OW20011   5.559   4.492   0.715
 6371SOL    HW120012   5.614   4.414   0.683
 6371SOL    HW220013   5.609   4.541   0.786
 6372SOL     OW20014   6.675   1.293   1.247
 6372SOL    HW120015   6.641   1.236   1.322
 6372SOL    HW220016   6.631   1.382   1.250
 6373SOL     OW20017   4.919   2.866   1.866
 6373SOL    HW120018   4.867   2.945   1.898
 6373SOL    HW220019   4.861   2.811   1.806
 6374SOL     OW20020   4.754   3.627   6.049
 6374SOL    HW120021   4.681   3.590   5.992
 6374SOL    HW220022   4.804   3.553   6.093
 6375SOL     OW20023   4.714   1.083   1.535
 6375SOL    HW120024   4.698   1.028   1.454
 6375SOL    HW220025   4.786   1.150   1.517
 6376SOL     OW20026   2.749   0.607   0.457
 6376SOL    HW120027   2.655   0.613   0.490
 6376SOL    HW220028   2.812   0.616   0.535
 6377SOL     OW20029   0.282   0.487   6.804
 6377SOL    HW120030   0.221   0.469   6.881
 6377SOL    HW220031   0.265   0.420   6.732
 6378SOL     OW20032   5.758   4.015   2.053
 6378SOL    HW120033   5.826   4.045   2.119
 6378SOL    HW220034   5.769   3.917   2.035
 6379SOL     OW20035   1.775   5.701   6.412
 6379SOL    HW120036   1.853   5.705   6.475
 6379SOL    HW220037   1.691   5.685   6.464
 6380SOL     OW20038   1.832   2.452   5.127
 6380SOL    HW120039   1.803   2.356   5.131
 6380SOL    HW220040   1.789   2.496   5.049
 6381SOL     OW20041   3.798   3.790   0.439
 6381SOL    HW120042   3.862   3.848   0.488
 6381SOL    HW220043   3.736   3.847   0.385
 6382SOL     OW20044   1.344   1.358   0.867
 6382SOL    HW120045   1.254   1.374   0.908
 6382SOL    HW220046   1.342   1.274   0.813
 6383SOL     OW20047   2.432   2.686   2.213
 6383SOL    HW120048   2.491   2.626   2.267
 6383SOL    HW220049   2.342   2.693   2.257
 6384SOL     OW20050   6.390   2.217   1.719
 6384SOL    HW120051   6.369   2.303   1.672
 6384SOL    HW220052   6.447   2.236   1.799
 6385SOL     OW20053   6.330   3.596   0.697
 6385SOL    HW120054   6.353   3.658   0.772
 6385SOL    HW220055   6.397   3.606   0.624
 6386SOL     OW20056   3.661   3.608   0.112
 6386SOL    HW120057   3.622   3.591   0.022
 6386SOL    HW220058   3.589   3.636   0.175
 6387SOL     OW20059   6.696   0.195   6.633
 6387SOL    HW120060   6.609   0.218   6.590
 6387SOL    HW220061   6.689   0.206   6.732
 6388SOL     OW20062   5.654   5.361   1.744
 6388SOL    HW120063   5.727   5.323   1.688
 6388SOL    HW220064   5.688   5.442   1.792
 6389SOL     OW20065   6.843   6.893   0.586
 6389SOL    HW120066   6.883   6.866   0.673
 6389SOL    HW220067   6.916   6.913   0.520
 6390SOL     OW20068   5.263   0.025   6.462
 6390SOL    HW120069   5.281   6.990   6.542
 6390SOL    HW220070   5.316   0.109   6.468
 6391SOL     OW20071   1.892   2.000   4.665
 6391SOL    HW120072   1.830   1.994   4.587
 6391SOL    HW220073   1.912   2.096   4.684
 6392SOL     OW20074   4.603   0.153   4.102
 6392SOL    HW120075   4.673   0.116   4.041
 6392SOL    HW220076   4.540   0.081   4.128
 6393SOL     OW20077   2.028   4.906   0.455
 6393SOL    HW120078   1.954   4.839   0.460
 6393SOL    HW220079   2.004   4.987   0.508
 6394SOL     OW20080   1.873   4.939   2.154
 6394SOL    HW120081   1.931   4.922   2.075
 6394SOL    HW220082   1.905   5.021   2.203
 6395SOL     OW20083   1.556   4.274   4.662
 6395SOL    HW120084   1.629   4.269   4.730
 6395SOL    HW220085   1.591   4.244   4.573
 6396SOL     OW20086   2.087   2.751   5.275
 6396SOL    HW120087   2.022   2.689   5.319
 6396SOL    HW220088   2.179   2.714   5.285
 6397SOL     OW20089   6.366   3.234   5.066
 6397SOL    HW120090   6.466   3.238   5.067
 6397SOL    HW220091   6.330   3.326   5.052
 6398SOL     OW20092   1.901   0.451   2.592
 6398SOL    HW120093   1.942   0.480   2.678
 6398SOL    HW220094   1.859   0.530   2.546
 6399SOL     OW20095   2.706   0.450   0.162
 6399SOL    HW120096   2.796   0.469   0.122
 6399SOL    HW220097   2.660   0.535   0.184
 6400SOL     OW20098   0.383   6.804   2.664
 6400SOL    HW120099   0.365   6.758   2.577
 6400SOL    HW220100   0.473   6.849   2.659
 6401SOL     OW20101   3.627   5.196   2.290
 6401SOL    HW120102   3.664   5.118   2.341
 6401SOL    HW220103   3.579   5.163   2.209
 6402SOL     OW20104   3.628   4.468   6.109
 6402SOL    HW120105   3.612   4.473   6.207
 6402SOL    HW220106   3.540   4.477   6.060
 6403SOL     OW20107   4.922   5.730   5.637
 6403SOL    HW120108   4.852   5.783   5.590
 6403SOL    HW220109   5.011   5.748   5.594
 6404SOL     OW20110   4.472   5.659   0.078
 6404SOL    HW120111   4.489   5.565   0.106
 6404SOL    HW220112   4.543   5.719   0.115
 6405SOL     OW20113   4.947   0.983   2.618
 6405SOL    HW120114   4.851   0.974   2.592
 6405SOL    HW220115   4.968   1.079   2.636
 6406SOL     OW20116   0.371   3.071   2.493
 6406SOL    HW120117   0.345   3.159   2.532
 6406SOL    HW220118   0.321   3.057   2.407
 6407SOL     OW20119   0.215   0.130   2.551
 6407SOL    HW120120   0.294   0.190   2.552
 6407SOL    HW220121   0.242   0.038   2.522
 6408SOL     OW20122   0.438   1.459   1.813
 6408SOL    HW120123   0.446   1.361   1.797
 6408SOL    HW220124   0.372   1.498   1.748
 6409SOL     OW20125   5.974   4.404   3.413
 6409SOL    HW120126   6.053   4.419   3.353
 6409SOL    HW220127   6.006   4.385   3.506
 6410SOL     OW20128   2.149   1.304   0.303
 6410SOL    HW120129   2.084   1.236   0.337
 6410SOL    HW220130   2.181   1.277   0.212
 6411SOL     OW20131   0.620   2.707   2.987
 6411SOL    HW120132   0.694   2.746   2.933
 6411SOL    HW220133   0.631   2.608   2.992
 6412SOL     OW20134   3.444   0.422   6.875
 6412SOL    HW120135   3.508   0.398   6.948
 6412SOL    HW220136   3.463   0.516   6.846
 6413SOL     OW20137   4.761   6.394   3.127
 6413SOL    HW120138   4.796   6.302   3.148
 6413SOL    HW220139   4.673   6.386   3.080
 6414SOL     OW20140   2.665   0.723   0.228
 6414SOL    HW120141   2.730   0.697   0.300
 6414SOL    HW220142   2.636   0.818   0.242
 6415SOL     OW20143   0.794   1.506   3.848
 6415SOL    HW120144   0.840   1.430   3.801
 6415SOL    HW220145   0.862   1.559   3.898
 6416SOL     OW20146   3.148   4.964   0.249
 6416SOL    HW120147   3.161   5.047   0.194
 6416SOL    HW220148   3.064   4.972   0.302
 6417SOL     OW20149   4.573   3.203   6.753
 6417SOL    HW120150   4.556   3.299   6.775
 6417SOL    HW220151   4.486   3.154   6.747
 6418SOL     OW20152   5.186   5.360   0.444
 6418SOL    HW120153   5.167   5.360   0.543
 6418SOL    HW220154   5.167   5.269   0.407
 6419SOL     OW20155   0.557   7.020   6.848
 6419SOL    HW120156   0.586   0.088   6.815
 6419SOL    HW220157   0.627   6.981   6.907
 6420SOL     OW20158   2.526   4.503   3.910
 6420SOL    HW120159   2.479   4.434   3.966
 6420SOL    HW220160   2.551   4.581   3.967
 6421SOL     OW20161   5.155   0.052   1.938
 6421SOL    HW120162   5.139   0.144   1.903
 6421SOL    HW220163   5.186   0.057   2.033
 6422SOL     OW20164   0.391   2.759   5.042
 6422SOL    HW120165   0.468   2.750   4.979
 6422SOL    HW220166   0.332   2.679   5.036
 6423SOL     OW20167   0.991   4.286   4.895
 6423SOL    HW120168   1.057   4.252   4.828
 6423SOL    HW220169   0.971   4.215   4.962
 6424SOL     OW20170   6.731   4.413   5.980
 6424SOL    HW120171   6.817   4.378   6.015
 6424SOL    HW220172   6.694   4.349   5.912
 6425SOL     OW20173   0.483   6.237   4.560
 6425SOL    HW120174   0.455   6.332   4.547
 6425SOL    HW220175   0.416   6.189   4.615
 6426SOL     OW20176   4.687   5.560   4.179
 6426SOL    HW120177   4.781   5.585   4.205
 6426SOL    HW220178   4.622   5.621   4.225
 6427SOL     OW20179   4.127   3.382   3.788
 6427SOL    HW120180   4.189   3.378   3.866
 6427SOL    HW220181   4.103   3.289   3.759
 6428SOL     OW20182   5.686   2.896   0.044
 6428SOL    HW120183   5.726   2.873   6.977
 6428SOL    HW220184   5.598   2.942   0.030
 6429SOL     OW20185   2.406   1.286   5.680
 6429SOL    HW120186   2.382   1.218   5.611
 6429SOL    HW220187   2.339   1.284   5.754
 6430SOL     OW20188   5.293   1.728   4.871
 6430SOL    HW120189   5.250   1.788   4.803
 6430SOL    HW220190   5.373   1.684   4.830
 6431SOL     OW20191   3.399   5.257   2.633
 6431SOL    HW120192   3.366   5.314   2.708
 6431SOL    HW220193   3.321   5.216   2.586
 6432SOL     OW20194   4.820   3.053   5.796
 6432SOL    HW120195   4.895   3.058   5.730
 6432SOL    HW220196   4.741   3.009   5.752
 6433SOL     OW20197   3.547   5.206   6.202
 6433SOL    HW120198   3.450   5.229   6.213
 6433SOL    HW220199   3.602   5.288   6.215
 6434SOL     OW20200   5.792   5.422   5.902
 6434SOL    HW120201   5.811   5.468   5.816
 6434SOL    HW220202   5.878   5.402   5.950
 6435SOL     OW20203   4.464   1.226   0.939
 6435SOL    HW120204   4.438   1.227   0.842
 6435SOL    HW220205   4.522   1.305   0.959
 6436SOL     OW20206   0.221   3.517   3.757
 6436SOL    HW120207   0.269   3.506   3.670
 6436SOL    HW220208   0.287   3.525   3.832
 6437SOL     OW20209   1.515   2.926   5.797
 6437SOL    HW120210   1.507   2.869   5.715
 6437SOL    HW220211   1.490   3.020   5.775
 6438SOL     OW20212   0.395   5.374   0.648
 6438SOL    HW120213   0.373   5.342   0.556
 6438SOL    HW220214   0.313   5.365   0.706
 6439SOL     OW20215   5.278   6.640   2.182
 6439SOL    HW120216   5.220   6.687   2.116
 6439SOL    HW220217   5.371   6.676   2.178
 6440SOL     OW20218   2.429   2.079   6.154
 6440SOL    HW120219   2.510   2.112   6.203
 6440SOL    HW220220   2.444   1.985   6.124
 6441SOL     OW20221   0.401   2.494   1.871
 6441SOL    HW120222   0.454   2.437   1.934
 6441SOL    HW220223   0.395   2.450   1.782
 6442SOL     OW20224   2.522   1.712   4.591
 6442SOL    HW120225   2.592   1.780   4.615
 6442SOL    HW220226   2.464   1.749   4.518
 6443SOL     OW20227   3.573   3.423   6.263
 6443SOL    HW120228   3.653   3.364   6.266
 6443SOL    HW220229   3.490   3.368   6.269
 6444SOL     OW20230   0.000   3.758   5.121
 6444SOL    HW120231   6.929   3.756   5.158
 6444SOL    HW220232   7.021   3.729   5.026
 6445SOL     OW20233   3.764   3.013   3.542
 6445SOL    HW120234   3.671   2.982   3.525
 6445SOL    HW220235   3.805   2.959   3.616
 6446SOL     OW20236   1.344   1.195   0.427
 6446SOL    HW120237   1.338   1.123   0.358
 6446SOL    HW220238   1.399   1.271   0.391
 6447SOL     OW20239   6.059   3.596   1.367
 6447SOL    HW120240   6.033   3.514   1.418
 6447SOL    HW220241   6.024   3.588   1.273
 6448SOL     OW20242   4.217   4.821   1.246
 6448SOL    HW120243   4.179   4.762   1.175
 6448SOL    HW220244   4.196   4.916   1.225
 6449SOL     OW20245   3.709   5.259   0.284
 6449SOL    HW120246   3.643   5.185   0.271
 6449SOL    HW220247   3.667   5.346   0.259
 6450SOL     OW20248   5.952   3.745   6.878
 6450SOL    HW120249   5.923   3.656   6.843
 6450SOL    HW220250   6.032   3.734   6.937
 6451SOL     OW20251   4.188   2.635   1.664
 6451SOL    HW120252   4.193   2.621   1.565
 6451SOL    HW220253   4.273   2.677   1.696
 6452SOL     OW20254   4.070   1.823   4.963
 6452SOL    HW120255   3.991   1.832   5.023
 6452SOL    HW220256   4.046   1.765   4.885
 6453SOL     OW20257   2.384   0.425   3.106
 6453SOL    HW120258   2.329   0.469   3.176
 6453SOL    HW220259   2.352   0.455   3.015
 6454SOL     OW20260   5.168   2.935   4.658
 6454SOL    HW120261   5.144   2.922   4.754
 6454SOL    HW220262   5.154   2.850   4.608
 6455SOL     OW20263   0.423   2.908   4.105
 6455SOL    HW120264   0.475   2.988   4.135
 6455SOL    HW220265   0.413   2.910   4.005
 6456SOL     OW20266   6.826   1.895   2.856
 6456SOL    HW120267   6.832   1.838   2.774
 6456SOL    HW220268   6.750   1.865   2.912
 6457SOL     OW20269   2.592   6.482   2.484
 6457SOL    HW120270   2.666   6.440   2.537
 6457SOL    HW220271   2.621   6.494   2.389
 6458SOL     OW20272   0.223   6.939   4.085
 6458SOL    HW120273   0.222   0.011   4.051
 6458SOL    HW220274   0.269   6.880   4.019
 6459SOL     OW20275   0.375   3.203   3.209
 6459SOL    HW120276   0.341   3.206   3.116
 6459SOL    HW220277   0.449   3.136   3.216
 6460SOL     OW20278   1.376   5.454   6.477
 6460SOL    HW120279   1.347   5.382   6.414
 6460SOL    HW220280   1.351   5.428   6.570
 6461SOL     OW20281   0.272   6.394   0.798
 6461SOL    HW120282   0.244   6.332   0.871
 6461SOL    HW220283   0.372   6.396   0.792
 6462SOL     OW20284   1.850   3.905   5.403
 6462SOL    HW120285   1.844   3.982   5.466
 6462SOL    HW220286   1.925   3.920   5.339
 6463SOL     OW20287   4.543   2.738   1.385
 6463SOL    HW120288   4.521   2.744   1.288
 6463SOL    HW220289   4.498   2.812   1.434
 6464SOL     OW20290   0.356   3.450   3.529
 6464SOL    HW120291   0.307   3.464   3.444
 6464SOL    HW220292   0.426   3.521   3.539
 6465SOL     OW20293   3.270   0.594   3.884
 6465SOL    HW120294   3.240   0.561   3.794
 6465SOL    HW220295   3.264   0.693   3.886
 6466SOL     OW20296   6.701   5.053   6.291
 6466SOL    HW120297   6.641   5.118   6.244
 6466SOL    HW220298   6.661   4.961   6.286
 6467SOL     OW20299   2.403   2.734   6.137
 6467SOL    HW120300   2.479   2.693   6.086
 6467SOL    HW220301   2.369   2.813   6.087
 6468SOL     OW20302   1.241   0.694   1.516
 6468SOL    HW120303   1.279   0.608   1.480
 6468SOL    HW220304   1.178   0.733   1.449
 6469SOL     OW20305   1.898   1.279   1.543
 6469SOL    HW120306   1.957   1.209   1.504
 6469SOL    HW220307   1.941   1.369   1.532
 6470SOL     OW20308   6.280   1.809   6.704
 6470SOL    HW120309   6.284   1.882   6.773
 6470SOL    HW220310   6.373   1.782   6.681
 6471SOL     OW20311   0.115   6.302   5.794
 6471SOL    HW120312   0.096   6.343   5.706
 6471SOL    HW220313   0.207   6.327   5.824
 6472SOL     OW20314   0.087   5.959   2.158
 6472SOL    HW120315   0.129   6.042   2.121
 6472SOL    HW220316   7.013   5.954   2.129
 6473SOL     OW20317   3.136   1.001   3.284
 6473SOL    HW120318   3.066   0.935   3.312
 6473SOL    HW220319   3.227   0.960   3.295
 6474SOL     OW20320   3.376   6.625   3.855
 6474SOL    HW120321   3.386   6.649   3.758
 6474SOL    HW220322   3.459   6.650   3.904
 6475SOL     OW20323   5.521   5.760   2.740
 6475SOL    HW120324   5.499   5.662   2.741
 6475SOL    HW220325   5.604   5.776   2.794
 6476SOL     OW20326   4.817   3.475   6.311
 6476SOL    HW120327   4.807   3.574   6.303
 6476SOL    HW220328   4.829   3.450   6.408
 6477SOL     OW20329   0.698   6.568   0.660
 6477SOL    HW120330   0.699   6.501   0.734
 6477SOL    HW220331   0.767   6.638   0.677
 6478SOL     OW20332   1.188   5.903   1.187
 6478SOL    HW120333   1.147   5.930   1.100
 6478SOL    HW220334   1.254   5.829   1.171
 6479SOL     OW20335   4.432   5.994   3.392
 6479SOL    HW120336   4.457   6.069   3.453
 6479SOL    HW220337   4.512   5.968   3.337
 6480SOL     OW20338   3.446   1.334   5.293
 6480SOL    HW120339   3.383   1.332   5.215
 6480SOL    HW220340   3.445   1.425   5.335
 6481SOL     OW20341   4.207   3.326   1.965
 6481SOL    HW120342   4.187   3.340   2.062
 6481SOL    HW220343   4.269   3.248   1.955
 6482SOL     OW20344   4.737   3.273   5.236
 6482SOL    HW120345   4.807   3.342   5.253
 6482SOL    HW220346   4.777   3.198   5.183
 6483SOL     OW20347   1.986   5.759   5.294
 6483SOL    HW120348   2.035   5.695   5.234
 6483SOL    HW220349   1.892   5.728   5.306
 6484SOL     OW20350   4.285   1.687   3.616
 6484SOL    HW120351   4.325   1.777   3.598
 6484SOL    HW220352   4.189   1.687   3.587
 6485SOL     OW20353   2.367   5.179   5.121
 6485SOL    HW120354   2.419   5.125   5.055
 6485SOL    HW220355   2.272   5.187   5.091
 6486SOL     OW20356   6.956   4.648   2.499
 6486SOL    HW120357   6.983   4.745   2.498
 6486SOL    HW220358   0.016   4.591   2.506
 6487SOL     OW20359   6.346   5.223   4.036
 6487SOL    HW120360   6.443   5.243   4.053
 6487SOL    HW220361   6.293   5.308   4.043
 6488SOL     OW20362   3.814   5.175   3.931
 6488SOL    HW120363   3.793   5.270   3.955
 6488SOL    HW220364   3.730   5.123   3.921
 6489SOL     OW20365   6.221   3.151   5.295
 6489SOL    HW120366   6.266   3.143   5.206
 6489SOL    HW220367   6.190   3.061   5.325
 6490SOL     OW20368   2.129   2.573   0.489
 6490SOL    HW120369   2.163   2.554   0.581
 6490SOL    HW220370   2.180   2.649   0.449
 6491SOL     OW20371   1.371   0.077   1.591
 6491SOL    HW120372   1.419   0.158   1.558
 6491SOL    HW220373   1.304   0.104   1.660
 6492SOL     OW20374   3.956   3.707   4.268
 6492SOL    HW120375   3.979   3.613   4.242
 6492SOL    HW220376   3.994   3.727   4.358
 6493SOL     OW20377   1.158   4.479   3.866
 6493SOL    HW120378   1.132   4.425   3.786
 6493SOL    HW220379   1.257   4.475   3.878
 6494SOL     OW20380   6.256   0.751   1.250
 6494SOL    HW120381   6.263   0.651   1.241
 6494SOL    HW220382   6.195   0.786   1.179
 6495SOL     OW20383   6.917   0.108   3.381
 6495SOL    HW120384   6.919   0.118   3.481
 6495SOL    HW220385   6.913   0.198   3.339
 6496SOL     OW20386   3.250   2.175   1.831
 6496SOL    HW120387   3.190   2.221   1.766
 6496SOL    HW220388   3.343   2.174   1.795
 6497SOL     OW20389   0.621   1.856   0.700
 6497SOL    HW120390   0.693   1.849   0.769
 6497SOL    HW220391   0.572   1.943   0.710
 6498SOL     OW20392   1.736   4.807   4.446
 6498SOL    HW120393   1.794   4.842   4.519
 6498SOL    HW220394   1.686   4.726   4.478
 6499SOL     OW20395   4.760   2.330   3.096
 6499SOL    HW120396   4.734   2.360   3.188
 6499SOL    HW220397   4.715   2.386   3.028
 6500SOL     OW20398   1.063   3.468   3.261
 6500SOL    HW120399   1.148   3.506   3.295
 6500SOL    HW220400   1.078   3.375   3.228
 6501SOL     OW20401   6.397   0.839   2.677
 6501SOL    HW120402   6.460   0.784   2.732
 6501SOL    HW220403   6.314   0.787   2.660
 6502SOL     OW20404   0.956   2.989   1.632
 6502SOL    HW120405   1.002   3.010   1.545
 6502SOL    HW220406   0.995   3.045   1.705
 6503SOL     OW20407   6.957   3.000   5.901
 6503SOL    HW120408   6.903   2.977   5.982
 6503SOL    HW220409   6.895   3.022   5.825
 6504SOL     OW20410   3.525   6.801   6.117
 6504SOL    HW120411   3.469   6.723   6.145
 6504SOL    HW220412   3.599   6.770   6.058
 6505SOL     OW20413   0.046   7.006   1.031
 6505SOL    HW120414   0.056   6.906   1.037
 6505SOL    HW220415   0.098   0.018   0.952
 6506SOL     OW20416   6.886   3.869   1.914
 6506SOL    HW120417   6.812   3.899   1.854
 6506SOL    HW220418   6.966   3.848   1.859
 6507SOL     OW20419   3.889   5.917   0.912
 6507SOL    HW120420   3.816   5.924   0.980
 6507SOL    HW220421   3.902   5.822   0.887
 6508SOL     OW20422   6.822   0.268   3.718
 6508SOL    HW120423   6.780   0.310   3.798
 6508SOL    HW220424   6.874   0.187   3.746
 6509SOL     OW20425   2.244   1.875   6.776
 6509SOL    HW120426   2.329   1.916   6.744
 6509SOL    HW220427   2.166   1.925   6.736
 6510SOL     OW20428   3.343   5.192   4.380
 6510SOL    HW120429   3.417   5.190   4.448
 6510SOL    HW220430   3.329   5.285   4.349
 6511SOL     OW20431   3.516   2.153   0.324
 6511SOL    HW120432   3.505   2.086   0.397
 6511SOL    HW220433   3.541   2.241   0.363
 6512SOL     OW20434   4.887   0.519   0.507
 6512SOL    HW120435   4.963   0.455   0.492
 6512SOL    HW220436   4.817   0.474   0.564
 6513SOL     OW20437   2.773   4.811   2.838
 6513SOL    HW120438   2.697   4.826   2.902
 6513SOL    HW220439   2.793   4.713   2.834
 6514SOL     OW20440   5.431   6.392   5.520
 6514SOL    HW120441   5.393   6.478   5.486
 6514SOL    HW220442   5.446   6.329   5.443
 6515SOL     OW20443   0.576   4.925   2.515
 6515SOL    HW120444   0.554   4.850   2.451
 6515SOL    HW220445   0.595   5.008   2.463
 6516SOL     OW20446   6.227   2.173   3.265
 6516SOL    HW120447   6.177   2.148   3.182
 6516SOL    HW220448   6.172   2.150   3.345
 6517SOL     OW20449   6.477   3.687   0.486
 6517SOL    HW120450   6.455   3.783   0.468
 6517SOL    HW220451   6.553   3.659   0.429
 6518SOL     OW20452   0.826   1.262   2.050
 6518SOL    HW120453   0.729   1.255   2.075
 6518SOL    HW220454   0.876   1.307   2.124
 6519SOL     OW20455   1.307   0.864   3.668
 6519SOL    HW120456   1.390   0.815   3.642
 6519SOL    HW220457   1.332   0.955   3.701
 6520SOL     OW20458   6.392   5.240   0.109
 6520SOL    HW120459   6.316   5.253   0.045
 6520SOL    HW220460   6.471   5.204   0.060
 6521SOL     OW20461   1.480   4.775   4.855
 6521SOL    HW120462   1.457   4.680   4.873
 6521SOL    HW220463   1.486   4.790   4.756
 6522SOL     OW20464   2.481   2.751   5.279
 6522SOL    HW120465   2.420   2.728   5.203
 6522SOL    HW220466   2.508   2.847   5.273
 6523SOL     OW20467   5.919   6.648   1.016
 6523SOL    HW120468   5.962   6.722   0.965
 6523SOL    HW220469   5.977   6.623   1.093
 6524SOL     OW20470   3.128   2.577   1.182
 6524SOL    HW120471   3.149   2.535   1.093
 6524SOL    HW220472   3.093   2.507   1.244
 6525SOL     OW20473   1.517   4.773   3.850
 6525SOL    HW120474   1.503   4.809   3.758
 6525SOL    HW220475   1.615   4.756   3.865
 6526SOL     OW20476   6.411   6.850   0.982
 6526SOL    HW120477   6.510   6.839   0.992
 6526SOL    HW220478   6.392   6.920   0.913
 6527SOL     OW20479   5.516   1.501   0.532
 6527SOL    HW120480   5.430   1.551   0.516
 6527SOL    HW220481   5.503   1.438   0.609
 6528SOL     OW20482   4.188   6.828   0.075
 6528SOL    HW120483   4.112   6.764   0.067
 6528SOL    HW220484   4.249   6.799   0.149
 6529SOL     OW20485   4.460   0.289   1.846
 6529SOL    HW120486   4.496   0.200   1.815
 6529SOL    HW220487   4.391   0.321   1.781
 6530SOL     OW20488   0.018   2.744   3.584
 6530SOL    HW120489   6.972   2.673   3.605
 6530SOL    HW220490   6.994   2.820   3.536
 6531SOL     OW20491   3.762   3.864   3.809
 6531SOL    HW120492   3.788   3.819   3.894
 6531SOL    HW220493   3.669   3.900   3.817
 6532SOL     OW20494   0.461   6.121   0.535
 6532SOL    HW120495   0.554   6.097   0.509
 6532SOL    HW220496   0.457   6.218   0.560
 6533SOL     OW20497   4.979   4.772   1.586
 6533SOL    HW120498   4.904   4.740   1.529
 6533SOL    HW220499   4.947   4.785   1.680
 6534SOL     OW20500   6.825   3.904   3.966
 6534SOL    HW120501   6.779   3.982   3.924
 6534SOL    HW220502   6.861   3.844   3.894
 6535SOL     OW20503   5.460   4.215   5.904
 6535SOL    HW120504   5.465   4.117   5.921
 6535SOL    HW220505   5.508   4.236   5.818
 6536SOL     OW20506   0.645   4.994   5.631
 6536SOL    HW120507   0.631   4.905   5.587
 6536SOL    HW220508   0.587   5.000   5.712
 6537SOL     OW20509   0.059   5.407   4.004
 6537SOL    HW120510   7.002   5.450   4.049
 6537SOL    HW220511   0.121   5.477   3.970
 6538SOL     OW20512   1.235   2.816   4.085
 6538SOL    HW120513   1.183   2.757   4.023
 6538SOL    HW220514   1.332   2.801   4.071
 6539SOL     OW20515   4.599   6.588   7.008
 6539SOL    HW120516   4.565   6.618   0.076
 6539SOL    HW220517   4.643   6.664   6.961
 6540SOL     OW20518   0.275   2.680   5.432
 6540SOL    HW120519   0.250   2.736   5.353
 6540SOL    HW220520   0.203   2.685   5.501
 6541SOL     OW20521   4.129   1.705   5.256
 6541SOL    HW120522   4.063   1.745   5.193
 6541SOL    HW220523   4.120   1.605   5.255
 6542SOL     OW20524   1.467   4.118   2.301
 6542SOL    HW120525   1.425   4.114   2.392
 6542SOL    HW220526   1.490   4.213   2.280
 6543SOL     OW20527   4.426   1.283   4.457
 6543SOL    HW120528   4.421   1.262   4.555
 6543SOL    HW220529   4.427   1.199   4.404
 6544SOL     OW20530   0.316   0.242   0.411
 6544SOL    HW120531   0.405   0.208   0.443
 6544SOL    HW220532   0.310   0.340   0.430
 6545SOL     OW20533   5.052   6.167   1.033
 6545SOL    HW120534   4.963   6.152   1.077
 6545SOL    HW220535   5.123   6.123   1.087
 6546SOL     OW20536   4.634   5.352   5.714
 6546SOL    HW120537   4.573   5.381   5.788
 6546SOL    HW220538   4.582   5.347   5.628
 6547SOL     OW20539   0.755   6.228   5.392
 6547SOL    HW120540   0.674   6.276   5.424
 6547SOL    HW220541   0.823   6.293   5.359
 6548SOL     OW20542   1.422   1.764   6.204
 6548SOL    HW120543   1.325   1.755   6.227
 6548SOL    HW220544   1.470   1.808   6.279
 6549SOL     OW20545   3.647   1.703   2.645
 6549SOL    HW120546   3.592   1.782   2.615
 6549SOL    HW220547   3.605   1.619   2.612
 6550SOL     OW20548   6.020   6.405   1.917
 6550SOL    HW120549   5.995   6.448   2.003
 6550SOL    HW220550   5.949   6.340   1.890
 6551SOL     OW20551   2.749   4.862   0.669
 6551SOL    HW120552   2.667   4.884   0.722
 6551SOL    HW220553   2.761   4.930   0.596
 6552SOL     OW20554   2.313   4.486   0.097
 6552SOL    HW120555   2.327   4.407   0.157
 6552SOL    HW220556   2.239   4.542   0.132
 6553SOL     OW20557   0.504   2.056   3.833
 6553SOL    HW120558   0.410   2.042   3.802
 6553SOL    HW220559   0.521   2.154   3.844
 6554SOL     OW20560   1.551   1.884   4.238
 6554SOL    HW120561   1.610   1.882   4.158
 6554SOL    HW220562   1.482   1.812   4.231
 6555SOL     OW20563   1.813   3.308   4.384
 6555SOL    HW120564   1.832   3.250   4.305
 6555SOL    HW220565   1.825   3.404   4.359
 6556SOL     OW20566   4.924   3.291   2.923
 6556SOL    HW120567   4.851   3.285   2.991
 6556SOL    HW220568   4.982   3.210   2.929
 6557SOL     OW20569   2.361   0.669   2.393
 6557SOL    HW120570   2.262   0.657   2.398
 6557SOL    HW220571   2.395   0.698   2.482
 6558SOL     OW20572   5.687   6.064   0.985
 6558SOL    HW120573   5.656   6.100   1.073
 6558SOL    HW220574   5.647   5.974   0.969
 6559SOL     OW20575   6.933   2.339   6.379
 6559SOL    HW120576   6.990   2.410   6.421
 6559SOL    HW220577   6.904   2.274   6.450
 6560SOL     OW20578   6.462   4.552   6.610
 6560SOL    HW120579   6.519   4.562   6.692
 6560SOL    HW220580   6.423   4.460   6.607
 6561SOL     OW20581   2.300   5.002   0.681
 6561SOL    HW120582   2.273   5.092   0.716
 6561SOL    HW220583   2.280   4.932   0.750
 6562SOL     OW20584   4.794   2.518   1.640
 6562SOL    HW120585   4.874   2.460   1.655
 6562SOL    HW220586   4.774   2.568   1.724
 6563SOL     OW20587   6.765   4.863   5.469
 6563SOL    HW120588   6.686   4.873   5.531
 6563SOL    HW220589   6.790   4.766   5.463
 6564SOL     OW20590   5.569   3.125   2.235
 6564SOL    HW120591   5.489   3.065   2.228
 6564SOL    HW220592   5.559   3.201   2.171
 6565SOL     OW20593   5.110   6.494   2.651
 6565SOL    HW120594   5.061   6.446   2.724
 6565SOL    HW220595   5.140   6.584   2.684
 6566SOL     OW20596   5.390   5.327   3.764
 6566SOL    HW120597   5.295   5.299   3.779
 6566SOL    HW220598   5.392   5.401   3.697
 6567SOL     OW20599   3.230   0.651   2.725
 6567SOL    HW120600   3.276   0.565   2.748
 6567SOL    HW220601   3.207   0.700   2.809
 6568SOL     OW20602   4.944   0.914   0.774
 6568SOL    HW120603   5.006   0.989   0.796
 6568SOL    HW220604   4.991   0.847   0.717
 6569SOL     OW20605   1.083   4.743   3.757
 6569SOL    HW120606   1.024   4.754   3.678
 6569SOL    HW220607   1.156   4.677   3.735
 6570SOL     OW20608   4.405   0.501   2.339
 6570SOL    HW120609   4.339   0.497   2.264
 6570SOL    HW220610   4.380   0.575   2.402
 6571SOL     OW20611   2.524   6.731   3.141
 6571SOL    HW120612   2.592   6.692   3.079
 6571SOL    HW220613   2.556   6.721   3.236
 6572SOL     OW20614   1.880   6.058   4.135
 6572SOL    HW120615   1.787   6.086   4.157
 6572SOL    HW220616   1.898   6.075   4.039
 6573SOL     OW20617   6.932   2.264   3.219
 6573SOL    HW120618   0.001   2.265   3.262
 6573SOL    HW220619   6.911   2.172   3.186
 6574SOL     OW20620   0.982   4.732   2.021
 6574SOL    HW120621   0.896   4.738   1.970
 6574SOL    HW220622   1.010   4.824   2.049
 6575SOL     OW20623   6.938   1.728   3.805
 6575SOL    HW120624   6.936   1.813   3.857
 6575SOL    HW220625   6.932   1.748   3.707
 6576SOL     OW20626   3.827   6.844   1.535
 6576SOL    HW120627   3.853   6.751   1.561
 6576SOL    HW220628   3.727   6.852   1.539
 6577SOL     OW20629   3.250   1.025   4.789
 6577SOL    HW120630   3.289   1.061   4.874
 6577SOL    HW220631   3.311   1.047   4.713
 6578SOL     OW20632   1.329   4.918   0.787
 6578SOL    HW120633   1.361   4.885   0.876
 6578SOL    HW220634   1.233   4.892   0.774
 6579SOL     OW20635   1.391   1.533   3.700
 6579SOL    HW120636   1.294   1.512   3.692
 6579SOL    HW220637   1.415   1.544   3.797
 6580SOL     OW20638   3.189   2.055   0.124
 6580SOL    HW120639   3.263   2.122   0.131
 6580SOL    HW220640   3.158   2.050   0.029
 6581SOL     OW20641   0.709   2.100   1.788
 6581SOL    HW120642   0.784   2.075   1.726
 6581SOL    HW220643   0.711   2.041   1.868
 6582SOL     OW20644   4.958   0.653   2.981
 6582SOL    HW120645   4.891   0.668   3.054
 6582SOL    HW220646   5.050   0.676   3.015
 6583SOL     OW20647   2.743   4.349   0.790
 6583SOL    HW120648   2.785   4.363   0.880
 6583SOL    HW220649   2.759   4.429   0.733
 6584SOL     OW20650   4.191   2.535   6.347
 6584SOL    HW120651   4.151   2.610   6.399
 6584SOL    HW220652   4.223   2.569   6.259
 6585SOL     OW20653   5.294   6.892   1.770
 6585SOL    HW120654   5.242   6.950   1.833
 6585SOL    HW220655   5.233   6.826   1.727
 6586SOL     OW20656   6.565   0.941   6.479
 6586SOL    HW120657   6.661   0.925   6.456
 6586SOL    HW220658   6.541   0.889   6.562
 6587SOL     OW20659   3.500   4.975   4.954
 6587SOL    HW120660   3.547   4.939   5.034
 6587SOL    HW220661   3.415   4.924   4.939
 6588SOL     OW20662   1.164   1.722   0.128
 6588SOL    HW120663   1.137   1.749   0.221
 6588SOL    HW220664   1.091   1.746   0.064
 6589SOL     OW20665   6.408   6.316   1.745
 6589SOL    HW120666   6.353   6.252   1.691
 6589SOL    HW220667   6.444   6.270   1.826
 6590SOL     OW20668   1.380   6.265   4.550
 6590SOL    HW120669   1.370   6.363   4.566
 6590SOL    HW220670   1.443   6.227   4.617
 6591SOL     OW20671   6.410   3.241   3.860
 6591SOL    HW120672   6.329   3.216   3.912
 6591SOL    HW220673   6.408   3.195   3.771
 6592SOL     OW20674   6.656   0.350   3.931
 6592SOL    HW120675   6.560   0.363   3.908
 6592SOL    HW220676   6.665   0.273   3.995
 6593SOL     OW20677   2.113   0.781   2.498
 6593SOL    HW120678   2.025   0.754   2.460
 6593SOL    HW220679   2.148   0.861   2.449
 6594SOL     OW20680   5.311   0.159   0.279
 6594SOL    HW120681   5.367   0.087   0.238
 6594SOL    HW220682   5.307   0.147   0.379
 6595SOL     OW20683   0.721   1.681   5.192
 6595SOL    HW120684   0.636   1.686   5.141
 6595SOL    HW220685   0.798   1.696   5.130
 6596SOL     OW20686   5.336   1.237   2.284
 6596SOL    HW120687   5.357   1.327   2.323
 6596SOL    HW220688   5.339   1.168   2.357
 6597SOL     OW20689   1.044   4.627   0.970
 6597SOL    HW120690   1.104   4.565   0.919
 6597SOL    HW220691   0.951   4.592   0.969
 6598SOL     OW20692   1.134   5.034   2.932
 6598SOL    HW120693   1.170   5.011   3.023
 6598SOL    HW220694   1.080   5.118   2.939
 6599SOL     OW20695   0.585   5.915   6.465
 6599SOL    HW120696   0.618   5.933   6.372
 6599SOL    HW220697   0.493   5.951   6.476
 6600SOL     OW20698   4.714   6.309   4.710
 6600SOL    HW120699   4.711   6.351   4.800
 6600SOL    HW220700   4.622   6.308   4.670
 6601SOL     OW20701   1.325   2.976   1.513
 6601SOL    HW120702   1.244   3.012   1.467
 6601SOL    HW220703   1.371   2.911   1.453
 6602SOL     OW20704   6.717   5.239   1.012
 6602SOL    HW120705   6.678   5.325   1.044
 6602SOL    HW220706   6.654   5.164   1.033
 6603SOL     OW20707   0.455   4.256   2.518
 6603SOL    HW120708   0.461   4.187   2.589
 6603SOL    HW220709   0.494   4.342   2.551
 6604SOL     OW20710   1.425   5.562   2.830
 6604SOL    HW120711   1.403   5.465   2.821
 6604SOL    HW220712   1.341   5.613   2.845
 6605SOL     OW20713   6.968   5.246   1.172
 6605SOL    HW120714   6.941   5.327   1.225
 6605SOL    HW220715   6.888   5.205   1.129
 6606SOL     OW20716   1.745   4.145   2.977
 6606SOL    HW120717   1.804   4.089   3.035
 6606SOL    HW220718   1.749   4.112   2.882
 6607SOL     OW20719   5.894   3.272   4.183
 6607SOL    HW120720   5.929   3.300   4.093
 6607SOL    HW220721   5.828   3.340   4.215
 6608SOL     OW20722   1.185   0.209   5.791
 6608SOL    HW120723   1.158   0.152   5.713
 6608SOL    HW220724   1.130   0.293   5.791
 6609SOL     OW20725   3.380   2.280   0.107
 6609SOL    HW120726   3.441   2.239   0.176
 6609SOL    HW220727   3.426   2.356   0.063
 6610SOL     OW20728   2.990   6.547   1.129
 6610SOL    HW120729   2.947   6.459   1.111
 6610SOL    HW220730   2.946   6.618   1.073
 6611SOL     OW20731   3.131   1.302   4.698
 6611SOL    HW120732   3.134   1.400   4.677
 6611SOL    HW220733   3.204   1.255   4.648
 6612SOL     OW20734   0.636   0.259   0.185
 6612SOL    HW120735   0.562   0.199   0.153
 6612SOL    HW220736   0.596   0.342   0.224
 6613SOL     OW20737   4.405   6.786   0.837
 6613SOL    HW120738   4.425   6.688   0.832
 6613SOL    HW220739   4.460   6.827   0.910
 6614SOL     OW20740   3.800   4.889   0.855
 6614SOL    HW120741   3.750   4.881   0.941
 6614SOL    HW220742   3.783   4.809   0.798
 6615SOL     OW20743   3.296   5.237   6.261
 6615SOL    HW120744   3.252   5.191   6.339
 6615SOL    HW220745   3.257   5.329   6.251
 6616SOL     OW20746   4.372   1.236   0.230
 6616SOL    HW120747   4.432   1.314   0.243
 6616SOL    HW220748   4.426   1.152   0.225
 6617SOL     OW20749   3.726   1.045   3.804
 6617SOL    HW120750   3.670   1.125   3.824
 6617SOL    HW220751   3.715   1.019   3.708
 6618SOL     OW20752   5.783   2.597   4.235
 6618SOL    HW120753   5.802   2.557   4.325
 6618SOL    HW220754   5.697   2.647   4.239
 6619SOL     OW20755   4.855   5.133   3.808
 6619SOL    HW120756   4.832   5.057   3.869
 6619SOL    HW220757   4.840   5.220   3.856
 6620SOL     OW20758   1.110   2.319   3.294
 6620SOL    HW120759   1.095   2.300   3.197
 6620SOL    HW220760   1.034   2.282   3.348
 6621SOL     OW20761   3.168   3.491   3.926
 6621SOL    HW120762   3.212   3.516   3.840
 6621SOL    HW220763   3.088   3.550   3.941
 6622SOL     OW20764   0.188   5.127   1.292
 6622SOL    HW120765   0.203   5.032   1.264
 6622SOL    HW220766   0.102   5.160   1.254
 6623SOL     OW20767   3.130   3.957   3.833
 6623SOL    HW120768   3.170   3.867   3.814
 6623SOL    HW220769   3.163   3.990   3.921
 6624SOL     OW20770   2.814   2.321   3.020
 6624SOL    HW120771   2.863   2.404   2.994
 6624SOL    HW220772   2.721   2.325   2.985
 6625SOL     OW20773   6.820   3.879   5.430
 6625SOL    HW120774   6.769   3.808   5.381
 6625SOL    HW220775   6.758   3.953   5.455
 6626SOL     OW20776   3.316   5.537   5.177
 6626SOL    HW120777   3.278   5.629   5.166
 6626SOL    HW220778   3.413   5.538   5.151
 6627SOL     OW20779   2.467   6.080   4.105
 6627SOL    HW120780   2.543   6.135   4.140
 6627SOL    HW220781   2.481   6.062   4.007
 6628SOL     OW20782   3.829   0.260   2.977
 6628SOL    HW120783   3.733   0.280   2.960
 6628SOL    HW220784   3.858   0.308   3.060
 6629SOL     OW20785   4.690   5.420   4.983
 6629SOL    HW120786   4.741   5.494   4.938
 6629SOL    HW220787   4.701   5.427   5.082
 6630SOL     OW20788   1.756   0.427   6.965
 6630SOL    HW120789   1.832   0.460   0.000
 6630SOL    HW220790   1.786   0.419   6.870
 6631SOL     OW20791   2.156   2.976   5.840
 6631SOL    HW120792   2.107   3.056   5.873
 6631SOL    HW220793   2.127   2.955   5.747
 6632SOL     OW20794   1.245   0.327   0.046
 6632SOL    HW120795   1.247   0.403   0.110
 6632SOL    HW220796   1.166   0.269   0.064
 6633SOL     OW20797   4.013   5.824   6.160
 6633SOL    HW120798   4.062   5.909   6.179
 6633SOL    HW220799   4.028   5.760   6.236
 6634SOL     OW20800   3.036   2.222   3.939
 6634SOL    HW120801   3.070   2.161   4.010
 6634SOL    HW220802   3.110   2.244   3.875
 6635SOL     OW20803   5.499   5.581   5.460
 6635SOL    HW120804   5.573   5.616   5.517
 6635SOL    HW220805   5.478   5.648   5.389
 6636SOL     OW20806   3.972   1.122   0.515
 6636SOL    HW120807   4.032   1.155   0.443
 6636SOL    HW220808   4.018   1.133   0.604
 6637SOL     OW20809   0.011   1.751   0.203
 6637SOL    HW120810   0.085   1.758   0.270
 6637SOL    HW220811   7.014   1.841   0.164
 6638SOL     OW20812   3.523   3.520   3.780
 6638SOL    HW120813   3.609   3.554   3.743
 6638SOL    HW220814   3.543   3.452   3.851
 6639SOL     OW20815   4.717   2.246   1.520
 6639SOL    HW120816   4.778   2.324   1.536
 6639SOL    HW220817   4.742   2.201   1.434
 6640SOL     OW20818   1.445   4.219   5.199
 6640SOL    HW120819   1.480   4.301   5.245
 6640SOL    HW220820   1.502   4.141   5.223
 6641SOL     OW20821   6.501   2.451   0.110
 6641SOL    HW120822   6.528   2.408   0.196
 6641SOL    HW220823   6.503   2.551   0.121
 6642SOL     OW20824   0.914   5.253   6.582
 6642SOL    HW120825   0.890   5.307   6.501
 6642SOL    HW220826   0.961   5.312   6.648
 6643SOL     OW20827   3.559   5.533   6.184
 6643SOL    HW120828   3.658   5.541   6.193
 6643SOL    HW220829   3.518   5.522   6.274
 6644SOL     OW20830   2.521   0.300   3.971
 6644SOL    HW120831   2.599   0.336   3.920
 6644SOL    HW220832   2.509   0.203   3.949
 6645SOL     OW20833   4.831   2.762   6.129
 6645SOL    HW120834   4.785   2.680   6.095
 6645SOL    HW220835   4.777   2.843   6.108
 6646SOL     OW20836   4.764   0.303   5.402
 6646SOL    HW120837   4.808   0.360   5.332
 6646SOL    HW220838   4.824   0.227   5.425
 6647SOL     OW20839   4.247   4.442   0.569
 6647SOL    HW120840   4.252   4.487   0.480
 6647SOL    HW220841   4.340   4.423   0.602
 6648SOL     OW20842   3.166   5.454   5.436
 6648SOL    HW120843   3.248   5.465   5.380
 6648SOL    HW220844   3.103   5.529   5.417
 6649SOL     OW20845   4.377   2.878   6.138
 6649SOL    HW120846   4.398   2.787   6.102
 6649SOL    HW220847   4.310   2.922   6.079
 6650SOL     OW20848   2.619   1.081   5.374
 6650SOL    HW120849   2.525   1.101   5.345
 6650SOL    HW220850   2.618   1.031   5.460
 6651SOL     OW20851   0.089   1.660   5.630
 6651SOL    HW120852   0.186   1.650   5.609
 6651SOL    HW220853   0.048   1.727   5.567
 6652SOL     OW20854   6.911   4.424   0.081
 6652SOL    HW120855   6.874   4.371   0.005
 6652SOL    HW220856   6.956   4.506   0.046
 6653SOL     OW20857   6.022   4.255   6.892
 6653SOL    HW120858   5.932   4.213   6.879
 6653SOL    HW220859   6.010   4.350   6.919
 6654SOL     OW20860   6.392   2.525   3.146
 6654SOL    HW120861   6.412   2.473   3.229
 6654SOL    HW220862   6.465   2.591   3.130
 6655SOL     OW20863   0.103   5.890   1.477
 6655SOL    HW120864   0.052   5.946   1.543
 6655SOL    HW220865   0.126   5.946   1.397
 6656SOL     OW20866   4.248   1.186   3.059
 6656SOL    HW120867   4.216   1.108   3.113
 6656SOL    HW220868   4.277   1.154   2.969
 6657SOL     OW20869   4.999   1.296   4.635
 6657SOL    HW120870   4.993   1.394   4.657
 6657SOL    HW220871   5.067   1.283   4.562
 6658SOL     OW20872   6.703   5.850   4.919
 6658SOL    HW120873   6.708   5.760   4.963
 6658SOL    HW220874   6.790   5.869   4.873
 6659SOL     OW20875   0.464   5.556   1.027
 6659SOL    HW120876   0.492   5.502   1.106
 6659SOL    HW220877   0.435   5.495   0.953
 6660SOL     OW20878   0.559   0.541   4.697
 6660SOL    HW120879   0.460   0.525   4.703
 6660SOL    HW220880   0.602   0.463   4.653
 6661SOL     OW20881   4.129   6.044   4.098
 6661SOL    HW120882   4.140   5.959   4.047
 6661SOL    HW220883   4.154   6.122   4.040
 6662SOL     OW20884   3.308   6.743   2.245
 6662SOL    HW120885   3.386   6.805   2.245
 6662SOL    HW220886   3.335   6.655   2.284
 6663SOL     OW20887   1.570   4.448   5.705
 6663SOL    HW120888   1.659   4.462   5.748
 6663SOL    HW220889   1.537   4.535   5.667
 6664SOL     OW20890   3.136   6.831   1.512
 6664SOL    HW120891   3.108   6.900   1.446
 6664SOL    HW220892   3.205   6.868   1.573
 6665SOL     OW20893   2.593   0.649   6.976
 6665SOL    HW120894   2.580   0.707   6.896
 6665SOL    HW220895   2.655   0.694   0.019
 6666SOL     OW20896   3.492   5.989   5.522
 6666SOL    HW120897   3.474   5.900   5.563
 6666SOL    HW220898   3.435   6.059   5.565
 6667SOL     OW20899   1.720   6.171   6.604
 6667SOL    HW120900   1.752   6.076   6.599
 6667SOL    HW220901   1.759   6.215   6.685
 6668SOL     OW20902   6.756   4.123   0.405
 6668SOL    HW120903   6.723   4.055   0.339
 6668SOL    HW220904   6.680   4.181   0.433
 6669SOL     OW20905   1.541   2.642   3.620
 6669SOL    HW120906   1.614   2.707   3.598
 6669SOL    HW220907   1.566   2.551   3.586
 6670SOL     OW20908   3.220   3.493   0.578
 6670SOL    HW120909   3.155   3.564   0.550
 6670SOL    HW220910   3.177   3.432   0.643
 6671SOL     OW20911   4.399   4.639   0.171
 6671SOL    HW120912   4.324   4.673   0.227
 6671SOL    HW220913   4.446   4.565   0.219
 6672SOL     OW20914   1.140   2.697   1.182
 6672SOL    HW120915   1.163   2.600   1.176
 6672SOL    HW220916   1.140   2.725   1.278
 6673SOL     OW20917   6.175   3.013   4.096
 6673SOL    HW120918   6.253   3.000   4.157
 6673SOL    HW220919   6.138   2.924   4.071
 6674SOL     OW20920   6.738   0.555   0.634
 6674SOL    HW120921   6.709   0.643   0.672
 6674SOL    HW220922   6.732   0.558   0.535
 6675SOL     OW20923   4.912   0.311   0.103
 6675SOL    HW120924   5.010   0.301   0.089
 6675SOL    HW220925   4.864   0.238   0.054
 6676SOL     OW20926   0.543   3.642   5.027
 6676SOL    HW120927   0.475   3.712   5.003
 6676SOL    HW220928   0.573   3.595   4.944
 6677SOL     OW20929   0.308   1.897   6.339
 6677SOL    HW120930   0.405   1.908   6.318
 6677SOL    HW220931   0.292   1.804   6.375
 6678SOL     OW20932   3.176   3.897   6.579
 6678SOL    HW120933   3.114   3.915   6.503
 6678SOL    HW220934   3.221   3.982   6.606
 6679SOL     OW20935   1.390   0.856   4.040
 6679SOL    HW120936   1.414   0.759   4.032
 6679SOL    HW220937   1.470   0.912   4.020
 6680SOL     OW20938   6.464   5.286   1.515
 6680SOL    HW120939   6.456   5.190   1.543
 6680SOL    HW220940   6.533   5.331   1.571
 6681SOL     OW20941   2.365   5.891   1.345
 6681SOL    HW120942   2.440   5.879   1.410
 6681SOL    HW220943   2.396   5.869   1.253
 6682SOL     OW20944   2.693   5.334   6.150
 6682SOL    HW120945   2.617   5.364   6.094
 6682SOL    HW220946   2.748   5.268   6.100
 6683SOL     OW20947   6.884   5.208   5.718
 6683SOL    HW120948   6.972   5.237   5.681
 6683SOL    HW220949   6.892   5.115   5.755
 6684SOL     OW20950   2.850   5.400   6.617
 6684SOL    HW120951   2.798   5.317   6.595
 6684SOL    HW220952   2.938   5.397   6.570
 6685SOL     OW20953   4.514   2.770   1.123
 6685SOL    HW120954   4.438   2.828   1.093
 6685SOL    HW220955   4.522   2.691   1.063
 6686SOL     OW20956   5.132   4.778   5.257
 6686SOL    HW120957   5.126   4.836   5.338
 6686SOL    HW220958   5.101   4.828   5.177
 6687SOL     OW20959   0.573   1.742   1.524
 6687SOL    HW120960   0.491   1.755   1.467
 6687SOL    HW220961   0.612   1.652   1.505
 6688SOL     OW20962   4.672   5.703   0.543
 6688SOL    HW120963   4.626   5.717   0.455
 6688SOL    HW220964   4.629   5.762   0.612
 6689SOL     OW20965   3.280   4.698   5.580
 6689SOL    HW120966   3.244   4.605   5.590
 6689SOL    HW220967   3.317   4.729   5.667
 6690SOL     OW20968   0.568   0.878   0.073
 6690SOL    HW120969   0.634   0.828   0.129
 6690SOL    HW220970   0.575   0.976   0.092
 6691SOL     OW20971   2.530   1.172   2.281
 6691SOL    HW120972   2.517   1.182   2.379
 6691SOL    HW220973   2.625   1.145   2.263
 6692SOL     OW20974   4.371   6.313   2.630
 6692SOL    HW120975   4.438   6.245   2.603
 6692SOL    HW220976   4.280   6.272   2.630
 6693SOL     OW20977   3.326   0.903   5.422
 6693SOL    HW120978   3.240   0.950   5.401
 6693SOL    HW220979   3.316   0.806   5.401
 6694SOL     OW20980   4.276   4.094   1.446
 6694SOL    HW120981   4.344   4.053   1.507
 6694SOL    HW220982   4.197   4.124   1.499
 6695SOL     OW20983   2.791   2.487   0.399
 6695SOL    HW120984   2.827   2.563   0.346
 6695SOL    HW220985   2.842   2.476   0.484
 6696SOL     OW20986   4.065   3.258   4.940
 6696SOL    HW120987   4.129   3.284   5.012
 6696SOL    HW220988   4.089   3.306   4.856
 6697SOL     OW20989   4.302   2.092   1.772
 6697SOL    HW120990   4.312   2.181   1.727
 6697SOL    HW220991   4.239   2.100   1.849
 6698SOL     OW20992   3.409   4.098   1.184
 6698SOL    HW120993   3.423   4.083   1.281
 6698SOL    HW220994   3.402   4.010   1.137
 6699SOL     OW20995   1.241   3.413   5.409
 6699SOL    HW120996   1.232   3.447   5.503
 6699SOL    HW220997   1.337   3.388   5.392
 6700SOL     OW20998   5.565   0.003   1.460
 6700SOL    HW120999   5.652   7.019   1.411
 6700SOL    HW221000   5.490   6.998   1.400
 6701SOL     OW21001   5.743   6.588   1.757
 6701SOL    HW121002   5.767   6.493   1.778
 6701SOL    HW221003   5.743   6.642   1.841
 6702SOL     OW21004   3.573   3.278   0.454
 6702SOL    HW121005   3.564   3.227   0.540
 6702SOL    HW221006   3.663   3.320   0.450
 6703SOL     OW21007   0.438   1.361   0.617
 6703SOL    HW121008   0.461   1.457   0.603
 6703SOL    HW221009   0.517   1.304   0.594
 6704SOL     OW21010   3.256   6.940   5.304
 6704SOL    HW121011   3.305   7.000   5.367
 6704SOL    HW221012   3.164   6.921   5.339
 6705SOL     OW21013   0.182   4.491   2.415
 6705SOL    HW121014   0.164   4.424   2.342
 6705SOL    HW221015   0.274   4.476   2.451
 6706SOL     OW21016   0.175   7.013   0.767
 6706SOL    HW121017   0.136   0.057   0.701
 6706SOL    HW221018   0.213   6.936   0.717
 6707SOL     OW21019   4.578   1.038   2.744
 6707SOL    HW121020   4.649   1.105   2.766
 6707SOL    HW221021   4.610   0.979   2.670
 6708SOL     OW21022   0.425   3.179   0.097
 6708SOL    HW121023   0.421   3.256   0.033
 6708SOL    HW221024   0.417   3.213   0.191
 6709SOL     OW21025   2.295   4.285   2.061
 6709SOL    HW121026   2.235   4.218   2.018
 6709SOL    HW221027   2.307   4.262   2.158
 6710SOL     OW21028   4.581   1.556   0.691
 6710SOL    HW121029   4.510   1.527   0.755
 6710SOL    HW221030   4.549   1.637   0.641
 6711SOL     OW21031   3.694   6.088   6.132
 6711SOL    HW121032   3.683   6.000   6.178
 6711SOL    HW221033   3.789   6.100   6.105
 6712SOL     OW21034   5.138   4.532   1.174
 6712SOL    HW121035   5.183   4.620   1.164
 6712SOL    HW221036   5.123   4.513   1.271
 6713SOL     OW21037   1.234   4.810   4.511
 6713SOL    HW121038   1.286   4.885   4.470
 6713SOL    HW221039   1.243   4.728   4.454
 6714SOL     OW21040   5.544   1.427   1.792
 6714SOL    HW121041   5.632   1.381   1.786
 6714SOL    HW221042   5.486   1.396   1.716
 6715SOL     OW21043   1.384   0.214   6.374
 6715SOL    HW121044   1.295   0.217   6.329
 6715SOL    HW221045   1.374   0.180   6.467
 6716SOL     OW21046   0.910   5.904   1.937
 6716SOL    HW121047   0.989   5.869   1.887
 6716SOL    HW221048   0.889   5.843   2.014
 6717SOL     OW21049   6.175   2.037   5.729
 6717SOL    HW121050   6.114   1.974   5.681
 6717SOL    HW221051   6.254   2.058   5.671
 6718SOL     OW21052   4.839   1.504   0.918
 6718SOL    HW121053   4.918   1.459   0.960
 6718SOL    HW221054   4.869   1.589   0.874
 6719SOL     OW21055   1.810   1.560   0.093
 6719SOL    HW121056   1.839   1.654   0.108
 6719SOL    HW221057   1.862   1.521   0.017
 6720SOL     OW21058   1.873   0.945   5.847
 6720SOL    HW121059   1.942   0.887   5.890
 6720SOL    HW221060   1.816   0.889   5.787
 6721SOL     OW21061   6.056   6.646   1.244
 6721SOL    HW121062   6.130   6.708   1.270
 6721SOL    HW221063   6.057   6.566   1.303
 6722SOL     OW21064   5.429   3.892   0.435
 6722SOL    HW121065   5.333   3.893   0.406
 6722SOL    HW221066   5.460   3.797   0.444
 6723SOL     OW21067   1.615   3.237   5.181
 6723SOL    HW121068   1.655   3.222   5.272
 6723SOL    HW221069   1.657   3.317   5.139
 6724SOL     OW21070   2.095   3.884   4.185
 6724SOL    HW121071   2.082   3.785   4.177
 6724SOL    HW221072   2.153   3.916   4.111
 6725SOL     OW21073   4.932   3.237   3.845
 6725SOL    HW121074   4.877   3.178   3.786
 6725SOL    HW221075   4.911   3.216   3.941
 6726SOL     OW21076   0.648   1.193   6.230
 6726SOL    HW121077   0.737   1.240   6.231
 6726SOL    HW221078   0.578   1.254   6.193
 6727SOL     OW21079   1.382   5.167   5.846
 6727SOL    HW121080   1.332   5.099   5.792
 6727SOL    HW221081   1.346   5.258   5.826
 6728SOL     OW21082   3.691   1.378   3.706
 6728SOL    HW121083   3.761   1.342   3.644
 6728SOL    HW221084   3.651   1.461   3.667
 6729SOL     OW21085   4.051   0.779   1.825
 6729SOL    HW121086   3.970   0.752   1.773
 6729SOL    HW221087   4.039   0.751   1.920
 6730SOL     OW21088   6.909   1.869   0.544
 6730SOL    HW121089   6.887   1.922   0.625
 6730SOL    HW221090   6.967   1.792   0.570
 6731SOL     OW21091   4.517   0.447   6.255
 6731SOL    HW121092   4.531   0.541   6.221
 6731SOL    HW221093   4.492   0.388   6.178
 6732SOL     OW21094   0.052   4.730   5.456
 6732SOL    HW121095   6.979   4.705   5.481
 6732SOL    HW221096   0.099   4.765   5.537
 6733SOL     OW21097   4.911   4.980   5.193
 6733SOL    HW121098   4.960   5.047   5.249
 6733SOL    HW221099   4.874   5.025   5.112
 6734SOL     OW21100   6.065   2.012   4.839
 6734SOL    HW121101   6.076   2.098   4.889
 6734SOL    HW221102   5.994   2.023   4.769
 6735SOL     OW21103   5.867   2.407   3.702
 6735SOL    HW121104   5.943   2.346   3.679
 6735SOL    HW221105   5.784   2.353   3.715
 6736SOL     OW21106   3.597   3.632   0.529
 6736SOL    HW121107   3.673   3.687   0.496
 6736SOL    HW221108   3.559   3.579   0.453
 6737SOL     OW21109   6.098   3.410   0.722
 6737SOL    HW121110   6.176   3.471   0.711
 6737SOL    HW221111   6.025   3.439   0.660
 6738SOL     OW21112   2.258   6.289   4.427
 6738SOL    HW121113   2.168   6.249   4.449
 6738SOL    HW221114   2.258   6.320   4.332
 6739SOL     OW21115   6.907   0.151   5.669
 6739SOL    HW121116   6.900   0.220   5.597
 6739SOL    HW221117   7.003   0.136   5.692
 6740SOL     OW21118   0.104   6.916   2.455
 6740SOL    HW121119   0.024   6.975   2.466
 6740SOL    HW221120   0.088   6.829   2.501
 6741SOL     OW21121   3.406   1.723   0.150
 6741SOL    HW121122   3.309   1.733   0.128
 6741SOL    HW221123   3.441   1.809   0.188
 6742SOL     OW21124   6.198   4.464   3.243
 6742SOL    HW121125   6.149   4.474   3.156
 6742SOL    HW221126   6.258   4.384   3.238
 6743SOL     OW21127   3.942   3.687   6.924
 6743SOL    HW121128   3.930   3.588   6.937
 6743SOL    HW221129   3.876   3.736   6.980
 6744SOL     OW21130   6.219   0.106   5.599
 6744SOL    HW121131   6.257   0.161   5.674
 6744SOL    HW221132   6.228   0.009   5.621
 6745SOL     OW21133   6.944   4.141   5.259
 6745SOL    HW121134   6.915   4.082   5.334
 6745SOL    HW221135   0.021   4.155   5.263
 6746SOL     OW21136   1.168   2.348   2.797
 6746SOL    HW121137   1.228   2.291   2.740
 6746SOL    HW221138   1.129   2.291   2.870
 6747SOL     OW21139   0.594   6.056   5.513
 6747SOL    HW121140   0.598   5.959   5.488
 6747SOL    HW221141   0.648   6.109   5.447
 6748SOL     OW21142   2.029   0.647   5.259
 6748SOL    HW121143   2.017   0.606   5.349
 6748SOL    HW221144   2.122   0.631   5.227
 6749SOL     OW21145   4.302   5.133   2.320
 6749SOL    HW121146   4.202   5.128   2.310
 6749SOL    HW221147   4.337   5.044   2.347
 6750SOL     OW21148   3.462   0.573   5.526
 6750SOL    HW121149   3.534   0.511   5.495
 6750SOL    HW221150   3.478   0.597   5.622
 6751SOL     OW21151   4.628   0.658   4.984
 6751SOL    HW121152   4.578   0.744   4.995
 6751SOL    HW221153   4.656   0.648   4.889
 6752SOL     OW21154   2.130   4.572   2.553
 6752SOL    HW121155   2.122   4.546   2.649
 6752SOL    HW221156   2.170   4.664   2.547
 6753SOL     OW21157   3.940   3.289   6.534
 6753SOL    HW121158   4.002   3.225   6.488
 6753SOL    HW221159   3.972   3.383   6.519
 6754SOL     OW21160   6.131   1.561   0.276
 6754SOL    HW121161   6.058   1.508   0.320
 6754SOL    HW221162   6.218   1.541   0.320
 6755SOL     OW21163   3.131   5.864   6.044
 6755SOL    HW121164   3.222   5.832   6.020
 6755SOL    HW221165   3.077   5.876   5.961
 6756SOL     OW21166   3.814   3.330   6.268
 6756SOL    HW121167   3.840   3.282   6.352
 6756SOL    HW221168   3.860   3.419   6.264
 6757SOL     OW21169   4.041   0.020   1.514
 6757SOL    HW121170   4.124   6.994   1.546
 6757SOL    HW221171   3.966   6.976   1.506
 6758SOL     OW21172   5.233   2.860   3.216
 6758SOL    HW121173   5.266   2.913   3.294
 6758SOL    HW221174   5.189   2.777   3.249
 6759SOL     OW21175   0.883   1.442   2.509
 6759SOL    HW121176   0.905   1.346   2.526
 6759SOL    HW221177   0.785   1.452   2.493
 6760SOL     OW21178   5.252   2.114   4.805
 6760SOL    HW121179   5.258   2.212   4.825
 6760SOL    HW221180   5.334   2.086   4.754
 6761SOL     OW21181   3.713   1.635   5.106
 6761SOL    HW121182   3.634   1.694   5.118
 6761SOL    HW221183   3.687   1.554   5.053
 6762SOL     OW21184   6.440   5.105   4.566
 6762SOL    HW121185   6.376   5.082   4.640
 6762SOL    HW221186   6.502   5.028   4.550
 6763SOL     OW21187   5.731   6.519   4.107
 6763SOL    HW121188   5.732   6.560   4.199
 6763SOL    HW221189   5.753   6.422   4.114
 6764SOL     OW21190   0.788   5.242   1.666
 6764SOL    HW121191   0.748   5.199   1.748
 6764SOL    HW221192   0.737   5.324   1.643
 6765SOL     OW21193   0.069   3.651   2.180
 6765SOL    HW121194   0.075   3.747   2.153
 6765SOL    HW221195   0.161   3.613   2.190
 6766SOL     OW21196   5.982   0.172   1.729
 6766SOL    HW121197   5.920   0.245   1.701
 6766SOL    HW221198   5.955   0.087   1.684
 6767SOL     OW21199   3.345   0.303   1.138
 6767SOL    HW121200   3.266   0.340   1.089
 6767SOL    HW221201   3.429   0.348   1.106
 6768SOL     OW21202   1.862   0.047   6.781
 6768SOL    HW121203   1.945   0.034   6.726
 6768SOL    HW221204   1.882   0.108   6.857
 6769SOL     OW21205   4.401   2.973   1.550
 6769SOL    HW121206   4.431   3.056   1.597
 6769SOL    HW221207   4.414   2.894   1.610
 6770SOL     OW21208   0.198   1.089   1.297
 6770SOL    HW121209   0.135   1.102   1.374
 6770SOL    HW221210   0.196   1.170   1.238
 6771SOL     OW21211   4.742   2.097   2.925
 6771SOL    HW121212   4.744   2.177   2.985
 6771SOL    HW221213   4.754   2.014   2.980
 6772SOL     OW21214   3.855   1.667   4.062
 6772SOL    HW121215   3.846   1.755   4.014
 6772SOL    HW221216   3.852   1.682   4.160
 6773SOL     OW21217   0.742   3.721   0.967
 6773SOL    HW121218   0.708   3.737   1.059
 6773SOL    HW221219   0.667   3.728   0.901
 6774SOL     OW21220   0.776   2.643   6.448
 6774SOL    HW121221   0.804   2.671   6.540
 6774SOL    HW221222   0.676   2.644   6.441
 6775SOL     OW21223   1.650   4.908   0.051
 6775SOL    HW121224   1.658   5.005   0.025
 6775SOL    HW221225   1.742   4.871   0.069
 6776SOL     OW21226   6.008   5.556   6.583
 6776SOL    HW121227   6.045   5.525   6.496
 6776SOL    HW221228   5.982   5.476   6.638
 6777SOL     OW21229   4.778   5.702   6.963
 6777SOL    HW121230   4.749   5.761   0.016
 6777SOL    HW221231   4.856   5.646   6.993
 6778SOL     OW21232   0.032   5.559   3.441
 6778SOL    HW121233   0.001   5.631   3.379
 6778SOL    HW221234   0.040   5.473   3.391
 6779SOL     OW21235   6.861   4.043   6.574
 6779SOL    HW121236   6.811   4.101   6.510
 6779SOL    HW221237   6.895   3.962   6.526
 6780SOL     OW21238   0.737   2.654   2.268
 6780SOL    HW121239   0.760   2.750   2.283
 6780SOL    HW221240   0.819   2.604   2.241
 6781SOL     OW21241   6.131   4.888   5.342
 6781SOL    HW121242   6.184   4.845   5.416
 6781SOL    HW221243   6.036   4.859   5.349
 6782SOL     OW21244   5.797   1.521   2.555
 6782SOL    HW121245   5.783   1.561   2.464
 6782SOL    HW221246   5.764   1.584   2.625
 6783SOL     OW21247   0.607   6.199   6.277
 6783SOL    HW121248   0.539   6.249   6.331
 6783SOL    HW221249   0.561   6.144   6.208
 6784SOL     OW21250   3.699   2.865   0.197
 6784SOL    HW121251   3.718   2.962   0.215
 6784SOL    HW221252   3.607   2.842   0.230
 6785SOL     OW21253   5.868   5.595   1.884
 6785SOL    HW121254   5.818   5.644   1.955
 6785SOL    HW221255   5.815   5.595   1.799
 6786SOL     OW21256   1.788   3.649   6.119
 6786SOL    HW121257   1.796   3.706   6.037
 6786SOL    HW221258   1.872   3.657   6.173
 6787SOL     OW21259   0.953   3.351   1.773
 6787SOL    HW121260   0.873   3.300   1.803
 6787SOL    HW221261   0.969   3.429   1.834
 6788SOL     OW21262   2.816   5.202   0.880
 6788SOL    HW121263   2.723   5.186   0.848
 6788SOL    HW221264   2.879   5.202   0.802
 6789SOL     OW21265   0.465   5.973   3.268
 6789SOL    HW121266   0.477   5.924   3.354
 6789SOL    HW221267   0.382   6.028   3.271
 6790SOL     OW21268   1.079   2.944   0.464
 6790SOL    HW121269   1.174   2.940   0.494
 6790SOL    HW221270   1.030   3.011   0.520
 6791SOL     OW21271   3.541   3.772   6.361
 6791SOL    HW121272   3.551   3.716   6.280
 6791SOL    HW221273   3.515   3.865   6.335
 6792SOL     OW21274   0.573   4.771   0.473
 6792SOL    HW121275   0.540   4.704   0.407
 6792SOL    HW221276   0.497   4.827   0.504
 6793SOL     OW21277   5.828   1.701   1.264
 6793SOL    HW121278   5.764   1.629   1.288
 6793SOL    HW221279   5.917   1.680   1.305
 6794SOL     OW21280   4.309   1.254   4.740
 6794SOL    HW121281   4.287   1.300   4.827
 6794SOL    HW221282   4.396   1.206   4.749
 6795SOL     OW21283   2.923   5.873   0.134
 6795SOL    HW121284   2.998   5.939   0.130
 6795SOL    HW221285   2.941   5.799   0.070
 6796SOL     OW21286   3.943   2.160   2.949
 6796SOL    HW121287   3.922   2.080   3.005
 6796SOL    HW221288   3.875   2.232   2.966
 6797SOL     OW21289   0.053   2.739   1.847
 6797SOL    HW121290   0.061   2.664   1.782
 6797SOL    HW221291   6.991   2.791   1.827
 6798SOL     OW21292   6.292   0.084   1.802
 6798SOL    HW121293   6.232   0.015   1.762
 6798SOL    HW221294   6.264   0.175   1.771
 6799SOL     OW21295   5.428   5.871   1.849
 6799SOL    HW121296   5.390   5.783   1.876
 6799SOL    HW221297   5.409   5.939   1.921
 6800SOL     OW21298   3.203   3.859   0.116
 6800SOL    HW121299   3.276   3.891   0.177
 6800SOL    HW221300   3.117   3.901   0.143
 6801SOL     OW21301   1.296   1.700   3.140
 6801SOL    HW121302   1.324   1.794   3.157
 6801SOL    HW221303   1.210   1.682   3.188
 6802SOL     OW21304   2.332   4.810   2.907
 6802SOL    HW121305   2.383   4.892   2.885
 6802SOL    HW221306   2.389   4.729   2.891
 6803SOL     OW21307   5.064   2.009   0.067
 6803SOL    HW121308   5.058   2.109   0.068
 6803SOL    HW221309   5.142   1.980   0.123
 6804SOL     OW21310   1.122   0.115   4.092
 6804SOL    HW121311   1.163   0.044   4.035
 6804SOL    HW221312   1.059   0.170   4.037
 6805SOL     OW21313   5.359   0.708   4.581
 6805SOL    HW121314   5.306   0.791   4.597
 6805SOL    HW221315   5.330   0.666   4.494
 6806SOL     OW21316   5.265   0.028   5.420
 6806SOL    HW121317   5.294   0.067   5.333
 6806SOL    HW221318   5.322   0.065   5.494
 6807SOL     OW21319   3.705   3.273   6.939
 6807SOL    HW121320   3.771   3.344   6.966
 6807SOL    HW221321   3.727   3.242   6.847
 6808SOL     OW21322   1.891   2.676   4.578
 6808SOL    HW121323   1.895   2.775   4.592
 6808SOL    HW221324   1.802   2.651   4.540
 6809SOL     OW21325   2.301   4.064   6.645
 6809SOL    HW121326   2.210   4.072   6.604
 6809SOL    HW221327   2.369   4.053   6.572
 6810SOL     OW21328   5.238   2.024   2.612
 6810SOL    HW121329   5.215   2.116   2.643
 6810SOL    HW221330   5.272   2.028   2.518
 6811SOL     OW21331   4.876   5.544   1.828
 6811SOL    HW121332   4.782   5.547   1.792
 6811SOL    HW221333   4.877   5.583   1.920
 6812SOL     OW21334   3.816   2.910   2.886
 6812SOL    HW121335   3.834   2.811   2.889
 6812SOL    HW221336   3.822   2.942   2.792
 6813SOL     OW21337   4.620   3.647   1.396
 6813SOL    HW121338   4.545   3.581   1.402
 6813SOL    HW221339   4.601   3.712   1.323
 6814SOL     OW21340   2.063   3.445   0.421
 6814SOL    HW121341   2.086   3.463   0.325
 6814SOL    HW221342   1.964   3.451   0.434
 6815SOL     OW21343   2.455   0.012   1.719
 6815SOL    HW121344   2.361   0.024   1.751
 6815SOL    HW221345   2.518   0.033   1.794
 6816SOL     OW21346   6.170   4.029   1.629
 6816SOL    HW121347   6.262   4.061   1.608
 6816SOL    HW221348   6.122   4.009   1.544
 6817SOL     OW21349   0.367   2.149   5.956
 6817SOL    HW121350   0.449   2.195   5.990
 6817SOL    HW221351   0.286   2.188   6.000
 6818SOL     OW21352   3.133   5.939   2.270
 6818SOL    HW121353   3.202   6.006   2.242
 6818SOL    HW221354   3.165   5.891   2.352
 6819SOL     OW21355   3.085   0.897   3.766
 6819SOL    HW121356   3.119   0.880   3.859
 6819SOL    HW221357   3.131   0.977   3.729
 6820SOL     OW21358   1.354   4.587   3.677
 6820SOL    HW121359   1.389   4.640   3.754
 6820SOL    HW221360   1.359   4.641   3.594
 6821SOL     OW21361   2.556   2.478   4.265
 6821SOL    HW121362   2.624   2.443   4.201
 6821SOL    HW221363   2.587   2.464   4.359
 6822SOL     OW21364   5.136   2.314   5.675
 6822SOL    HW121365   5.115   2.379   5.749
 6822SOL    HW221366   5.076   2.331   5.598
 6823SOL     OW21367   3.346   3.629   2.569
 6823SOL    HW121368   3.422   3.656   2.629
 6823SOL    HW221369   3.381   3.605   2.479
 6824SOL     OW21370   1.230   4.861   6.393
 6824SOL    HW121371   1.304   4.879   6.328
 6824SOL    HW221372   1.208   4.945   6.442
 6825SOL     OW21373   5.174   0.269   4.320
 6825SOL    HW121374   5.249   0.313   4.270
 6825SOL    HW221375   5.192   0.171   4.325
 6826SOL     OW21376   1.017   2.604   2.733
 6826SOL    HW121377   1.041   2.511   2.761
 6826SOL    HW221378   1.099   2.660   2.729
 6827SOL     OW21379   5.846   6.557   5.453
 6827SOL    HW121380   5.780   6.543   5.527
 6827SOL    HW221381   5.937   6.528   5.483
 6828SOL     OW21382   1.857   2.214   1.471
 6828SOL    HW121383   1.883   2.260   1.386
 6828SOL    HW221384   1.925   2.233   1.541
 6829SOL     OW21385   5.250   4.927   3.817
 6829SOL    HW121386   5.290   4.988   3.748
 6829SOL    HW221387   5.207   4.982   3.888
 6830SOL     OW21388   5.419   2.197   3.975
 6830SOL    HW121389   5.383   2.111   4.010
 6830SOL    HW221390   5.350   2.241   3.917
 6831SOL     OW21391   0.376   1.060   5.967
 6831SOL    HW121392   0.348   1.140   5.914
 6831SOL    HW221393   0.451   1.014   5.920
 6832SOL     OW21394   3.107   4.849   2.095
 6832SOL    HW121395   3.107   4.877   2.191
 6832SOL    HW221396   3.200   4.826   2.067
 6833SOL     OW21397   4.110   5.382   0.559
 6833SOL    HW121398   4.053   5.315   0.511
 6833SOL    HW221399   4.106   5.364   0.658
 6834SOL     OW21400   3.920   5.362   2.550
 6834SOL    HW121401   3.883   5.313   2.629
 6834SOL    HW221402   3.846   5.386   2.488
 6835SOL     OW21403   3.889   6.636   4.537
 6835SOL    HW121404   3.879   6.556   4.595
 6835SOL    HW221405   3.961   6.619   4.470
 6836SOL     OW21406   3.099   5.753   6.482
 6836SOL    HW121407   3.136   5.800   6.562
 6836SOL    HW221408   3.043   5.817   6.429
 6837SOL     OW21409   0.463   2.643   2.618
 6837SOL    HW121410   0.501   2.719   2.564
 6837SOL    HW221411   0.438   2.676   2.709
 6838SOL     OW21412   2.936   1.572   0.235
 6838SOL    HW121413   2.881   1.655   0.228
 6838SOL    HW221414   2.883   1.494   0.200
 6839SOL     OW21415   4.457   0.886   1.385
 6839SOL    HW121416   4.404   0.815   1.339
 6839SOL    HW221417   4.400   0.967   1.399
 6840SOL     OW21418   0.952   1.287   6.204
 6840SOL    HW121419   0.946   1.190   6.180
 6840SOL    HW221420   1.030   1.329   6.159
 6841SOL     OW21421   6.901   3.318   6.153
 6841SOL    HW121422   6.867   3.360   6.070
 6841SOL    HW221423   6.998   3.296   6.143
 6842SOL     OW21424   2.267   4.370   3.194
 6842SOL    HW121425   2.331   4.420   3.252
 6842SOL    HW221426   2.278   4.399   3.099
 6843SOL     OW21427   3.860   6.544   0.246
 6843SOL    HW121428   3.944   6.510   0.287
 6843SOL    HW221429   3.845   6.499   0.158
 6844SOL     OW21430   5.023   0.763   6.016
 6844SOL    HW121431   5.111   0.753   5.969
 6844SOL    HW221432   4.965   0.825   5.964
 6845SOL     OW21433   4.546   2.141   2.387
 6845SOL    HW121434   4.468   2.131   2.325
 6845SOL    HW221435   4.623   2.089   2.352
 6846SOL     OW21436   2.542   3.589   0.082
 6846SOL    HW121437   2.500   3.561   7.017
 6846SOL    HW221438   2.632   3.629   0.064
 6847SOL     OW21439   0.304   2.795   4.352
 6847SOL    HW121440   0.378   2.801   4.285
 6847SOL    HW221441   0.241   2.721   4.327
 6848SOL     OW21442   6.915   4.591   3.307
 6848SOL    HW121443   6.935   4.638   3.221
 6848SOL    HW221444   6.991   4.604   3.370
 6849SOL     OW21445   2.884   3.539   5.989
 6849SOL    HW121446   2.915   3.575   6.077
 6849SOL    HW221447   2.963   3.509   5.936
 6850SOL     OW21448   4.334   0.670   4.277
 6850SOL    HW121449   4.390   0.621   4.210
 6850SOL    HW221450   4.273   0.733   4.228
 6851SOL     OW21451   2.134   3.539   3.421
 6851SOL    HW121452   2.205   3.592   3.372
 6851SOL    HW221453   2.159   3.531   3.517
 6852SOL     OW21454   3.792   4.436   0.236
 6852SOL    HW121455   3.827   4.390   0.318
 6852SOL    HW221456   3.714   4.493   0.260
 6853SOL     OW21457   4.912   3.988   6.410
 6853SOL    HW121458   4.833   4.014   6.466
 6853SOL    HW221459   4.902   4.025   6.318
 6854SOL     OW21460   5.480   6.221   6.181
 6854SOL    HW121461   5.439   6.131   6.167
 6854SOL    HW221462   5.506   6.232   6.277
 6855SOL     OW21463   4.237   5.316   3.507
 6855SOL    HW121464   4.252   5.261   3.425
 6855SOL    HW221465   4.319   5.316   3.563
 6856SOL     OW21466   0.482   2.074   6.619
 6856SOL    HW121467   0.384   2.071   6.639
 6856SOL    HW221468   0.496   2.121   6.532
 6857SOL     OW21469   0.806   3.908   5.546
 6857SOL    HW121470   0.862   3.860   5.479
 6857SOL    HW221471   0.711   3.876   5.540
 6858SOL     OW21472   1.715   4.006   2.201
 6858SOL    HW121473   1.734   3.908   2.208
 6858SOL    HW221474   1.623   4.024   2.236
 6859SOL     OW21475   1.670   1.509   2.196
 6859SOL    HW121476   1.709   1.599   2.216
 6859SOL    HW221477   1.716   1.470   2.116
 6860SOL     OW21478   0.381   6.854   1.043
 6860SOL    HW121479   0.372   6.945   1.002
 6860SOL    HW221480   0.321   6.790   0.996
 6861SOL     OW21481   6.506   3.300   6.291
 6861SOL    HW121482   6.476   3.328   6.382
 6861SOL    HW221483   6.601   3.327   6.277
 6862SOL     OW21484   0.711   4.087   4.265
 6862SOL    HW121485   0.700   4.182   4.237
 6862SOL    HW221486   0.783   4.081   4.335
 6863SOL     OW21487   5.680   1.343   5.369
 6863SOL    HW121488   5.742   1.419   5.387
 6863SOL    HW221489   5.593   1.360   5.415
 6864SOL     OW21490   1.029   3.812   6.203
 6864SOL    HW121491   1.026   3.740   6.133
 6864SOL    HW221492   0.936   3.837   6.229
 6865SOL     OW21493   2.796   0.376   3.868
 6865SOL    HW121494   2.882   0.412   3.904
 6865SOL    HW221495   2.754   0.442   3.806
 6866SOL     OW21496   1.252   4.845   0.390
 6866SOL    HW121497   1.164   4.881   0.359
 6866SOL    HW221498   1.238   4.777   0.461
 6867SOL     OW21499   1.921   3.752   6.354
 6867SOL    HW121500   1.877   3.842   6.358
 6867SOL    HW221501   1.979   3.740   6.434
 6868SOL     OW21502   3.084   5.247   3.673
 6868SOL    HW121503   3.122   5.339   3.689
 6868SOL    HW221504   2.985   5.253   3.666
 6869SOL     OW21505   3.263   0.850   5.976
 6869SOL    HW121506   3.362   0.855   5.990
 6869SOL    HW221507   3.217   0.906   6.045
 6870SOL     OW21508   6.054   2.124   0.199
 6870SOL    HW121509   5.998   2.178   0.262
 6870SOL    HW221510   6.105   2.185   0.139
 6871SOL     OW21511   6.682   3.559   2.440
 6871SOL    HW121512   6.639   3.650   2.438
 6871SOL    HW221513   6.781   3.569   2.432
 6872SOL     OW21514   1.773   4.241   1.093
 6872SOL    HW121515   1.822   4.159   1.064
 6872SOL    HW221516   1.833   4.297   1.151
 6873SOL     OW21517   0.737   4.344   3.003
 6873SOL    HW121518   0.663   4.301   2.951
 6873SOL    HW221519   0.821   4.345   2.949
 6874SOL     OW21520   5.282   6.282   3.022
 6874SOL    HW121521   5.372   6.240   3.014
 6874SOL    HW221522   5.224   6.250   2.947
 6875SOL     OW21523   2.594   1.108   0.516
 6875SOL    HW121524   2.639   1.176   0.458
 6875SOL    HW221525   2.659   1.074   0.583
 6876SOL     OW21526   5.287   5.075   3.579
 6876SOL    HW121527   5.365   5.110   3.528
 6876SOL    HW221528   5.204   5.121   3.549
 6877SOL     OW21529   0.689   3.445   1.643
 6877SOL    HW121530   0.699   3.378   1.717
 6877SOL    HW221531   0.744   3.416   1.565
 6878SOL     OW21532   1.889   0.427   4.836
 6878SOL    HW121533   1.976   0.472   4.852
 6878SOL    HW221534   1.880   0.349   4.899
 6879SOL     OW21535   1.332   1.048   1.176
 6879SOL    HW121536   1.300   1.080   1.087
 6879SOL    HW221537   1.364   0.954   1.168
 6880SOL     OW21538   1.448   5.700   0.292
 6880SOL    HW121539   1.504   5.776   0.324
 6880SOL    HW221540   1.355   5.710   0.328
 6881SOL     OW21541   0.143   2.826   0.230
 6881SOL    HW121542   0.243   2.828   0.222
 6881SOL    HW221543   0.110   2.733   0.219
 6882SOL     OW21544   2.591   6.454   6.935
 6882SOL    HW121545   2.508   6.489   6.979
 6882SOL    HW221546   2.657   6.427   7.004
 6883SOL     OW21547   4.846   0.432   1.306
 6883SOL    HW121548   4.914   0.501   1.281
 6883SOL    HW221549   4.793   0.465   1.384
 6884SOL     OW21550   1.704   4.000   3.331
 6884SOL    HW121551   1.760   4.069   3.376
 6884SOL    HW221552   1.761   3.946   3.269
 6885SOL     OW21553   6.253   4.780   4.817
 6885SOL    HW121554   6.195   4.821   4.746
 6885SOL    HW221555   6.264   4.683   4.798
 6886SOL     OW21556   4.960   2.560   0.312
 6886SOL    HW121557   4.941   2.656   0.331
 6886SOL    HW221558   4.874   2.512   0.294
 6887SOL     OW21559   5.732   5.944   5.737
 6887SOL    HW121560   5.690   5.886   5.807
 6887SOL    HW221561   5.735   6.038   5.768
 6888SOL     OW21562   6.348   4.273   6.551
 6888SOL    HW121563   6.319   4.197   6.492
 6888SOL    HW221564   6.412   4.240   6.619
 6889SOL     OW21565   0.044   2.034   6.091
 6889SOL    HW121566   0.031   1.976   6.172
 6889SOL    HW221567   0.095   2.116   6.117
 6890SOL     OW21568   4.908   4.531   3.448
 6890SOL    HW121569   4.811   4.524   3.470
 6890SOL    HW221570   4.961   4.546   3.532
 6891SOL     OW21571   1.454   1.319   1.160
 6891SOL    HW121572   1.415   1.318   1.068
 6891SOL    HW221573   1.438   1.231   1.204
 6892SOL     OW21574   3.222   1.283   4.971
 6892SOL    HW121575   3.236   1.376   5.003
 6892SOL    HW221576   3.170   1.284   4.886
 6893SOL     OW21577   5.926   3.479   0.521
 6893SOL    HW121578   5.955   3.571   0.494
 6893SOL    HW221579   5.830   3.466   0.498
 6894SOL     OW21580   6.267   4.964   0.497
 6894SOL    HW121581   6.321   5.041   0.532
 6894SOL    HW221582   6.310   4.928   0.415
 6895SOL     OW21583   0.816   6.517   2.544
 6895SOL    HW121584   0.766   6.434   2.571
 6895SOL    HW221585   0.802   6.534   2.447
 6896SOL     OW21586   5.097   1.249   5.045
 6896SOL    HW121587   5.102   1.157   5.006
 6896SOL    HW221588   5.159   1.256   5.123
 6897SOL     OW21589   4.405   2.545   5.258
 6897SOL    HW121590   4.463   2.501   5.189
 6897SOL    HW221591   4.310   2.547   5.225
 6898SOL     OW21592   1.473   6.448   1.251
 6898SOL    HW121593   1.466   6.352   1.225
 6898SOL    HW221594   1.536   6.457   1.329
 6899SOL     OW21595   6.202   6.021   2.397
 6899SOL    HW121596   6.177   6.117   2.385
 6899SOL    HW221597   6.156   5.965   2.328
 6900SOL     OW21598   6.534   3.766   5.031
 6900SOL    HW121599   6.493   3.850   4.995
 6900SOL    HW221600   6.463   3.696   5.038
 6901SOL     OW21601   5.494   5.099   6.358
 6901SOL    HW121602   5.405   5.071   6.322
 6901SOL    HW221603   5.482   5.144   6.447
 6902SOL     OW21604   0.365   5.591   6.209
 6902SOL    HW121605   0.347   5.498   6.180
 6902SOL    HW221606   0.332   5.604   6.303
 6903SOL     OW21607   1.166   6.149   4.439
 6903SOL    HW121608   1.089   6.159   4.502
 6903SOL    HW221609   1.251   6.170   4.487
 6904SOL     OW21610   0.189   0.547   5.913
 6904SOL    HW121611   0.247   0.628   5.898
 6904SOL    HW221612   0.095   0.569   5.888
 6905SOL     OW21613   4.881   6.112   5.798
 6905SOL    HW121614   4.816   6.135   5.870
 6905SOL    HW221615   4.943   6.040   5.830
 6906SOL     OW21616   3.223   0.909   3.981
 6906SOL    HW121617   3.191   0.960   4.061
 6906SOL    HW221618   3.319   0.886   3.992
 6907SOL     OW21619   5.968   1.862   0.624
 6907SOL    HW121620   5.925   1.863   0.714
 6907SOL    HW221621   5.972   1.769   0.589
 6908SOL     OW21622   3.067   5.246   0.390
 6908SOL    HW121623   2.996   5.316   0.379
 6908SOL    HW221624   3.104   5.223   0.300
 6909SOL     OW21625   5.790   5.038   2.285
 6909SOL    HW121626   5.882   5.003   2.301
 6909SOL    HW221627   5.734   5.024   2.366
 6910SOL     OW21628   1.078   2.108   2.476
 6910SOL    HW121629   1.021   2.085   2.555
 6910SOL    HW221630   1.021   2.148   2.404
 6911SOL     OW21631   2.033   6.227   5.856
 6911SOL    HW121632   2.083   6.182   5.782
 6911SOL    HW221633   1.936   6.204   5.850
 6912SOL     OW21634   2.761   3.895   6.851
 6912SOL    HW121635   2.663   3.911   6.843
 6912SOL    HW221636   2.807   3.980   6.877
 6913SOL     OW21637   4.479   6.175   5.829
 6913SOL    HW121638   4.424   6.257   5.815
 6913SOL    HW221639   4.471   6.145   5.924
 6914SOL     OW21640   5.846   2.406   1.861
 6914SOL    HW121641   5.832   2.461   1.943
 6914SOL    HW221642   5.758   2.369   1.830
 6915SOL     OW21643   6.804   3.459   3.713
 6915SOL    HW121644   6.888   3.483   3.760
 6915SOL    HW221645   6.736   3.531   3.726
 6916SOL     OW21646   4.716   6.435   6.258
 6916SOL    HW121647   4.712   6.345   6.303
 6916SOL    HW221648   4.648   6.438   6.185
 6917SOL     OW21649   3.651   6.669   1.842
 6917SOL    HW121650   3.692   6.634   1.758
 6917SOL    HW221651   3.557   6.700   1.823
 6918SOL     OW21652   2.122   3.690   0.626
 6918SOL    HW121653   2.037   3.648   0.657
 6918SOL    HW221654   2.101   3.768   0.567
 6919SOL     OW21655   5.805   6.035   3.679
 6919SOL    HW121656   5.792   5.983   3.595
 6919SOL    HW221657   5.741   6.111   3.682
 6920SOL     OW21658   6.184   1.358   6.056
 6920SOL    HW121659   6.156   1.405   5.973
 6920SOL    HW221660   6.103   1.328   6.107
 6921SOL     OW21661   4.444   0.285   4.465
 6921SOL    HW121662   4.353   0.246   4.475
 6921SOL    HW221663   4.453   0.363   4.527
 6922SOL     OW21664   1.867   5.215   6.688
 6922SOL    HW121665   1.957   5.257   6.674
 6922SOL    HW221666   1.802   5.253   6.622
 6923SOL     OW21667   5.396   0.006   2.461
 6923SOL    HW121668   5.339   0.087   2.453
 6923SOL    HW221669   5.484   0.022   2.415
 6924SOL     OW21670   3.212   5.550   1.850
 6924SOL    HW121671   3.186   5.626   1.909
 6924SOL    HW221672   3.191   5.573   1.754
 6925SOL     OW21673   5.772   6.589   5.160
 6925SOL    HW121674   5.794   6.687   5.154
 6925SOL    HW221675   5.733   6.570   5.250
 6926SOL     OW21676   3.132   2.349   0.093
 6926SOL    HW121677   3.090   2.292   0.164
 6926SOL    HW221678   3.229   2.326   0.085
 6927SOL     OW21679   4.261   0.124   0.408
 6927SOL    HW121680   4.219   0.092   0.324
 6927SOL    HW221681   4.267   0.048   0.473
 6928SOL     OW21682   3.852   5.181   6.715
 6928SOL    HW121683   3.930   5.138   6.669
 6928SOL    HW221684   3.885   5.252   6.778
 6929SOL     OW21685   4.950   5.189   2.468
 6929SOL    HW121686   4.998   5.262   2.518
 6929SOL    HW221687   4.868   5.163   2.519
 6930SOL     OW21688   0.657   6.727   1.798
 6930SOL    HW121689   0.568   6.744   1.755
 6930SOL    HW221690   0.727   6.718   1.727
 6931SOL     OW21691   3.155   3.137   1.090
 6931SOL    HW121692   3.125   3.232   1.079
 6931SOL    HW221693   3.075   3.076   1.091
 6932SOL     OW21694   3.601   0.087   6.421
 6932SOL    HW121695   3.595   0.086   6.322
 6932SOL    HW221696   3.589   0.180   6.455
 6933SOL     OW21697   3.066   5.492   6.448
 6933SOL    HW121698   3.093   5.587   6.457
 6933SOL    HW221699   2.999   5.483   6.374
 6934SOL     OW21700   4.912   5.085   6.777
 6934SOL    HW121701   4.911   5.127   6.686
 6934SOL    HW221702   4.820   5.084   6.815
 6935SOL     OW21703   3.868   6.041   1.884
 6935SOL    HW121704   3.963   6.065   1.901
 6935SOL    HW221705   3.854   5.944   1.904
 6936SOL     OW21706   0.539   1.906   5.755
 6936SOL    HW121707   0.508   1.987   5.705
 6936SOL    HW221708   0.615   1.863   5.705
 6937SOL     OW21709   5.935   5.263   0.110
 6937SOL    HW121710   5.948   5.341   0.049
 6937SOL    HW221711   6.014   5.254   0.170
 6938SOL     OW21712   2.749   1.315   4.872
 6938SOL    HW121713   2.802   1.258   4.810
 6938SOL    HW221714   2.733   1.266   4.958
 6939SOL     OW21715   5.591   3.509   3.675
 6939SOL    HW121716   5.563   3.533   3.768
 6939SOL    HW221717   5.638   3.586   3.633
 6940SOL     OW21718   2.554   6.344   0.906
 6940SOL    HW121719   2.562   6.418   0.972
 6940SOL    HW221720   2.518   6.380   0.819
 6941SOL     OW21721   3.518   3.708   2.754
 6941SOL    HW121722   3.604   3.672   2.790
 6941SOL    HW221723   3.481   3.776   2.819
 6942SOL     OW21724   6.103   5.348   2.519
 6942SOL    HW121725   6.135   5.312   2.607
 6942SOL    HW221726   6.106   5.276   2.450
 6943SOL     OW21727   4.888   4.589   6.474
 6943SOL    HW121728   4.805   4.616   6.523
 6943SOL    HW221729   4.941   4.526   6.530
 6944SOL     OW21730   1.216   4.509   5.306
 6944SOL    HW121731   1.125   4.511   5.349
 6944SOL    HW221732   1.209   4.465   5.216
 6945SOL     OW21733   5.572   1.553   1.151
 6945SOL    HW121734   5.540   1.643   1.180
 6945SOL    HW221735   5.578   1.550   1.051
 6946SOL     OW21736   5.354   6.372   2.683
 6946SOL    HW121737   5.360   6.365   2.783
 6946SOL    HW221738   5.265   6.409   2.658
 6947SOL     OW21739   6.479   4.048   5.277
 6947SOL    HW121740   6.393   4.086   5.313
 6947SOL    HW221741   6.517   4.110   5.209
 6948SOL     OW21742   6.754   4.323   6.908
 6948SOL    HW121743   6.707   4.235   6.904
 6948SOL    HW221744   6.705   4.390   6.851
 6949SOL     OW21745   2.445   1.497   3.050
 6949SOL    HW121746   2.385   1.451   2.984
 6949SOL    HW221747   2.389   1.552   3.113
 6950SOL     OW21748   0.814   1.293   4.360
 6950SOL    HW121749   0.866   1.248   4.433
 6950SOL    HW221750   0.726   1.247   4.349
 6951SOL     OW21751   0.865   4.089   6.951
 6951SOL    HW121752   0.775   4.130   6.963
 6951SOL    HW221753   0.889   4.087   6.854
 6952SOL     OW21754   5.355   5.547   4.165
 6952SOL    HW121755   5.361   5.455   4.204
 6952SOL    HW221756   5.373   5.615   4.236
 6953SOL     OW21757   6.283   1.606   1.191
 6953SOL    HW121758   6.344   1.537   1.151
 6953SOL    HW221759   6.337   1.683   1.225
 6954SOL     OW21760   6.905   4.640   6.811
 6954SOL    HW121761   6.869   4.733   6.822
 6954SOL    HW221762   6.959   4.615   6.892
 6955SOL     OW21763   4.653   6.151   2.829
 6955SOL    HW121764   4.598   6.114   2.904
 6955SOL    HW221765   4.644   6.250   2.828
 6956SOL     OW21766   5.339   5.127   2.404
 6956SOL    HW121767   5.277   5.171   2.338
 6956SOL    HW221768   5.300   5.040   2.433
 6957SOL     OW21769   6.553   5.421   5.227
 6957SOL    HW121770   6.510   5.396   5.314
 6957SOL    HW221771   6.545   5.345   5.163
 6958SOL     OW21772   3.757   3.499   2.585
 6958SOL    HW121773   3.836   3.438   2.582
 6958SOL    HW221774   3.702   3.479   2.666
 6959SOL     OW21775   1.546   3.826   3.003
 6959SOL    HW121776   1.624   3.776   3.039
 6959SOL    HW221777   1.536   3.807   2.905
 6960SOL     OW21778   3.985   4.492   0.060
 6960SOL    HW121779   3.928   4.471   0.140
 6960SOL    HW221780   4.065   4.432   0.059
 6961SOL     OW21781   4.447   2.543   5.521
 6961SOL    HW121782   4.421   2.561   5.426
 6961SOL    HW221783   4.389   2.471   5.559
 6962SOL     OW21784   2.723   6.372   0.269
 6962SOL    HW121785   2.757   6.351   0.361
 6962SOL    HW221786   2.707   6.287   0.219
 6963SOL     OW21787   6.542   6.015   6.930
 6963SOL    HW121788   6.621   6.077   6.939
 6963SOL    HW221789   6.463   6.067   6.898
 6964SOL     OW21790   2.376   1.170   5.398
 6964SOL    HW121791   2.353   1.075   5.417
 6964SOL    HW221792   2.297   1.217   5.358
 6965SOL     OW21793   1.396   1.013   6.732
 6965SOL    HW121794   1.346   1.041   6.814
 6965SOL    HW221795   1.332   1.002   6.656
 6966SOL     OW21796   0.978   6.659   1.219
 6966SOL    HW121797   1.036   6.629   1.294
 6966SOL    HW221798   0.965   6.584   1.154
 6967SOL     OW21799   4.168   1.309   6.818
 6967SOL    HW121800   4.200   1.392   6.773
 6967SOL    HW221801   4.207   1.229   6.772
 6968SOL     OW21802   3.936   0.462   2.767
 6968SOL    HW121803   4.032   0.489   2.757
 6968SOL    HW221804   3.929   0.389   2.835
 6969SOL     OW21805   2.200   2.405   2.125
 6969SOL    HW121806   2.291   2.391   2.163
 6969SOL    HW221807   2.207   2.422   2.026
 6970SOL     OW21808   3.755   5.244   5.589
 6970SOL    HW121809   3.755   5.155   5.543
 6970SOL    HW221810   3.731   5.315   5.522
 6971SOL     OW21811   6.338   4.337   0.445
 6971SOL    HW121812   6.326   4.247   0.403
 6971SOL    HW221813   6.252   4.367   0.486
 6972SOL     OW21814   5.535   3.932   1.376
 6972SOL    HW121815   5.482   3.847   1.380
 6972SOL    HW221816   5.475   4.009   1.401
 6973SOL     OW21817   1.790   1.796   2.509
 6973SOL    HW121818   1.784   1.868   2.578
 6973SOL    HW221819   1.791   1.707   2.554
 6974SOL     OW21820   3.983   3.754   3.245
 6974SOL    HW121821   4.026   3.703   3.170
 6974SOL    HW221822   3.949   3.690   3.314
 6975SOL     OW21823   3.108   5.722   4.234
 6975SOL    HW121824   3.097   5.810   4.188
 6975SOL    HW221825   3.175   5.731   4.308
 6976SOL     OW21826   4.627   4.634   5.892
 6976SOL    HW121827   4.677   4.720   5.906
 6976SOL    HW221828   4.629   4.610   5.795
 6977SOL     OW21829   4.749   4.902   2.268
 6977SOL    HW121830   4.734   4.854   2.182
 6977SOL    HW221831   4.824   4.967   2.257
 6978SOL     OW21832   0.165   3.546   0.656
 6978SOL    HW121833   0.231   3.496   0.712
 6978SOL    HW221834   0.081   3.562   0.708
 6979SOL     OW21835   0.799   3.445   2.811
 6979SOL    HW121836   0.890   3.404   2.809
 6979SOL    HW221837   0.770   3.458   2.906
 6980SOL     OW21838   2.227   5.160   3.177
 6980SOL    HW121839   2.223   5.136   3.275
 6980SOL    HW221840   2.164   5.235   3.159
 6981SOL     OW21841   4.477   2.883   6.919
 6981SOL    HW121842   4.456   2.822   6.995
 6981SOL    HW221843   4.564   2.855   6.877
 6982SOL     OW21844   0.455   1.074   1.960
 6982SOL    HW121845   0.503   1.162   1.968
 6982SOL    HW221846   0.491   1.024   1.882
 6983SOL     OW21847   6.203   0.656   4.588
 6983SOL    HW121848   6.113   0.652   4.546
 6983SOL    HW221849   6.197   0.703   4.676
 6984SOL     OW21850   1.673   2.851   3.445
 6984SOL    HW121851   1.594   2.908   3.422
 6984SOL    HW221852   1.757   2.899   3.423
 6985SOL     OW21853   5.383   3.309   6.384
 6985SOL    HW121854   5.425   3.218   6.379
 6985SOL    HW221855   5.293   3.306   6.340
 6986SOL     OW21856   4.842   4.717   5.342
 6986SOL    HW121857   4.836   4.653   5.418
 6986SOL    HW221858   4.935   4.755   5.337
 6987SOL     OW21859   0.139   1.136   6.744
 6987SOL    HW121860   0.124   1.231   6.717
 6987SOL    HW221861   0.217   1.129   6.805
 6988SOL     OW21862   2.434   1.824   6.398
 6988SOL    HW121863   2.488   1.837   6.315
 6988SOL    HW221864   2.429   1.726   6.419
 6989SOL     OW21865   0.789   3.539   2.529
 6989SOL    HW121866   0.757   3.633   2.516
 6989SOL    HW221867   0.774   3.511   2.623
 6990SOL     OW21868   4.169   3.846   6.883
 6990SOL    HW121869   4.108   3.768   6.900
 6990SOL    HW221870   4.224   3.864   6.965
 6991SOL     OW21871   5.780   3.405   2.290
 6991SOL    HW121872   5.825   3.318   2.313
 6991SOL    HW221873   5.681   3.390   2.284
 6992SOL     OW21874   0.758   5.297   0.341
 6992SOL    HW121875   0.673   5.243   0.336
 6992SOL    HW221876   0.818   5.258   0.410
 6993SOL     OW21877   3.641   2.462   1.428
 6993SOL    HW121878   3.624   2.512   1.513
 6993SOL    HW221879   3.597   2.372   1.432
 6994SOL     OW21880   2.811   1.325   2.917
 6994SOL    HW121881   2.750   1.386   2.968
 6994SOL    HW221882   2.905   1.357   2.926
 6995SOL     OW21883   0.327   4.019   1.058
 6995SOL    HW121884   0.250   3.974   1.104
 6995SOL    HW221885   0.292   4.084   0.991
 6996SOL     OW21886   0.995   0.894   6.575
 6996SOL    HW121887   0.945   0.848   6.649
 6996SOL    HW221888   0.929   0.932   6.510
 6997SOL     OW21889   6.673   6.217   5.976
 6997SOL    HW121890   6.611   6.287   6.011
 6997SOL    HW221891   6.765   6.233   6.010
 6998SOL     OW21892   6.963   0.617   0.363
 6998SOL    HW121893   6.925   0.709   0.351
 6998SOL    HW221894   6.998   0.608   0.457
 6999SOL     OW21895   6.976   2.843   6.807
 6999SOL    HW121896   0.002   2.891   6.881
 6999SOL    HW221897   6.884   2.816   6.837
 7000SOL     OW21898   0.231   5.336   3.626
 7000SOL    HW121899   0.181   5.347   3.540
 7000SOL    HW221900   0.317   5.387   3.621
 7001SOL     OW21901   6.856   1.758   4.784
 7001SOL    HW121902   6.762   1.726   4.774
 7001SOL    HW221903   6.860   1.857   4.769
 7002SOL     OW21904   1.157   5.402   2.718
 7002SOL    HW121905   1.125   5.371   2.628
 7002SOL    HW221906   1.253   5.376   2.729
 7003SOL     OW21907   0.418   4.531   0.300
 7003SOL    HW121908   0.350   4.465   0.331
 7003SOL    HW221909   0.398   4.557   0.205
 7004SOL     OW21910   1.820   0.224   0.244
 7004SOL    HW121911   1.751   0.154   0.266
 7004SOL    HW221912   1.865   0.254   0.327
 7005SOL     OW21913   1.216   5.606   0.020
 7005SOL    HW121914   1.157   5.614   0.101
 7005SOL    HW221915   1.305   5.568   0.047
 7006SOL     OW21916   0.649   0.107   3.835
 7006SOL    HW121917   0.712   0.041   3.876
 7006SOL    HW221918   0.629   0.179   3.901
 7007SOL     OW21919   2.180   0.321   5.936
 7007SOL    HW121920   2.086   0.293   5.914
 7007SOL    HW221921   2.177   0.396   6.002
 7008SOL     OW21922   5.809   3.565   3.287
 7008SOL    HW121923   5.718   3.524   3.290
 7008SOL    HW221924   5.805   3.659   3.322
 7009SOL     OW21925   5.029   6.102   2.551
 7009SOL    HW121926   4.945   6.156   2.548
 7009SOL    HW221927   5.034   6.043   2.471
 7010SOL     OW21928   4.851   3.023   2.646
 7010SOL    HW121929   4.801   3.108   2.661
 7010SOL    HW221930   4.928   3.040   2.585
 7011SOL     OW21931   2.659   6.484   5.914
 7011SOL    HW121932   2.581   6.527   5.870
 7011SOL    HW221933   2.739   6.544   5.907
 7012SOL     OW21934   6.792   2.805   0.519
 7012SOL    HW121935   6.729   2.876   0.490
 7012SOL    HW221936   6.849   2.838   0.594
 7013SOL     OW21937   3.322   3.000   0.527
 7013SOL    HW121938   3.296   2.935   0.599
 7013SOL    HW221939   3.367   3.079   0.568
 7014SOL     OW21940   5.208   3.088   0.591
 7014SOL    HW121941   5.191   3.042   0.678
 7014SOL    HW221942   5.256   3.027   0.529
 7015SOL     OW21943   5.874   6.094   1.679
 7015SOL    HW121944   5.959   6.062   1.720
 7015SOL    HW221945   5.802   6.025   1.690
 7016SOL     OW21946   3.447   4.647   0.760
 7016SOL    HW121947   3.370   4.709   0.746
 7016SOL    HW221948   3.443   4.608   0.851
 7017SOL     OW21949   6.172   4.578   5.738
 7017SOL    HW121950   6.109   4.622   5.674
 7017SOL    HW221951   6.264   4.618   5.727
 7018SOL     OW21952   5.125   3.592   4.991
 7018SOL    HW121953   5.033   3.632   4.992
 7018SOL    HW221954   5.175   3.625   4.911
 7019SOL     OW21955   3.958   5.290   2.215
 7019SOL    HW121956   3.866   5.283   2.178
 7019SOL    HW221957   3.981   5.386   2.232
 7020SOL     OW21958   0.814   2.276   6.210
 7020SOL    HW121959   0.772   2.220   6.282
 7020SOL    HW221960   0.914   2.274   6.220
 7021SOL     OW21961   0.765   1.930   4.968
 7021SOL    HW121962   0.779   2.029   4.974
 7021SOL    HW221963   0.668   1.910   4.983
 7022SOL     OW21964   2.950   3.084   0.840
 7022SOL    HW121965   2.966   3.077   0.741
 7022SOL    HW221966   3.002   3.161   0.876
 7023SOL     OW21967   0.788   1.648   0.994
 7023SOL    HW121968   0.769   1.688   1.084
 7023SOL    HW221969   0.795   1.721   0.926
 7024SOL     OW21970   3.155   3.806   4.721
 7024SOL    HW121971   3.135   3.732   4.786
 7024SOL    HW221972   3.111   3.786   4.634
 7025SOL     OW21973   3.005   0.651   1.213
 7025SOL    HW121974   2.983   0.694   1.125
 7025SOL    HW221975   3.081   0.700   1.255
 7026SOL     OW21976   2.966   2.321   0.890
 7026SOL    HW121977   2.952   2.356   0.797
 7026SOL    HW221978   3.037   2.249   0.888
 7027SOL     OW21979   3.383   4.884   2.062
 7027SOL    HW121980   3.407   4.856   2.155
 7027SOL    HW221981   3.455   4.856   1.999
 7028SOL     OW21982   3.172   6.837   3.234
 7028SOL    HW121983   3.261   6.801   3.205
 7028SOL    HW221984   3.182   6.886   3.320
 7029SOL     OW21985   3.374   3.612   3.443
 7029SOL    HW121986   3.334   3.566   3.363
 7029SOL    HW221987   3.469   3.635   3.424
 7030SOL     OW21988   6.496   0.165   4.574
 7030SOL    HW121989   6.541   0.165   4.664
 7030SOL    HW221990   6.438   0.085   4.566
 7031SOL     OW21991   4.957   6.086   0.517
 7031SOL    HW121992   4.948   6.064   0.420
 7031SOL    HW221993   4.878   6.141   0.545
 7032SOL     OW21994   4.750   4.955   3.987
 7032SOL    HW121995   4.728   4.978   4.081
 7032SOL    HW221996   4.665   4.947   3.934
 7033SOL     OW21997   1.606   1.566   5.381
 7033SOL    HW121998   1.569   1.573   5.474
 7033SOL    HW221999   1.691   1.514   5.383
 7034SOL     OW22000   6.129   0.683   2.315
 7034SOL    HW122001   6.216   0.681   2.365
 7034SOL    HW222002   6.068   0.750   2.357
 7035SOL     OW22003   2.765   1.059   1.515
 7035SOL    HW122004   2.768   1.038   1.613
 7035SOL    HW222005   2.858   1.075   1.481
 7036SOL     OW22006   6.402   1.422   1.450
 7036SOL    HW122007   6.476   1.417   1.517
 7036SOL    HW222008   6.356   1.334   1.444
 7037SOL     OW22009   1.435   0.486   5.993
 7037SOL    HW122010   1.457   0.397   6.034
 7037SOL    HW222011   1.514   0.546   5.999
 7038SOL     OW22012   1.555   4.070   0.178
 7038SOL    HW122013   1.469   4.119   0.161
 7038SOL    HW222014   1.537   3.992   0.238
 7039SOL     OW22015   0.230   6.648   1.779
 7039SOL    HW122016   0.271   6.557   1.772
 7039SOL    HW222017   0.272   6.699   1.854
 7040SOL     OW22018   5.591   2.332   4.686
 7040SOL    HW122019   5.609   2.360   4.780
 7040SOL    HW222020   5.569   2.235   4.684
 7041SOL     OW22021   1.169   0.338   4.273
 7041SOL    HW122022   1.157   0.265   4.206
 7041SOL    HW222023   1.127   0.422   4.238
 7042SOL     OW22024   5.926   6.154   5.471
 7042SOL    HW122025   5.867   6.097   5.415
 7042SOL    HW222026   5.989   6.097   5.524
 7043SOL     OW22027   1.710   6.143   1.005
 7043SOL    HW122028   1.716   6.057   0.955
 7043SOL    HW222029   1.784   6.204   0.976
 7044SOL     OW22030   5.302   5.997   5.166
 7044SOL    HW122031   5.326   5.998   5.069
 7044SOL    HW222032   5.225   6.058   5.182
 7045SOL     OW22033   6.073   5.954   1.799
 7045SOL    HW122034   6.128   5.900   1.862
 7045SOL    HW222035   6.052   5.899   1.718
 7046SOL     OW22036   2.167   1.361   3.966
 7046SOL    HW122037   2.136   1.345   3.872
 7046SOL    HW222038   2.263   1.392   3.964
 7047SOL     OW22039   0.924   6.594   0.503
 7047SOL    HW122040   0.850   6.659   0.517
 7047SOL    HW222041   0.994   6.608   0.573
 7048SOL     OW22042   0.821   6.314   3.286
 7048SOL    HW122043   0.850   6.343   3.377
 7048SOL    HW222044   0.789   6.220   3.289
 7049SOL     OW22045   3.730   1.449   4.156
 7049SOL    HW122046   3.772   1.407   4.236
 7049SOL    HW222047   3.794   1.513   4.114
 7050SOL     OW22048   4.004   4.239   0.463
 7050SOL    HW122049   3.936   4.263   0.532
 7050SOL    HW222050   4.095   4.260   0.498
 7051SOL     OW22051   1.210   2.108   1.548
 7051SOL    HW122052   1.260   2.022   1.545
 7051SOL    HW222053   1.220   2.149   1.639
 7052SOL     OW22054   4.475   1.799   2.705
 7052SOL    HW122055   4.419   1.876   2.675
 7052SOL    HW222056   4.479   1.797   2.805
 7053SOL     OW22057   1.484   3.586   3.433
 7053SOL    HW122058   1.468   3.662   3.371
 7053SOL    HW222059   1.582   3.577   3.450
 7054SOL     OW22060   5.201   0.274   0.069
 7054SOL    HW122061   5.253   0.231   0.142
 7054SOL    HW222062   5.227   0.233   7.003
 7055SOL     OW22063   2.276   0.551   0.510
 7055SOL    HW122064   2.343   0.575   0.439
 7055SOL    HW222065   2.262   0.630   0.570
 7056SOL     OW22066   0.116   4.827   1.173
 7056SOL    HW122067   0.156   4.744   1.134
 7056SOL    HW222068   0.122   4.901   1.106
 7057SOL     OW22069   3.390   5.554   4.593
 7057SOL    HW122070   3.485   5.546   4.562
 7057SOL    HW222071   3.339   5.613   4.531
 7058SOL     OW22072   6.384   2.590   6.319
 7058SOL    HW122073   6.362   2.630   6.230
 7058SOL    HW222074   6.462   2.528   6.309
 7059SOL     OW22075   1.797   6.963   5.329
 7059SOL    HW122076   1.825   6.947   5.234
 7059SOL    HW222077   1.874   6.942   5.390
 7060SOL     OW22078   3.455   2.260   1.367
 7060SOL    HW122079   3.378   2.299   1.417
 7060SOL    HW222080   3.453   2.160   1.375
 7061SOL     OW22081   1.215   0.995   1.434
 7061SOL    HW122082   1.137   0.932   1.437
 7061SOL    HW222083   1.251   0.999   1.341
 7062SOL     OW22084   3.469   0.411   4.287
 7062SOL    HW122085   3.434   0.336   4.342
 7062SOL    HW222086   3.399   0.442   4.224
 7063SOL     OW22087   0.126   1.554   1.333
 7063SOL    HW122088   0.031   1.578   1.354
 7063SOL    HW222089   0.128   1.474   1.274
 7064SOL     OW22090   3.064   1.609   5.200
 7064SOL    HW122091   3.011   1.569   5.125
 7064SOL    HW222092   3.147   1.651   5.164
 7065SOL     OW22093   4.116   5.502   5.297
 7065SOL    HW122094   4.127   5.448   5.381
 7065SOL    HW222095   4.068   5.587   5.319
 7066SOL     OW22096   3.492   6.856   1.275
 7066SOL    HW122097   3.470   6.810   1.189
 7066SOL    HW222098   3.474   6.954   1.266
 7067SOL     OW22099   2.319   4.086   6.185
 7067SOL    HW122100   2.356   4.020   6.121
 7067SOL    HW222101   2.354   4.067   6.277
 7068SOL     OW22102   5.145   4.371   4.409
 7068SOL    HW122103   5.187   4.300   4.351
 7068SOL    HW222104   5.060   4.336   4.448
 7069SOL     OW22105   5.039   1.051   6.072
 7069SOL    HW122106   5.016   0.956   6.094
 7069SOL    HW222107   5.078   1.095   6.153
 7070SOL     OW22108   0.737   0.466   5.820
 7070SOL    HW122109   0.785   0.379   5.829
 7070SOL    HW222110   0.741   0.515   5.907
 7071SOL     OW22111   4.572   6.378   6.710
 7071SOL    HW122112   4.544   6.430   6.630
 7071SOL    HW222113   4.662   6.339   6.694
 7072SOL     OW22114   0.801   3.815   6.364
 7072SOL    HW122115   0.716   3.763   6.364
 7072SOL    HW222116   0.781   3.912   6.354
 7073SOL     OW22117   4.875   1.776   3.953
 7073SOL    HW122118   4.880   1.698   3.890
 7073SOL    HW222119   4.880   1.861   3.901
 7074SOL     OW22120   5.454   3.990   2.662
 7074SOL    HW122121   5.398   4.030   2.734
 7074SOL    HW222122   5.503   4.064   2.614
 7075SOL     OW22123   2.594   5.427   3.393
 7075SOL    HW122124   2.572   5.381   3.479
 7075SOL    HW222125   2.618   5.360   3.323
 7076SOL     OW22126   5.489   2.006   0.972
 7076SOL    HW122127   5.393   2.028   0.987
 7076SOL    HW222128   5.524   1.955   1.050
 7077SOL     OW22129   3.690   6.041   1.615
 7077SOL    HW122130   3.659   6.136   1.608
 7077SOL    HW222131   3.645   5.998   1.693
 7078SOL     OW22132   6.642   1.044   6.925
 7078SOL    HW122133   6.604   1.057   6.834
 7078SOL    HW222134   6.737   1.014   6.918
 7079SOL     OW22135   1.828   5.753   4.875
 7079SOL    HW122136   1.831   5.724   4.779
 7079SOL    HW222137   1.898   5.704   4.927
 7080SOL     OW22138   4.028   1.905   6.372
 7080SOL    HW122139   4.107   1.870   6.321
 7080SOL    HW222140   3.997   1.836   6.437
 7081SOL     OW22141   2.453   6.975   0.373
 7081SOL    HW122142   2.377   0.009   0.407
 7081SOL    HW222143   2.419   6.887   0.341
 7082SOL     OW22144   0.443   3.565   2.529
 7082SOL    HW122145   0.502   3.554   2.449
 7082SOL    HW222146   0.496   3.604   2.605
 7083SOL     OW22147   4.930   2.726   3.528
 7083SOL    HW122148   4.967   2.816   3.503
 7083SOL    HW222149   4.848   2.709   3.473
 7084SOL     OW22150   0.990   4.891   0.865
 7084SOL    HW122151   0.925   4.905   0.790
 7084SOL    HW222152   0.997   4.794   0.885
 7085SOL     OW22153   0.852   3.995   2.492
 7085SOL    HW122154   0.848   4.070   2.558
 7085SOL    HW222155   0.931   4.008   2.432
 7086SOL     OW22156   5.363   0.668   3.738
 7086SOL    HW122157   5.456   0.695   3.761
 7086SOL    HW222158   5.351   0.668   3.639
 7087SOL     OW22159   4.612   2.636   3.582
 7087SOL    HW122160   4.648   2.667   3.494
 7087SOL    HW222161   4.665   2.677   3.656
 7088SOL     OW22162   6.674   2.287   5.178
 7088SOL    HW122163   6.672   2.335   5.266
 7088SOL    HW222164   6.678   2.352   5.103
 7089SOL     OW22165   2.522   5.735   1.173
 7089SOL    HW122166   2.458   5.664   1.200
 7089SOL    HW222167   2.524   5.741   1.073
 7090SOL     OW22168   4.233   3.170   0.840
 7090SOL    HW122169   4.245   3.269   0.827
 7090SOL    HW222170   4.139   3.146   0.816
 7091SOL     OW22171   6.849   6.418   0.115
 7091SOL    HW122172   6.945   6.435   0.135
 7091SOL    HW222173   6.802   6.505   0.101
 7092SOL     OW22174   4.452   6.935   6.758
 7092SOL    HW122175   4.407   6.976   6.838
 7092SOL    HW222176   4.440   6.835   6.761
 7093SOL     OW22177   3.290   3.295   0.407
 7093SOL    HW122178   3.279   3.368   0.473
 7093SOL    HW222179   3.379   3.252   0.418
 7094SOL     OW22180   4.141   0.703   5.364
 7094SOL    HW122181   4.233   0.667   5.350
 7094SOL    HW222182   4.094   0.650   5.434
 7095SOL     OW22183   2.640   5.078   4.620
 7095SOL    HW122184   2.678   5.157   4.572
 7095SOL    HW222185   2.715   5.022   4.657
 7096SOL     OW22186   6.304   6.586   0.880
 7096SOL    HW122187   6.274   6.525   0.954
 7096SOL    HW222188   6.341   6.670   0.920
 7097SOL     OW22189   4.698   1.511   2.898
 7097SOL    HW122190   4.632   1.574   2.940
 7097SOL    HW222191   4.719   1.542   2.805
 7098SOL     OW22192   0.785   1.360   3.450
 7098SOL    HW122193   0.838   1.339   3.532
 7098SOL    HW222194   0.756   1.276   3.406
 7099SOL     OW22195   3.621   2.069   4.587
 7099SOL    HW122196   3.718   2.091   4.581
 7099SOL    HW222197   3.608   1.993   4.651
 7100SOL     OW22198   0.036   3.733   1.449
 7100SOL    HW122199   0.128   3.703   1.474
 7100SOL    HW222200   6.994   3.713   1.523
 7101SOL     OW22201   2.564   5.750   4.388
 7101SOL    HW122202   2.565   5.651   4.372
 7101SOL    HW222203   2.656   5.787   4.373
 7102SOL     OW22204   5.696   1.448   3.149
 7102SOL    HW122205   5.794   1.458   3.168
 7102SOL    HW222206   5.671   1.505   3.071
 7103SOL     OW22207   5.008   3.833   3.884
 7103SOL    HW122208   4.929   3.853   3.941
 7103SOL    HW222209   5.024   3.734   3.882
 7104SOL     OW22210   5.099   2.954   4.923
 7104SOL    HW122211   5.143   2.972   5.011
 7104SOL    HW222212   5.030   2.882   4.935
 7105SOL     OW22213   3.125   3.965   2.721
 7105SOL    HW122214   3.100   3.970   2.817
 7105SOL    HW222215   3.223   3.979   2.711
 7106SOL     OW22216   3.109   1.884   2.589
 7106SOL    HW122217   3.208   1.890   2.574
 7106SOL    HW222218   3.066   1.971   2.566
 7107SOL     OW22219   3.685   1.073   6.709
 7107SOL    HW122220   3.672   1.066   6.610
 7107SOL    HW222221   3.682   1.170   6.735
 7108SOL     OW22222   4.162   7.003   1.883
 7108SOL    HW122223   4.225   0.024   1.949
 7108SOL    HW222224   4.107   6.934   1.930
 7109SOL     OW22225   3.132   5.383   6.048
 7109SOL    HW122226   3.106   5.461   5.992
 7109SOL    HW222227   3.129   5.299   5.993
 7110SOL     OW22228   2.502   6.239   5.044
 7110SOL    HW122229   2.589   6.289   5.033
 7110SOL    HW222230   2.494   6.207   5.138
 7111SOL     OW22231   6.655   0.914   5.132
 7111SOL    HW122232   6.717   0.837   5.121
 7111SOL    HW222233   6.700   0.998   5.101
 7112SOL     OW22234   0.801   4.750   5.002
 7112SOL    HW122235   0.857   4.691   4.943
 7112SOL    HW222236   0.860   4.806   5.060
 7113SOL     OW22237   3.094   6.551   4.910
 7113SOL    HW122238   3.096   6.579   5.006
 7113SOL    HW222239   3.084   6.631   4.851
 7114SOL     OW22240   6.012   4.011   1.378
 7114SOL    HW122241   5.922   3.987   1.414
 7114SOL    HW222242   6.012   4.107   1.351
 7115SOL     OW22243   5.422   3.284   5.771
 7115SOL    HW122244   5.399   3.235   5.855
 7115SOL    HW222245   5.363   3.365   5.761
 7116SOL     OW22246   7.007   4.018   5.010
 7116SOL    HW122247   0.017   3.942   5.068
 7116SOL    HW222248   0.000   4.104   5.057
 7117SOL     OW22249   5.198   6.730   2.794
 7117SOL    HW122250   5.164   6.698   2.883
 7117SOL    HW222251   5.298   6.733   2.796
 7118SOL     OW22252   4.670   4.524   6.128
 7118SOL    HW122253   4.636   4.604   6.177
 7118SOL    HW222254   4.663   4.541   6.029
 7119SOL     OW22255   2.971   6.951   5.373
 7119SOL    HW122256   2.917   6.895   5.311
 7119SOL    HW222257   2.911   7.012   5.424
 7120SOL     OW22258   4.200   1.297   1.021
 7120SOL    HW122259   4.285   1.297   0.967
 7120SOL    HW222260   4.207   1.227   1.092
 7121SOL     OW22261   1.227   6.350   2.302
 7121SOL    HW122262   1.201   6.257   2.277
 7121SOL    HW222263   1.198   6.368   2.396
 7122SOL     OW22264   3.874   2.178   6.715
 7122SOL    HW122265   3.936   2.150   6.788
 7122SOL    HW222266   3.883   2.277   6.699
 7123SOL     OW22267   5.590   5.155   5.769
 7123SOL    HW122268   5.588   5.248   5.730
 7123SOL    HW222269   5.500   5.134   5.808
 7124SOL     OW22270   2.014   2.882   0.905
 7124SOL    HW122271   1.978   2.945   0.974
 7124SOL    HW222272   2.099   2.841   0.938
 7125SOL     OW22273   0.790   6.568   2.294
 7125SOL    HW122274   0.742   6.653   2.272
 7125SOL    HW222275   0.814   6.520   2.209
 7126SOL     OW22276   3.833   5.132   1.213
 7126SOL    HW122277   3.778   5.111   1.132
 7126SOL    HW222278   3.815   5.064   1.284
 7127SOL     OW22279   3.143   6.397   6.259
 7127SOL    HW122280   3.067   6.404   6.324
 7127SOL    HW222281   3.166   6.301   6.244
 7128SOL     OW22282   3.232   4.249   6.957
 7128SOL    HW122283   3.181   4.329   6.927
 7128SOL    HW222284   3.170   4.173   6.974
 7129SOL     OW22285   0.210   6.964   0.058
 7129SOL    HW122286   0.185   0.031   0.098
 7129SOL    HW222287   0.131   6.903   0.058
 7130SOL     OW22288   3.059   0.154   3.892
 7130SOL    HW122289   3.000   0.230   3.863
 7130SOL    HW222290   3.098   0.174   3.981
 7131SOL     OW22291   2.446   1.424   2.214
 7131SOL    HW122292   2.464   1.326   2.226
 7131SOL    HW222293   2.352   1.437   2.181
 7132SOL     OW22294   4.789   4.375   1.381
 7132SOL    HW122295   4.700   4.350   1.342
 7132SOL    HW222296   4.820   4.302   1.442
 7133SOL     OW22297   4.545   6.096   2.577
 7133SOL    HW122298   4.572   6.078   2.672
 7133SOL    HW222299   4.565   6.015   2.521
 7134SOL     OW22300   5.093   5.134   0.323
 7134SOL    HW122301   5.060   5.125   0.229
 7134SOL    HW222302   5.099   5.043   0.364
 7135SOL     OW22303   1.873   3.697   1.466
 7135SOL    HW122304   1.897   3.778   1.518
 7135SOL    HW222305   1.779   3.706   1.432
 7136SOL     OW22306   1.356   2.622   1.750
 7136SOL    HW122307   1.342   2.676   1.667
 7136SOL    HW222308   1.269   2.582   1.779
 7137SOL     OW22309   3.068   0.922   2.436
 7137SOL    HW122310   3.075   0.954   2.341
 7137SOL    HW222311   2.988   0.962   2.479
 7138SOL     OW22312   0.134   3.508   0.388
 7138SOL    HW122313   0.153   3.410   0.379
 7138SOL    HW222314   0.139   3.534   0.484
 7139SOL     OW22315   5.796   6.186   0.775
 7139SOL    HW122316   5.757   6.136   0.852
 7139SOL    HW222317   5.870   6.132   0.735
 7140SOL     OW22318   6.831   4.889   0.138
 7140SOL    HW122319   6.815   4.802   0.185
 7140SOL    HW222320   6.926   4.917   0.153
 7141SOL     OW22321   2.953   0.786   0.956
 7141SOL    HW122322   2.867   0.792   0.906
 7141SOL    HW222323   3.029   0.788   0.891
 7142SOL     OW22324   4.881   0.586   5.227
 7142SOL    HW122325   4.938   0.667   5.213
 7142SOL    HW222326   4.787   0.608   5.202
 7143SOL     OW22327   2.843   2.929   6.516
 7143SOL    HW122328   2.793   2.844   6.534
 7143SOL    HW222329   2.903   2.949   6.593
 7144SOL     OW22330   0.129   0.869   6.335
 7144SOL    HW122331   0.161   0.869   6.240
 7144SOL    HW222332   0.120   0.775   6.367
 7145SOL     OW22333   5.827   1.983   5.906
 7145SOL    HW122334   5.833   1.902   5.848
 7145SOL    HW222335   5.765   1.965   5.982
 7146SOL     OW22336   0.865   2.508   5.329
 7146SOL    HW122337   0.953   2.489   5.286
 7146SOL    HW222338   0.862   2.465   5.419
 7147SOL     OW22339   6.801   6.637   1.891
 7147SOL    HW122340   6.854   6.577   1.951
 7147SOL    HW222341   6.794   6.728   1.934
 7148SOL     OW22342   6.239   6.852   1.327
 7148SOL    HW122343   6.178   6.930   1.337
 7148SOL    HW222344   6.295   6.842   1.410
 7149SOL     OW22345   5.286   4.418   5.622
 7149SOL    HW122346   5.268   4.414   5.524
 7149SOL    HW222347   5.273   4.327   5.661
 7150SOL     OW22348   3.059   2.376   6.840
 7150SOL    HW122349   3.134   2.404   6.779
 7150SOL    HW222350   3.093   2.369   6.934
 7151SOL     OW22351   5.383   1.408   0.006
 7151SOL    HW122352   5.463   1.418   0.067
 7151SOL    HW222353   5.300   1.425   0.059
 7152SOL     OW22354   4.748   0.489   5.597
 7152SOL    HW122355   4.799   0.462   5.679
 7152SOL    HW222356   4.766   0.423   5.524
 7153SOL     OW22357   3.358   5.386   0.511
 7153SOL    HW122358   3.434   5.410   0.571
 7153SOL    HW222359   3.293   5.329   0.561
 7154SOL     OW22360   4.563   0.764   1.983
 7154SOL    HW122361   4.608   0.809   1.906
 7154SOL    HW222362   4.478   0.721   1.952
 7155SOL     OW22363   1.502   0.065   1.952
 7155SOL    HW122364   1.486   0.164   1.944
 7155SOL    HW222365   1.414   0.018   1.961
 7156SOL     OW22366   6.615   4.018   5.524
 7156SOL    HW122367   6.613   4.102   5.578
 7156SOL    HW222368   6.560   4.031   5.441
 7157SOL     OW22369   0.332   4.341   5.748
 7157SOL    HW122370   0.325   4.377   5.841
 7157SOL    HW222371   0.301   4.246   5.747
 7158SOL     OW22372   5.310   0.174   3.843
 7158SOL    HW122373   5.283   0.256   3.893
 7158SOL    HW222374   5.287   0.185   3.746
 7159SOL     OW22375   0.575   6.399   2.934
 7159SOL    HW122376   0.652   6.352   2.891
 7159SOL    HW222377   0.531   6.338   3.000
 7160SOL     OW22378   5.726   6.909   2.919
 7160SOL    HW122379   5.747   6.982   2.983
 7160SOL    HW222380   5.784   6.829   2.940
 7161SOL     OW22381   3.615   4.056   2.336
 7161SOL    HW122382   3.656   4.061   2.245
 7161SOL    HW222383   3.626   3.963   2.372
 7162SOL     OW22384   0.100   6.068   1.193
 7162SOL    HW122385   0.120   6.126   1.114
 7162SOL    HW222386   0.185   6.046   1.241
 7163SOL     OW22387   6.537   0.659   1.350
 7163SOL    HW122388   6.612   0.725   1.348
 7163SOL    HW222389   6.465   0.689   1.286
 7164SOL     OW22390   1.686   1.099   0.048
 7164SOL    HW122391   1.631   1.021   0.021
 7164SOL    HW222392   1.720   1.086   0.142
 7165SOL     OW22393   5.309   2.177   6.973
 7165SOL    HW122394   5.299   2.172   0.052
 7165SOL    HW222395   5.243   2.116   6.930
 7166SOL     OW22396   0.167   5.577   5.776
 7166SOL    HW122397   0.133   5.576   5.870
 7166SOL    HW222398   0.108   5.520   5.719
 7167SOL     OW22399   0.075   3.139   5.545
 7167SOL    HW122400   0.087   3.203   5.469
 7167SOL    HW222401   0.011   3.067   5.518
 7168SOL     OW22402   2.012   1.927   2.115
 7168SOL    HW122403   1.924   1.958   2.079
 7168SOL    HW222404   2.059   1.873   2.045
 7169SOL     OW22405   1.877   4.696   5.586
 7169SOL    HW122406   1.855   4.665   5.493
 7169SOL    HW222407   1.862   4.795   5.592
 7170SOL     OW22408   3.547   1.355   1.087
 7170SOL    HW122409   3.503   1.269   1.063
 7170SOL    HW222410   3.633   1.336   1.136
 7171SOL     OW22411   6.528   3.784   0.801
 7171SOL    HW122412   6.500   3.826   0.887
 7171SOL    HW222413   6.627   3.773   0.800
 7172SOL     OW22414   0.675   2.201   3.606
 7172SOL    HW122415   0.750   2.224   3.545
 7172SOL    HW222416   0.632   2.116   3.575
 7173SOL     OW22417   4.486   5.671   5.993
 7173SOL    HW122418   4.408   5.702   5.939
 7173SOL    HW222419   4.567   5.725   5.969
 7174SOL     OW22420   6.441   3.978   2.238
 7174SOL    HW122421   6.521   3.923   2.213
 7174SOL    HW222422   6.447   4.068   2.195
 7175SOL     OW22423   6.407   4.052   5.773
 7175SOL    HW122424   6.363   3.976   5.725
 7175SOL    HW222425   6.367   4.138   5.742
 7176SOL     OW22426   0.326   1.083   6.261
 7176SOL    HW122427   0.395   1.155   6.245
 7176SOL    HW222428   0.309   1.034   6.175
 7177SOL     OW22429   1.552   6.231   3.859
 7177SOL    HW122430   1.619   6.267   3.794
 7177SOL    HW222431   1.461   6.262   3.833
 7178SOL     OW22432   1.376   6.939   4.982
 7178SOL    HW122433   1.409   6.902   4.896
 7178SOL    HW222434   1.454   6.963   5.040
 7179SOL     OW22435   4.797   4.861   5.930
 7179SOL    HW122436   4.844   4.885   6.015
 7179SOL    HW222437   4.771   4.944   5.882
 7180SOL     OW22438   1.870   3.094   1.938
 7180SOL    HW122439   1.940   3.143   1.990
 7180SOL    HW222440   1.892   3.099   1.841
 7181SOL     OW22441   2.184   1.257   0.040
 7181SOL    HW122442   2.102   1.203   0.021
 7181SOL    HW222443   2.259   1.225   7.004
 7182SOL     OW22444   1.819   1.029   3.636
 7182SOL    HW122445   1.832   1.114   3.688
 7182SOL    HW222446   1.868   1.036   3.549
 7183SOL     OW22447   1.878   6.807   1.707
 7183SOL    HW122448   1.940   6.836   1.634
 7183SOL    HW222449   1.787   6.847   1.692
 7184SOL     OW22450   6.893   0.760   4.001
 7184SOL    HW122451   6.812   0.819   4.013
 7184SOL    HW222452   6.872   0.668   4.034
 7185SOL     OW22453   4.220   0.471   3.867
 7185SOL    HW122454   4.124   0.471   3.839
 7185SOL    HW222455   4.234   0.402   3.938
 7186SOL     OW22456   6.235   0.773   6.836
 7186SOL    HW122457   6.164   0.827   6.880
 7186SOL    HW222458   6.278   0.713   6.904
 7187SOL     OW22459   3.855   3.709   4.012
 7187SOL    HW122460   3.799   3.628   4.031
 7187SOL    HW222461   3.893   3.743   4.098
 7188SOL     OW22462   4.389   4.301   0.307
 7188SOL    HW122463   4.469   4.254   0.271
 7188SOL    HW222464   4.415   4.393   0.338
 7189SOL     OW22465   6.854   2.326   5.849
 7189SOL    HW122466   6.853   2.376   5.935
 7189SOL    HW222467   6.810   2.236   5.862
 7190SOL     OW22468   6.192   5.247   6.633
 7190SOL    HW122469   6.220   5.176   6.568
 7190SOL    HW222470   6.093   5.260   6.628
 7191SOL     OW22471   6.572   4.746   2.526
 7191SOL    HW122472   6.551   4.726   2.622
 7191SOL    HW222473   6.670   4.742   2.512
 7192SOL     OW22474   2.381   4.094   5.426
 7192SOL    HW122475   2.440   4.047   5.492
 7192SOL    HW222476   2.382   4.043   5.339
 7193SOL     OW22477   3.595   1.748   3.320
 7193SOL    HW122478   3.499   1.736   3.293
 7193SOL    HW222479   3.652   1.750   3.238
 7194SOL     OW22480   2.805   2.472   6.199
 7194SOL    HW122481   2.790   2.567   6.226
 7194SOL    HW222482   2.725   2.439   6.148
 7195SOL     OW22483   1.137   4.237   5.926
 7195SOL    HW122484   1.100   4.230   5.833
 7195SOL    HW222485   1.237   4.240   5.922
 7196SOL     OW22486   3.300   4.277   1.527
 7196SOL    HW122487   3.391   4.276   1.570
 7196SOL    HW222488   3.240   4.337   1.580
 7197SOL     OW22489   3.409   4.826   6.852
 7197SOL    HW122490   3.498   4.785   6.832
 7197SOL    HW222491   3.347   4.812   6.775
 7198SOL     OW22492   0.804   0.441   2.009
 7198SOL    HW122493   0.748   0.372   1.962
 7198SOL    HW222494   0.793   0.529   1.963
 7199SOL     OW22495   6.024   1.429   2.768
 7199SOL    HW122496   5.978   1.385   2.845
 7199SOL    HW222497   5.979   1.403   2.683
 7200SOL     OW22498   1.080   2.930   6.975
 7200SOL    HW122499   1.160   2.987   6.996
 7200SOL    HW222500   1.033   2.907   0.038
 7201SOL     OW22501   5.962   5.951   4.138
 7201SOL    HW122502   6.007   5.976   4.223
 7201SOL    HW222503   6.020   5.887   4.088
 7202SOL     OW22504   4.414   6.693   5.725
 7202SOL    HW122505   4.455   6.735   5.644
 7202SOL    HW222506   4.485   6.643   5.775
 7203SOL     OW22507   0.320   1.914   0.937
 7203SOL    HW122508   0.357   1.966   0.859
 7203SOL    HW222509   0.311   1.818   0.911
 7204SOL     OW22510   6.591   1.178   2.278
 7204SOL    HW122511   6.581   1.115   2.201
 7204SOL    HW222512   6.515   1.243   2.279
 7205SOL     OW22513   3.192   1.858   4.406
 7205SOL    HW122514   3.093   1.866   4.403
 7205SOL    HW222515   3.232   1.948   4.423
 7206SOL     OW22516   2.077   3.698   6.554
 7206SOL    HW122517   2.064   3.771   6.622
 7206SOL    HW222518   2.060   3.609   6.597
 7207SOL     OW22519   2.066   1.425   3.223
 7207SOL    HW122520   2.071   1.379   3.134
 7207SOL    HW222521   1.971   1.446   3.245
 7208SOL     OW22522   4.092   1.077   4.169
 7208SOL    HW122523   4.042   1.116   4.092
 7208SOL    HW222524   4.036   1.085   4.252
 7209SOL     OW22525   3.331   0.837   2.056
 7209SOL    HW122526   3.415   0.878   2.020
 7209SOL    HW222527   3.252   0.881   2.015
 7210SOL     OW22528   3.987   1.118   3.920
 7210SOL    HW122529   3.910   1.055   3.909
 7210SOL    HW222530   4.018   1.150   3.831
 7211SOL     OW22531   4.320   6.409   5.816
 7211SOL    HW122532   4.284   6.403   5.723
 7211SOL    HW222533   4.337   6.505   5.839
 7212SOL     OW22534   0.627   5.535   5.267
 7212SOL    HW122535   0.654   5.440   5.250
 7212SOL    HW222536   0.528   5.544   5.253
 7213SOL     OW22537   4.241   2.447   0.150
 7213SOL    HW122538   4.254   2.432   0.052
 7213SOL    HW222539   4.279   2.371   0.202
 7214SOL     OW22540   6.208   0.264   6.304
 7214SOL    HW122541   6.210   0.262   6.404
 7214SOL    HW222542   6.167   0.350   6.273
 7215SOL     OW22543   6.609   1.490   2.402
 7215SOL    HW122544   6.590   1.520   2.496
 7215SOL    HW222545   6.694   1.439   2.400
 7216SOL     OW22546   5.099   0.148   3.380
 7216SOL    HW122547   5.091   0.048   3.382
 7216SOL    HW222548   5.085   0.181   3.287
 7217SOL     OW22549   1.195   2.638   3.048
 7217SOL    HW122550   1.183   2.627   3.147
 7217SOL    HW222551   1.282   2.599   3.020
 7218SOL     OW22552   6.398   2.454   4.874
 7218SOL    HW122553   6.315   2.474   4.926
 7218SOL    HW222554   6.424   2.534   4.820
 7219SOL     OW22555   2.937   6.079   2.407
 7219SOL    HW122556   2.976   6.024   2.333
 7219SOL    HW222557   2.946   6.029   2.493
 7220SOL     OW22558   6.267   4.281   3.519
 7220SOL    HW122559   6.210   4.241   3.591
 7220SOL    HW222560   6.296   4.209   3.456
 7221SOL     OW22561   3.939   5.595   3.577
 7221SOL    HW122562   4.019   5.635   3.621
 7221SOL    HW222563   3.926   5.502   3.610
 7222SOL     OW22564   6.708   6.125   4.286
 7222SOL    HW122565   6.808   6.122   4.287
 7222SOL    HW222566   6.677   6.218   4.267
 7223SOL     OW22567   0.127   4.433   1.587
 7223SOL    HW122568   0.227   4.433   1.585
 7223SOL    HW222569   0.093   4.347   1.549
 7224SOL     OW22570   4.315   2.395   2.165
 7224SOL    HW122571   4.385   2.407   2.236
 7224SOL    HW222572   4.226   2.423   2.201
 7225SOL     OW22573   1.000   6.154   0.540
 7225SOL    HW122574   1.091   6.194   0.537
 7225SOL    HW222575   1.007   6.055   0.552
 7226SOL     OW22576   6.523   6.281   0.063
 7226SOL    HW122577   6.478   6.358   0.019
 7226SOL    HW222578   6.619   6.303   0.080
 7227SOL     OW22579   1.859   1.426   2.619
 7227SOL    HW122580   1.759   1.423   2.612
 7227SOL    HW222581   1.896   1.334   2.620
 7228SOL     OW22582   6.157   3.212   2.119
 7228SOL    HW122583   6.091   3.198   2.193
 7228SOL    HW222584   6.209   3.296   2.136
 7229SOL     OW22585   5.993   0.838   5.209
 7229SOL    HW122586   5.906   0.864   5.168
 7229SOL    HW222587   6.066   0.891   5.165
 7230SOL     OW22588   2.380   5.089   4.496
 7230SOL    HW122589   2.452   5.064   4.561
 7230SOL    HW222590   2.344   5.006   4.453
 7231SOL     OW22591   4.180   3.250   6.058
 7231SOL    HW122592   4.175   3.150   6.062
 7231SOL    HW222593   4.243   3.283   6.129
 7232SOL     OW22594   4.507   6.247   3.492
 7232SOL    HW122595   4.453   6.293   3.563
 7232SOL    HW222596   4.603   6.271   3.503
 7233SOL     OW22597   0.255   1.229   5.563
 7233SOL    HW122598   0.275   1.288   5.485
 7233SOL    HW222599   0.257   1.133   5.534
 7234SOL     OW22600   5.601   4.425   3.519
 7234SOL    HW122601   5.513   4.447   3.561
 7234SOL    HW222602   5.675   4.454   3.580
 7235SOL     OW22603   6.304   6.557   1.956
 7235SOL    HW122604   6.359   6.534   2.037
 7235SOL    HW222605   6.257   6.475   1.923
 7236SOL     OW22606   2.118   3.579   2.935
 7236SOL    HW122607   2.060   3.597   3.014
 7236SOL    HW222608   2.099   3.647   2.864
 7237SOL     OW22609   5.637   1.199   0.411
 7237SOL    HW122610   5.689   1.129   0.362
 7237SOL    HW222611   5.686   1.224   0.495
 7238SOL     OW22612   4.319   3.824   0.087
 7238SOL    HW122613   4.360   3.734   0.100
 7238SOL    HW222614   4.391   3.892   0.077
 7239SOL     OW22615   5.871   2.544   2.102
 7239SOL    HW122616   5.835   2.623   2.152
 7239SOL    HW222617   5.954   2.511   2.147
 7240SOL     OW22618   6.944   1.660   0.903
 7240SOL    HW122619   6.969   1.740   0.959
 7240SOL    HW222620   6.846   1.661   0.886
 7241SOL     OW22621   1.965   0.606   2.237
 7241SOL    HW122622   1.922   0.620   2.148
 7241SOL    HW222623   1.908   0.648   2.308
 7242SOL     OW22624   6.833   4.423   4.921
 7242SOL    HW122625   6.872   4.430   4.830
 7242SOL    HW222626   6.822   4.514   4.961
 7243SOL     OW22627   5.535   4.817   6.258
 7243SOL    HW122628   5.616   4.762   6.278
 7243SOL    HW222629   5.534   4.898   6.317
 7244SOL     OW22630   6.917   5.991   0.065
 7244SOL    HW122631   6.831   5.962   0.107
 7244SOL    HW222632   6.981   6.018   0.137
 7245SOL     OW22633   1.142   3.256   0.476
 7245SOL    HW122634   1.118   3.280   0.570
 7245SOL    HW222635   1.131   3.337   0.418
 7246SOL     OW22636   4.168   6.948   2.828
 7246SOL    HW122637   4.199   6.996   2.746
 7246SOL    HW222638   4.119   7.011   2.887
 7247SOL     OW22639   2.951   3.746   4.535
 7247SOL    HW122640   2.970   3.819   4.469
 7247SOL    HW222641   2.879   3.686   4.498
 7248SOL     OW22642   2.984   1.467   5.435
 7248SOL    HW122643   3.002   1.503   5.344
 7248SOL    HW222644   2.943   1.537   5.492
 7249SOL     OW22645   4.086   5.109   2.582
 7249SOL    HW122646   4.012   5.164   2.542
 7249SOL    HW222647   4.171   5.128   2.533
 7250SOL     OW22648   5.771   4.977   5.176
 7250SOL    HW122649   5.812   4.942   5.260
 7250SOL    HW222650   5.843   4.992   5.108
 7251SOL     OW22651   0.446   5.811   5.038
 7251SOL    HW122652   0.449   5.723   5.086
 7251SOL    HW222653   0.407   5.797   4.947
 7252SOL     OW22654   3.621   4.124   2.655
 7252SOL    HW122655   3.692   4.066   2.696
 7252SOL    HW222656   3.637   4.133   2.557
 7253SOL     OW22657   2.856   5.451   5.228
 7253SOL    HW122658   2.939   5.408   5.192
 7253SOL    HW222659   2.776   5.402   5.194
 7254SOL     OW22660   5.777   2.933   4.492
 7254SOL    HW122661   5.768   2.980   4.580
 7254SOL    HW222662   5.870   2.945   4.457
 7255SOL     OW22663   5.073   3.666   6.802
 7255SOL    HW122664   5.090   3.576   6.761
 7255SOL    HW222665   5.060   3.734   6.730
 7256SOL     OW22666   3.169   6.928   5.053
 7256SOL    HW122667   3.106   7.003   5.035
 7256SOL    HW222668   3.215   6.942   5.140
 7257SOL     OW22669   0.979   1.561   4.743
 7257SOL    HW122670   0.902   1.552   4.680
 7257SOL    HW222671   1.065   1.551   4.692
 7258SOL     OW22672   5.731   3.120   2.462
 7258SOL    HW122673   5.671   3.105   2.383
 7258SOL    HW222674   5.675   3.125   2.545
 7259SOL     OW22675   1.475   4.341   2.640
 7259SOL    HW122676   1.437   4.252   2.613
 7259SOL    HW222677   1.571   4.330   2.665
 7260SOL     OW22678   5.583   2.812   0.750
 7260SOL    HW122679   5.622   2.901   0.730
 7260SOL    HW222680   5.533   2.816   0.836
 7261SOL     OW22681   6.590   4.507   0.097
 7261SOL    HW122682   6.663   4.536   0.159
 7261SOL    HW222683   6.502   4.514   0.144
 7262SOL     OW22684   5.655   1.387   5.099
 7262SOL    HW122685   5.736   1.377   5.041
 7262SOL    HW222686   5.682   1.388   5.195
 7263SOL     OW22687   6.704   5.711   6.625
 7263SOL    HW122688   6.713   5.807   6.597
 7263SOL    HW222689   6.791   5.678   6.661
 7264SOL     OW22690   5.747   1.191   0.963
 7264SOL    HW122691   5.773   1.278   1.006
 7264SOL    HW222692   5.751   1.118   1.031
 7265SOL     OW22693   3.839   0.169   6.006
 7265SOL    HW122694   3.894   0.232   6.061
 7265SOL    HW222695   3.891   0.086   5.987
 7266SOL     OW22696   0.347   0.751   3.742
 7266SOL    HW122697   0.371   0.695   3.821
 7266SOL    HW222698   0.269   0.809   3.764
 7267SOL     OW22699   6.344   4.558   4.524
 7267SOL    HW122700   6.400   4.636   4.552
 7267SOL    HW222701   6.267   4.590   4.469
 7268SOL     OW22702   6.009   6.869   4.149
 7268SOL    HW122703   5.935   6.921   4.191
 7268SOL    HW222704   6.086   6.931   4.131
 7269SOL     OW22705   2.512   4.596   4.646
 7269SOL    HW122706   2.507   4.680   4.700
 7269SOL    HW222707   2.563   4.527   4.696
 7270SOL     OW22708   0.861   1.318   4.829
 7270SOL    HW122709   0.892   1.413   4.819
 7270SOL    HW222710   0.894   1.281   4.916
 7271SOL     OW22711   0.824   4.630   2.918
 7271SOL    HW122712   0.829   4.531   2.901
 7271SOL    HW222713   0.729   4.659   2.917
 7272SOL     OW22714   6.403   4.387   1.654
 7272SOL    HW122715   6.484   4.371   1.597
 7272SOL    HW222716   6.323   4.400   1.594
 7273SOL     OW22717   0.809   2.438   5.615
 7273SOL    HW122718   0.725   2.492   5.624
 7273SOL    HW222719   0.788   2.342   5.634
 7274SOL     OW22720   0.731   4.742   6.685
 7274SOL    HW122721   0.665   4.813   6.660
 7274SOL    HW222722   0.685   4.654   6.695
 7275SOL     OW22723   0.686   6.094   3.378
 7275SOL    HW122724   0.627   6.015   3.395
 7275SOL    HW222725   0.685   6.154   3.459
 7276SOL     OW22726   5.326   6.235   4.048
 7276SOL    HW122727   5.335   6.334   4.059
 7276SOL    HW222728   5.371   6.208   3.963
 7277SOL     OW22729   4.555   0.611   6.828
 7277SOL    HW122730   4.651   0.585   6.812
 7277SOL    HW222731   4.540   0.625   6.925
 7278SOL     OW22732   3.529   2.804   2.110
 7278SOL    HW122733   3.472   2.865   2.165
 7278SOL    HW222734   3.566   2.731   2.168
 7279SOL     OW22735   3.357   6.557   6.230
 7279SOL    HW122736   3.284   6.491   6.211
 7279SOL    HW222737   3.316   6.643   6.260
 7280SOL     OW22738   4.536   1.483   5.886
 7280SOL    HW122739   4.571   1.575   5.903
 7280SOL    HW222740   4.587   1.418   5.942
 7281SOL     OW22741   5.194   1.415   6.133
 7281SOL    HW122742   5.176   1.486   6.201
 7281SOL    HW222743   5.292   1.407   6.119
 7282SOL     OW22744   5.610   5.522   2.128
 7282SOL    HW122745   5.663   5.437   2.136
 7282SOL    HW222746   5.569   5.544   2.216
 7283SOL     OW22747   2.160   0.933   4.056
 7283SOL    HW122748   2.116   0.852   4.095
 7283SOL    HW222749   2.161   0.927   3.956
 7284SOL     OW22750   0.624   2.643   5.287
 7284SOL    HW122751   0.720   2.615   5.288
 7284SOL    HW222752   0.565   2.566   5.310
 7285SOL     OW22753   5.520   5.192   1.915
 7285SOL    HW122754   5.435   5.232   1.951
 7285SOL    HW222755   5.567   5.259   1.858
 7286SOL     OW22756   2.165   3.915   1.225
 7286SOL    HW122757   2.128   3.824   1.243
 7286SOL    HW222758   2.225   3.942   1.300
 7287SOL     OW22759   5.823   1.737   6.236
 7287SOL    HW122760   5.889   1.769   6.168
 7287SOL    HW222761   5.768   1.814   6.268
 7288SOL     OW22762   3.221   6.819   6.240
 7288SOL    HW122763   3.197   6.816   6.337
 7288SOL    HW222764   3.223   6.914   6.209
 7289SOL     OW22765   5.336   1.900   3.839
 7289SOL    HW122766   5.412   1.964   3.826
 7289SOL    HW222767   5.316   1.891   3.936
 7290SOL     OW22768   2.943   4.797   4.072
 7290SOL    HW122769   2.943   4.803   4.172
 7290SOL    HW222770   3.030   4.831   4.037
 7291SOL     OW22771   2.935   5.185   1.850
 7291SOL    HW122772   2.953   5.283   1.854
 7291SOL    HW222773   2.972   5.141   1.931
 7292SOL     OW22774   2.927   6.808   4.812
 7292SOL    HW122775   3.009   6.783   4.760
 7292SOL    HW222776   2.915   6.907   4.810
 7293SOL     OW22777   1.485   2.677   6.020
 7293SOL    HW122778   1.478   2.630   5.932
 7293SOL    HW222779   1.486   2.776   6.006
 7294SOL     OW22780   3.639   5.406   0.627
 7294SOL    HW122781   3.676   5.402   0.720
 7294SOL    HW222782   3.677   5.485   0.579
 7295SOL     OW22783   5.536   0.188   1.676
 7295SOL    HW122784   5.549   0.110   1.615
 7295SOL    HW222785   5.542   0.158   1.771
 7296SOL     OW22786   4.279   5.015   1.995
 7296SOL    HW122787   4.316   4.933   2.039
 7296SOL    HW222788   4.261   5.084   2.064
 7297SOL     OW22789   5.390   0.053   2.154
 7297SOL    HW122790   5.347   0.007   2.231
 7297SOL    HW222791   5.382   0.152   2.166
 7298SOL     OW22792   6.092   3.568   4.048
 7298SOL    HW122793   6.154   3.608   3.981
 7298SOL    HW222794   6.098   3.468   4.043
 7299SOL     OW22795   6.171   3.672   6.652
 7299SOL    HW122796   6.170   3.626   6.741
 7299SOL    HW222797   6.157   3.605   6.579
 7300SOL     OW22798   4.523   4.794   1.065
 7300SOL    HW122799   4.560   4.760   0.978
 7300SOL    HW222800   4.431   4.829   1.051
 7301SOL     OW22801   6.903   0.686   6.485
 7301SOL    HW122802   6.822   0.698   6.429
 7301SOL    HW222803   6.955   0.607   6.452
 7302SOL     OW22804   4.830   0.892   6.279
 7302SOL    HW122805   4.809   0.810   6.332
 7302SOL    HW222806   4.818   0.872   6.181
 7303SOL     OW22807   3.429   0.894   0.559
 7303SOL    HW122808   3.514   0.847   0.582
 7303SOL    HW222809   3.411   0.886   0.461
 7304SOL     OW22810   3.549   4.288   5.180
 7304SOL    HW122811   3.577   4.353   5.251
 7304SOL    HW222812   3.586   4.198   5.201
 7305SOL     OW22813   5.569   0.870   0.002
 7305SOL    HW122814   5.510   0.948   7.004
 7305SOL    HW222815   5.523   0.808   0.065
 7306SOL     OW22816   4.757   5.045   1.704
 7306SOL    HW122817   4.696   4.971   1.734
 7306SOL    HW222818   4.830   5.057   1.770
 7307SOL     OW22819   4.318   6.846   2.489
 7307SOL    HW122820   4.308   6.760   2.438
 7307SOL    HW222821   4.414   6.863   2.508
 7308SOL     OW22822   6.381   1.779   4.582
 7308SOL    HW122823   6.323   1.861   4.578
 7308SOL    HW222824   6.340   1.706   4.528
 7309SOL     OW22825   4.468   6.068   1.653
 7309SOL    HW122826   4.527   6.096   1.578
 7309SOL    HW222827   4.459   5.968   1.653
 7310SOL     OW22828   2.509   5.094   1.446
 7310SOL    HW122829   2.531   5.036   1.368
 7310SOL    HW222830   2.491   5.036   1.526
 7311SOL     OW22831   2.725   2.364   2.268
 7311SOL    HW122832   2.781   2.380   2.186
 7311SOL    HW222833   2.776   2.305   2.332
 7312SOL     OW22834   6.833   1.632   6.219
 7312SOL    HW122835   6.852   1.536   6.198
 7312SOL    HW222836   6.912   1.688   6.193
 7313SOL     OW22837   4.309   2.742   6.750
 7313SOL    HW122838   4.358   2.757   6.836
 7313SOL    HW222839   4.225   2.691   6.768
 7314SOL     OW22840   0.371   2.772   4.644
 7314SOL    HW122841   0.317   2.784   4.561
 7314SOL    HW222842   0.434   2.848   4.654
 7315SOL     OW22843   0.113   0.531   5.162
 7315SOL    HW122844   0.034   0.559   5.108
 7315SOL    HW222845   0.109   0.573   5.253
 7316SOL     OW22846   3.563   4.056   5.607
 7316SOL    HW122847   3.478   4.096   5.573
 7316SOL    HW222848   3.640   4.101   5.562
 7317SOL     OW22849   3.111   1.265   3.876
 7317SOL    HW122850   3.111   1.206   3.956
 7317SOL    HW222851   3.019   1.265   3.835
 7318SOL     OW22852   1.545   1.734   1.415
 7318SOL    HW122853   1.567   1.637   1.401
 7318SOL    HW222854   1.460   1.756   1.368
 7319SOL     OW22855   6.769   4.190   6.359
 7319SOL    HW122856   6.688   4.141   6.327
 7319SOL    HW222857   6.744   4.285   6.380
 7320SOL     OW22858   6.747   2.468   1.964
 7320SOL    HW122859   6.842   2.497   1.977
 7320SOL    HW222860   6.731   2.447   1.868
 7321SOL     OW22861   2.886   1.136   4.685
 7321SOL    HW122862   2.972   1.186   4.673
 7321SOL    HW222863   2.864   1.087   4.601
 7322SOL     OW22864   0.369   3.319   2.620
 7322SOL    HW122865   0.400   3.405   2.580
 7322SOL    HW222866   0.356   3.331   2.718
 7323SOL     OW22867   1.997   3.622   3.189
 7323SOL    HW122868   1.943   3.546   3.227
 7323SOL    HW222869   2.049   3.666   3.262
 7324SOL     OW22870   5.455   6.195   2.500
 7324SOL    HW122871   5.392   6.232   2.569
 7324SOL    HW222872   5.542   6.174   2.543
 7325SOL     OW22873   2.915   6.353   0.054
 7325SOL    HW122874   2.829   6.391   0.090
 7325SOL    HW222875   2.990   6.378   0.115
 7326SOL     OW22876   2.763   6.864   5.207
 7326SOL    HW122877   2.753   6.806   5.288
 7326SOL    HW222878   2.674   6.872   5.160
 7327SOL     OW22879   1.512   2.492   5.483
 7327SOL    HW122880   1.543   2.397   5.489
 7327SOL    HW222881   1.546   2.533   5.398
 7328SOL     OW22882   2.544   0.226   0.102
 7328SOL    HW122883   2.447   0.237   0.122
 7328SOL    HW222884   2.591   0.313   0.119
 7329SOL     OW22885   4.396   3.474   1.393
 7329SOL    HW122886   4.335   3.461   1.471
 7329SOL    HW222887   4.386   3.397   1.329
 7330SOL     OW22888   4.243   1.826   0.353
 7330SOL    HW122889   4.331   1.817   0.307
 7330SOL    HW222890   4.228   1.921   0.379
 7331SOL     OW22891   5.297   0.992   1.412
 7331SOL    HW122892   5.281   0.995   1.313
 7331SOL    HW222893   5.357   0.914   1.434
 7332SOL     OW22894   3.955   5.507   1.026
 7332SOL    HW122895   3.993   5.594   1.056
 7332SOL    HW222896   3.944   5.447   1.105
 7333SOL     OW22897   0.812   5.120   2.461
 7333SOL    HW122898   0.899   5.073   2.478
 7333SOL    HW222899   0.778   5.158   2.547
 7334SOL     OW22900   3.896   6.727   4.120
 7334SOL    HW122901   3.992   6.730   4.148
 7334SOL    HW222902   3.842   6.784   4.182
 7335SOL     OW22903   1.651   2.384   2.771
 7335SOL    HW122904   1.672   2.464   2.827
 7335SOL    HW222905   1.570   2.403   2.715
 7336SOL     OW22906   1.899   6.827   3.707
 7336SOL    HW122907   1.971   6.893   3.684
 7336SOL    HW222908   1.908   6.802   3.803
 7337SOL     OW22909   5.852   2.789   2.236
 7337SOL    HW122910   5.845   2.829   2.327
 7337SOL    HW222911   5.910   2.846   2.178
 7338SOL     OW22912   6.466   3.039   6.952
 7338SOL    HW122913   6.406   3.070   6.877
 7338SOL    HW222914   6.441   3.089   0.014
 7339SOL     OW22915   0.854   5.231   4.710
 7339SOL    HW122916   0.929   5.183   4.664
 7339SOL    HW222917   0.779   5.244   4.645
 7340SOL     OW22918   1.860   0.207   6.308
 7340SOL    HW122919   1.802   0.241   6.234
 7340SOL    HW222920   1.804   0.185   6.387
 7341SOL     OW22921   6.569   2.344   6.882
 7341SOL    HW122922   6.523   2.384   6.961
 7341SOL    HW222923   6.662   2.317   6.907
 7342SOL     OW22924   6.940   0.115   2.477
 7342SOL    HW122925   6.891   0.175   2.541
 7342SOL    HW222926   0.017   0.124   2.493
 7343SOL     OW22927   5.186   2.682   0.488
 7343SOL    HW122928   5.163   2.592   0.451
 7343SOL    HW222929   5.116   2.748   0.462
 7344SOL     OW22930   1.228   6.648   5.963
 7344SOL    HW122931   1.133   6.674   5.943
 7344SOL    HW222932   1.281   6.650   5.878
 7345SOL     OW22933   3.050   5.064   6.228
 7345SOL    HW122934   3.088   5.114   6.305
 7345SOL    HW222935   3.040   4.967   6.253
 7346SOL     OW22936   4.732   4.816   2.523
 7346SOL    HW122937   4.738   4.846   2.428
 7346SOL    HW222938   4.821   4.783   2.553
 7347SOL     OW22939   6.077   2.197   6.434
 7347SOL    HW122940   6.006   2.256   6.395
 7347SOL    HW222941   6.077   2.109   6.386
 7348SOL     OW22942   6.870   4.487   1.565
 7348SOL    HW122943   6.839   4.521   1.654
 7348SOL    HW222944   6.970   4.478   1.566
 7349SOL     OW22945   3.718   1.762   1.996
 7349SOL    HW122946   3.639   1.822   2.002
 7349SOL    HW222947   3.790   1.807   1.942
 7350SOL     OW22948   3.617   0.973   4.453
 7350SOL    HW122949   3.646   0.978   4.357
 7350SOL    HW222950   3.646   0.886   4.492
 7351SOL     OW22951   3.170   4.928   3.986
 7351SOL    HW122952   3.171   5.009   4.045
 7351SOL    HW222953   3.214   4.950   3.899
 7352SOL     OW22954   6.454   2.816   3.969
 7352SOL    HW122955   6.366   2.786   3.933
 7352SOL    HW222956   6.524   2.749   3.944
 7353SOL     OW22957   6.436   0.278   6.600
 7353SOL    HW122958   6.363   0.270   6.533
 7353SOL    HW222959   6.458   0.375   6.614
 7354SOL     OW22960   0.368   1.633   3.429
 7354SOL    HW122961   0.288   1.581   3.399
 7354SOL    HW222962   0.431   1.572   3.478
 7355SOL     OW22963   2.576   1.785   6.964
 7355SOL    HW122964   2.495   1.767   7.020
 7355SOL    HW222965   2.578   1.882   6.939
 7356SOL     OW22966   4.249   3.932   5.852
 7356SOL    HW122967   4.233   3.836   5.827
 7356SOL    HW222968   4.176   3.989   5.816
 7357SOL     OW22969   4.667   5.894   2.423
 7357SOL    HW122970   4.748   5.911   2.366
 7357SOL    HW222971   4.590   5.868   2.365
 7358SOL     OW22972   5.583   1.113   2.918
 7358SOL    HW122973   5.523   1.100   2.839
 7358SOL    HW222974   5.529   1.143   2.997
 7359SOL     OW22975   4.903   0.213   1.680
 7359SOL    HW122976   4.828   0.250   1.735
 7359SOL    HW222977   4.874   0.204   1.585
 7360SOL     OW22978   3.102   3.329   5.143
 7360SOL    HW122979   3.106   3.386   5.060
 7360SOL    HW222980   3.020   3.352   5.195
 7361SOL     OW22981   6.332   0.682   3.126
 7361SOL    HW122982   6.412   0.629   3.152
 7361SOL    HW222983   6.252   0.621   3.121
 7362SOL     OW22984   3.047   4.980   6.780
 7362SOL    HW122985   3.087   4.910   6.720
 7362SOL    HW222986   3.117   5.015   6.841
 7363SOL     OW22987   3.792   0.806   0.139
 7363SOL    HW122988   3.861   0.868   0.175
 7363SOL    HW222989   3.709   0.810   0.195
 7364SOL     OW22990   5.620   6.489   1.561
 7364SOL    HW122991   5.666   6.539   1.635
 7364SOL    HW222992   5.678   6.487   1.480
 7365SOL     OW22993   5.254   4.854   2.361
 7365SOL    HW122994   5.353   4.842   2.355
 7365SOL    HW222995   5.208   4.790   2.300
 7366SOL     OW22996   1.723   0.554   4.162
 7366SOL    HW122997   1.783   0.628   4.133
 7366SOL    HW222998   1.728   0.543   4.261
 7367SOL     OW22999   3.964   0.289   0.117
 7367SOL    HW123000   3.915   0.262   0.034
 7367SOL    HW223001   3.922   0.372   0.154
 7368SOL     OW23002   3.724   3.664   3.628
 7368SOL    HW123003   3.726   3.747   3.683
 7368SOL    HW223004   3.680   3.684   3.540
 7369SOL     OW23005   5.276   1.977   0.223
 7369SOL    HW123006   5.322   2.018   0.301
 7369SOL    HW223007   5.313   1.886   0.206
 7370SOL     OW23008   1.757   1.024   4.514
 7370SOL    HW123009   1.671   1.016   4.463
 7370SOL    HW223010   1.828   1.063   4.456
 7371SOL     OW23011   4.289   1.169   3.937
 7371SOL    HW123012   4.253   1.252   3.979
 7371SOL    HW223013   4.214   1.105   3.919
 7372SOL     OW23014   5.929   1.106   5.554
 7372SOL    HW123015   5.893   1.065   5.638
 7372SOL    HW223016   6.022   1.139   5.571
 7373SOL     OW23017   6.043   3.378   4.625
 7373SOL    HW123018   6.034   3.296   4.568
 7373SOL    HW223019   5.974   3.446   4.597
 7374SOL     OW23020   6.555   2.589   5.605
 7374SOL    HW123021   6.540   2.681   5.568
 7374SOL    HW223022   6.471   2.557   5.649
 7375SOL     OW23023   1.331   3.248   1.826
 7375SOL    HW123024   1.253   3.185   1.835
 7375SOL    HW223025   1.412   3.206   1.866
 7376SOL     OW23026   6.796   3.457   0.701
 7376SOL    HW123027   6.784   3.499   0.791
 7376SOL    HW223028   6.709   3.459   0.652
 7377SOL     OW23029   2.138   6.727   1.070
 7377SOL    HW123030   2.061   6.732   1.134
 7377SOL    HW223031   2.181   6.817   1.063
 7378SOL     OW23032   1.327   5.449   4.468
 7378SOL    HW123033   1.306   5.372   4.407
 7378SOL    HW223034   1.293   5.430   4.560
 7379SOL     OW23035   4.052   1.061   1.656
 7379SOL    HW123036   4.095   1.143   1.694
 7379SOL    HW223037   4.033   0.996   1.730
 7380SOL     OW23038   5.272   4.182   1.639
 7380SOL    HW123039   5.232   4.115   1.701
 7380SOL    HW223040   5.229   4.271   1.655
 7381SOL     OW23041   3.763   0.287   1.228
 7381SOL    HW123042   3.764   0.323   1.321
 7381SOL    HW223043   3.836   0.329   1.174
 7382SOL     OW23044   6.213   1.060   6.157
 7382SOL    HW123045   6.277   0.984   6.145
 7382SOL    HW223046   6.256   1.132   6.212
 7383SOL     OW23047   2.117   0.671   0.915
 7383SOL    HW123048   2.150   0.641   1.005
 7383SOL    HW223049   2.109   0.770   0.914
 7384SOL     OW23050   6.697   6.907   0.993
 7384SOL    HW123051   6.698   6.909   1.093
 7384SOL    HW223052   6.693   7.000   0.957
 7385SOL     OW23053   6.348   4.247   3.182
 7385SOL    HW123054   6.338   4.172   3.248
 7385SOL    HW223055   6.442   4.250   3.148
 7386SOL     OW23056   5.477   3.326   0.012
 7386SOL    HW123057   5.456   3.415   0.051
 7386SOL    HW223058   5.437   3.254   0.068
 7387SOL     OW23059   6.451   5.974   4.871
 7387SOL    HW123060   6.538   5.943   4.910
 7387SOL    HW223061   6.379   5.909   4.895
 7388SOL     OW23062   2.180   4.705   3.327
 7388SOL    HW123063   2.139   4.755   3.403
 7388SOL    HW223064   2.169   4.757   3.242
 7389SOL     OW23065   6.130   2.751   7.019
 7389SOL    HW123066   6.226   2.770   6.999
 7389SOL    HW223067   6.120   2.726   0.094
 7390SOL     OW23068   2.362   2.698   3.576
 7390SOL    HW123069   2.327   2.791   3.562
 7390SOL    HW223070   2.287   2.633   3.572
 7391SOL     OW23071   3.210   3.498   3.221
 7391SOL    HW123072   3.133   3.438   3.204
 7391SOL    HW223073   3.229   3.552   3.139
 7392SOL     OW23074   3.111   6.884   6.513
 7392SOL    HW123075   3.056   6.866   6.594
 7392SOL    HW223076   3.206   6.901   6.540
 7393SOL     OW23077   5.592   4.954   4.009
 7393SOL    HW123078   5.548   4.864   4.016
 7393SOL    HW223079   5.523   5.024   3.996
 7394SOL     OW23080   2.660   1.707   5.582
 7394SOL    HW123081   2.675   1.805   5.574
 7394SOL    HW223082   2.578   1.690   5.637
 7395SOL     OW23083   2.438   6.110   1.008
 7395SOL    HW123084   2.498   6.183   0.976
 7395SOL    HW223085   2.355   6.109   0.951
 7396SOL     OW23086   2.063   5.060   2.566
 7396SOL    HW123087   2.093   4.984   2.509
 7396SOL    HW223088   2.027   5.133   2.508
 7397SOL     OW23089   6.049   4.313   3.868
 7397SOL    HW123090   6.112   4.249   3.824
 7397SOL    HW223091   5.960   4.309   3.822
 7398SOL     OW23092   2.824   4.821   2.439
 7398SOL    HW123093   2.840   4.831   2.537
 7398SOL    HW223094   2.828   4.911   2.395
 7399SOL     OW23095   5.054   2.016   5.967
 7399SOL    HW123096   5.018   1.924   5.984
 7399SOL    HW223097   5.107   2.016   5.881
 7400SOL     OW23098   5.200   3.449   5.591
 7400SOL    HW123099   5.251   3.535   5.591
 7400SOL    HW223100   5.104   3.467   5.611
 7401SOL     OW23101   1.575   2.380   4.292
 7401SOL    HW123102   1.514   2.413   4.220
 7401SOL    HW223103   1.661   2.348   4.251
 7402SOL     OW23104   4.042   5.696   4.483
 7402SOL    HW123105   3.977   5.756   4.436
 7402SOL    HW223106   4.006   5.603   4.485
 7403SOL     OW23107   1.622   3.927   4.336
 7403SOL    HW123108   1.597   3.864   4.262
 7403SOL    HW223109   1.718   3.911   4.362
 7404SOL     OW23110   3.363   3.438   1.075
 7404SOL    HW123111   3.401   3.375   1.144
 7404SOL    HW223112   3.263   3.440   1.084
 7405SOL     OW23113   3.788   6.608   3.790
 7405SOL    HW123114   3.807   6.522   3.839
 7405SOL    HW223115   3.765   6.587   3.695
 7406SOL     OW23116   1.055   1.867   4.981
 7406SOL    HW123117   0.966   1.913   4.983
 7406SOL    HW223118   1.112   1.909   4.910
 7407SOL     OW23119   0.970   5.791   5.333
 7407SOL    HW123120   1.059   5.775   5.290
 7407SOL    HW223121   0.972   5.759   5.427
 7408SOL     OW23122   4.296   5.145   5.449
 7408SOL    HW123123   4.236   5.225   5.451
 7408SOL    HW223124   4.273   5.084   5.525
 7409SOL     OW23125   6.718   3.862   1.378
 7409SOL    HW123126   6.712   3.779   1.434
 7409SOL    HW223127   6.787   3.849   1.307
 7410SOL     OW23128   0.078   0.842   0.965
 7410SOL    HW123129   0.114   0.788   0.890
 7410SOL    HW223130   0.142   0.840   1.042
 7411SOL     OW23131   2.750   1.884   5.060
 7411SOL    HW123132   2.724   1.979   5.040
 7411SOL    HW223133   2.667   1.829   5.070
 7412SOL     OW23134   3.570   6.786   0.168
 7412SOL    HW123135   3.567   6.864   0.105
 7412SOL    HW223136   3.581   6.702   0.116
 7413SOL     OW23137   4.536   0.844   2.915
 7413SOL    HW123138   4.588   0.772   2.869
 7413SOL    HW223139   4.544   0.929   2.862
 7414SOL     OW23140   2.869   1.101   3.603
 7414SOL    HW123141   2.961   1.063   3.594
 7414SOL    HW223142   2.873   1.201   3.603
 7415SOL     OW23143   4.112   6.516   6.248
 7415SOL    HW123144   4.016   6.507   6.275
 7415SOL    HW223145   4.141   6.611   6.262
 7416SOL     OW23146   1.769   0.824   1.784
 7416SOL    HW123147   1.731   0.868   1.703
 7416SOL    HW223148   1.865   0.799   1.768
 7417SOL     OW23149   0.382   1.016   2.754
 7417SOL    HW123150   0.412   1.070   2.676
 7417SOL    HW223151   0.460   0.966   2.792
 7418SOL     OW23152   1.446   4.436   6.102
 7418SOL    HW123153   1.374   4.505   6.091
 7418SOL    HW223154   1.418   4.369   6.170
 7419SOL     OW23155   6.933   3.677   4.090
 7419SOL    HW123156   6.905   3.772   4.072
 7419SOL    HW223157   6.856   3.627   4.130
 7420SOL     OW23158   0.426   6.745   1.616
 7420SOL    HW123159   0.413   6.836   1.576
 7420SOL    HW223160   0.339   6.711   1.651
 7421SOL     OW23161   5.938   3.853   1.184
 7421SOL    HW123162   5.941   3.754   1.201
 7421SOL    HW223163   5.990   3.901   1.254
 7422SOL     OW23164   5.604   2.695   2.423
 7422SOL    HW123165   5.648   2.733   2.341
 7422SOL    HW223166   5.578   2.769   2.484
 7423SOL     OW23167   4.907   2.146   5.740
 7423SOL    HW123168   4.981   2.213   5.738
 7423SOL    HW223169   4.924   2.079   5.812
 7424SOL     OW23170   6.849   2.506   3.666
 7424SOL    HW123171   6.899   2.526   3.750
 7424SOL    HW223172   6.839   2.407   3.657
 7425SOL     OW23173   5.455   1.213   0.947
 7425SOL    HW123174   5.427   1.129   0.901
 7425SOL    HW223175   5.554   1.211   0.961
 7426SOL     OW23176   3.327   2.749   5.894
 7426SOL    HW123177   3.343   2.830   5.837
 7426SOL    HW223178   3.378   2.759   5.980
 7427SOL     OW23179   3.363   0.853   3.398
 7427SOL    HW123180   3.440   0.853   3.462
 7427SOL    HW223181   3.296   0.784   3.425
 7428SOL     OW23182   4.178   6.229   4.872
 7428SOL    HW123183   4.251   6.210   4.938
 7428SOL    HW223184   4.154   6.145   4.824
 7429SOL     OW23185   0.634   6.958   2.559
 7429SOL    HW123186   0.640   0.033   2.530
 7429SOL    HW223187   0.662   6.950   2.654
 7430SOL     OW23188   6.803   5.354   2.835
 7430SOL    HW123189   6.856   5.290   2.891
 7430SOL    HW223190   6.809   5.446   2.874
 7431SOL     OW23191   1.235   1.441   3.389
 7431SOL    HW123192   1.321   1.451   3.340
 7431SOL    HW223193   1.239   1.359   3.446
 7432SOL     OW23194   2.181   0.993   3.176
 7432SOL    HW123195   2.249   1.050   3.222
 7432SOL    HW223196   2.209   0.897   3.182
 7433SOL     OW23197   2.527   6.625   6.706
 7433SOL    HW123198   2.574   6.583   6.784
 7433SOL    HW223199   2.478   6.555   6.654
 7434SOL     OW23200   3.600   6.718   3.961
 7434SOL    HW123201   3.676   6.699   3.898
 7434SOL    HW223202   3.631   6.705   4.055
 7435SOL     OW23203   5.059   4.037   2.568
 7435SOL    HW123204   5.061   3.993   2.658
 7435SOL    HW223205   4.966   4.036   2.532
 7436SOL     OW23206   5.522   2.845   5.915
 7436SOL    HW123207   5.541   2.842   6.013
 7436SOL    HW223208   5.436   2.895   5.900
 7437SOL     OW23209   3.121   6.995   0.999
 7437SOL    HW123210   3.041   6.977   0.942
 7437SOL    HW223211   3.091   7.014   1.093
 7438SOL     OW23212   2.002   0.477   0.025
 7438SOL    HW123213   2.027   0.466   0.122
 7438SOL    HW223214   2.085   0.490   6.992
 7439SOL     OW23215   1.109   4.642   6.481
 7439SOL    HW123216   1.185   4.698   6.450
 7439SOL    HW223217   1.058   4.690   6.552
 7440SOL     OW23218   5.580   3.938   3.835
 7440SOL    HW123219   5.636   4.005   3.883
 7440SOL    HW223220   5.502   3.984   3.791
 7441SOL     OW23221   5.413   5.942   0.704
 7441SOL    HW123222   5.353   5.991   0.641
 7441SOL    HW223223   5.363   5.920   0.788
 7442SOL     OW23224   5.143   0.714   6.263
 7442SOL    HW123225   5.124   0.725   6.166
 7442SOL    HW223226   5.197   0.631   6.277
 7443SOL     OW23227   0.207   1.211   1.716
 7443SOL    HW123228   0.192   1.298   1.762
 7443SOL    HW223229   0.171   1.136   1.773
 7444SOL     OW23230   1.859   6.946   0.333
 7444SOL    HW123231   1.869   6.853   0.367
 7444SOL    HW223232   1.762   6.967   0.322
 7445SOL     OW23233   3.895   5.954   1.458
 7445SOL    HW123234   3.853   5.935   1.369
 7445SOL    HW223235   3.824   5.974   1.525
 7446SOL     OW23236   5.255   4.697   6.722
 7446SOL    HW123237   5.185   4.708   6.792
 7446SOL    HW223238   5.290   4.603   6.724
 7447SOL     OW23239   0.237   4.850   0.339
 7447SOL    HW123240   0.281   4.886   0.421
 7447SOL    HW223241   0.173   4.777   0.363
 7448SOL     OW23242   4.627   6.020   6.804
 7448SOL    HW123243   4.613   5.921   6.807
 7448SOL    HW223244   4.558   6.066   6.861
 7449SOL     OW23245   0.153   4.849   5.720
 7449SOL    HW123246   0.143   4.927   5.782
 7449SOL    HW223247   0.072   4.791   5.726
 7450SOL     OW23248   5.726   2.276   5.630
 7450SOL    HW123249   5.732   2.305   5.726
 7450SOL    HW223250   5.816   2.282   5.588
 7451SOL     OW23251   4.622   4.465   3.199
 7451SOL    HW123252   4.708   4.415   3.212
 7451SOL    HW223253   4.587   4.446   3.107
 7452SOL     OW23254   6.452   5.661   5.999
 7452SOL    HW123255   6.400   5.600   6.058
 7452SOL    HW223256   6.493   5.609   5.924
 7453SOL     OW23257   3.835   5.626   6.268
 7453SOL    HW123258   3.858   5.682   6.188
 7453SOL    HW223259   3.812   5.685   6.345
 7454SOL     OW23260   3.831   2.191   1.072
 7454SOL    HW123261   3.924   2.197   1.110
 7454SOL    HW223262   3.830   2.124   0.997
 7455SOL     OW23263   6.523   1.518   3.211
 7455SOL    HW123264   6.500   1.538   3.116
 7455SOL    HW223265   6.622   1.512   3.221
 7456SOL     OW23266   2.451   1.997   6.618
 7456SOL    HW123267   2.425   1.927   6.552
 7456SOL    HW223268   2.378   2.065   6.625
 7457SOL     OW23269   1.322   1.271   2.238
 7457SOL    HW123270   1.374   1.356   2.234
 7457SOL    HW223271   1.381   1.195   2.209
 7458SOL     OW23272   1.452   5.495   5.493
 7458SOL    HW123273   1.400   5.494   5.408
 7458SOL    HW223274   1.527   5.429   5.487
 7459SOL     OW23275   5.815   0.318   2.374
 7459SOL    HW123276   5.866   0.337   2.291
 7459SOL    HW223277   5.869   0.346   2.454
 7460SOL     OW23278   1.623   6.741   1.339
 7460SOL    HW123279   1.580   6.768   1.425
 7460SOL    HW223280   1.665   6.651   1.348
 7461SOL     OW23281   2.463   4.598   5.303
 7461SOL    HW123282   2.444   4.686   5.258
 7461SOL    HW223283   2.469   4.612   5.402
 7462SOL     OW23284   1.483   3.813   0.870
 7462SOL    HW123285   1.426   3.895   0.870
 7462SOL    HW223286   1.496   3.782   0.965
 7463SOL     OW23287   4.062   5.009   0.899
 7463SOL    HW123288   3.977   4.971   0.863
 7463SOL    HW223289   4.047   5.036   0.995
 7464SOL     OW23290   6.013   6.776   5.459
 7464SOL    HW123291   5.930   6.720   5.457
 7464SOL    HW223292   6.075   6.746   5.386
 7465SOL     OW23293   1.872   5.098   7.015
 7465SOL    HW123294   1.964   5.089   6.978
 7465SOL    HW223295   1.860   5.191   0.030
 7466SOL     OW23296   0.525   0.121   5.376
 7466SOL    HW123297   0.510   0.047   5.311
 7466SOL    HW223298   0.533   0.208   5.327
 7467SOL     OW23299   1.390   3.764   4.840
 7467SOL    HW123300   1.305   3.783   4.791
 7467SOL    HW223301   1.406   3.834   4.909
 7468SOL     OW23302   5.672   3.208   5.634
 7468SOL    HW123303   5.733   3.193   5.711
 7468SOL    HW223304   5.580   3.229   5.667
 7469SOL     OW23305   0.678   1.786   0.446
 7469SOL    HW123306   0.755   1.837   0.408
 7469SOL    HW223307   0.651   1.827   0.533
 7470SOL     OW23308   5.689   2.556   3.266
 7470SOL    HW123309   5.673   2.569   3.364
 7470SOL    HW223310   5.760   2.487   3.253
 7471SOL     OW23311   3.721   6.714   6.659
 7471SOL    HW123312   3.706   6.760   6.571
 7471SOL    HW223313   3.639   6.662   6.684
 7472SOL     OW23314   6.646   6.979   6.163
 7472SOL    HW123315   6.595   6.965   6.079
 7472SOL    HW223316   6.589   6.951   6.241
 7473SOL     OW23317   3.454   5.864   3.608
 7473SOL    HW123318   3.509   5.836   3.687
 7473SOL    HW223319   3.500   5.834   3.524
 7474SOL     OW23320   6.010   1.986   6.995
 7474SOL    HW123321   6.107   1.991   6.970
 7474SOL    HW223322   5.994   2.044   0.054
 7475SOL     OW23323   4.848   2.137   1.019
 7475SOL    HW123324   4.809   2.106   0.933
 7475SOL    HW223325   4.900   2.221   1.004
 7476SOL     OW23326   2.185   0.545   3.240
 7476SOL    HW123327   2.136   0.481   3.300
 7476SOL    HW223328   2.218   0.622   3.293
 7477SOL     OW23329   1.484   3.285   5.506
 7477SOL    HW123330   1.543   3.214   5.468
 7477SOL    HW223331   1.532   3.334   5.578
 7478SOL     OW23332   0.351   1.301   5.818
 7478SOL    HW123333   0.347   1.399   5.801
 7478SOL    HW223334   0.338   1.251   5.733
 7479SOL     OW23335   4.890   2.758   1.155
 7479SOL    HW123336   4.943   2.696   1.214
 7479SOL    HW223337   4.794   2.754   1.180
 7480SOL     OW23338   3.747   4.838   2.539
 7480SOL    HW123339   3.767   4.741   2.551
 7480SOL    HW223340   3.715   4.855   2.446
 7481SOL     OW23341   0.127   3.631   6.906
 7481SOL    HW123342   0.124   3.720   6.860
 7481SOL    HW223343   0.184   3.568   6.854
 7482SOL     OW23344   5.488   1.990   3.214
 7482SOL    HW123345   5.406   2.013   3.161
 7482SOL    HW223346   5.569   2.005   3.157
 7483SOL     OW23347   4.279   1.809   5.938
 7483SOL    HW123348   4.328   1.884   5.893
 7483SOL    HW223349   4.219   1.765   5.873
 7484SOL     OW23350   3.210   0.209   3.620
 7484SOL    HW123351   3.159   0.170   3.697
 7484SOL    HW223352   3.169   0.177   3.534
 7485SOL     OW23353   3.802   6.522   6.275
 7485SOL    HW123354   3.797   6.455   6.201
 7485SOL    HW223355   3.715   6.525   6.324
 7486SOL     OW23356   3.146   6.805   0.569
 7486SOL    HW123357   3.083   6.864   0.520
 7486SOL    HW223358   3.238   6.845   0.569
 7487SOL     OW23359   3.544   6.381   4.513
 7487SOL    HW123360   3.613   6.315   4.545
 7487SOL    HW223361   3.453   6.345   4.531
 7488SOL     OW23362   1.227   5.851   4.034
 7488SOL    HW123363   1.134   5.821   4.011
 7488SOL    HW223364   1.250   5.933   3.982
 7489SOL     OW23365   5.494   3.288   6.635
 7489SOL    HW123366   5.457   3.211   6.686
 7489SOL    HW223367   5.458   3.287   6.542
 7490SOL     OW23368   1.452   2.801   2.458
 7490SOL    HW123369   1.505   2.721   2.486
 7490SOL    HW223370   1.372   2.771   2.404
 7491SOL     OW23371   4.304   4.039   6.733
 7491SOL    HW123372   4.244   3.973   6.780
 7491SOL    HW223373   4.373   3.989   6.680
 7492SOL     OW23374   1.049   0.554   4.179
 7492SOL    HW123375   0.963   0.605   4.191
 7492SOL    HW223376   1.104   0.597   4.108
 7493SOL     OW23377   6.350   4.418   5.036
 7493SOL    HW123378   6.273   4.462   5.081
 7493SOL    HW223379   6.392   4.482   4.971
 7494SOL     OW23380   6.539   1.315   1.694
 7494SOL    HW123381   6.485   1.311   1.779
 7494SOL    HW223382   6.628   1.273   1.710
 7495SOL     OW23383   1.471   2.927   4.713
 7495SOL    HW123384   1.527   2.902   4.791
 7495SOL    HW223385   1.450   3.024   4.716
 7496SOL     OW23386   6.014   4.092   2.739
 7496SOL    HW123387   6.100   4.122   2.699
 7496SOL    HW223388   5.962   4.040   2.671
 7497SOL     OW23389   6.486   6.555   1.602
 7497SOL    HW123390   6.491   6.481   1.669
 7497SOL    HW223391   6.578   6.577   1.570
 7498SOL     OW23392   2.872   6.226   3.165
 7498SOL    HW123393   2.845   6.268   3.252
 7498SOL    HW223394   2.874   6.296   3.094
 7499SOL     OW23395   2.855   1.275   3.804
 7499SOL    HW123396   2.800   1.253   3.885
 7499SOL    HW223397   2.796   1.316   3.734
 7500SOL     OW23398   4.170   0.945   3.418
 7500SOL    HW123399   4.234   0.911   3.486
 7500SOL    HW223400   4.141   1.038   3.442
 7501SOL     OW23401   6.682   2.420   5.420
 7501SOL    HW123402   6.645   2.465   5.501
 7501SOL    HW223403   6.770   2.463   5.395
 7502SOL     OW23404   4.507   0.813   4.104
 7502SOL    HW123405   4.517   0.813   4.004
 7502SOL    HW223406   4.595   0.794   4.146
 7503SOL     OW23407   1.868   5.645   2.038
 7503SOL    HW123408   1.916   5.732   2.028
 7503SOL    HW223409   1.771   5.662   2.052
 7504SOL     OW23410   6.050   6.319   4.875
 7504SOL    HW123411   6.026   6.247   4.940
 7504SOL    HW223412   6.006   6.405   4.903
 7505SOL     OW23413   0.045   6.384   4.693
 7505SOL    HW123414   0.108   6.418   4.763
 7505SOL    HW223415   0.097   6.336   4.622
 7506SOL     OW23416   3.544   1.743   3.805
 7506SOL    HW123417   3.618   1.792   3.851
 7506SOL    HW223418   3.469   1.806   3.784
 7507SOL     OW23419   5.887   4.208   5.754
 7507SOL    HW123420   5.831   4.281   5.713
 7507SOL    HW223421   5.914   4.235   5.847
 7508SOL     OW23422   2.551   5.787   0.518
 7508SOL    HW123423   2.599   5.777   0.431
 7508SOL    HW223424   2.465   5.737   0.514
 7509SOL     OW23425   6.011   4.923   2.414
 7509SOL    HW123426   6.093   4.914   2.358
 7509SOL    HW223427   6.037   4.956   2.505
 7510SOL     OW23428   3.074   3.990   2.436
 7510SOL    HW123429   3.160   4.001   2.385
 7510SOL    HW223430   3.090   4.008   2.532
 7511SOL     OW23431   4.979   6.394   4.271
 7511SOL    HW123432   4.912   6.374   4.342
 7511SOL    HW223433   4.980   6.492   4.251
 7512SOL     OW23434   3.587   0.884   0.942
 7512SOL    HW123435   3.686   0.884   0.955
 7512SOL    HW223436   3.564   0.826   0.863
 7513SOL     OW23437   1.626   1.840   1.996
 7513SOL    HW123438   1.638   1.826   2.094
 7513SOL    HW223439   1.682   1.917   1.965
 7514SOL     OW23440   1.288   5.981   1.775
 7514SOL    HW123441   1.343   6.060   1.750
 7514SOL    HW223442   1.214   5.969   1.708
 7515SOL     OW23443   0.553   4.367   5.208
 7515SOL    HW123444   0.488   4.359   5.133
 7515SOL    HW223445   0.583   4.462   5.216
 7516SOL     OW23446   1.563   6.599   5.463
 7516SOL    HW123447   1.538   6.504   5.445
 7516SOL    HW223448   1.661   6.605   5.484
 7517SOL     OW23449   1.383   1.450   5.859
 7517SOL    HW123450   1.438   1.498   5.792
 7517SOL    HW223451   1.385   1.499   5.946
 7518SOL     OW23452   4.985   1.873   4.176
 7518SOL    HW123453   4.932   1.855   4.094
 7518SOL    HW223454   5.054   1.801   4.189
 7519SOL     OW23455   3.853   6.341   3.896
 7519SOL    HW123456   3.858   6.352   3.995
 7519SOL    HW223457   3.793   6.264   3.874
 7520SOL     OW23458   1.348   1.723   0.567
 7520SOL    HW123459   1.262   1.677   0.591
 7520SOL    HW223460   1.384   1.683   0.483
 7521SOL     OW23461   3.847   1.039   4.672
 7521SOL    HW123462   3.947   1.038   4.674
 7521SOL    HW223463   3.814   1.133   4.668
 7522SOL     OW23464   2.509   0.007   3.877
 7522SOL    HW123465   2.449   0.083   3.853
 7522SOL    HW223466   2.465   6.942   3.853
 7523SOL     OW23467   5.433   0.973   0.759
 7523SOL    HW123468   5.469   0.893   0.710
 7523SOL    HW223469   5.358   0.944   0.819
 7524SOL     OW23470   0.668   3.525   4.393
 7524SOL    HW123471   0.735   3.463   4.434
 7524SOL    HW223472   0.663   3.508   4.295
 7525SOL     OW23473   3.835   4.945   5.919
 7525SOL    HW123474   3.922   4.932   5.966
 7525SOL    HW223475   3.819   4.869   5.856
 7526SOL     OW23476   2.382   3.761   1.170
 7526SOL    HW123477   2.450   3.816   1.121
 7526SOL    HW223478   2.301   3.817   1.188
 7527SOL     OW23479   3.835   5.152   3.328
 7527SOL    HW123480   3.821   5.203   3.413
 7527SOL    HW223481   3.850   5.055   3.350
 7528SOL     OW23482   6.505   2.771   5.892
 7528SOL    HW123483   6.530   2.845   5.955
 7528SOL    HW223484   6.588   2.734   5.850
 7529SOL     OW23485   6.244   3.672   3.835
 7529SOL    HW123486   6.295   3.744   3.883
 7529SOL    HW223487   6.246   3.690   3.737
 7530SOL     OW23488   0.608   2.420   2.262
 7530SOL    HW123489   0.565   2.413   2.352
 7530SOL    HW223490   0.645   2.512   2.249
 7531SOL     OW23491   3.678   2.094   4.064
 7531SOL    HW123492   3.624   2.082   4.147
 7531SOL    HW223493   3.763   2.142   4.086
 7532SOL     OW23494   4.958   5.748   6.091
 7532SOL    HW123495   5.032   5.749   6.158
 7532SOL    HW223496   4.991   5.785   6.004
 7533SOL     OW23497   4.364   4.349   1.594
 7533SOL    HW123498   4.301   4.290   1.543
 7533SOL    HW223499   4.405   4.297   1.669
 7534SOL     OW23500   4.351   0.100   5.233
 7534SOL    HW123501   4.330   0.189   5.191
 7534SOL    HW223502   4.447   0.078   5.219
 7535SOL     OW23503   0.644   6.281   3.579
 7535SOL    HW123504   0.697   6.362   3.603
 7535SOL    HW223505   0.546   6.301   3.592
 7536SOL     OW23506   5.910   6.404   3.872
 7536SOL    HW123507   5.895   6.310   3.904
 7536SOL    HW223508   5.938   6.462   3.948
 7537SOL     OW23509   1.950   6.610   2.724
 7537SOL    HW123510   1.999   6.571   2.801
 7537SOL    HW223511   2.004   6.600   2.641
 7538SOL     OW23512   1.109   4.059   0.568
 7538SOL    HW123513   1.138   3.977   0.519
 7538SOL    HW223514   1.187   4.098   0.617
 7539SOL     OW23515   6.795   0.038   4.520
 7539SOL    HW123516   6.697   0.044   4.498
 7539SOL    HW223517   6.810   6.985   4.585
 7540SOL     OW23518   5.652   4.901   3.127
 7540SOL    HW123519   5.742   4.923   3.165
 7540SOL    HW223520   5.641   4.802   3.124
 7541SOL     OW23521   2.695   4.195   5.476
 7541SOL    HW123522   2.715   4.279   5.426
 7541SOL    HW223523   2.680   4.120   5.412
 7542SOL     OW23524   6.096   5.784   4.544
 7542SOL    HW123525   6.096   5.800   4.643
 7542SOL    HW223526   6.189   5.793   4.509
 7543SOL     OW23527   2.850   1.310   0.105
 7543SOL    HW123528   2.902   1.227   0.082
 7543SOL    HW223529   2.844   1.369   0.025
 7544SOL     OW23530   6.675   1.803   4.294
 7544SOL    HW123531   6.757   1.753   4.323
 7544SOL    HW223532   6.598   1.740   4.290
 7545SOL     OW23533   1.891   5.830   5.600
 7545SOL    HW123534   1.848   5.862   5.515
 7545SOL    HW223535   1.972   5.775   5.578
 7546SOL     OW23536   2.408   2.764   1.955
 7546SOL    HW123537   2.430   2.755   2.053
 7546SOL    HW223538   2.443   2.684   1.906
 7547SOL     OW23539   4.086   0.192   1.734
 7547SOL    HW123540   4.075   0.146   1.646
 7547SOL    HW223541   4.132   0.131   1.798
 7548SOL     OW23542   3.579   2.938   6.391
 7548SOL    HW123543   3.608   2.956   6.297
 7548SOL    HW223544   3.535   2.848   6.396
 7549SOL     OW23545   5.568   1.053   4.576
 7549SOL    HW123546   5.597   1.097   4.660
 7549SOL    HW223547   5.576   0.954   4.585
 7550SOL     OW23548   3.005   5.399   4.612
 7550SOL    HW123549   2.959   5.311   4.621
 7550SOL    HW223550   3.084   5.402   4.674
 7551SOL     OW23551   6.485   2.250   6.038
 7551SOL    HW123552   6.533   2.166   6.065
 7551SOL    HW223553   6.541   2.329   6.062
 7552SOL     OW23554   2.362   7.005   5.007
 7552SOL    HW123555   2.444   0.041   5.017
 7552SOL    HW223556   2.297   0.029   4.946
 7553SOL     OW23557   5.661   6.478   5.642
 7553SOL    HW123558   5.595   6.430   5.585
 7553SOL    HW223559   5.612   6.543   5.701
 7554SOL     OW23560   4.129   1.203   0.740
 7554SOL    HW123561   4.209   1.179   0.684
 7554SOL    HW223562   4.157   1.210   0.836
 7555SOL     OW23563   4.331   5.001   4.203
 7555SOL    HW123564   4.309   4.934   4.274
 7555SOL    HW223565   4.329   4.957   4.113
 7556SOL     OW23566   0.658   6.664   1.510
 7556SOL    HW123567   0.654   6.613   1.424
 7556SOL    HW223568   0.566   6.687   1.540
 7557SOL     OW23569   4.842   6.795   1.282
 7557SOL    HW123570   4.886   6.784   1.193
 7557SOL    HW223571   4.746   6.769   1.275
 7558SOL     OW23572   0.747   1.878   3.867
 7558SOL    HW123573   0.711   1.971   3.864
 7558SOL    HW223574   0.673   1.813   3.852
 7559SOL     OW23575   2.684   1.943   4.669
 7559SOL    HW123576   2.783   1.941   4.675
 7559SOL    HW223577   2.648   2.011   4.734
 7560SOL     OW23578   1.391   1.073   5.919
 7560SOL    HW123579   1.311   1.133   5.917
 7560SOL    HW223580   1.473   1.128   5.934
 7561SOL     OW23581   6.011   1.647   5.344
 7561SOL    HW123582   5.968   1.640   5.254
 7561SOL    HW223583   6.106   1.618   5.337
 7562SOL     OW23584   1.918   5.561   3.296
 7562SOL    HW123585   1.968   5.647   3.299
 7562SOL    HW223586   1.820   5.579   3.286
 7563SOL     OW23587   3.771   6.146   2.232
 7563SOL    HW123588   3.696   6.171   2.172
 7563SOL    HW223589   3.745   6.067   2.288
 7564SOL     OW23590   3.807   1.626   5.365
 7564SOL    HW123591   3.784   1.616   5.268
 7564SOL    HW223592   3.840   1.538   5.400
 7565SOL     OW23593   6.617   3.695   5.907
 7565SOL    HW123594   6.656   3.715   5.817
 7565SOL    HW223595   6.650   3.605   5.938
 7566SOL     OW23596   4.769   4.648   1.460
 7566SOL    HW123597   4.680   4.656   1.506
 7566SOL    HW223598   4.789   4.552   1.442
 7567SOL     OW23599   0.994   6.808   4.158
 7567SOL    HW123600   0.989   6.871   4.235
 7567SOL    HW223601   1.085   6.812   4.117
 7568SOL     OW23602   6.034   5.531   1.473
 7568SOL    HW123603   6.111   5.494   1.422
 7568SOL    HW223604   5.961   5.557   1.409
 7569SOL     OW23605   4.873   3.438   0.291
 7569SOL    HW123606   4.938   3.386   0.236
 7569SOL    HW223607   4.826   3.505   0.233
 7570SOL     OW23608   0.781   3.267   2.469
 7570SOL    HW123609   0.809   3.361   2.490
 7570SOL    HW223610   0.705   3.269   2.403
 7571SOL     OW23611   4.345   2.117   2.215
 7571SOL    HW123612   4.280   2.041   2.222
 7571SOL    HW223613   4.297   2.200   2.187
 7572SOL     OW23614   4.520   6.981   3.865
 7572SOL    HW123615   4.511   0.059   3.852
 7572SOL    HW223616   4.616   6.958   3.881
 7573SOL     OW23617   4.238   6.802   6.002
 7573SOL    HW123618   4.323   6.832   5.959
 7573SOL    HW223619   4.241   6.824   6.100
 7574SOL     OW23620   0.588   2.353   3.833
 7574SOL    HW123621   0.621   2.446   3.847
 7574SOL    HW223622   0.622   2.318   3.746
 7575SOL     OW23623   0.188   6.304   2.794
 7575SOL    HW123624   0.091   6.281   2.807
 7575SOL    HW223625   0.205   6.397   2.828
 7576SOL     OW23626   5.125   2.675   0.090
 7576SOL    HW123627   5.027   2.680   0.074
 7576SOL    HW223628   5.142   2.653   0.187
 7577SOL     OW23629   0.747   0.710   0.205
 7577SOL    HW123630   0.818   0.671   0.146
 7577SOL    HW223631   0.706   0.637   0.260
 7578SOL     OW23632   6.548   5.885   3.502
 7578SOL    HW123633   6.474   5.942   3.468
 7578SOL    HW223634   6.512   5.819   3.569
 7579SOL     OW23635   0.765   1.741   6.799
 7579SOL    HW123636   0.682   1.685   6.810
 7579SOL    HW223637   0.790   1.743   6.702
 7580SOL     OW23638   2.160   5.013   3.760
 7580SOL    HW123639   2.079   5.071   3.759
 7580SOL    HW223640   2.133   4.919   3.782
 7581SOL     OW23641   6.969   0.685   2.189
 7581SOL    HW123642   6.959   0.602   2.244
 7581SOL    HW223643   0.024   0.673   2.125
 7582SOL     OW23644   2.016   2.001   6.660
 7582SOL    HW123645   2.041   1.970   6.568
 7582SOL    HW223646   1.917   2.016   6.664
 7583SOL     OW23647   5.373   3.267   3.205
 7583SOL    HW123648   5.471   3.261   3.226
 7583SOL    HW223649   5.356   3.227   3.115
 7584SOL     OW23650   0.621   1.451   3.204
 7584SOL    HW123651   0.571   1.371   3.237
 7584SOL    HW223652   0.675   1.489   3.280
 7585SOL     OW23653   0.757   1.275   5.928
 7585SOL    HW123654   0.669   1.316   5.948
 7585SOL    HW223655   0.829   1.345   5.934
 7586SOL     OW23656   1.719   0.298   3.014
 7586SOL    HW123657   1.683   0.231   3.077
 7586SOL    HW223658   1.768   0.252   2.940
 7587SOL     OW23659   4.098   6.877   1.079
 7587SOL    HW123660   4.111   6.779   1.066
 7587SOL    HW223661   4.040   6.893   1.159
 7588SOL     OW23662   2.580   2.551   4.633
 7588SOL    HW123663   2.638   2.505   4.566
 7588SOL    HW223664   2.635   2.614   4.688
 7589SOL     OW23665   0.427   0.279   2.620
 7589SOL    HW123666   0.500   0.288   2.552
 7589SOL    HW223667   0.467   0.250   2.708
 7590SOL     OW23668   6.516   0.901   0.130
 7590SOL    HW123669   6.579   0.943   0.065
 7590SOL    HW223670   6.473   0.972   0.186
 7591SOL     OW23671   3.400   2.889   4.592
 7591SOL    HW123672   3.367   2.795   4.588
 7591SOL    HW223673   3.335   2.946   4.643
 7592SOL     OW23674   6.576   6.476   3.994
 7592SOL    HW123675   6.644   6.541   3.960
 7592SOL    HW223676   6.536   6.427   3.917
 7593SOL     OW23677   0.472   1.082   5.348
 7593SOL    HW123678   0.413   1.073   5.268
 7593SOL    HW223679   0.481   0.993   5.393
 7594SOL     OW23680   0.093   3.880   6.777
 7594SOL    HW123681   0.053   3.968   6.753
 7594SOL    HW223682   0.064   3.811   6.710
 7595SOL     OW23683   1.300   3.568   6.900
 7595SOL    HW123684   1.341   3.534   6.985
 7595SOL    HW223685   1.212   3.523   6.886
 7596SOL     OW23686   2.974   1.483   6.033
 7596SOL    HW123687   3.043   1.448   5.969
 7596SOL    HW223688   2.885   1.485   5.987
 7597SOL     OW23689   1.683   5.055   1.838
 7597SOL    HW123690   1.708   5.149   1.863
 7597SOL    HW223691   1.589   5.054   1.803
 7598SOL     OW23692   6.196   0.626   2.068
 7598SOL    HW123693   6.181   0.633   2.167
 7598SOL    HW223694   6.253   0.546   2.048
 7599SOL     OW23695   3.232   3.870   1.095
 7599SOL    HW123696   3.144   3.832   1.125
 7599SOL    HW223697   3.217   3.937   1.023
 7600SOL     OW23698   1.281   6.947   3.948
 7600SOL    HW123699   1.339   6.900   4.015
 7600SOL    HW223700   1.334   6.967   3.866
 7601SOL     OW23701   2.944   6.843   2.259
 7601SOL    HW123702   2.947   6.941   2.240
 7601SOL    HW223703   2.992   6.793   2.187
 7602SOL     OW23704   0.407   1.441   1.027
 7602SOL    HW123705   0.381   1.346   1.009
 7602SOL    HW223706   0.446   1.448   1.119
 7603SOL     OW23707   3.735   1.017   6.228
 7603SOL    HW123708   3.757   0.922   6.205
 7603SOL    HW223709   3.771   1.078   6.157
 7604SOL     OW23710   0.647   2.546   5.024
 7604SOL    HW123711   0.638   2.591   5.113
 7604SOL    HW223712   0.633   2.614   4.952
 7605SOL     OW23713   2.226   6.250   6.943
 7605SOL    HW123714   2.129   6.273   6.950
 7605SOL    HW223715   2.280   6.335   6.937
 7606SOL     OW23716   6.811   0.954   3.572
 7606SOL    HW123717   6.730   0.998   3.534
 7606SOL    HW223718   6.873   0.929   3.497
 7607SOL     OW23719   1.772   5.983   5.396
 7607SOL    HW123720   1.843   6.043   5.358
 7607SOL    HW223721   1.767   5.900   5.340
 7608SOL     OW23722   6.171   2.473   6.469
 7608SOL    HW123723   6.168   2.376   6.446
 7608SOL    HW223724   6.236   2.520   6.409
 7609SOL     OW23725   2.564   1.428   4.590
 7609SOL    HW123726   2.543   1.525   4.600
 7609SOL    HW223727   2.479   1.375   4.587
 7610SOL     OW23728   4.243   5.247   4.547
 7610SOL    HW123729   4.290   5.166   4.580
 7610SOL    HW223730   4.198   5.294   4.623
 7611SOL     OW23731   4.644   2.876   0.829
 7611SOL    HW123732   4.605   2.784   0.821
 7611SOL    HW223733   4.573   2.940   0.859
 7612SOL     OW23734   4.017   1.729   2.619
 7612SOL    HW123735   3.954   1.795   2.660
 7612SOL    HW223736   3.993   1.636   2.648
 7613SOL     OW23737   0.900   0.448   1.256
 7613SOL    HW123738   0.844   0.378   1.211
 7613SOL    HW223739   0.844   0.500   1.321
 7614SOL     OW23740   5.404   3.847   0.079
 7614SOL    HW123741   5.501   3.830   0.099
 7614SOL    HW223742   5.386   3.830   7.004
 7615SOL     OW23743   6.235   3.011   5.058
 7615SOL    HW123744   6.301   2.936   5.054
 7615SOL    HW223745   6.281   3.096   5.034
 7616SOL     OW23746   6.510   0.072   3.279
 7616SOL    HW123747   6.528   7.001   3.247
 7616SOL    HW223748   6.415   0.079   3.310
 7617SOL     OW23749   6.315   4.056   3.385
 7617SOL    HW123750   6.375   3.997   3.438
 7617SOL    HW223751   6.238   4.003   3.350
 7618SOL     OW23752   2.234   2.797   0.323
 7618SOL    HW123753   2.197   2.876   0.275
 7618SOL    HW223754   2.291   2.744   0.260
 7619SOL     OW23755   2.001   1.405   4.724
 7619SOL    HW123756   2.031   1.318   4.763
 7619SOL    HW223757   2.053   1.424   4.640
 7620SOL     OW23758   3.038   4.656   0.920
 7620SOL    HW123759   3.102   4.612   0.857
 7620SOL    HW223760   2.983   4.723   0.870
 7621SOL     OW23761   6.159   4.024   0.202
 7621SOL    HW123762   6.186   4.097   0.140
 7621SOL    HW223763   6.074   4.049   0.248
 7622SOL     OW23764   3.269   3.975   1.743
 7622SOL    HW123765   3.259   3.877   1.762
 7622SOL    HW223766   3.183   4.022   1.763
 7623SOL     OW23767   5.152   3.999   1.804
 7623SOL    HW123768   5.081   3.969   1.740
 7623SOL    HW223769   5.114   4.007   1.896
 7624SOL     OW23770   1.355   3.388   2.463
 7624SOL    HW123771   1.336   3.307   2.408
 7624SOL    HW223772   1.352   3.365   2.560
 7625SOL     OW23773   5.075   0.586   1.920
 7625SOL    HW123774   5.119   0.669   1.886
 7625SOL    HW223775   5.048   0.600   2.015
 7626SOL     OW23776   4.473   0.685   6.585
 7626SOL    HW123777   4.429   0.609   6.537
 7626SOL    HW223778   4.476   0.664   6.683
 7627SOL     OW23779   4.201   3.330   6.397
 7627SOL    HW123780   4.232   3.373   6.482
 7627SOL    HW223781   4.280   3.310   6.339
 7628SOL     OW23782   3.319   2.596   0.482
 7628SOL    HW123783   3.408   2.642   0.485
 7628SOL    HW223784   3.253   2.654   0.435
 7629SOL     OW23785   5.794   2.338   3.092
 7629SOL    HW123786   5.697   2.359   3.105
 7629SOL    HW223787   5.826   2.379   3.006
 7630SOL     OW23788   1.214   6.575   3.887
 7630SOL    HW123789   1.139   6.555   3.950
 7630SOL    HW223790   1.297   6.593   3.940
 7631SOL     OW23791   0.976   0.301   5.322
 7631SOL    HW123792   0.935   0.227   5.375
 7631SOL    HW223793   0.989   0.381   5.381
 7632SOL     OW23794   5.030   5.799   0.506
 7632SOL    HW123795   5.129   5.781   0.509
 7632SOL    HW223796   5.015   5.898   0.496
 7633SOL     OW23797   6.362   1.011   1.345
 7633SOL    HW123798   6.314   0.923   1.348
 7633SOL    HW223799   6.309   1.079   1.396
 7634SOL     OW23800   6.823   2.067   6.843
 7634SOL    HW123801   6.898   2.015   6.801
 7634SOL    HW223802   6.736   2.022   6.822
 7635SOL     OW23803   2.073   2.942   5.567
 7635SOL    HW123804   1.995   2.913   5.512
 7635SOL    HW223805   2.154   2.891   5.538
 7636SOL     OW23806   6.681   3.770   4.442
 7636SOL    HW123807   6.686   3.709   4.521
 7636SOL    HW223808   6.771   3.809   4.424
 7637SOL     OW23809   0.903   4.531   4.545
 7637SOL    HW123810   0.920   4.578   4.632
 7637SOL    HW223811   0.817   4.563   4.506
 7638SOL     OW23812   0.332   6.013   1.336
 7638SOL    HW123813   0.383   5.927   1.327
 7638SOL    HW223814   0.392   6.089   1.313
 7639SOL     OW23815   1.953   1.168   0.415
 7639SOL    HW123816   1.898   1.087   0.396
 7639SOL    HW223817   1.915   1.246   0.364
 7640SOL     OW23818   3.191   1.348   0.848
 7640SOL    HW123819   3.113   1.408   0.832
 7640SOL    HW223820   3.218   1.353   0.944
 7641SOL     OW23821   6.940   3.884   4.490
 7641SOL    HW123822   6.943   3.937   4.575
 7641SOL    HW223823   6.951   3.946   4.412
 7642SOL     OW23824   5.168   0.766   3.204
 7642SOL    HW123825   5.101   0.828   3.243
 7642SOL    HW223826   5.252   0.816   3.182
 7643SOL     OW23827   5.194   3.416   4.224
 7643SOL    HW123828   5.154   3.388   4.312
 7643SOL    HW223829   5.247   3.341   4.186
 7644SOL     OW23830   5.125   3.407   0.663
 7644SOL    HW123831   5.064   3.335   0.630
 7644SOL    HW223832   5.199   3.420   0.597
 7645SOL     OW23833   3.526   4.831   0.095
 7645SOL    HW123834   3.518   4.840   7.017
 7645SOL    HW223835   3.622   4.821   0.121
 7646SOL     OW23836   6.685   1.752   0.330
 7646SOL    HW123837   6.720   1.839   0.295
 7646SOL    HW223838   6.760   1.701   0.372
 7647SOL     OW23839   0.064   2.323   3.948
 7647SOL    HW123840   0.153   2.342   3.907
 7647SOL    HW223841   0.000   2.291   3.877
 7648SOL     OW23842   2.253   2.119   2.025
 7648SOL    HW123843   2.323   2.050   2.046
 7648SOL    HW223844   2.177   2.109   2.089
 7649SOL     OW23845   3.796   1.570   6.703
 7649SOL    HW123846   3.777   1.558   6.801
 7649SOL    HW223847   3.730   1.634   6.664
 7650SOL     OW23848   4.149   2.631   0.374
 7650SOL    HW123849   4.143   2.564   0.301
 7650SOL    HW223850   4.118   2.590   0.460
 7651SOL     OW23851   3.179   5.074   6.493
 7651SOL    HW123852   3.224   5.116   6.571
 7651SOL    HW223853   3.188   4.974   6.499
 7652SOL     OW23854   1.063   0.945   4.204
 7652SOL    HW123855   0.990   0.895   4.252
 7652SOL    HW223856   1.152   0.906   4.229
 7653SOL     OW23857   2.496   0.543   6.657
 7653SOL    HW123858   2.529   0.557   6.564
 7653SOL    HW223859   2.481   0.632   6.700
 7654SOL     OW23860   6.427   1.879   6.414
 7654SOL    HW123861   6.333   1.868   6.382
 7654SOL    HW223862   6.476   1.792   6.404
 7655SOL     OW23863   3.484   1.502   3.957
 7655SOL    HW123864   3.576   1.502   3.996
 7655SOL    HW223865   3.472   1.583   3.899
 7656SOL     OW23866   6.256   4.200   0.042
 7656SOL    HW123867   6.184   4.198   6.994
 7656SOL    HW223868   6.344   4.177   7.020
 7657SOL     OW23869   1.364   4.088   4.984
 7657SOL    HW123870   1.413   4.143   5.052
 7657SOL    HW223871   1.320   4.011   5.029
 7658SOL     OW23872   2.752   0.783   0.767
 7658SOL    HW123873   2.761   0.877   0.736
 7658SOL    HW223874   2.800   0.722   0.703
 7659SOL     OW23875   4.972   4.340   5.933
 7659SOL    HW123876   4.932   4.374   6.018
 7659SOL    HW223877   5.050   4.282   5.953
 7660SOL     OW23878   6.881   5.476   5.830
 7660SOL    HW123879   6.898   5.383   5.797
 7660SOL    HW223880   6.938   5.494   5.910
 7661SOL     OW23881   3.712   1.400   5.002
 7661SOL    HW123882   3.692   1.329   5.070
 7661SOL    HW223883   3.647   1.391   4.926
 7662SOL     OW23884   6.682   6.129   1.376
 7662SOL    HW123885   6.661   6.039   1.413
 7662SOL    HW223886   6.753   6.120   1.306
 7663SOL     OW23887   0.566   5.282   5.086
 7663SOL    HW123888   0.495   5.320   5.146
 7663SOL    HW223889   0.555   5.320   4.994
 7664SOL     OW23890   3.901   2.132   2.437
 7664SOL    HW123891   3.917   2.035   2.420
 7664SOL    HW223892   3.802   2.150   2.435
 7665SOL     OW23893   3.762   0.563   5.890
 7665SOL    HW123894   3.769   0.663   5.899
 7665SOL    HW223895   3.849   0.526   5.858
 7666SOL     OW23896   5.550   4.212   3.779
 7666SOL    HW123897   5.602   4.274   3.721
 7666SOL    HW223898   5.452   4.229   3.766
 7667SOL     OW23899   4.084   6.349   2.464
 7667SOL    HW123900   4.132   6.416   2.409
 7667SOL    HW223901   4.149   6.280   2.498
 7668SOL     OW23902   1.776   5.919   0.887
 7668SOL    HW123903   1.811   5.963   0.804
 7668SOL    HW223904   1.735   5.831   0.863
 7669SOL     OW23905   2.455   1.154   6.724
 7669SOL    HW123906   2.491   1.109   6.643
 7669SOL    HW223907   2.434   1.249   6.704
 7670SOL     OW23908   1.120   0.508   1.092
 7670SOL    HW123909   1.128   0.600   1.052
 7670SOL    HW223910   1.048   0.508   1.161
 7671SOL     OW23911   3.298   6.775   0.924
 7671SOL    HW123912   3.255   6.865   0.929
 7671SOL    HW223913   3.354   6.770   0.842
 7672SOL     OW23914   4.967   4.271   1.946
 7672SOL    HW123915   4.904   4.208   1.992
 7672SOL    HW223916   5.061   4.247   1.969
 7673SOL     OW23917   1.856   6.687   5.123
 7673SOL    HW123918   1.792   6.646   5.188
 7673SOL    HW223919   1.809   6.705   5.037
 7674SOL     OW23920   4.336   5.893   4.973
 7674SOL    HW123921   4.366   5.935   4.887
 7674SOL    HW223922   4.250   5.936   5.003
 7675SOL     OW23923   4.953   6.169   3.186
 7675SOL    HW123924   4.932   6.094   3.249
 7675SOL    HW223925   5.026   6.140   3.124
 7676SOL     OW23926   3.618   2.999   5.422
 7676SOL    HW123927   3.627   3.092   5.457
 7676SOL    HW223928   3.583   3.002   5.328
 7677SOL     OW23929   6.422   4.867   7.014
 7677SOL    HW123930   6.349   4.911   6.961
 7677SOL    HW223931   6.428   4.770   6.989
 7678SOL     OW23932   2.912   1.708   4.901
 7678SOL    HW123933   2.912   1.619   4.946
 7678SOL    HW223934   2.852   1.771   4.950
 7679SOL     OW23935   3.875   5.965   4.778
 7679SOL    HW123936   3.802   5.980   4.711
 7679SOL    HW223937   3.882   5.867   4.798
 7680SOL     OW23938   1.901   6.840   4.673
 7680SOL    HW123939   1.985   6.814   4.721
 7680SOL    HW223940   1.911   6.819   4.575
 7681SOL     OW23941   2.250   2.698   5.851
 7681SOL    HW123942   2.331   2.717   5.796
 7681SOL    HW223943   2.200   2.783   5.867
 7682SOL     OW23944   3.206   1.038   2.735
 7682SOL    HW123945   3.208   0.978   2.815
 7682SOL    HW223946   3.156   0.993   2.661
 7683SOL     OW23947   1.005   4.279   4.479
 7683SOL    HW123948   1.102   4.286   4.504
 7683SOL    HW223949   0.959   4.365   4.500
 7684SOL     OW23950   5.021   3.417   1.151
 7684SOL    HW123951   5.057   3.473   1.225
 7684SOL    HW223952   5.080   3.426   1.071
 7685SOL     OW23953   2.419   0.406   0.982
 7685SOL    HW123954   2.414   0.338   0.908
 7685SOL    HW223955   2.484   0.478   0.956
 7686SOL     OW23956   6.651   6.679   4.498
 7686SOL    HW123957   6.703   6.593   4.491
 7686SOL    HW223958   6.675   6.724   4.584
 7687SOL     OW23959   5.425   3.610   6.006
 7687SOL    HW123960   5.339   3.636   5.963
 7687SOL    HW223961   5.414   3.606   6.105
 7688SOL     OW23962   6.759   3.404   6.359
 7688SOL    HW123963   6.805   3.376   6.444
 7688SOL    HW223964   6.816   3.379   6.281
 7689SOL     OW23965   4.858   0.918   1.990
 7689SOL    HW123966   4.898   0.971   1.915
 7689SOL    HW223967   4.815   0.980   2.056
 7690SOL     OW23968   6.156   5.243   2.236
 7690SOL    HW123969   6.089   5.181   2.196
 7690SOL    HW223970   6.235   5.250   2.176
 7691SOL     OW23971   4.896   3.209   4.136
 7691SOL    HW123972   4.948   3.153   4.200
 7691SOL    HW223973   4.890   3.303   4.171
 7692SOL     OW23974   2.769   6.646   2.636
 7692SOL    HW123975   2.773   6.550   2.664
 7692SOL    HW223976   2.848   6.668   2.580
 7693SOL     OW23977   2.955   0.781   1.604
 7693SOL    HW123978   3.049   0.804   1.632
 7693SOL    HW223979   2.891   0.840   1.652
 7694SOL     OW23980   4.467   1.792   6.655
 7694SOL    HW123981   4.503   1.699   6.664
 7694SOL    HW223982   4.538   1.858   6.678
 7695SOL     OW23983   5.004   0.095   3.801
 7695SOL    HW123984   5.073   0.024   3.794
 7695SOL    HW223985   4.946   0.094   3.719
 7696SOL     OW23986   2.068   2.601   6.040
 7696SOL    HW123987   2.136   2.636   5.976
 7696SOL    HW223988   2.111   2.587   6.129
 7697SOL     OW23989   5.875   6.799   3.312
 7697SOL    HW123990   5.882   6.794   3.412
 7697SOL    HW223991   5.780   6.821   3.287
 7698SOL     OW23992   6.170   3.327   1.045
 7698SOL    HW123993   6.225   3.404   1.075
 7698SOL    HW223994   6.088   3.360   0.997
 7699SOL     OW23995   4.608   6.522   5.301
 7699SOL    HW123996   4.597   6.446   5.237
 7699SOL    HW223997   4.702   6.555   5.297
 7700SOL     OW23998   5.145   5.668   1.740
 7700SOL    HW123999   5.056   5.627   1.757
 7700SOL    HW224000   5.213   5.596   1.726
 7701SOL     OW24001   1.520   2.215   6.279
 7701SOL    HW124002   1.451   2.211   6.207
 7701SOL    HW224003   1.475   2.220   6.368
 7702SOL     OW24004   5.041   7.015   4.620
 7702SOL    HW124005   5.023   6.920   4.645
 7702SOL    HW224006   4.979   0.054   4.671
 7703SOL     OW24007   0.176   6.602   5.353
 7703SOL    HW124008   0.162   6.701   5.350
 7703SOL    HW224009   0.182   6.566   5.260
 7704SOL     OW24010   1.012   1.602   5.028
 7704SOL    HW124011   1.021   1.551   4.942
 7704SOL    HW224012   1.045   1.695   5.014
 7705SOL     OW24013   1.044   5.197   6.948
 7705SOL    HW124014   1.126   5.144   6.971
 7705SOL    HW224015   1.010   5.242   0.009
 7706SOL     OW24016   3.629   3.134   2.834
 7706SOL    HW124017   3.697   3.062   2.842
 7706SOL    HW224018   3.568   3.133   2.914
 7707SOL     OW24019   6.481   4.310   6.962
 7707SOL    HW124020   6.523   4.371   0.007
 7707SOL    HW224021   6.403   4.355   6.920
 7708SOL     OW24022   1.783   0.282   4.159
 7708SOL    HW124023   1.813   0.254   4.250
 7708SOL    HW224024   1.757   0.379   4.160
 7709SOL     OW24025   6.882   4.849   1.557
 7709SOL    HW124026   6.946   4.787   1.602
 7709SOL    HW224027   6.874   4.933   1.610
 7710SOL     OW24028   6.226   2.841   1.117
 7710SOL    HW124029   6.306   2.809   1.065
 7710SOL    HW224030   6.224   2.941   1.117
 7711SOL     OW24031   0.118   4.527   4.806
 7711SOL    HW124032   0.217   4.515   4.804
 7711SOL    HW224033   0.096   4.623   4.793
 7712SOL     OW24034   0.319   4.942   5.515
 7712SOL    HW124035   0.410   4.983   5.523
 7712SOL    HW224036   0.292   4.904   5.604
 7713SOL     OW24037   1.507   4.681   0.041
 7713SOL    HW124038   1.552   4.770   0.048
 7713SOL    HW224039   1.505   4.653   6.966
 7714SOL     OW24040   6.180   1.776   4.791
 7714SOL    HW124041   6.106   1.841   4.775
 7714SOL    HW224042   6.244   1.779   4.715
 7715SOL     OW24043   3.822   3.390   5.469
 7715SOL    HW124044   3.886   3.351   5.535
 7715SOL    HW224045   3.734   3.343   5.476
 7716SOL     OW24046   1.256   6.889   6.119
 7716SOL    HW124047   1.156   6.889   6.129
 7716SOL    HW224048   1.285   6.803   6.076
 7717SOL     OW24049   0.107   2.464   6.535
 7717SOL    HW124050   0.190   2.413   6.512
 7717SOL    HW224051   0.132   2.549   6.580
 7718SOL     OW24052   0.468   3.446   3.212
 7718SOL    HW124053   0.392   3.511   3.221
 7718SOL    HW224054   0.436   3.354   3.234
 7719SOL     OW24055   1.724   5.492   5.007
 7719SOL    HW124056   1.693   5.403   4.974
 7719SOL    HW224057   1.727   5.556   4.930
 7720SOL     OW24058   4.280   1.098   6.694
 7720SOL    HW124059   4.350   1.044   6.646
 7720SOL    HW224060   4.191   1.083   6.651
 7721SOL     OW24061   6.688   6.724   2.478
 7721SOL    HW124062   6.694   6.666   2.396
 7721SOL    HW224063   6.724   6.815   2.457
 7722SOL     OW24064   1.272   6.306   3.501
 7722SOL    HW124065   1.270   6.353   3.413
 7722SOL    HW224066   1.356   6.252   3.508
 7723SOL     OW24067   4.815   3.922   6.832
 7723SOL    HW124068   4.826   4.017   6.803
 7723SOL    HW224069   4.875   3.904   6.910
 7724SOL     OW24070   1.720   3.520   0.903
 7724SOL    HW124071   1.810   3.552   0.931
 7724SOL    HW224072   1.672   3.482   0.982
 7725SOL     OW24073   5.459   2.796   4.731
 7725SOL    HW124074   5.378   2.778   4.787
 7725SOL    HW224075   5.521   2.857   4.780
 7726SOL     OW24076   1.678   3.613   6.534
 7726SOL    HW124077   1.758   3.659   6.496
 7726SOL    HW224078   1.649   3.540   6.472
 7727SOL     OW24079   4.871   0.677   2.452
 7727SOL    HW124080   4.919   0.680   2.540
 7727SOL    HW224081   4.932   0.710   2.380
 7728SOL     OW24082   1.949   4.039   4.961
 7728SOL    HW124083   1.997   3.988   5.032
 7728SOL    HW224084   2.014   4.098   4.914
 7729SOL     OW24085   6.839   1.129   2.876
 7729SOL    HW124086   6.878   1.196   2.940
 7729SOL    HW224087   6.757   1.089   2.915
 7730SOL     OW24088   6.792   4.591   5.431
 7730SOL    HW124089   6.790   4.626   5.338
 7730SOL    HW224090   6.836   4.501   5.432
 7731SOL     OW24091   6.434   0.160   5.756
 7731SOL    HW124092   6.432   0.122   5.848
 7731SOL    HW224093   6.491   0.102   5.697
 7732SOL     OW24094   4.065   0.385   6.408
 7732SOL    HW124095   4.060   0.485   6.400
 7732SOL    HW224096   3.979   0.345   6.376
 7733SOL     OW24097   6.928   5.372   1.616
 7733SOL    HW124098   6.993   5.312   1.570
 7733SOL    HW224099   6.956   5.467   1.603
 7734SOL     OW24100   3.192   4.038   3.551
 7734SOL    HW124101   3.287   4.051   3.579
 7734SOL    HW224102   3.134   4.035   3.633
 7735SOL     OW24103   0.368   6.442   1.267
 7735SOL    HW124104   0.454   6.489   1.248
 7735SOL    HW224105   0.343   6.457   1.363
 7736SOL     OW24106   1.559   2.395   0.055
 7736SOL    HW124107   1.495   2.327   0.017
 7736SOL    HW224108   1.648   2.352   0.069
 7737SOL     OW24109   4.500   4.457   6.740
 7737SOL    HW124110   4.455   4.444   6.829
 7737SOL    HW224111   4.445   4.414   6.668
 7738SOL     OW24112   1.987   0.459   5.465
 7738SOL    HW124113   1.962   0.490   5.556
 7738SOL    HW224114   1.941   0.372   5.445
 7739SOL     OW24115   1.968   2.189   0.444
 7739SOL    HW124116   1.946   2.286   0.428
 7739SOL    HW224117   2.067   2.180   0.458
 7740SOL     OW24118   2.479   0.321   5.200
 7740SOL    HW124119   2.387   0.290   5.223
 7740SOL    HW224120   2.480   0.420   5.190
 7741SOL     OW24121   0.633   4.791   6.247
 7741SOL    HW124122   0.714   4.844   6.220
 7741SOL    HW224123   0.622   4.714   6.184
 7742SOL     OW24124   4.507   2.238   3.838
 7742SOL    HW124125   4.464   2.287   3.762
 7742SOL    HW224126   4.603   2.263   3.844
 7743SOL     OW24127   4.020   1.453   5.804
 7743SOL    HW124128   4.051   1.539   5.763
 7743SOL    HW224129   4.099   1.392   5.816
 7744SOL     OW24130   0.856   0.101   4.523
 7744SOL    HW124131   0.902   0.092   4.434
 7744SOL    HW224132   0.835   0.010   4.559
 7745SOL     OW24133   3.056   6.984   1.305
 7745SOL    HW124134   3.039   0.057   1.277
 7745SOL    HW224135   2.969   6.937   1.317
 7746SOL     OW24136   0.532   5.508   1.871
 7746SOL    HW124137   0.575   5.460   1.795
 7746SOL    HW224138   0.490   5.592   1.838
 7747SOL     OW24139   6.681   5.891   0.573
 7747SOL    HW124140   6.605   5.827   0.583
 7747SOL    HW224141   6.646   5.982   0.551
 7748SOL     OW24142   4.365   1.542   5.594
 7748SOL    HW124143   4.441   1.523   5.656
 7748SOL    HW224144   4.319   1.455   5.572
 7749SOL     OW24145   4.034   3.529   3.090
 7749SOL    HW124146   4.009   3.455   3.026
 7749SOL    HW224147   4.071   3.489   3.173
 7750SOL     OW24148   5.181   5.141   5.601
 7750SOL    HW124149   5.222   5.231   5.585
 7750SOL    HW224150   5.219   5.102   5.685
 7751SOL     OW24151   6.805   1.475   4.505
 7751SOL    HW124152   6.850   1.559   4.474
 7751SOL    HW224153   6.830   1.457   4.600
 7752SOL     OW24154   6.507   5.060   5.217
 7752SOL    HW124155   6.500   4.977   5.162
 7752SOL    HW224156   6.599   5.097   5.210
 7753SOL     OW24157   2.441   0.729   5.311
 7753SOL    HW124158   2.498   0.694   5.386
 7753SOL    HW224159   2.399   0.815   5.339
 7754SOL     OW24160   6.583   1.131   1.417
 7754SOL    HW124161   6.490   1.095   1.424
 7754SOL    HW224162   6.636   1.100   1.496
 7755SOL     OW24163   1.366   6.050   5.119
 7755SOL    HW124164   1.399   6.051   5.025
 7755SOL    HW224165   1.407   5.974   5.169
 7756SOL     OW24166   4.110   5.697   3.352
 7756SOL    HW124167   4.096   5.598   3.342
 7756SOL    HW224168   4.030   5.736   3.399
 7757SOL     OW24169   3.486   6.609   5.489
 7757SOL    HW124170   3.512   6.539   5.554
 7757SOL    HW224171   3.533   6.695   5.511
 7758SOL     OW24172   3.234   2.660   6.616
 7758SOL    HW124173   3.155   2.610   6.581
 7758SOL    HW224174   3.224   2.757   6.597
 7759SOL     OW24175   2.236   1.041   5.155
 7759SOL    HW124176   2.298   1.019   5.079
 7759SOL    HW224177   2.179   1.119   5.130
 7760SOL     OW24178   5.176   1.663   3.679
 7760SOL    HW124179   5.125   1.749   3.675
 7760SOL    HW224180   5.199   1.642   3.773
 7761SOL     OW24181   4.056   0.586   6.707
 7761SOL    HW124182   4.001   0.526   6.649
 7761SOL    HW224183   4.014   0.592   6.798
 7762SOL     OW24184   1.659   2.375   0.602
 7762SOL    HW124185   1.738   2.388   0.543
 7762SOL    HW224186   1.689   2.347   0.693
 7763SOL     OW24187   2.218   2.375   1.393
 7763SOL    HW124188   2.276   2.295   1.378
 7763SOL    HW224189   2.257   2.431   1.467
 7764SOL     OW24190   4.086   3.717   2.308
 7764SOL    HW124191   4.104   3.660   2.388
 7764SOL    HW224192   4.099   3.813   2.333
 7765SOL     OW24193   0.274   1.997   2.570
 7765SOL    HW124194   0.303   2.071   2.508
 7765SOL    HW224195   0.260   1.913   2.517
 7766SOL     OW24196   6.837   3.740   0.654
 7766SOL    HW124197   6.820   3.664   0.718
 7766SOL    HW224198   6.808   3.713   0.562
 7767SOL     OW24199   5.583   4.101   5.205
 7767SOL    HW124200   5.673   4.058   5.207
 7767SOL    HW224201   5.514   4.037   5.239
 7768SOL     OW24202   4.240   5.343   1.684
 7768SOL    HW124203   4.201   5.330   1.775
 7768SOL    HW224204   4.166   5.353   1.617
 7769SOL     OW24205   6.729   2.097   2.175
 7769SOL    HW124206   6.771   2.120   2.087
 7769SOL    HW224207   6.646   2.044   2.160
 7770SOL     OW24208   3.353   5.761   1.291
 7770SOL    HW124209   3.411   5.684   1.263
 7770SOL    HW224210   3.395   5.846   1.260
 7771SOL     OW24211   2.553   0.804   4.632
 7771SOL    HW124212   2.644   0.763   4.627
 7771SOL    HW224213   2.560   0.904   4.632
 7772SOL     OW24214   5.592   1.009   5.138
 7772SOL    HW124215   5.650   1.016   5.219
 7772SOL    HW224216   5.617   0.927   5.086
 7773SOL     OW24217   4.085   4.530   5.572
 7773SOL    HW124218   4.033   4.605   5.530
 7773SOL    HW224219   4.164   4.568   5.619
 7774SOL     OW24220   4.827   1.468   6.642
 7774SOL    HW124221   4.901   1.457   6.575
 7774SOL    HW224222   4.846   1.411   6.722
 7775SOL     OW24223   2.609   6.576   2.230
 7775SOL    HW124224   2.699   6.572   2.186
 7775SOL    HW224225   2.537   6.572   2.160
 7776SOL     OW24226   3.913   4.120   0.758
 7776SOL    HW124227   3.818   4.138   0.784
 7776SOL    HW224228   3.962   4.207   0.746
 7777SOL     OW24229   1.515   0.259   7.009
 7777SOL    HW124230   1.555   0.273   0.078
 7777SOL    HW224231   1.437   0.320   6.997
 7778SOL     OW24232   4.940   1.264   1.560
 7778SOL    HW124233   4.944   1.316   1.645
 7778SOL    HW224234   5.001   1.184   1.566
 7779SOL     OW24235   4.170   3.015   0.085
 7779SOL    HW124236   4.081   3.060   0.081
 7779SOL    HW224237   4.172   2.951   0.162
 7780SOL     OW24238   1.049   0.235   4.684
 7780SOL    HW124239   1.085   0.157   4.735
 7780SOL    HW224240   0.976   0.204   4.623
 7781SOL     OW24241   1.154   4.860   5.466
 7781SOL    HW124242   1.068   4.812   5.446
 7781SOL    HW224243   1.231   4.804   5.436
 7782SOL     OW24244   3.663   5.123   6.959
 7782SOL    HW124245   3.735   5.089   7.021
 7782SOL    HW224246   3.679   5.087   6.867
 7783SOL     OW24247   2.642   4.999   6.734
 7783SOL    HW124248   2.617   4.981   6.639
 7783SOL    HW224249   2.564   5.041   6.781
 7784SOL     OW24250   0.441   2.795   6.891
 7784SOL    HW124251   0.444   2.867   6.822
 7784SOL    HW224252   0.431   2.837   6.982
 7785SOL     OW24253   2.160   5.686   4.814
 7785SOL    HW124254   2.169   5.633   4.898
 7785SOL    HW224255   2.211   5.772   4.823
 7786SOL     OW24256   3.363   4.100   4.688
 7786SOL    HW124257   3.312   4.017   4.667
 7786SOL    HW224258   3.326   4.142   4.771
 7787SOL     OW24259   2.985   2.285   5.308
 7787SOL    HW124260   2.933   2.236   5.238
 7787SOL    HW224261   3.060   2.335   5.265
 7788SOL     OW24262   0.559   1.511   0.050
 7788SOL    HW124263   0.495   1.556   0.113
 7788SOL    HW224264   0.520   1.425   0.019
 7789SOL     OW24265   2.004   0.209   1.631
 7789SOL    HW124266   2.066   0.172   1.701
 7789SOL    HW224267   1.941   0.274   1.673
 7790SOL     OW24268   6.227   3.537   2.842
 7790SOL    HW124269   6.186   3.454   2.802
 7790SOL    HW224270   6.307   3.512   2.896
 7791SOL     OW24271   0.714   4.318   4.768
 7791SOL    HW124272   0.770   4.238   4.791
 7791SOL    HW224273   0.761   4.401   4.799
 7792SOL     OW24274   2.323   5.790   6.314
 7792SOL    HW124275   2.388   5.809   6.240
 7792SOL    HW224276   2.302   5.692   6.316
 7793SOL     OW24277   1.445   0.745   6.727
 7793SOL    HW124278   1.512   0.754   6.653
 7793SOL    HW224279   1.415   0.836   6.755
 7794SOL     OW24280   5.295   5.575   3.044
 7794SOL    HW124281   5.284   5.562   2.945
 7794SOL    HW224282   5.393   5.576   3.066
 7795SOL     OW24283   1.620   5.283   5.526
 7795SOL    HW124284   1.702   5.337   5.543
 7795SOL    HW224285   1.589   5.242   5.612
 7796SOL     OW24286   4.005   3.083   4.263
 7796SOL    HW124287   3.908   3.060   4.259
 7796SOL    HW224288   4.034   3.090   4.358
 7797SOL     OW24289   0.945   0.030   3.079
 7797SOL    HW124290   1.013   0.100   3.056
 7797SOL    HW224291   0.971   6.965   3.036
 7798SOL     OW24292   4.089   5.877   6.449
 7798SOL    HW124293   4.131   5.865   6.539
 7798SOL    HW224294   4.153   5.924   6.388
 7799SOL     OW24295   6.172   4.634   1.521
 7799SOL    HW124296   6.210   4.645   1.613
 7799SOL    HW224297   6.175   4.537   1.496
 7800SOL     OW24298   0.799   6.339   2.108
 7800SOL    HW124299   0.738   6.265   2.081
 7800SOL    HW224300   0.870   6.303   2.169
 7801SOL     OW24301   3.748   2.190   5.578
 7801SOL    HW124302   3.693   2.253   5.522
 7801SOL    HW224303   3.686   2.134   5.634
 7802SOL     OW24304   5.707   1.931   0.808
 7802SOL    HW124305   5.677   1.868   0.736
 7802SOL    HW224306   5.626   1.967   0.856
 7803SOL     OW24307   3.117   4.168   5.848
 7803SOL    HW124308   3.049   4.178   5.775
 7803SOL    HW224309   3.200   4.126   5.811
 7804SOL     OW24310   5.070   1.494   6.490
 7804SOL    HW124311   5.162   1.471   6.521
 7804SOL    HW224312   5.076   1.541   6.402
 7805SOL     OW24313   5.472   3.281   2.040
 7805SOL    HW124314   5.459   3.377   2.066
 7805SOL    HW224315   5.407   3.256   1.969
 7806SOL     OW24316   4.817   3.069   6.855
 7806SOL    HW124317   4.894   3.095   6.796
 7806SOL    HW224318   4.739   3.128   6.834
 7807SOL     OW24319   0.124   3.238   6.810
 7807SOL    HW124320   0.161   3.321   6.769
 7807SOL    HW224321   0.118   3.250   6.909
 7808SOL     OW24322   0.806   1.505   5.409
 7808SOL    HW124323   0.876   1.440   5.377
 7808SOL    HW224324   0.764   1.549   5.330
 7809SOL     OW24325   1.630   5.458   5.805
 7809SOL    HW124326   1.536   5.424   5.805
 7809SOL    HW224327   1.688   5.396   5.858
 7810SOL     OW24328   2.279   1.006   6.900
 7810SOL    HW124329   2.347   1.050   6.843
 7810SOL    HW224330   2.200   0.980   6.844
 7811SOL     OW24331   0.402   4.558   4.892
 7811SOL    HW124332   0.361   4.580   4.981
 7811SOL    HW224333   0.439   4.466   4.894
 7812SOL     OW24334   0.412   1.888   4.011
 7812SOL    HW124335   0.449   1.948   3.940
 7812SOL    HW224336   0.315   1.871   3.993
 7813SOL     OW24337   6.269   2.553   1.009
 7813SOL    HW124338   6.342   2.607   0.968
 7813SOL    HW224339   6.196   2.613   1.040
 7814SOL     OW24340   1.861   3.630   3.993
 7814SOL    HW124341   1.933   3.573   3.953
 7814SOL    HW224342   1.875   3.725   3.966
 7815SOL     OW24343   0.004   1.403   6.167
 7815SOL    HW124344   6.964   1.374   6.093
 7815SOL    HW224345   0.092   1.429   6.128
 7816SOL     OW24346   1.252   3.851   5.102
 7816SOL    HW124347   1.317   3.790   5.147
 7816SOL    HW224348   1.177   3.871   5.164
 7817SOL     OW24349   5.357   3.553   5.133
 7817SOL    HW124350   5.331   3.482   5.199
 7817SOL    HW224351   5.274   3.590   5.091
 7818SOL     OW24352   4.850   5.157   2.802
 7818SOL    HW124353   4.800   5.177   2.718
 7818SOL    HW224354   4.823   5.067   2.836
 7819SOL     OW24355   0.367   1.637   1.385
 7819SOL    HW124356   0.387   1.688   1.302
 7819SOL    HW224357   0.270   1.614   1.388
 7820SOL     OW24358   1.999   7.001   6.241
 7820SOL    HW124359   1.953   0.068   6.251
 7820SOL    HW224360   2.092   7.008   6.277
 7821SOL     OW24361   2.641   5.498   0.862
 7821SOL    HW124362   2.615   5.402   0.874
 7821SOL    HW224363   2.680   5.533   0.948
 7822SOL     OW24364   1.414   6.290   5.943
 7822SOL    HW124365   1.486   6.315   6.007
 7822SOL    HW224366   1.406   6.360   5.872
 7823SOL     OW24367   1.829   4.505   4.952
 7823SOL    HW124368   1.839   4.433   4.883
 7823SOL    HW224369   1.809   4.462   5.040
 7824SOL     OW24370   0.654   3.712   5.747
 7824SOL    HW124371   0.665   3.623   5.703
 7824SOL    HW224372   0.733   3.731   5.806
 7825SOL     OW24373   2.953   0.757   6.904
 7825SOL    HW124374   3.020   0.742   6.832
 7825SOL    HW224375   2.908   0.845   6.890
 7826SOL     OW24376   0.711   3.258   5.727
 7826SOL    HW124377   0.727   3.166   5.693
 7826SOL    HW224378   0.795   3.293   5.769
 7827SOL     OW24379   6.439   5.368   4.506
 7827SOL    HW124380   6.416   5.271   4.519
 7827SOL    HW224381   6.537   5.382   4.520
 7828SOL     OW24382   0.384   4.976   6.873
 7828SOL    HW124383   0.413   4.930   6.957
 7828SOL    HW224384   0.372   4.908   6.800
 7829SOL     OW24385   3.827   3.388   0.378
 7829SOL    HW124386   3.816   3.445   0.297
 7829SOL    HW224387   3.909   3.417   0.429
 7830SOL     OW24388   2.521   5.708   3.825
 7830SOL    HW124389   2.557   5.685   3.735
 7830SOL    HW224390   2.487   5.802   3.826
 7831SOL     OW24391   1.537   7.017   6.988
 7831SOL    HW124392   1.538   7.008   0.066
 7831SOL    HW224393   1.519   0.091   6.963
 7832SOL     OW24394   6.529   0.669   4.848
 7832SOL    HW124395   6.576   0.753   4.819
 7832SOL    HW224396   6.559   0.645   4.940
 7833SOL     OW24397   1.109   0.597   3.345
 7833SOL    HW124398   1.011   0.613   3.331
 7833SOL    HW224399   1.157   0.684   3.347
 7834SOL     OW24400   6.457   3.311   5.624
 7834SOL    HW124401   6.413   3.380   5.682
 7834SOL    HW224402   6.550   3.340   5.603
 7835SOL     OW24403   4.139   2.574   5.635
 7835SOL    HW124404   4.219   2.514   5.632
 7835SOL    HW224405   4.074   2.539   5.702
 7836SOL     OW24406   3.366   3.736   4.067
 7836SOL    HW124407   3.297   3.665   4.055
 7836SOL    HW224408   3.433   3.707   4.136
 7837SOL     OW24409   0.365   5.791   6.990
 7837SOL    HW124410   0.330   5.846   6.914
 7837SOL    HW224411   0.382   5.850   0.048
 7838SOL     OW24412   4.464   5.720   2.541
 7838SOL    HW124413   4.503   5.762   2.622
 7838SOL    HW224414   4.367   5.699   2.557
 7839SOL     OW24415   5.945   2.948   4.295
 7839SOL    HW124416   5.993   3.035   4.296
 7839SOL    HW224417   5.986   2.888   4.226
 7840SOL     OW24418   2.003   2.875   4.166
 7840SOL    HW124419   2.083   2.900   4.221
 7840SOL    HW224420   1.950   2.805   4.213
 7841SOL     OW24421   3.789   1.976   6.548
 7841SOL    HW124422   3.809   2.045   6.618
 7841SOL    HW224423   3.848   1.992   6.469
 7842SOL     OW24424   1.077   0.660   1.746
 7842SOL    HW124425   0.983   0.692   1.732
 7842SOL    HW224426   1.131   0.676   1.663
 7843SOL     OW24427   0.232   6.042   2.923
 7843SOL    HW124428   0.233   6.128   2.872
 7843SOL    HW224429   0.288   5.974   2.874
 7844SOL     OW24430   3.774   0.295   2.155
 7844SOL    HW124431   3.871   0.304   2.178
 7844SOL    HW224432   3.761   0.313   2.058
 7845SOL     OW24433   6.450   2.778   0.952
 7845SOL    HW124434   6.543   2.772   0.989
 7845SOL    HW224435   6.455   2.800   0.855
 7846SOL     OW24436   1.061   1.070   0.207
 7846SOL    HW124437   1.161   1.069   0.203
 7846SOL    HW224438   1.028   1.163   0.191
 7847SOL     OW24439   5.725   4.681   6.389
 7847SOL    HW124440   5.706   4.599   6.443
 7847SOL    HW224441   5.814   4.718   6.416
 7848SOL     OW24442   3.093   4.741   0.461
 7848SOL    HW124443   3.173   4.725   0.403
 7848SOL    HW224444   3.020   4.782   0.407
 7849SOL     OW24445   4.260   5.428   0.149
 7849SOL    HW124446   4.172   5.385   0.129
 7849SOL    HW224447   4.277   5.424   0.248
 7850SOL     OW24448   6.884   1.300   4.210
 7850SOL    HW124449   6.951   1.232   4.237
 7850SOL    HW224450   6.916   1.391   4.237
 7851SOL     OW24451   0.225   4.582   1.029
 7851SOL    HW124452   0.187   4.509   1.087
 7851SOL    HW224453   0.203   4.564   0.934
 7852SOL     OW24454   1.403   2.853   6.821
 7852SOL    HW124455   1.364   2.804   6.899
 7852SOL    HW224456   1.487   2.808   6.791
 7853SOL     OW24457   4.184   3.062   1.780
 7853SOL    HW124458   4.147   3.022   1.695
 7853SOL    HW224459   4.259   3.125   1.757
 7854SOL     OW24460   4.580   1.443   0.178
 7854SOL    HW124461   4.633   1.358   0.180
 7854SOL    HW224462   4.636   1.516   0.138
 7855SOL     OW24463   5.259   6.963   4.038
 7855SOL    HW124464   5.299   0.019   3.989
 7855SOL    HW224465   5.299   6.878   4.004
 7856SOL     OW24466   2.143   6.546   5.057
 7856SOL    HW124467   2.129   6.641   5.028
 7856SOL    HW224468   2.224   6.509   5.011
 7857SOL     OW24469   6.072   4.233   1.021
 7857SOL    HW124470   5.988   4.262   1.065
 7857SOL    HW224471   6.151   4.266   1.074
 7858SOL     OW24472   6.998   4.157   6.215
 7858SOL    HW124473   0.057   4.186   6.267
 7858SOL    HW224474   6.919   4.151   6.275
 7859SOL     OW24475   5.037   1.912   0.474
 7859SOL    HW124476   5.009   1.983   0.410
 7859SOL    HW224477   5.085   1.839   0.425
 7860SOL     OW24478   2.815   1.020   4.431
 7860SOL    HW124479   2.764   0.943   4.392
 7860SOL    HW224480   2.830   1.089   4.360
 7861SOL     OW24481   2.253   6.614   0.598
 7861SOL    HW124482   2.161   6.650   0.605
 7861SOL    HW224483   2.262   6.561   0.513
 7862SOL     OW24484   1.784   6.347   0.096
 7862SOL    HW124485   1.865   6.405   0.093
 7862SOL    HW224486   1.768   6.306   0.007
 7863SOL     OW24487   1.382   4.189   3.842
 7863SOL    HW124488   1.447   4.257   3.811
 7863SOL    HW224489   1.386   4.109   3.783
 7864SOL     OW24490   2.319   5.806   5.421
 7864SOL    HW124491   2.321   5.709   5.396
 7864SOL    HW224492   2.235   5.847   5.386
 7865SOL     OW24493   6.001   4.000   3.062
 7865SOL    HW124494   5.957   4.041   3.142
 7865SOL    HW224495   6.055   4.069   3.014
 7866SOL     OW24496   0.891   1.257   5.674
 7866SOL    HW124497   0.881   1.248   5.773
 7866SOL    HW224498   0.802   1.244   5.630
 7867SOL     OW24499   4.422   5.200   3.685
 7867SOL    HW124500   4.424   5.202   3.785
 7867SOL    HW224501   4.364   5.125   3.654
 7868SOL     OW24502   2.796   6.564   1.372
 7868SOL    HW124503   2.879   6.554   1.316
 7868SOL    HW224504   2.729   6.496   1.343
 7869SOL     OW24505   6.044   4.762   6.865
 7869SOL    HW124506   5.972   4.779   6.798
 7869SOL    HW224507   6.091   4.847   6.886
 7870SOL     OW24508   5.941   6.126   3.908
 7870SOL    HW124509   5.964   6.072   3.989
 7870SOL    HW224510   5.872   6.078   3.855
 7871SOL     OW24511   4.375   1.154   0.634
 7871SOL    HW124512   4.433   1.221   0.588
 7871SOL    HW224513   4.417   1.064   0.629
 7872SOL     OW24514   1.102   5.348   2.976
 7872SOL    HW124515   1.111   5.382   2.882
 7872SOL    HW224516   1.171   5.391   3.034
 7873SOL     OW24517   4.889   1.814   0.192
 7873SOL    HW124518   4.835   1.894   0.219
 7873SOL    HW224519   4.983   1.842   0.173
 7874SOL     OW24520   5.794   2.445   0.555
 7874SOL    HW124521   5.798   2.402   0.645
 7874SOL    HW224522   5.698   2.456   0.527
 7875SOL     OW24523   5.980   4.319   5.998
 7875SOL    HW124524   6.049   4.279   6.059
 7875SOL    HW224525   5.938   4.398   6.042
 7876SOL     OW24526   0.987   0.174   3.691
 7876SOL    HW124527   1.077   0.152   3.653
 7876SOL    HW224528   0.919   0.177   3.617
 7877SOL     OW24529   6.863   2.641   3.281
 7877SOL    HW124530   6.960   2.618   3.290
 7877SOL    HW224531   6.831   2.617   3.190
 7878SOL     OW24532   4.237   6.005   2.865
 7878SOL    HW124533   4.223   5.926   2.806
 7878SOL    HW224534   4.263   5.974   2.957
 7879SOL     OW24535   3.158   4.842   3.106
 7879SOL    HW124536   3.074   4.881   3.069
 7879SOL    HW224537   3.180   4.757   3.057
 7880SOL     OW24538   1.180   4.498   2.496
 7880SOL    HW124539   1.143   4.406   2.508
 7880SOL    HW224540   1.277   4.492   2.470
 7881SOL     OW24541   4.921   3.938   3.643
 7881SOL    HW124542   4.903   3.872   3.571
 7881SOL    HW224543   4.937   3.889   3.729
 7882SOL     OW24544   0.770   3.262   6.995
 7882SOL    HW124545   0.781   3.353   6.955
 7882SOL    HW224546   0.740   3.198   6.924
 7883SOL     OW24547   0.573   0.539   5.343
 7883SOL    HW124548   0.523   0.506   5.263
 7883SOL    HW224549   0.668   0.558   5.318
 7884SOL     OW24550   0.719   2.938   4.498
 7884SOL    HW124551   0.760   2.874   4.433
 7884SOL    HW224552   0.687   3.019   4.449
 7885SOL     OW24553   0.096   5.987   6.540
 7885SOL    HW124554   7.020   6.009   6.545
 7885SOL    HW224555   0.148   6.062   6.581
 7886SOL     OW24556   5.451   4.413   1.195
 7886SOL    HW124557   5.365   4.419   1.145
 7886SOL    HW224558   5.439   4.453   1.286
 7887SOL     OW24559   4.553   3.218   5.979
 7887SOL    HW124560   4.605   3.298   5.949
 7887SOL    HW224561   4.514   3.172   5.900
 7888SOL     OW24562   5.392   5.980   4.875
 7888SOL    HW124563   5.297   5.964   4.849
 7888SOL    HW224564   5.439   5.892   4.885
 7889SOL     OW24565   6.958   4.750   3.092
 7889SOL    HW124566   0.036   4.766   3.085
 7889SOL    HW224567   6.921   4.733   3.001
 7890SOL     OW24568   1.852   3.225   2.327
 7890SOL    HW124569   1.770   3.273   2.295
 7890SOL    HW224570   1.924   3.291   2.345
 7891SOL     OW24571   1.069   4.945   2.636
 7891SOL    HW124572   1.091   4.950   2.539
 7891SOL    HW224573   1.134   5.001   2.688
 7892SOL     OW24574   2.143   2.345   5.438
 7892SOL    HW124575   2.221   2.283   5.428
 7892SOL    HW224576   2.174   2.433   5.474
 7893SOL     OW24577   6.178   6.461   1.662
 7893SOL    HW124578   6.273   6.438   1.683
 7893SOL    HW224579   6.129   6.483   1.747
 7894SOL     OW24580   3.018   0.331   2.053
 7894SOL    HW124581   2.926   0.364   2.075
 7894SOL    HW224582   3.082   0.407   2.054
 7895SOL     OW24583   6.760   1.380   3.312
 7895SOL    HW124584   6.731   1.370   3.407
 7895SOL    HW224585   6.748   1.293   3.264
 7896SOL     OW24586   4.378   1.876   6.409
 7896SOL    HW124587   4.395   1.844   6.502
 7896SOL    HW224588   4.352   1.798   6.352
 7897SOL     OW24589   3.277   3.251   6.472
 7897SOL    HW124590   3.260   3.306   6.554
 7897SOL    HW224591   3.329   3.169   6.498
 7898SOL     OW24592   5.305   1.898   3.404
 7898SOL    HW124593   5.308   1.801   3.427
 7898SOL    HW224594   5.333   1.909   3.308
 7899SOL     OW24595   4.302   1.596   2.622
 7899SOL    HW124596   4.387   1.645   2.641
 7899SOL    HW224597   4.245   1.593   2.704
 7900SOL     OW24598   1.326   5.457   0.841
 7900SOL    HW124599   1.357   5.485   0.932
 7900SOL    HW224600   1.343   5.360   0.828
 7901SOL     OW24601   6.203   5.589   0.974
 7901SOL    HW124602   6.179   5.629   1.062
 7901SOL    HW224603   6.275   5.643   0.931
 7902SOL     OW24604   5.132   4.872   6.015
 7902SOL    HW124605   5.084   4.792   6.052
 7902SOL    HW224606   5.225   4.874   6.050
 7903SOL     OW24607   0.334   2.534   6.849
 7903SOL    HW124608   0.344   2.631   6.872
 7903SOL    HW224609   0.340   2.479   6.932
 7904SOL     OW24610   6.293   1.645   2.148
 7904SOL    HW124611   6.257   1.728   2.191
 7904SOL    HW224612   6.327   1.667   2.056
 7905SOL     OW24613   2.458   2.203   1.838
 7905SOL    HW124614   2.550   2.240   1.845
 7905SOL    HW224615   2.429   2.167   1.927
 7906SOL     OW24616   0.697   4.451   0.465
 7906SOL    HW124617   0.723   4.531   0.410
 7906SOL    HW224618   0.612   4.412   0.429
 7907SOL     OW24619   6.529   2.632   2.035
 7907SOL    HW124620   6.493   2.654   1.944
 7907SOL    HW224621   6.616   2.585   2.026
 7908SOL     OW24622   6.717   1.119   3.177
 7908SOL    HW124623   6.671   1.055   3.116
 7908SOL    HW224624   6.781   1.175   3.125
 7909SOL     OW24625   4.350   6.194   5.075
 7909SOL    HW124626   4.332   6.292   5.083
 7909SOL    HW224627   4.317   6.147   5.158
 7910SOL     OW24628   5.993   3.463   6.219
 7910SOL    HW124629   6.043   3.532   6.167
 7910SOL    HW224630   6.058   3.401   6.263
 7911SOL     OW24631   6.892   5.197   6.928
 7911SOL    HW124632   6.863   5.189   6.832
 7911SOL    HW224633   6.874   5.290   6.960
 7912SOL     OW24634   0.086   5.085   5.492
 7912SOL    HW124635   0.120   5.178   5.497
 7912SOL    HW224636   0.160   5.020   5.511
 7913SOL     OW24637   1.192   6.158   6.579
 7913SOL    HW124638   1.276   6.204   6.609
 7913SOL    HW224639   1.195   6.146   6.480
 7914SOL     OW24640   6.420   4.086   1.476
 7914SOL    HW124641   6.443   4.047   1.387
 7914SOL    HW224642   6.457   4.179   1.483
 7915SOL     OW24643   4.094   1.170   2.147
 7915SOL    HW124644   4.113   1.113   2.067
 7915SOL    HW224645   4.104   1.267   2.121
 7916SOL     OW24646   4.774   3.951   5.572
 7916SOL    HW124647   4.782   4.042   5.612
 7916SOL    HW224648   4.776   3.957   5.473
 7917SOL     OW24649   3.745   4.080   3.612
 7917SOL    HW124650   3.812   4.046   3.546
 7917SOL    HW224651   3.782   4.073   3.704
 7918SOL     OW24652   6.438   2.553   2.567
 7918SOL    HW124653   6.496   2.632   2.590
 7918SOL    HW224654   6.496   2.473   2.550
 7919SOL     OW24655   5.727   4.545   1.716
 7919SOL    HW124656   5.658   4.483   1.680
 7919SOL    HW224657   5.683   4.617   1.769
 7920SOL     OW24658   0.304   6.652   2.404
 7920SOL    HW124659   0.241   6.719   2.364
 7920SOL    HW224660   0.335   6.589   2.332
 7921SOL     OW24661   2.934   6.271   1.911
 7921SOL    HW124662   2.887   6.214   1.843
 7921SOL    HW224663   3.010   6.219   1.950
 7922SOL     OW24664   1.024   4.636   6.219
 7922SOL    HW124665   1.037   4.640   6.318
 7922SOL    HW224666   1.102   4.589   6.177
 7923SOL     OW24667   0.789   2.025   2.878
 7923SOL    HW124668   0.855   1.987   2.943
 7923SOL    HW224669   0.708   2.056   2.927
 7924SOL     OW24670   2.145   0.873   3.790
 7924SOL    HW124671   2.187   0.914   3.709
 7924SOL    HW224672   2.046   0.869   3.777
 7925SOL     OW24673   0.284   1.615   6.369
 7925SOL    HW124674   0.204   1.581   6.418
 7925SOL    HW224675   0.340   1.538   6.339
 7926SOL     OW24676   3.328   7.001   1.665
 7926SOL    HW124677   3.378   0.008   1.747
 7926SOL    HW224678   3.268   0.053   1.635
 7927SOL     OW24679   4.706   4.233   4.312
 7927SOL    HW124680   4.778   4.167   4.328
 7927SOL    HW224681   4.652   4.244   4.396
 7928SOL     OW24682   0.970   4.412   6.955
 7928SOL    HW124683   0.943   4.372   6.868
 7928SOL    HW224684   1.005   4.341   7.016
 7929SOL     OW24685   4.094   3.666   4.520
 7929SOL    HW124686   4.180   3.715   4.503
 7929SOL    HW224687   4.030   3.726   4.568
 7930SOL     OW24688   5.657   6.143   3.427
 7930SOL    HW124689   5.646   6.205   3.505
 7930SOL    HW224690   5.569   6.132   3.381
 7931SOL     OW24691   2.133   3.382   0.161
 7931SOL    HW124692   2.087   3.323   0.095
 7931SOL    HW224693   2.232   3.368   0.155
 7932SOL     OW24694   3.097   0.241   0.507
 7932SOL    HW124695   3.009   0.279   0.480
 7932SOL    HW224696   3.125   0.282   0.594
 7933SOL     OW24697   1.870   1.213   6.086
 7933SOL    HW124698   1.879   1.291   6.024
 7933SOL    HW224699   1.789   1.159   6.061
 7934SOL     OW24700   4.023   2.832   5.590
 7934SOL    HW124701   4.099   2.768   5.600
 7934SOL    HW224702   4.057   2.926   5.598
 7935SOL     OW24703   4.878   6.093   1.418
 7935SOL    HW124704   4.870   6.054   1.326
 7935SOL    HW224705   4.942   6.037   1.471
 7936SOL     OW24706   4.137   6.148   2.644
 7936SOL    HW124707   4.062   6.128   2.581
 7936SOL    HW224708   4.142   6.077   2.713
 7937SOL     OW24709   6.517   0.799   6.072
 7937SOL    HW124710   6.591   0.863   6.092
 7937SOL    HW224711   6.535   0.755   5.984
 7938SOL     OW24712   6.090   4.955   4.356
 7938SOL    HW124713   6.152   5.032   4.371
 7938SOL    HW224714   6.055   4.923   4.444
 7939SOL     OW24715   0.435   6.619   4.347
 7939SOL    HW124716   0.462   6.603   4.252
 7939SOL    HW224717   0.389   6.708   4.353
 7940SOL     OW24718   1.879   5.956   0.605
 7940SOL    HW124719   1.800   6.017   0.603
 7940SOL    HW224720   1.962   6.010   0.616
 7941SOL     OW24721   7.017   0.537   0.616
 7941SOL    HW124722   0.051   0.608   0.658
 7941SOL    HW224723   6.921   0.548   0.642
 7942SOL     OW24724   1.175   1.141   0.980
 7942SOL    HW124725   1.133   1.145   0.889
 7942SOL    HW224726   1.107   1.168   1.049
 7943SOL     OW24727   6.240   2.318   0.112
 7943SOL    HW124728   6.172   2.388   0.090
 7943SOL    HW224729   6.332   2.359   0.112
 7944SOL     OW24730   6.903   3.173   2.037
 7944SOL    HW124731   6.880   3.099   2.100
 7944SOL    HW224732   6.824   3.233   2.026
 7945SOL     OW24733   5.409   6.526   1.270
 7945SOL    HW124734   5.462   6.465   1.209
 7945SOL    HW224735   5.424   6.621   1.242
 7946SOL     OW24736   1.340   1.504   6.138
 7946SOL    HW124737   1.378   1.428   6.192
 7946SOL    HW224738   1.389   1.588   6.161
 7947SOL     OW24739   4.421   5.208   6.154
 7947SOL    HW124740   4.485   5.280   6.181
 7947SOL    HW224741   4.329   5.246   6.148
 7948SOL     OW24742   0.740   4.786   5.851
 7948SOL    HW124743   0.661   4.725   5.858
 7948SOL    HW224744   0.719   4.861   5.788
 7949SOL     OW24745   6.397   3.816   4.018
 7949SOL    HW124746   6.452   3.742   4.055
 7949SOL    HW224747   6.415   3.900   4.069
 7950SOL     OW24748   3.718   5.249   4.312
 7950SOL    HW124749   3.810   5.210   4.321
 7950SOL    HW224750   3.694   5.254   4.215
 7951SOL     OW24751   3.048   3.341   0.741
 7951SOL    HW124752   2.967   3.399   0.729
 7951SOL    HW224753   3.046   3.267   0.673
 7952SOL     OW24754   4.961   4.793   0.466
 7952SOL    HW124755   4.962   4.790   0.366
 7952SOL    HW224756   4.923   4.881   0.496
 7953SOL     OW24757   1.903   3.261   2.969
 7953SOL    HW124758   1.938   3.249   3.062
 7953SOL    HW224759   1.969   3.314   2.915
 7954SOL     OW24760   5.207   5.343   4.485
 7954SOL    HW124761   5.184   5.288   4.566
 7954SOL    HW224762   5.123   5.376   4.442
 7955SOL     OW24763   1.311   6.925   6.382
 7955SOL    HW124764   1.408   6.946   6.396
 7955SOL    HW224765   1.288   6.935   6.285
 7956SOL     OW24766   6.125   7.019   3.025
 7956SOL    HW124767   6.195   6.949   3.037
 7956SOL    HW224768   6.103   0.006   2.927
 7957SOL     OW24769   0.587   2.188   1.045
 7957SOL    HW124770   0.515   2.257   1.054
 7957SOL    HW224771   0.639   2.182   1.130
 7958SOL     OW24772   1.960   5.351   3.486
 7958SOL    HW124773   1.909   5.390   3.410
 7958SOL    HW224774   2.045   5.402   3.500
 7959SOL     OW24775   5.079   5.652   0.727
 7959SOL    HW124776   5.001   5.652   0.789
 7959SOL    HW224777   5.052   5.691   0.639
 7960SOL     OW24778   2.418   2.480   0.948
 7960SOL    HW124779   2.405   2.517   0.856
 7960SOL    HW224780   2.476   2.542   1.001
 7961SOL     OW24781   1.790   5.897   0.278
 7961SOL    HW124782   1.721   5.954   0.234
 7961SOL    HW224783   1.869   5.953   0.303
 7962SOL     OW24784   1.771   6.587   1.966
 7962SOL    HW124785   1.721   6.673   1.960
 7962SOL    HW224786   1.853   6.600   2.022
 7963SOL     OW24787   0.812   6.387   4.900
 7963SOL    HW124788   0.902   6.424   4.921
 7963SOL    HW224789   0.773   6.346   4.982
 7964SOL     OW24790   6.460   5.500   3.424
 7964SOL    HW124791   6.482   5.414   3.469
 7964SOL    HW224792   6.459   5.574   3.491
 7965SOL     OW24793   5.135   1.676   0.332
 7965SOL    HW124794   5.096   1.595   0.288
 7965SOL    HW224795   5.205   1.716   0.272
 7966SOL     OW24796   6.879   6.308   3.521
 7966SOL    HW124797   6.950   6.249   3.559
 7966SOL    HW224798   6.882   6.305   3.422
 7967SOL     OW24799   3.036   6.941   2.898
 7967SOL    HW124800   3.056   0.013   2.926
 7967SOL    HW224801   2.938   6.934   2.875
 7968SOL     OW24802   1.893   0.848   1.453
 7968SOL    HW124803   1.842   0.931   1.430
 7968SOL    HW224804   1.872   0.777   1.386
 7969SOL     OW24805   3.202   1.704   3.424
 7969SOL    HW124806   3.267   1.630   3.443
 7969SOL    HW224807   3.226   1.748   3.338
 7970SOL     OW24808   0.419   4.988   3.122
 7970SOL    HW124809   0.477   5.018   3.047
 7970SOL    HW224810   0.471   4.927   3.182
 7971SOL     OW24811   2.850   1.593   2.405
 7971SOL    HW124812   2.774   1.656   2.421
 7971SOL    HW224813   2.864   1.582   2.307
 7972SOL     OW24814   0.138   5.167   1.628
 7972SOL    HW124815   0.178   5.174   1.537
 7972SOL    HW224816   0.134   5.071   1.656
 7973SOL     OW24817   4.383   2.196   2.592
 7973SOL    HW124818   4.454   2.192   2.521
 7973SOL    HW224819   4.348   2.104   2.608
 7974SOL     OW24820   5.671   6.534   3.442
 7974SOL    HW124821   5.694   6.520   3.538
 7974SOL    HW224822   5.755   6.542   3.388
 7975SOL     OW24823   1.931   1.093   3.092
 7975SOL    HW124824   2.013   1.050   3.131
 7975SOL    HW224825   1.958   1.176   3.043
 7976SOL     OW24826   0.916   6.169   6.095
 7976SOL    HW124827   0.952   6.082   6.062
 7976SOL    HW224828   0.828   6.187   6.052
 7977SOL     OW24829   4.846   6.609   1.500
 7977SOL    HW124830   4.843   6.658   1.413
 7977SOL    HW224831   4.897   6.523   1.488
 7978SOL     OW24832   3.673   2.518   5.953
 7978SOL    HW124833   3.605   2.506   5.881
 7978SOL    HW224834   3.677   2.615   5.979
 7979SOL     OW24835   4.967   0.061   4.366
 7979SOL    HW124836   5.022   0.012   4.434
 7979SOL    HW224837   4.883   0.093   4.409
 7980SOL     OW24838   2.646   0.750   2.270
 7980SOL    HW124839   2.630   0.719   2.364
 7980SOL    HW224840   2.625   0.677   2.206
 7981SOL     OW24841   1.128   6.162   2.616
 7981SOL    HW124842   1.140   6.250   2.571
 7981SOL    HW224843   1.182   6.092   2.567
 7982SOL     OW24844   0.229   2.537   0.441
 7982SOL    HW124845   0.148   2.568   0.492
 7982SOL    HW224846   0.211   2.540   0.343
 7983SOL     OW24847   4.661   2.681   2.133
 7983SOL    HW124848   4.681   2.777   2.151
 7983SOL    HW224849   4.623   2.639   2.216
 7984SOL     OW24850   7.003   0.370   0.223
 7984SOL    HW124851   6.917   0.325   0.202
 7984SOL    HW224852   6.991   0.430   0.302
 7985SOL     OW24853   0.337   1.191   0.949
 7985SOL    HW124854   0.362   1.171   0.854
 7985SOL    HW224855   0.250   1.148   0.970
 7986SOL     OW24856   4.783   2.991   0.081
 7986SOL    HW124857   4.810   3.013   7.009
 7986SOL    HW224858   4.690   3.023   0.098
 7987SOL     OW24859   0.911   2.250   4.687
 7987SOL    HW124860   0.905   2.345   4.720
 7987SOL    HW224861   1.005   2.231   4.658
 7988SOL     OW24862   2.649   1.975   5.628
 7988SOL    HW124863   2.556   1.989   5.662
 7988SOL    HW224864   2.713   2.031   5.681
 7989SOL     OW24865   3.639   3.568   5.845
 7989SOL    HW124866   3.725   3.522   5.865
 7989SOL    HW224867   3.658   3.660   5.810
 7990SOL     OW24868   2.354   2.728   4.638
 7990SOL    HW124869   2.309   2.659   4.694
 7990SOL    HW224870   2.452   2.727   4.657
 7991SOL     OW24871   1.166   3.095   5.328
 7991SOL    HW124872   1.114   3.086   5.413
 7991SOL    HW224873   1.127   3.168   5.272
 7992SOL     OW24874   2.534   1.360   0.960
 7992SOL    HW124875   2.622   1.366   1.008
 7992SOL    HW224876   2.532   1.277   0.903
 7993SOL     OW24877   2.475   6.383   6.242
 7993SOL    HW124878   2.501   6.295   6.282
 7993SOL    HW224879   2.407   6.368   6.170
 7994SOL     OW24880   5.979   0.807   4.854
 7994SOL    HW124881   6.022   0.722   4.884
 7994SOL    HW224882   6.048   0.879   4.848
 7995SOL     OW24883   4.380   5.746   3.526
 7995SOL    HW124884   4.397   5.836   3.486
 7995SOL    HW224885   4.446   5.729   3.600
 7996SOL     OW24886   4.047   0.982   5.230
 7996SOL    HW124887   4.074   0.911   5.295
 7996SOL    HW224888   4.090   0.963   5.141
 7997SOL     OW24889   5.273   2.532   2.228
 7997SOL    HW124890   5.361   2.575   2.247
 7997SOL    HW224891   5.244   2.478   2.307
 7998SOL     OW24892   6.008   4.790   6.455
 7998SOL    HW124893   6.070   4.806   6.379
 7998SOL    HW224894   6.045   4.718   6.514
 7999SOL     OW24895   1.806   0.466   5.697
 7999SOL    HW124896   1.711   0.459   5.667
 7999SOL    HW224897   1.828   0.388   5.756
 8000SOL     OW24898   5.539   0.557   5.860
 8000SOL    HW124899   5.633   0.570   5.890
 8000SOL    HW224900   5.517   0.622   5.787
 8001SOL     OW24901   2.342   6.329   1.444
 8001SOL    HW124902   2.303   6.257   1.387
 8001SOL    HW224903   2.374   6.403   1.386
 8002SOL     OW24904   4.897   2.718   5.592
 8002SOL    HW124905   4.873   2.630   5.551
 8002SOL    HW224906   4.815   2.774   5.600
 8003SOL     OW24907   3.752   6.096   3.820
 8003SOL    HW124908   3.684   6.130   3.755
 8003SOL    HW224909   3.785   6.007   3.790
 8004SOL     OW24910   1.148   3.982   2.890
 8004SOL    HW124911   1.184   3.972   2.982
 8004SOL    HW224912   1.119   4.077   2.875
 8005SOL     OW24913   2.258   0.325   2.340
 8005SOL    HW124914   2.293   0.310   2.248
 8005SOL    HW224915   2.160   0.346   2.337
 8006SOL     OW24916   3.626   6.303   1.317
 8006SOL    HW124917   3.617   6.336   1.411
 8006SOL    HW224918   3.620   6.380   1.254
 8007SOL     OW24919   0.428   1.479   4.163
 8007SOL    HW124920   0.412   1.398   4.220
 8007SOL    HW224921   0.480   1.452   4.082
 8008SOL     OW24922   6.098   5.489   0.486
 8008SOL    HW124923   6.125   5.411   0.430
 8008SOL    HW224924   6.029   5.542   0.436
 8009SOL     OW24925   6.927   6.808   4.257
 8009SOL    HW124926   6.921   6.873   4.181
 8009SOL    HW224927   6.930   6.715   4.219
 8010SOL     OW24928   1.784   3.129   6.685
 8010SOL    HW124929   1.719   3.164   6.753
 8010SOL    HW224930   1.798   3.197   6.613
 8011SOL     OW24931   2.151   2.468   0.745
 8011SOL    HW124932   2.081   2.487   0.814
 8011SOL    HW224933   2.223   2.536   0.750
 8012SOL     OW24934   3.185   0.477   3.647
 8012SOL    HW124935   3.209   0.381   3.633
 8012SOL    HW224936   3.089   0.491   3.623
 8013SOL     OW24937   6.038   5.250   4.706
 8013SOL    HW124938   6.092   5.329   4.679
 8013SOL    HW224939   5.957   5.280   4.756
 8014SOL     OW24940   2.141   0.023   6.689
 8014SOL    HW124941   2.155   6.972   6.621
 8014SOL    HW224942   2.195   0.002   6.770
 8015SOL     OW24943   1.705   2.137   6.111
 8015SOL    HW124944   1.640   2.167   6.181
 8015SOL    HW224945   1.683   2.179   6.024
 8016SOL     OW24946   3.848   6.288   1.784
 8016SOL    HW124947   3.945   6.310   1.793
 8016SOL    HW224948   3.835   6.190   1.800
 8017SOL     OW24949   5.805   3.981   5.149
 8017SOL    HW124950   5.896   3.967   5.187
 8017SOL    HW224951   5.786   3.910   5.082
 8018SOL     OW24952   5.682   2.699   4.618
 8018SOL    HW124953   5.728   2.758   4.551
 8018SOL    HW224954   5.591   2.736   4.638
 8019SOL     OW24955   1.964   5.048   1.309
 8019SOL    HW124956   1.963   4.985   1.231
 8019SOL    HW224957   1.921   5.004   1.388
 8020SOL     OW24958   5.782   6.489   6.274
 8020SOL    HW124959   5.808   6.393   6.269
 8020SOL    HW224960   5.689   6.501   6.238
 8021SOL     OW24961   0.347   0.673   0.972
 8021SOL    HW124962   0.402   0.591   0.985
 8021SOL    HW224963   0.288   0.686   1.052
 8022SOL     OW24964   4.399   5.683   3.235
 8022SOL    HW124965   4.391   5.757   3.168
 8022SOL    HW224966   4.337   5.701   3.311
 8023SOL     OW24967   6.543   6.355   3.384
 8023SOL    HW124968   6.525   6.307   3.470
 8023SOL    HW224969   6.612   6.305   3.332
 8024SOL     OW24970   4.825   5.680   4.935
 8024SOL    HW124971   4.922   5.701   4.947
 8024SOL    HW224972   4.789   5.732   4.857
 8025SOL     OW24973   2.837   6.055   0.329
 8025SOL    HW124974   2.841   5.975   0.268
 8025SOL    HW224975   2.921   6.061   0.382
 8026SOL     OW24976   1.977   2.993   0.663
 8026SOL    HW124977   1.903   2.963   0.603
 8026SOL    HW224978   1.968   2.949   0.752
 8027SOL     OW24979   5.168   3.375   5.907
 8027SOL    HW124980   5.192   3.313   5.982
 8027SOL    HW224981   5.167   3.470   5.940
 8028SOL     OW24982   5.374   5.705   0.523
 8028SOL    HW124983   5.418   5.790   0.552
 8028SOL    HW224984   5.435   5.654   0.463
 8029SOL     OW24985   3.283   4.598   0.014
 8029SOL    HW124986   3.296   4.670   6.967
 8029SOL    HW224987   3.370   4.578   0.059
 8030SOL     OW24988   6.101   3.669   0.408
 8030SOL    HW124989   6.173   3.654   0.340
 8030SOL    HW224990   6.143   3.699   0.494
 8031SOL     OW24991   3.524   6.043   1.248
 8031SOL    HW124992   3.520   6.123   1.309
 8031SOL    HW224993   3.509   6.073   1.154
 8032SOL     OW24994   5.078   4.891   5.513
 8032SOL    HW124995   5.061   4.820   5.582
 8032SOL    HW224996   5.107   4.975   5.559
 8033SOL     OW24997   6.280   2.251   0.468
 8033SOL    HW124998   6.284   2.231   0.370
 8033SOL    HW224999   6.260   2.167   0.519
 8034SOL     OW25000   6.202   1.388   4.700
 8034SOL    HW125001   6.183   1.381   4.602
 8034SOL    HW225002   6.284   1.444   4.715
 8035SOL     OW25003   5.548   6.235   6.992
 8035SOL    HW125004   5.467   6.270   6.945
 8035SOL    HW225005   5.520   6.180   0.049
 8036SOL     OW25006   1.469   4.788   1.484
 8036SOL    HW125007   1.447   4.883   1.465
 8036SOL    HW225008   1.390   4.743   1.526
 8037SOL     OW25009   2.291   2.996   1.619
 8037SOL    HW125010   2.306   3.082   1.570
 8037SOL    HW225011   2.243   3.015   1.705
 8038SOL     OW25012   6.508   1.488   4.057
 8038SOL    HW125013   6.579   1.552   4.030
 8038SOL    HW225014   6.486   1.500   4.154
 8039SOL     OW25015   3.166   6.737   4.700
 8039SOL    HW125016   3.207   6.747   4.610
 8039SOL    HW225017   3.235   6.755   4.770
 8040SOL     OW25018   6.081   6.241   0.793
 8040SOL    HW125019   6.138   6.205   0.720
 8040SOL    HW225020   6.064   6.338   0.778
 8041SOL     OW25021   4.024   1.983   0.651
 8041SOL    HW125022   4.041   2.074   0.614
 8041SOL    HW225023   4.111   1.937   0.669
 8042SOL     OW25024   2.479   4.021   0.621
 8042SOL    HW125025   2.532   4.075   0.687
 8042SOL    HW225026   2.432   3.948   0.670
 8043SOL     OW25027   2.311   0.492   1.484
 8043SOL    HW125028   2.301   0.393   1.497
 8043SOL    HW225029   2.388   0.509   1.422
 8044SOL     OW25030   3.214   3.992   1.465
 8044SOL    HW125031   3.278   3.978   1.540
 8044SOL    HW225032   3.191   4.089   1.457
 8045SOL     OW25033   6.397   2.889   3.442
 8045SOL    HW125034   6.455   2.902   3.362
 8045SOL    HW225035   6.445   2.831   3.508
 8046SOL     OW25036   0.169   5.292   5.869
 8046SOL    HW125037   0.139   5.289   5.964
 8046SOL    HW225038   0.260   5.333   5.864
 8047SOL     OW25039   2.881   6.476   4.396
 8047SOL    HW125040   2.940   6.417   4.452
 8047SOL    HW225041   2.869   6.435   4.306
 8048SOL     OW25042   6.269   0.784   6.193
 8048SOL    HW125043   6.351   0.754   6.143
 8048SOL    HW225044   6.189   0.772   6.135
 8049SOL     OW25045   1.574   6.512   0.217
 8049SOL    HW125046   1.638   6.438   0.196
 8049SOL    HW225047   1.609   6.598   0.180
 8050SOL     OW25048   0.503   3.038   0.923
 8050SOL    HW125049   0.570   3.105   0.892
 8050SOL    HW225050   0.460   2.995   0.844
 8051SOL     OW25051   3.555   2.142   3.830
 8051SOL    HW125052   3.603   2.207   3.771
 8051SOL    HW225053   3.612   2.121   3.909
 8052SOL     OW25054   3.869   2.025   3.180
 8052SOL    HW125055   3.923   2.093   3.228
 8052SOL    HW225056   3.776   2.024   3.217
 8053SOL     OW25057   3.893   3.343   1.904
 8053SOL    HW125058   3.887   3.397   1.988
 8053SOL    HW225059   3.967   3.276   1.913
 8054SOL     OW25060   4.734   5.753   4.481
 8054SOL    HW125061   4.705   5.773   4.575
 8054SOL    HW225062   4.830   5.777   4.470
 8055SOL     OW25063   0.949   6.888   4.943
 8055SOL    HW125064   1.034   6.938   4.927
 8055SOL    HW225065   0.959   6.830   5.023
 8056SOL     OW25066   4.374   1.356   2.478
 8056SOL    HW125067   4.339   1.436   2.525
 8056SOL    HW225068   4.474   1.354   2.485
 8057SOL     OW25069   3.421   0.088   2.967
 8057SOL    HW125070   3.404   0.035   2.884
 8057SOL    HW225071   3.495   0.046   3.019
 8058SOL     OW25072   2.835   0.177   3.670
 8058SOL    HW125073   2.778   0.219   3.742
 8058SOL    HW225074   2.800   0.203   3.581
 8059SOL     OW25075   2.678   1.023   3.799
 8059SOL    HW125076   2.744   1.043   3.728
 8059SOL    HW225077   2.722   0.968   3.871
 8060SOL     OW25078   0.959   2.171   5.112
 8060SOL    HW125079   1.044   2.130   5.078
 8060SOL    HW225080   0.949   2.151   5.209
 8061SOL     OW25081   6.766   5.992   1.781
 8061SOL    HW125082   6.687   6.006   1.840
 8061SOL    HW225083   6.736   5.952   1.694
 8062SOL     OW25084   2.062   3.577   2.204
 8062SOL    HW125085   2.042   3.507   2.273
 8062SOL    HW225086   2.128   3.540   2.139
 8063SOL     OW25087   2.612   3.207   6.604
 8063SOL    HW125088   2.548   3.214   6.528
 8063SOL    HW225089   2.621   3.111   6.631
 8064SOL     OW25090   6.372   3.187   6.666
 8064SOL    HW125091   6.415   3.133   6.594
 8064SOL    HW225092   6.292   3.139   6.701
 8065SOL     OW25093   4.378   6.962   6.432
 8065SOL    HW125094   4.448   6.913   6.380
 8065SOL    HW225095   4.403   6.963   6.529
 8066SOL     OW25096   2.623   0.085   1.930
 8066SOL    HW125097   2.669   0.162   1.975
 8066SOL    HW225098   2.638   0.002   1.984
 8067SOL     OW25099   4.864   2.166   2.109
 8067SOL    HW125100   4.789   2.121   2.060
 8067SOL    HW225101   4.832   2.194   2.199
 8068SOL     OW25102   6.373   4.869   4.266
 8068SOL    HW125103   6.328   4.958   4.273
 8068SOL    HW225104   6.304   4.798   4.250
 8069SOL     OW25105   1.171   6.453   2.559
 8069SOL    HW125106   1.129   6.440   2.649
 8069SOL    HW225107   1.191   6.551   2.546
 8070SOL     OW25108   3.909   0.033   2.185
 8070SOL    HW125109   3.940   0.126   2.168
 8070SOL    HW225110   3.964   6.990   2.130
 8071SOL     OW25111   3.373   6.559   0.423
 8071SOL    HW125112   3.348   6.553   0.327
 8071SOL    HW225113   3.471   6.574   0.432
 8072SOL     OW25114   5.146   0.831   2.545
 8072SOL    HW125115   5.133   0.750   2.603
 8072SOL    HW225116   5.071   0.895   2.560
 8073SOL     OW25117   4.615   0.188   6.454
 8073SOL    HW125118   4.606   0.089   6.450
 8073SOL    HW225119   4.580   0.222   6.541
 8074SOL     OW25120   3.331   4.093   6.691
 8074SOL    HW125121   3.359   4.039   6.769
 8074SOL    HW225122   3.368   4.186   6.700
 8075SOL     OW25123   5.460   2.227   2.862
 8075SOL    HW125124   5.492   2.133   2.854
 8075SOL    HW225125   5.458   2.254   2.958
 8076SOL     OW25126   4.652   2.966   6.071
 8076SOL    HW125127   4.665   3.065   6.075
 8076SOL    HW225128   4.563   2.945   6.029
 8077SOL     OW25129   1.182   0.730   0.544
 8077SOL    HW125130   1.204   0.775   0.631
 8077SOL    HW225131   1.254   0.748   0.478
 8078SOL     OW25132   5.873   2.877   0.548
 8078SOL    HW125133   5.880   2.876   0.448
 8078SOL    HW225134   5.789   2.924   0.575
 8079SOL     OW25135   0.921   1.689   1.707
 8079SOL    HW125136   0.839   1.642   1.674
 8079SOL    HW225137   0.993   1.622   1.724
 8080SOL     OW25138   3.406   5.063   0.415
 8080SOL    HW125139   3.413   5.056   0.316
 8080SOL    HW225140   3.312   5.046   0.444
 8081SOL     OW25141   5.951   1.939   5.097
 8081SOL    HW125142   5.900   1.854   5.109
 8081SOL    HW225143   5.990   1.942   5.005
 8082SOL     OW25144   6.279   3.339   4.232
 8082SOL    HW125145   6.311   3.430   4.257
 8082SOL    HW225146   6.358   3.277   4.224
 8083SOL     OW25147   5.933   2.269   4.553
 8083SOL    HW125148   5.947   2.236   4.460
 8083SOL    HW225149   5.888   2.358   4.551
 8084SOL     OW25150   6.466   0.250   1.015
 8084SOL    HW125151   6.548   0.231   0.961
 8084SOL    HW225152   6.468   0.197   1.099
 8085SOL     OW25153   5.964   2.262   0.412
 8085SOL    HW125154   6.062   2.281   0.418
 8085SOL    HW225155   5.913   2.344   0.440
 8086SOL     OW25156   3.057   6.081   5.668
 8086SOL    HW125157   3.027   5.997   5.711
 8086SOL    HW225158   3.013   6.090   5.578
 8087SOL     OW25159   2.642   3.926   0.411
 8087SOL    HW125160   2.586   3.976   0.477
 8087SOL    HW225161   2.695   3.855   0.458
 8088SOL     OW25162   4.622   0.642   2.741
 8088SOL    HW125163   4.611   0.575   2.814
 8088SOL    HW225164   4.638   0.595   2.655
 8089SOL     OW25165   6.110   2.797   0.309
 8089SOL    HW125166   6.132   2.864   0.380
 8089SOL    HW225167   6.019   2.815   0.273
 8090SOL     OW25168   4.127   2.266   5.296
 8090SOL    HW125169   4.150   2.363   5.284
 8090SOL    HW225170   4.142   2.217   5.210
 8091SOL     OW25171   2.554   4.825   5.763
 8091SOL    HW125172   2.614   4.895   5.725
 8091SOL    HW225173   2.460   4.858   5.762
 8092SOL     OW25174   6.833   1.841   4.085
 8092SOL    HW125175   6.768   1.850   4.161
 8092SOL    HW225176   6.924   1.820   4.121
 8093SOL     OW25177   5.658   5.473   0.998
 8093SOL    HW125178   5.643   5.446   0.903
 8093SOL    HW225179   5.615   5.407   1.059
 8094SOL     OW25180   1.007   3.818   4.496
 8094SOL    HW125181   0.975   3.861   4.412
 8094SOL    HW225182   1.046   3.728   4.475
 8095SOL     OW25183   6.116   3.375   4.893
 8095SOL    HW125184   6.110   3.363   4.794
 8095SOL    HW225185   6.077   3.295   4.939
 8096SOL     OW25186   3.846   0.509   0.205
 8096SOL    HW125187   3.866   0.518   0.303
 8096SOL    HW225188   3.810   0.596   0.171
 8097SOL     OW25189   4.835   1.114   4.302
 8097SOL    HW125190   4.902   1.072   4.362
 8097SOL    HW225191   4.825   1.211   4.326
 8098SOL     OW25192   2.683   1.387   4.071
 8098SOL    HW125193   2.627   1.361   3.992
 8098SOL    HW225194   2.733   1.471   4.051
 8099SOL     OW25195   4.626   6.241   4.975
 8099SOL    HW125196   4.605   6.169   5.041
 8099SOL    HW225197   4.555   6.312   4.980
 8100SOL     OW25198   6.996   6.292   0.876
 8100SOL    HW125199   6.951   6.372   0.915
 8100SOL    HW225200   6.940   6.255   0.801
 8101SOL     OW25201   0.795   5.290   2.698
 8101SOL    HW125202   0.767   5.379   2.663
 8101SOL    HW225203   0.772   5.284   2.796
 8102SOL     OW25204   6.825   0.068   6.321
 8102SOL    HW125205   6.772   0.010   6.259
 8102SOL    HW225206   6.833   0.160   6.282
 8103SOL     OW25207   2.462   1.984   2.454
 8103SOL    HW125208   2.382   1.988   2.513
 8103SOL    HW225209   2.436   1.945   2.365
 8104SOL     OW25210   3.286   6.214   5.629
 8104SOL    HW125211   3.210   6.154   5.652
 8104SOL    HW225212   3.283   6.295   5.687
 8105SOL     OW25213   2.229   2.877   2.655
 8105SOL    HW125214   2.235   2.825   2.569
 8105SOL    HW225215   2.172   2.958   2.641
 8106SOL     OW25216   0.051   4.353   5.063
 8106SOL    HW125217   0.050   4.414   4.984
 8106SOL    HW225218   6.981   4.351   5.105
 8107SOL     OW25219   1.153   5.701   6.409
 8107SOL    HW125220   1.138   5.658   6.498
 8107SOL    HW225221   1.239   5.752   6.411
 8108SOL     OW25222   2.184   3.599   5.090
 8108SOL    HW125223   2.186   3.657   5.172
 8108SOL    HW225224   2.196   3.504   5.117
 8109SOL     OW25225   0.801   5.818   4.958
 8109SOL    HW125226   0.887   5.832   4.909
 8109SOL    HW225227   0.815   5.754   5.033
 8110SOL     OW25228   1.457   4.577   0.806
 8110SOL    HW125229   1.537   4.543   0.856
 8110SOL    HW225230   1.374   4.547   0.851
 8111SOL     OW25231   3.232   5.996   4.097
 8111SOL    HW125232   3.305   5.945   4.051
 8111SOL    HW225233   3.150   5.995   4.040
 8112SOL     OW25234   4.135   1.085   4.632
 8112SOL    HW125235   4.168   0.995   4.663
 8112SOL    HW225236   4.195   1.156   4.669
 8113SOL     OW25237   3.598   3.019   6.088
 8113SOL    HW125238   3.677   2.964   6.061
 8113SOL    HW225239   3.518   2.960   6.101
 8114SOL     OW25240   3.256   3.721   1.874
 8114SOL    HW125241   3.238   3.688   1.967
 8114SOL    HW225242   3.327   3.664   1.832
 8115SOL     OW25243   3.565   2.143   1.117
 8115SOL    HW125244   3.665   2.144   1.110
 8115SOL    HW225245   3.537   2.185   1.204
 8116SOL     OW25246   5.062   1.631   5.509
 8116SOL    HW125247   4.964   1.621   5.493
 8116SOL    HW225248   5.098   1.549   5.555
 8117SOL     OW25249   2.410   1.975   5.799
 8117SOL    HW125250   2.423   1.912   5.876
 8117SOL    HW225251   2.328   1.949   5.748
 8118SOL     OW25252   1.145   2.288   4.279
 8118SOL    HW125253   1.234   2.243   4.282
 8118SOL    HW225254   1.107   2.282   4.187
 8119SOL     OW25255   0.873   5.991   1.558
 8119SOL    HW125256   0.781   6.030   1.569
 8119SOL    HW225257   0.920   6.038   1.483
 8120SOL     OW25258   4.466   3.985   1.650
 8120SOL    HW125259   4.423   4.036   1.724
 8120SOL    HW225260   4.483   3.891   1.679
 8121SOL     OW25261   6.778   6.854   3.369
 8121SOL    HW125262   6.809   6.949   3.373
 8121SOL    HW225263   6.853   6.793   3.394
 8122SOL     OW25264   0.508   5.736   1.443
 8122SOL    HW125265   0.608   5.735   1.455
 8122SOL    HW225266   0.487   5.737   1.346
 8123SOL     OW25267   0.780   5.579   0.369
 8123SOL    HW125268   0.759   5.487   0.337
 8123SOL    HW225269   0.828   5.573   0.457
 8124SOL     OW25270   1.322   6.354   3.044
 8124SOL    HW125271   1.311   6.261   3.009
 8124SOL    HW225272   1.241   6.381   3.095
 8125SOL     OW25273   5.500   5.034   2.935
 8125SOL    HW125274   5.532   4.984   3.015
 8125SOL    HW225275   5.571   5.098   2.904
 8126SOL     OW25276   6.692   4.447   2.802
 8126SOL    HW125277   6.649   4.536   2.784
 8126SOL    HW225278   6.626   4.387   2.848
 8127SOL     OW25279   3.651   4.928   1.073
 8127SOL    HW125280   3.648   4.909   1.171
 8127SOL    HW225281   3.561   4.960   1.043
 8128SOL     OW25282   3.480   2.483   5.340
 8128SOL    HW125283   3.503   2.387   5.321
 8128SOL    HW225284   3.381   2.491   5.354
 8129SOL     OW25285   5.022   6.452   6.612
 8129SOL    HW125286   5.106   6.506   6.606
 8129SOL    HW225287   4.950   6.506   6.655
 8130SOL     OW25288   0.667   6.832   0.258
 8130SOL    HW125289   0.729   6.848   0.335
 8130SOL    HW225290   0.604   6.758   0.280
 8131SOL     OW25291   2.024   1.319   0.797
 8131SOL    HW125292   2.066   1.295   0.709
 8131SOL    HW225293   2.071   1.398   0.836
 8132SOL     OW25294   6.347   4.607   2.972
 8132SOL    HW125295   6.303   4.649   3.051
 8132SOL    HW225296   6.403   4.529   3.002
 8133SOL     OW25297   0.411   6.038   2.138
 8133SOL    HW125298   0.487   6.044   2.073
 8133SOL    HW225299   0.372   5.946   2.133
 8134SOL     OW25300   1.745   2.843   2.002
 8134SOL    HW125301   1.721   2.831   2.099
 8134SOL    HW225302   1.782   2.934   1.988
 8135SOL     OW25303   3.948   6.402   2.690
 8135SOL    HW125304   3.989   6.381   2.601
 8135SOL    HW225305   3.999   6.474   2.735
 8136SOL     OW25306   2.244   5.635   1.494
 8136SOL    HW125307   2.272   5.727   1.467
 8136SOL    HW225308   2.242   5.629   1.594
 8137SOL     OW25309   3.143   3.685   5.002
 8137SOL    HW125310   3.131   3.596   4.959
 8137SOL    HW225311   3.054   3.719   5.034
 8138SOL     OW25312   5.026   1.114   3.688
 8138SOL    HW125313   5.090   1.039   3.696
 8138SOL    HW225314   5.075   1.198   3.666
 8139SOL     OW25315   1.403   3.177   4.838
 8139SOL    HW125316   1.365   3.264   4.806
 8139SOL    HW225317   1.398   3.173   4.938
 8140SOL     OW25318   4.536   0.792   0.976
 8140SOL    HW125319   4.487   0.865   1.025
 8140SOL    HW225320   4.538   0.813   0.878
 8141SOL     OW25321   6.091   0.288   5.968
 8141SOL    HW125322   6.086   0.376   6.015
 8141SOL    HW225323   6.133   0.300   5.878
 8142SOL     OW25324   2.392   5.488   0.706
 8142SOL    HW125325   2.391   5.493   0.606
 8142SOL    HW225326   2.486   5.491   0.739
 8143SOL     OW25327   5.574   4.649   0.454
 8143SOL    HW125328   5.669   4.655   0.484
 8143SOL    HW225329   5.523   4.728   0.486
 8144SOL     OW25330   0.796   5.899   0.069
 8144SOL    HW125331   0.810   5.836   7.014
 8144SOL    HW225332   0.794   5.993   0.034
 8145SOL     OW25333   5.610   5.594   6.796
 8145SOL    HW125334   5.672   5.626   6.867
 8145SOL    HW225335   5.531   5.655   6.791
 8146SOL     OW25336   6.571   6.373   4.614
 8146SOL    HW125337   6.663   6.399   4.584
 8146SOL    HW225338   6.514   6.353   4.534
 8147SOL     OW25339   2.361   0.843   5.751
 8147SOL    HW125340   2.338   0.749   5.774
 8147SOL    HW225341   2.348   0.901   5.832
 8148SOL     OW25342   4.823   3.727   0.621
 8148SOL    HW125343   4.872   3.719   0.535
 8148SOL    HW225344   4.845   3.650   0.681
 8149SOL     OW25345   1.407   0.163   5.292
 8149SOL    HW125346   1.316   0.122   5.300
 8149SOL    HW225347   1.398   0.262   5.277
 8150SOL     OW25348   0.787   4.155   0.630
 8150SOL    HW125349   0.778   4.091   0.706
 8150SOL    HW225350   0.842   4.234   0.660
 8151SOL     OW25351   6.473   5.402   3.046
 8151SOL    HW125352   6.549   5.374   3.104
 8151SOL    HW225353   6.395   5.430   3.103
 8152SOL     OW25354   5.165   1.235   2.963
 8152SOL    HW125355   5.081   1.261   3.011
 8152SOL    HW225356   5.237   1.214   3.029
 8153SOL     OW25357   0.311   1.814   2.345
 8153SOL    HW125358   0.229   1.865   2.320
 8153SOL    HW225359   0.392   1.862   2.310
 8154SOL     OW25360   1.786   0.393   3.321
 8154SOL    HW125361   1.726   0.457   3.370
 8154SOL    HW225362   1.748   0.375   3.230
 8155SOL     OW25363   1.888   4.845   4.106
 8155SOL    HW125364   1.870   4.830   4.009
 8155SOL    HW225365   1.933   4.933   4.119
 8156SOL     OW25366   1.234   4.391   0.546
 8156SOL    HW125367   1.208   4.331   0.470
 8156SOL    HW225368   1.308   4.452   0.517
 8157SOL     OW25369   6.528   4.276   5.157
 8157SOL    HW125370   6.441   4.302   5.115
 8157SOL    HW225371   6.597   4.264   5.086
 8158SOL     OW25372   6.039   5.430   6.344
 8158SOL    HW125373   6.110   5.495   6.316
 8158SOL    HW225374   6.048   5.346   6.289
 8159SOL     OW25375   2.527   0.169   5.433
 8159SOL    HW125376   2.538   0.214   5.521
 8159SOL    HW225377   2.513   0.238   5.362
 8160SOL     OW25378   5.748   1.614   2.316
 8160SOL    HW125379   5.721   1.690   2.257
 8160SOL    HW225380   5.709   1.529   2.281
 8161SOL     OW25381   6.115   2.265   1.990
 8161SOL    HW125382   6.129   2.283   1.893
 8161SOL    HW225383   6.185   2.200   2.022
 8162SOL     OW25384   0.897   5.574   4.499
 8162SOL    HW125385   0.973   5.629   4.466
 8162SOL    HW225386   0.850   5.532   4.422
 8163SOL     OW25387   4.029   4.913   5.502
 8163SOL    HW125388   4.109   4.875   5.456
 8163SOL    HW225389   3.948   4.897   5.445
 8164SOL     OW25390   5.281   1.645   0.552
 8164SOL    HW125391   5.202   1.628   0.493
 8164SOL    HW225392   5.322   1.733   0.528
 8165SOL     OW25393   0.696   1.921   6.056
 8165SOL    HW125394   0.761   1.985   6.013
 8165SOL    HW225395   0.609   1.925   6.007
 8166SOL     OW25396   1.843   1.663   5.263
 8166SOL    HW125397   1.819   1.676   5.167
 8166SOL    HW225398   1.912   1.730   5.289
 8167SOL     OW25399   1.637   3.358   3.576
 8167SOL    HW125400   1.634   3.438   3.636
 8167SOL    HW225401   1.594   3.280   3.621
 8168SOL     OW25402   1.722   0.248   2.544
 8168SOL    HW125403   1.772   0.332   2.523
 8168SOL    HW225404   1.696   0.202   2.459
 8169SOL     OW25405   4.726   3.603   1.019
 8169SOL    HW125406   4.723   3.535   1.091
 8169SOL    HW225407   4.817   3.602   0.976
 8170SOL     OW25408   6.584   4.709   2.811
 8170SOL    HW125409   6.499   4.709   2.865
 8170SOL    HW225410   6.644   4.781   2.844
 8171SOL     OW25411   2.276   1.859   1.241
 8171SOL    HW125412   2.355   1.827   1.189
 8171SOL    HW225413   2.264   1.957   1.227
 8172SOL     OW25414   1.295   3.073   1.090
 8172SOL    HW125415   1.257   2.991   1.048
 8172SOL    HW225416   1.360   3.047   1.161
 8173SOL     OW25417   5.772   0.398   1.741
 8173SOL    HW125418   5.708   0.327   1.712
 8173SOL    HW225419   5.723   0.470   1.790
 8174SOL     OW25420   2.229   6.899   3.901
 8174SOL    HW125421   2.130   6.906   3.898
 8174SOL    HW225422   2.266   6.898   3.808
 8175SOL     OW25423   0.947   2.355   5.976
 8175SOL    HW125424   0.877   2.348   6.047
 8175SOL    HW225425   0.925   2.432   5.916
 8176SOL     OW25426   2.708   4.664   0.298
 8176SOL    HW125427   2.628   4.681   0.356
 8176SOL    HW225428   2.760   4.587   0.336
 8177SOL     OW25429   2.711   1.063   3.363
 8177SOL    HW125430   2.730   1.153   3.323
 8177SOL    HW225431   2.765   1.052   3.447
 8178SOL     OW25432   2.348   6.606   1.310
 8178SOL    HW125433   2.344   6.703   1.284
 8178SOL    HW225434   2.331   6.597   1.408
 8179SOL     OW25435   5.702   0.611   3.411
 8179SOL    HW125436   5.782   0.659   3.446
 8179SOL    HW225437   5.724   0.514   3.400
 8180SOL     OW25438   4.974   6.051   0.241
 8180SOL    HW125439   4.987   5.958   0.207
 8180SOL    HW225440   4.936   6.108   0.169
 8181SOL     OW25441   6.895   0.410   6.643
 8181SOL    HW125442   6.821   0.476   6.629
 8181SOL    HW225443   6.857   0.320   6.663
 8182SOL     OW25444   3.303   3.673   3.704
 8182SOL    HW125445   3.386   3.637   3.746
 8182SOL    HW225446   3.297   3.644   3.609
 8183SOL     OW25447   6.546   0.416   5.811
 8183SOL    HW125448   6.575   0.358   5.887
 8183SOL    HW225449   6.531   0.360   5.730
 8184SOL     OW25450   0.044   5.426   6.255
 8184SOL    HW125451   0.110   5.377   6.312
 8184SOL    HW225452   0.005   5.502   6.308
 8185SOL     OW25453   0.373   5.802   6.026
 8185SOL    HW125454   0.354   5.733   6.096
 8185SOL    HW225455   0.287   5.831   5.984
 8186SOL     OW25456   1.615   5.533   0.492
 8186SOL    HW125457   1.536   5.570   0.542
 8186SOL    HW225458   1.699   5.553   0.543
 8187SOL     OW25459   1.657   6.951   5.055
 8187SOL    HW125460   1.640   0.013   5.108
 8187SOL    HW225461   1.700   6.975   4.968
 8188SOL     OW25462   2.085   3.117   2.642
 8188SOL    HW125463   2.110   3.187   2.708
 8188SOL    HW225464   1.989   3.092   2.654
 8189SOL     OW25465   5.834   5.149   3.340
 8189SOL    HW125466   5.775   5.106   3.408
 8189SOL    HW225467   5.873   5.079   3.280
 8190SOL     OW25468   6.558   4.090   3.096
 8190SOL    HW125469   6.641   4.133   3.130
 8190SOL    HW225470   6.569   3.990   3.096
 8191SOL     OW25471   4.366   5.126   0.988
 8191SOL    HW125472   4.326   5.035   0.985
 8191SOL    HW225473   4.380   5.154   1.083
 8192SOL     OW25474   0.576   5.871   3.014
 8192SOL    HW125475   0.537   5.896   3.102
 8192SOL    HW225476   0.504   5.872   2.944
 8193SOL     OW25477   0.672   4.448   3.800
 8193SOL    HW125478   0.709   4.442   3.708
 8193SOL    HW225479   0.738   4.495   3.859
 8194SOL     OW25480   4.315   0.248   1.583
 8194SOL    HW125481   4.231   0.236   1.635
 8194SOL    HW225482   4.292   0.252   1.485
 8195SOL     OW25483   6.231   0.007   4.085
 8195SOL    HW125484   6.236   0.072   4.009
 8195SOL    HW225485   6.323   6.997   4.108
 8196SOL     OW25486   4.747   1.116   2.160
 8196SOL    HW125487   4.653   1.131   2.190
 8196SOL    HW225488   4.777   1.193   2.103
 8197SOL     OW25489   4.022   1.832   3.353
 8197SOL    HW125490   3.972   1.831   3.266
 8197SOL    HW225491   3.974   1.774   3.419
 8198SOL     OW25492   1.430   5.730   1.672
 8198SOL    HW125493   1.380   5.807   1.712
 8198SOL    HW225494   1.373   5.685   1.603
 8199SOL     OW25495   6.032   2.499   0.089
 8199SOL    HW125496   5.991   2.514   0.179
 8199SOL    HW225497   6.014   2.578   0.030
 8200SOL     OW25498   4.776   3.469   0.732
 8200SOL    HW125499   4.846   3.408   0.771
 8200SOL    HW225500   4.741   3.431   0.647
 8201SOL     OW25501   5.904   0.064   5.598
 8201SOL    HW125502   5.877   7.003   5.550
 8201SOL    HW225503   6.002   0.080   5.585
 8202SOL     OW25504   1.249   6.477   1.550
 8202SOL    HW125505   1.327   6.488   1.611
 8202SOL    HW225506   1.254   6.543   1.476
 8203SOL     OW25507   1.704   3.496   1.210
 8203SOL    HW125508   1.737   3.423   1.270
 8203SOL    HW225509   1.783   3.538   1.164
 8204SOL     OW25510   2.833   3.516   0.738
 8204SOL    HW125511   2.852   3.583   0.809
 8204SOL    HW225512   2.734   3.511   0.722
 8205SOL     OW25513   1.044   4.516   0.343
 8205SOL    HW125514   1.067   4.422   0.367
 8205SOL    HW225515   1.092   4.543   0.260
 8206SOL     OW25516   3.006   1.089   1.366
 8206SOL    HW125517   3.034   1.117   1.274
 8206SOL    HW225518   3.086   1.067   1.421
 8207SOL     OW25519   3.924   4.051   4.044
 8207SOL    HW125520   3.940   4.143   4.006
 8207SOL    HW225521   4.010   4.001   4.046
 8208SOL     OW25522   2.098   0.441   0.297
 8208SOL    HW125523   2.179   0.441   0.356
 8208SOL    HW225524   2.018   0.414   0.350
 8209SOL     OW25525   5.981   1.522   4.780
 8209SOL    HW125526   5.996   1.612   4.739
 8209SOL    HW225527   6.050   1.458   4.746
 8210SOL     OW25528   2.250   2.620   6.991
 8210SOL    HW125529   2.238   2.563   6.909
 8210SOL    HW225530   2.227   2.567   0.051
 8211SOL     OW25531   4.005   4.878   1.425
 8211SOL    HW125532   3.920   4.840   1.388
 8211SOL    HW225533   4.082   4.850   1.368
 8212SOL     OW25534   1.769   2.596   2.906
 8212SOL    HW125535   1.839   2.607   2.836
 8212SOL    HW225536   1.810   2.609   2.996
 8213SOL     OW25537   6.472   5.019   1.575
 8213SOL    HW125538   6.384   4.994   1.615
 8213SOL    HW225539   6.531   4.938   1.569
 8214SOL     OW25540   5.347   3.592   3.059
 8214SOL    HW125541   5.417   3.662   3.040
 8214SOL    HW225542   5.390   3.501   3.057
 8215SOL     OW25543   3.416   4.925   3.006
 8215SOL    HW125544   3.319   4.919   3.028
 8215SOL    HW225545   3.432   5.002   2.944
 8216SOL     OW25546   5.842   3.804   3.413
 8216SOL    HW125547   5.800   3.791   3.503
 8216SOL    HW225548   5.784   3.864   3.358
 8217SOL     OW25549   1.903   6.231   0.835
 8217SOL    HW125550   1.864   6.322   0.830
 8217SOL    HW225551   1.962   6.215   0.756
 8218SOL     OW25552   6.380   2.590   6.630
 8218SOL    HW125553   6.438   2.538   6.692
 8218SOL    HW225554   6.333   2.527   6.568
 8219SOL     OW25555   5.628   1.634   6.810
 8219SOL    HW125556   5.565   1.618   6.886
 8219SOL    HW225557   5.611   1.725   6.772
 8220SOL     OW25558   4.205   3.728   1.689
 8220SOL    HW125559   4.113   3.695   1.707
 8220SOL    HW225560   4.221   3.813   1.739
 8221SOL     OW25561   4.948   5.260   3.059
 8221SOL    HW125562   4.929   5.198   2.983
 8221SOL    HW225563   4.883   5.241   3.133
 8222SOL     OW25564   6.599   2.017   2.565
 8222SOL    HW125565   6.550   1.967   2.636
 8222SOL    HW225566   6.698   2.006   2.580
 8223SOL     OW25567   0.150   5.333   5.593
 8223SOL    HW125568   0.155   5.309   5.690
 8223SOL    HW225569   0.238   5.372   5.564
 8224SOL     OW25570   1.172   3.246   3.112
 8224SOL    HW125571   1.175   3.224   3.015
 8224SOL    HW225572   1.252   3.300   3.137
 8225SOL     OW25573   4.729   1.036   0.655
 8225SOL    HW125574   4.800   0.996   0.712
 8225SOL    HW225575   4.708   1.128   0.687
 8226SOL     OW25576   3.870   0.365   0.877
 8226SOL    HW125577   3.776   0.355   0.845
 8226SOL    HW225578   3.929   0.302   0.827
 8227SOL     OW25579   5.839   3.572   2.723
 8227SOL    HW125580   5.789   3.579   2.637
 8227SOL    HW225581   5.857   3.663   2.759
 8228SOL     OW25582   0.117   1.974   4.850
 8228SOL    HW125583   0.122   1.893   4.793
 8228SOL    HW225584   0.206   2.020   4.852
 8229SOL     OW25585   3.745   5.399   0.884
 8229SOL    HW125586   3.665   5.379   0.940
 8229SOL    HW225587   3.799   5.471   0.927
 8230SOL     OW25588   5.270   0.002   4.295
 8230SOL    HW125589   5.278   6.936   4.342
 8230SOL    HW225590   5.265   7.008   4.196
 8231SOL     OW25591   4.163   6.029   1.434
 8231SOL    HW125592   4.157   6.119   1.476
 8231SOL    HW225593   4.072   5.986   1.434
 8232SOL     OW25594   2.721   1.662   6.780
 8232SOL    HW125595   2.712   1.711   6.693
 8232SOL    HW225596   2.662   1.705   6.848
 8233SOL     OW25597   0.264   5.144   6.345
 8233SOL    HW125598   0.221   5.063   6.305
 8233SOL    HW225599   0.215   5.169   6.429
 8234SOL     OW25600   3.528   2.812   6.883
 8234SOL    HW125601   3.510   2.785   6.978
 8234SOL    HW225602   3.458   2.877   6.853
 8235SOL     OW25603   4.666   2.381   6.840
 8235SOL    HW125604   4.661   2.281   6.846
 8235SOL    HW225605   4.724   2.415   6.914
 8236SOL     OW25606   5.759   2.207   0.833
 8236SOL    HW125607   5.751   2.108   0.827
 8236SOL    HW225608   5.671   2.247   0.857
 8237SOL     OW25609   4.029   6.103   5.311
 8237SOL    HW125610   4.074   6.018   5.286
 8237SOL    HW225611   4.092   6.161   5.363
 8238SOL     OW25612   1.891   1.013   6.723
 8238SOL    HW125613   1.803   1.061   6.725
 8238SOL    HW225614   1.876   0.918   6.751
 8239SOL     OW25615   6.806   1.202   6.574
 8239SOL    HW125616   6.775   1.129   6.513
 8239SOL    HW225617   6.822   1.163   6.665
 8240SOL     OW25618   3.992   3.963   3.426
 8240SOL    HW125619   4.089   3.967   3.451
 8240SOL    HW225620   3.977   3.886   3.364
 8241SOL     OW25621   4.297   6.777   1.271
 8241SOL    HW125622   4.278   6.875   1.267
 8241SOL    HW225623   4.396   6.763   1.281
 8242SOL     OW25624   1.018   3.847   5.279
 8242SOL    HW125625   0.928   3.810   5.258
 8242SOL    HW225626   1.016   3.946   5.276
 8243SOL     OW25627   0.888   3.598   4.888
 8243SOL    HW125628   0.798   3.594   4.843
 8243SOL    HW225629   0.915   3.693   4.900
 8244SOL     OW25630   1.262   5.754   4.784
 8244SOL    HW125631   1.216   5.813   4.850
 8244SOL    HW225632   1.359   5.777   4.780
 8245SOL     OW25633   3.704   3.451   0.708
 8245SOL    HW125634   3.802   3.472   0.702
 8245SOL    HW225635   3.652   3.527   0.670
 8246SOL     OW25636   5.278   3.916   5.790
 8246SOL    HW125637   5.261   3.921   5.888
 8246SOL    HW225638   5.191   3.903   5.742
 8247SOL     OW25639   1.160   6.804   1.609
 8247SOL    HW125640   1.214   6.821   1.527
 8247SOL    HW225641   1.104   6.884   1.630
 8248SOL     OW25642   0.287   4.263   3.490
 8248SOL    HW125643   0.194   4.296   3.506
 8248SOL    HW225644   0.304   4.182   3.546
 8249SOL     OW25645   1.651   5.634   3.327
 8249SOL    HW125646   1.636   5.723   3.282
 8249SOL    HW225647   1.637   5.644   3.425
 8250SOL     OW25648   3.806   4.072   2.070
 8250SOL    HW125649   3.856   3.990   2.098
 8250SOL    HW225650   3.869   4.138   2.029
 8251SOL     OW25651   6.233   1.589   4.992
 8251SOL    HW125652   6.192   1.657   4.932
 8251SOL    HW225653   6.213   1.497   4.957
 8252SOL     OW25654   1.299   3.220   4.388
 8252SOL    HW125655   1.387   3.265   4.370
 8252SOL    HW225656   1.310   3.121   4.381
 8253SOL     OW25657   2.625   2.764   5.534
 8253SOL    HW125658   2.722   2.780   5.514
 8253SOL    HW225659   2.590   2.692   5.473
 8254SOL     OW25660   4.195   6.140   3.599
 8254SOL    HW125661   4.182   6.161   3.502
 8254SOL    HW225662   4.136   6.198   3.654
 8255SOL     OW25663   4.444   5.177   3.954
 8255SOL    HW125664   4.514   5.217   4.013
 8255SOL    HW225665   4.353   5.207   3.984
 8256SOL     OW25666   6.308   2.206   4.352
 8256SOL    HW125667   6.350   2.271   4.415
 8256SOL    HW225668   6.310   2.115   4.392
 8257SOL     OW25669   6.364   4.164   4.665
 8257SOL    HW125670   6.405   4.253   4.685
 8257SOL    HW225671   6.265   4.175   4.655
 8258SOL     OW25672   4.774   1.607   0.077
 8258SOL    HW125673   4.770   1.634   7.002
 8258SOL    HW225674   4.822   1.678   0.129
 8259SOL     OW25675   3.638   1.337   1.736
 8259SOL    HW125676   3.726   1.359   1.696
 8259SOL    HW225677   3.603   1.416   1.787
 8260SOL     OW25678   2.814   6.289   0.506
 8260SOL    HW125679   2.799   6.200   0.463
 8260SOL    HW225680   2.789   6.284   0.603
 8261SOL     OW25681   5.512   1.196   1.460
 8261SOL    HW125682   5.443   1.250   1.508
 8261SOL    HW225683   5.468   1.134   1.396
 8262SOL     OW25684   1.074   1.983   0.576
 8262SOL    HW125685   1.144   2.052   0.593
 8262SOL    HW225686   0.988   2.027   0.552
 8263SOL     OW25687   5.808   1.002   0.285
 8263SOL    HW125688   5.898   1.034   0.254
 8263SOL    HW225689   5.771   0.939   0.217
 8264SOL     OW25690   2.083   4.284   2.819
 8264SOL    HW125691   2.166   4.330   2.850
 8264SOL    HW225692   2.007   4.350   2.819
 8265SOL     OW25693   1.754   1.218   1.760
 8265SOL    HW125694   1.811   1.244   1.682
 8265SOL    HW225695   1.662   1.195   1.728
 8266SOL     OW25696   3.063   0.181   2.989
 8266SOL    HW125697   3.121   0.214   3.063
 8266SOL    HW225698   3.063   0.247   2.914
 8267SOL     OW25699   0.448   3.559   0.500
 8267SOL    HW125700   0.386   3.509   0.559
 8267SOL    HW225701   0.494   3.630   0.553
 8268SOL     OW25702   3.678   5.870   6.271
 8268SOL    HW125703   3.725   5.836   6.352
 8268SOL    HW225704   3.580   5.849   6.278
 8269SOL     OW25705   5.939   1.776   0.901
 8269SOL    HW125706   5.982   1.850   0.954
 8269SOL    HW225707   5.849   1.806   0.870
 8270SOL     OW25708   3.436   6.251   4.033
 8270SOL    HW125709   3.435   6.152   4.016
 8270SOL    HW225710   3.417   6.299   3.947
 8271SOL     OW25711   6.589   2.216   1.925
 8271SOL    HW125712   6.678   2.172   1.923
 8271SOL    HW225713   6.583   2.276   2.005
 8272SOL     OW25714   3.655   1.211   4.043
 8272SOL    HW125715   3.587   1.211   3.970
 8272SOL    HW225716   3.661   1.303   4.083
 8273SOL     OW25717   1.896   6.708   1.203
 8273SOL    HW125718   1.932   6.617   1.227
 8273SOL    HW225719   1.810   6.697   1.154
 8274SOL     OW25720   5.315   4.459   3.156
 8274SOL    HW125721   5.286   4.441   3.250
 8274SOL    HW225722   5.352   4.551   3.150
 8275SOL     OW25723   4.905   2.546   6.662
 8275SOL    HW125724   4.938   2.497   6.581
 8275SOL    HW225725   4.806   2.554   6.658
 8276SOL     OW25726   0.820   2.321   2.961
 8276SOL    HW125727   0.783   2.332   2.869
 8276SOL    HW225728   0.763   2.256   3.012
 8277SOL     OW25729   6.306   0.718   0.076
 8277SOL    HW125730   6.371   0.795   0.082
 8277SOL    HW225731   6.293   0.679   0.167
 8278SOL     OW25732   1.871   2.656   6.740
 8278SOL    HW125733   1.867   2.746   6.698
 8278SOL    HW225734   1.912   2.664   6.832
 8279SOL     OW25735   6.996   6.019   3.983
 8279SOL    HW125736   6.921   6.085   3.984
 8279SOL    HW225737   6.971   5.942   3.923
 8280SOL     OW25738   2.684   2.182   6.230
 8280SOL    HW125739   2.678   2.257   6.163
 8280SOL    HW225740   2.777   2.146   6.232
 8281SOL     OW25741   6.254   5.530   2.106
 8281SOL    HW125742   6.273   5.539   2.204
 8281SOL    HW225743   6.311   5.458   2.067
 8282SOL     OW25744   5.807   2.688   5.840
 8282SOL    HW125745   5.859   2.644   5.913
 8282SOL    HW225746   5.720   2.721   5.876
 8283SOL     OW25747   1.649   3.351   5.711
 8283SOL    HW125748   1.657   3.290   5.789
 8283SOL    HW225749   1.737   3.357   5.663
 8284SOL     OW25750   6.169   4.158   1.916
 8284SOL    HW125751   6.186   4.144   1.819
 8284SOL    HW225752   6.125   4.077   1.955
 8285SOL     OW25753   3.746   3.458   4.370
 8285SOL    HW125754   3.823   3.394   4.381
 8285SOL    HW225755   3.775   3.550   4.395
 8286SOL     OW25756   6.931   1.752   6.516
 8286SOL    HW125757   6.838   1.721   6.537
 8286SOL    HW225758   6.928   1.825   6.448
 8287SOL     OW25759   1.068   5.772   4.293
 8287SOL    HW125760   1.125   5.767   4.375
 8287SOL    HW225761   1.123   5.801   4.215
 8288SOL     OW25762   2.927   2.123   3.152
 8288SOL    HW125763   2.879   2.199   3.108
 8288SOL    HW225764   2.876   2.039   3.139
 8289SOL     OW25765   0.056   5.966   6.825
 8289SOL    HW125766   0.018   6.009   6.907
 8289SOL    HW225767   7.008   5.967   6.753
 8290SOL     OW25768   6.563   2.862   0.722
 8290SOL    HW125769   6.587   2.955   0.749
 8290SOL    HW225770   6.644   2.803   0.731
 8291SOL     OW25771   3.960   6.575   1.112
 8291SOL    HW125772   3.967   6.587   1.013
 8291SOL    HW225773   3.894   6.640   1.149
 8292SOL     OW25774   2.768   6.586   6.375
 8292SOL    HW125775   2.688   6.642   6.352
 8292SOL    HW225776   2.777   6.512   6.309
 8293SOL     OW25777   5.345   5.556   4.933
 8293SOL    HW125778   5.266   5.616   4.946
 8293SOL    HW225779   5.323   5.465   4.967
 8294SOL     OW25780   5.641   2.430   0.120
 8294SOL    HW125781   5.664   2.434   0.023
 8294SOL    HW225782   5.684   2.507   0.168
 8295SOL     OW25783   4.952   4.034   0.330
 8295SOL    HW125784   4.948   4.118   0.383
 8295SOL    HW225785   4.977   4.055   0.235
 8296SOL     OW25786   1.057   5.394   6.754
 8296SOL    HW125787   1.061   5.493   6.769
 8296SOL    HW225788   1.065   5.347   6.841
 8297SOL     OW25789   0.715   2.467   3.300
 8297SOL    HW125790   0.623   2.502   3.319
 8297SOL    HW225791   0.752   2.514   3.220
 8298SOL     OW25792   4.645   1.459   1.819
 8298SOL    HW125793   4.677   1.547   1.854
 8298SOL    HW225794   4.546   1.452   1.832
 8299SOL     OW25795   6.556   2.212   1.261
 8299SOL    HW125796   6.625   2.234   1.330
 8299SOL    HW225797   6.601   2.204   1.171
 8300SOL     OW25798   0.753   4.395   3.555
 8300SOL    HW125799   0.768   4.298   3.535
 8300SOL    HW225800   0.660   4.421   3.531
 8301SOL     OW25801   3.309   2.982   6.813
 8301SOL    HW125802   3.246   3.057   6.833
 8301SOL    HW225803   3.358   3.002   6.728
 8302SOL     OW25804   5.457   5.747   6.108
 8302SOL    HW125805   5.544   5.741   6.061
 8302SOL    HW225806   5.446   5.667   6.168
 8303SOL     OW25807   0.349   0.543   5.508
 8303SOL    HW125808   0.356   0.476   5.582
 8303SOL    HW225809   0.426   0.532   5.445
 8304SOL     OW25810   0.215   3.473   6.708
 8304SOL    HW125811   0.170   3.504   6.624
 8304SOL    HW225812   0.309   3.445   6.687
 8305SOL     OW25813   3.362   6.140   3.476
 8305SOL    HW125814   3.349   6.041   3.466
 8305SOL    HW225815   3.309   6.173   3.553
 8306SOL     OW25816   0.846   3.297   4.022
 8306SOL    HW125817   0.809   3.207   3.997
 8306SOL    HW225818   0.919   3.286   4.089
 8307SOL     OW25819   2.840   5.825   0.927
 8307SOL    HW125820   2.873   5.850   1.018
 8307SOL    HW225821   2.812   5.729   0.927
 8308SOL     OW25822   3.736   6.731   3.047
 8308SOL    HW125823   3.703   6.638   3.063
 8308SOL    HW225824   3.820   6.729   2.993
 8309SOL     OW25825   5.016   5.962   2.287
 8309SOL    HW125826   5.095   6.016   2.260
 8309SOL    HW225827   5.023   5.870   2.248
 8310SOL     OW25828   6.822   4.614   0.254
 8310SOL    HW125829   6.829   4.594   0.352
 8310SOL    HW225830   6.853   4.535   0.202
 8311SOL     OW25831   6.359   0.103   0.398
 8311SOL    HW125832   6.374   0.011   0.361
 8311SOL    HW225833   6.274   0.104   0.450
 8312SOL     OW25834   5.268   6.388   1.553
 8312SOL    HW125835   5.295   6.292   1.544
 8312SOL    HW225836   5.168   6.395   1.545
 8313SOL     OW25837   3.353   1.321   3.021
 8313SOL    HW125838   3.338   1.389   2.949
 8313SOL    HW225839   3.305   1.237   2.998
 8314SOL     OW25840   6.673   6.850   3.615
 8314SOL    HW125841   6.712   6.863   3.524
 8314SOL    HW225842   6.612   6.927   3.636
 8315SOL     OW25843   4.984   4.777   6.307
 8315SOL    HW125844   4.948   4.701   6.361
 8315SOL    HW225845   5.081   4.789   6.328
 8316SOL     OW25846   2.108   5.507   6.882
 8316SOL    HW125847   2.162   5.575   6.833
 8316SOL    HW225848   2.012   5.535   6.884
 8317SOL     OW25849   2.257   4.490   2.326
 8317SOL    HW125850   2.217   4.519   2.413
 8317SOL    HW225851   2.202   4.525   2.250
 8318SOL     OW25852   3.649   1.241   5.443
 8318SOL    HW125853   3.577   1.268   5.379
 8318SOL    HW225854   3.624   1.269   5.536
 8319SOL     OW25855   3.579   0.502   4.703
 8319SOL    HW125856   3.487   0.465   4.691
 8319SOL    HW225857   3.587   0.541   4.795
 8320SOL     OW25858   3.809   4.439   1.638
 8320SOL    HW125859   3.794   4.359   1.696
 8320SOL    HW225860   3.906   4.460   1.633
 8321SOL     OW25861   0.634   0.697   1.313
 8321SOL    HW125862   0.597   0.788   1.331
 8321SOL    HW225863   0.567   0.628   1.342
 8322SOL     OW25864   5.995   6.659   0.209
 8322SOL    HW125865   6.040   6.652   0.298
 8322SOL    HW225866   6.049   6.612   0.140
 8323SOL     OW25867   1.611   2.082   1.440
 8323SOL    HW125868   1.634   1.985   1.435
 8323SOL    HW225869   1.694   2.136   1.450
 8324SOL     OW25870   6.933   1.368   1.933
 8324SOL    HW125871   6.860   1.366   2.001
 8324SOL    HW225872   7.009   1.311   1.963
 8325SOL     OW25873   3.244   2.958   3.568
 8325SOL    HW125874   3.206   3.047   3.594
 8325SOL    HW225875   3.241   2.897   3.647
 8326SOL     OW25876   3.604   3.328   5.762
 8326SOL    HW125877   3.577   3.309   5.856
 8326SOL    HW225878   3.604   3.427   5.746
 8327SOL     OW25879   4.896   1.734   5.956
 8327SOL    HW125880   4.806   1.742   5.913
 8327SOL    HW225881   4.887   1.751   6.054
 8328SOL     OW25882   2.588   2.421   5.385
 8328SOL    HW125883   2.676   2.459   5.413
 8328SOL    HW225884   2.601   2.358   5.309
 8329SOL     OW25885   0.128   2.827   5.259
 8329SOL    HW125886   0.177   2.867   5.182
 8329SOL    HW225887   0.059   2.763   5.224
 8330SOL     OW25888   3.199   6.842   7.010
 8330SOL    HW125889   3.105   6.817   6.987
 8330SOL    HW225890   3.226   6.795   0.073
 8331SOL     OW25891   2.455   0.170   1.164
 8331SOL    HW125892   2.493   0.183   1.256
 8331SOL    HW225893   2.439   0.259   1.122
 8332SOL     OW25894   4.938   5.917   2.752
 8332SOL    HW125895   4.947   6.008   2.712
 8332SOL    HW225896   4.988   5.913   2.838
 8333SOL     OW25897   0.747   5.856   6.159
 8333SOL    HW125898   0.710   5.893   6.074
 8333SOL    HW225899   0.834   5.810   6.141
 8334SOL     OW25900   5.927   1.097   3.591
 8334SOL    HW125901   5.992   1.117   3.517
 8334SOL    HW225902   5.961   1.136   3.676
 8335SOL     OW25903   5.560   6.987   5.842
 8335SOL    HW125904   5.630   0.038   5.836
 8335SOL    HW225905   5.495   6.997   5.768
 8336SOL     OW25906   0.334   2.182   2.397
 8336SOL    HW125907   0.241   2.219   2.393
 8336SOL    HW225908   0.399   2.256   2.412
 8337SOL     OW25909   0.416   6.224   2.661
 8337SOL    HW125910   0.394   6.197   2.568
 8337SOL    HW225911   0.333   6.251   2.710
 8338SOL     OW25912   1.777   4.750   0.558
 8338SOL    HW125913   1.790   4.791   0.648
 8338SOL    HW225914   1.727   4.813   0.499
 8339SOL     OW25915   5.480   1.340   2.740
 8339SOL    HW125916   5.445   1.247   2.752
 8339SOL    HW225917   5.568   1.337   2.692
 8340SOL     OW25918   4.616   3.319   0.331
 8340SOL    HW125919   4.593   3.230   0.290
 8340SOL    HW225920   4.713   3.338   0.315
 8341SOL     OW25921   1.973   0.085   1.103
 8341SOL    HW125922   1.904   0.029   1.149
 8341SOL    HW225923   2.064   0.047   1.121
 8342SOL     OW25924   4.390   1.020   1.076
 8342SOL    HW125925   4.436   1.091   1.023
 8342SOL    HW225926   4.368   1.055   1.167
 8343SOL     OW25927   1.749   5.306   6.033
 8343SOL    HW125928   1.707   5.289   6.122
 8343SOL    HW225929   1.830   5.364   6.044
 8344SOL     OW25930   3.903   0.042   5.391
 8344SOL    HW125931   3.961   6.991   5.428
 8344SOL    HW225932   3.950   0.130   5.399
 8345SOL     OW25933   6.391   1.355   2.323
 8345SOL    HW125934   6.323   1.389   2.387
 8345SOL    HW225935   6.478   1.402   2.337
 8346SOL     OW25936   3.454   5.250   1.614
 8346SOL    HW125937   3.535   5.194   1.633
 8346SOL    HW225938   3.413   5.219   1.528
 8347SOL     OW25939   3.681   5.465   4.012
 8347SOL    HW125940   3.617   5.401   4.054
 8347SOL    HW225941   3.673   5.461   3.913
 8348SOL     OW25942   1.621   0.397   0.316
 8348SOL    HW125943   1.708   0.382   0.269
 8348SOL    HW225944   1.633   0.464   0.390
 8349SOL     OW25945   5.932   5.331   1.937
 8349SOL    HW125946   5.912   5.420   1.897
 8349SOL    HW225947   6.029   5.309   1.925
 8350SOL     OW25948   6.567   0.582   5.103
 8350SOL    HW125949   6.581   0.600   5.200
 8350SOL    HW225950   6.475   0.547   5.088
 8351SOL     OW25951   2.986   6.328   2.502
 8351SOL    HW125952   3.058   6.389   2.467
 8351SOL    HW225953   2.963   6.260   2.432
 8352SOL     OW25954   6.820   6.705   1.409
 8352SOL    HW125955   6.835   6.613   1.374
 8352SOL    HW225956   6.792   6.700   1.505
 8353SOL     OW25957   0.229   3.815   2.362
 8353SOL    HW125958   0.291   3.747   2.322
 8353SOL    HW225959   0.207   3.884   2.293
 8354SOL     OW25960   2.329   1.024   0.458
 8354SOL    HW125961   2.422   1.042   0.489
 8354SOL    HW225962   2.332   0.967   0.376
 8355SOL     OW25963   3.156   1.055   0.430
 8355SOL    HW125964   3.168   1.122   0.357
 8355SOL    HW225965   3.066   1.012   0.422
 8356SOL     OW25966   2.136   5.265   0.050
 8356SOL    HW125967   2.135   5.344   7.011
 8356SOL    HW225968   2.123   5.182   7.017
 8357SOL     OW25969   4.954   5.379   4.372
 8357SOL    HW125970   4.931   5.464   4.325
 8357SOL    HW225971   4.936   5.302   4.310
 8358SOL     OW25972   2.215   2.405   5.759
 8358SOL    HW125973   2.290   2.470   5.769
 8358SOL    HW225974   2.235   2.342   5.683
 8359SOL     OW25975   4.475   4.921   3.861
 8359SOL    HW125976   4.464   5.018   3.882
 8359SOL    HW225977   4.405   4.893   3.796
 8360SOL     OW25978   4.832   0.455   3.665
 8360SOL    HW125979   4.873   0.404   3.741
 8360SOL    HW225980   4.903   0.488   3.604
 8361SOL     OW25981   1.863   0.715   3.233
 8361SOL    HW125982   1.864   0.649   3.159
 8361SOL    HW225983   1.920   0.681   3.309
 8362SOL     OW25984   2.472   3.082   0.371
 8362SOL    HW125985   2.455   3.052   0.465
 8362SOL    HW225986   2.391   3.064   0.316
 8363SOL     OW25987   6.975   3.225   0.734
 8363SOL    HW125988   6.916   3.305   0.725
 8363SOL    HW225989   0.000   3.208   0.647
 8364SOL     OW25990   6.524   4.300   3.733
 8364SOL    HW125991   6.580   4.294   3.650
 8364SOL    HW225992   6.457   4.374   3.724
 8365SOL     OW25993   2.014   3.482   5.894
 8365SOL    HW125994   2.095   3.521   5.850
 8365SOL    HW225995   2.030   3.474   5.992
 8366SOL     OW25996   3.089   6.690   2.966
 8366SOL    HW125997   3.068   6.787   2.976
 8366SOL    HW225998   3.116   6.671   2.871
 8367SOL     OW25999   5.385   5.684   3.870
 8367SOL    HW126000   5.399   5.632   3.954
 8367SOL    HW226001   5.427   5.636   3.793
 8368SOL     OW26002   2.853   5.152   6.817
 8368SOL    HW126003   2.781   5.098   6.773
 8368SOL    HW226004   2.942   5.110   6.800
 8369SOL     OW26005   2.307   1.420   1.365
 8369SOL    HW126006   2.224   1.465   1.399
 8369SOL    HW226007   2.308   1.325   1.397
 8370SOL     OW26008   1.450   1.351   6.688
 8370SOL    HW126009   1.453   1.331   6.785
 8370SOL    HW226010   1.368   1.311   6.647
 8371SOL     OW26011   1.905   3.281   0.682
 8371SOL    HW126012   1.979   3.334   0.724
 8371SOL    HW226013   1.884   3.202   0.740
 8372SOL     OW26014   0.293   0.448   1.890
 8372SOL    HW126015   0.203   0.460   1.849
 8372SOL    HW226016   0.363   0.476   1.824
 8373SOL     OW26017   1.552   6.690   5.151
 8373SOL    HW126018   1.580   6.783   5.131
 8373SOL    HW226019   1.525   6.684   5.248
 8374SOL     OW26020   6.533   0.001   6.427
 8374SOL    HW126021   6.602   0.073   6.440
 8374SOL    HW226022   6.517   6.976   6.514
 8375SOL     OW26023   3.654   0.717   6.521
 8375SOL    HW126024   3.724   0.782   6.493
 8375SOL    HW226025   3.658   0.636   6.462
 8376SOL     OW26026   3.885   0.233   4.853
 8376SOL    HW126027   3.866   0.308   4.790
 8376SOL    HW226028   3.802   0.210   4.904
 8377SOL     OW26029   5.693   4.269   0.619
 8377SOL    HW126030   5.724   4.202   0.686
 8377SOL    HW226031   5.629   4.226   0.555
 8378SOL     OW26032   4.802   3.036   3.690
 8378SOL    HW126033   4.815   3.031   3.590
 8378SOL    HW226034   4.781   2.945   3.725
 8379SOL     OW26035   5.627   2.310   1.656
 8379SOL    HW126036   5.603   2.229   1.710
 8379SOL    HW226037   5.714   2.293   1.608
 8380SOL     OW26038   5.006   1.805   3.249
 8380SOL    HW126039   5.051   1.890   3.277
 8380SOL    HW226040   5.006   1.798   3.150
 8381SOL     OW26041   1.873   5.149   4.433
 8381SOL    HW126042   1.897   5.196   4.518
 8381SOL    HW226043   1.894   5.208   4.355
 8382SOL     OW26044   1.113   3.133   2.137
 8382SOL    HW126045   1.069   3.210   2.182
 8382SOL    HW226046   1.103   3.051   2.194
 8383SOL     OW26047   3.536   2.081   6.538
 8383SOL    HW126048   3.620   2.030   6.553
 8383SOL    HW226049   3.458   2.019   6.539
 8384SOL     OW26050   0.804   6.404   1.497
 8384SOL    HW126051   0.897   6.372   1.479
 8384SOL    HW226052   0.808   6.491   1.548
 8385SOL     OW26053   4.436   2.232   0.972
 8385SOL    HW126054   4.370   2.164   1.002
 8385SOL    HW226055   4.460   2.292   1.049
 8386SOL     OW26056   1.441   4.577   2.503
 8386SOL    HW126057   1.496   4.602   2.424
 8386SOL    HW226058   1.481   4.496   2.547
 8387SOL     OW26059   0.465   1.808   1.162
 8387SOL    HW126060   0.419   1.840   1.079
 8387SOL    HW226061   0.445   1.871   1.238
 8388SOL     OW26062   1.045   0.073   2.453
 8388SOL    HW126063   1.008   7.005   2.431
 8388SOL    HW226064   1.065   0.123   2.369
 8389SOL     OW26065   5.052   2.645   2.501
 8389SOL    HW126066   4.954   2.628   2.510
 8389SOL    HW226067   5.101   2.558   2.493
 8390SOL     OW26068   5.426   1.760   5.828
 8390SOL    HW126069   5.508   1.815   5.846
 8390SOL    HW226070   5.404   1.764   5.730
 8391SOL     OW26071   6.601   6.947   1.561
 8391SOL    HW126072   6.607   7.016   1.633
 8391SOL    HW226073   6.641   6.983   1.477
 8392SOL     OW26074   4.889   3.016   5.392
 8392SOL    HW126075   4.851   3.061   5.312
 8392SOL    HW226076   4.964   3.071   5.430
 8393SOL     OW26077   5.136   0.081   1.584
 8393SOL    HW126078   5.063   0.125   1.635
 8393SOL    HW226079   5.204   0.045   1.647
 8394SOL     OW26080   5.713   3.047   2.014
 8394SOL    HW126081   5.801   3.002   2.024
 8394SOL    HW226082   5.678   3.073   2.104
 8395SOL     OW26083   2.149   1.216   4.917
 8395SOL    HW126084   2.076   1.167   4.870
 8395SOL    HW226085   2.237   1.173   4.895
 8396SOL     OW26086   4.485   5.702   4.320
 8396SOL    HW126087   4.415   5.652   4.371
 8396SOL    HW226088   4.556   5.732   4.382
 8397SOL     OW26089   6.020   1.048   2.892
 8397SOL    HW126090   5.980   1.138   2.876
 8397SOL    HW226091   6.022   1.029   2.990
 8398SOL     OW26092   4.760   2.093   6.272
 8398SOL    HW126093   4.858   2.110   6.261
 8398SOL    HW226094   4.717   2.174   6.311
 8399SOL     OW26095   0.441   4.680   1.199
 8399SOL    HW126096   0.485   4.604   1.247
 8399SOL    HW226097   0.381   4.644   1.127
 8400SOL     OW26098   1.646   1.613   4.921
 8400SOL    HW126099   1.704   1.690   4.895
 8400SOL    HW226100   1.589   1.639   4.999
 8401SOL     OW26101   2.559   6.677   5.676
 8401SOL    HW126102   2.519   6.662   5.767
 8401SOL    HW226103   2.571   6.776   5.662
 8402SOL     OW26104   3.524   0.812   6.036
 8402SOL    HW126105   3.596   0.770   6.092
 8402SOL    HW226106   3.566   0.872   5.968
 8403SOL     OW26107   5.797   4.245   4.485
 8403SOL    HW126108   5.786   4.284   4.393
 8403SOL    HW226109   5.809   4.146   4.478
 8404SOL     OW26110   0.843   1.786   6.543
 8404SOL    HW126111   0.768   1.760   6.482
 8404SOL    HW226112   0.926   1.804   6.489
 8405SOL     OW26113   4.441   0.328   6.032
 8405SOL    HW126114   4.523   0.373   5.996
 8405SOL    HW226115   4.372   0.324   5.960
 8406SOL     OW26116   5.299   0.419   6.174
 8406SOL    HW126117   5.370   0.359   6.139
 8406SOL    HW226118   5.262   0.382   6.260
 8407SOL     OW26119   3.428   0.004   4.211
 8407SOL    HW126120   3.389   6.944   4.168
 8407SOL    HW226121   3.424   7.016   4.310
 8408SOL     OW26122   3.850   1.451   1.385
 8408SOL    HW126123   3.890   1.471   1.295
 8408SOL    HW226124   3.835   1.353   1.393
 8409SOL     OW26125   4.459   2.401   1.909
 8409SOL    HW126126   4.401   2.396   1.991
 8409SOL    HW226127   4.401   2.413   1.828
 8410SOL     OW26128   6.835   1.815   1.893
 8410SOL    HW126129   6.750   1.763   1.902
 8410SOL    HW226130   6.913   1.753   1.903
 8411SOL     OW26131   1.461   6.327   0.516
 8411SOL    HW126132   1.490   6.383   0.594
 8411SOL    HW226133   1.422   6.387   0.446
 8412SOL     OW26134   2.691   2.063   6.501
 8412SOL    HW126135   2.608   2.075   6.556
 8412SOL    HW226136   2.684   2.116   6.417
 8413SOL     OW26137   4.294   5.526   4.411
 8413SOL    HW126138   4.350   5.529   4.494
 8413SOL    HW226139   4.202   5.558   4.432
 8414SOL     OW26140   0.940   0.235   1.623
 8414SOL    HW126141   1.004   0.253   1.548
 8414SOL    HW226142   0.932   0.317   1.681
 8415SOL     OW26143   2.633   1.417   5.591
 8415SOL    HW126144   2.557   1.354   5.610
 8415SOL    HW226145   2.617   1.463   5.504
 8416SOL     OW26146   6.669   1.765   5.769
 8416SOL    HW126147   6.741   1.829   5.799
 8416SOL    HW226148   6.624   1.802   5.688
 8417SOL     OW26149   1.239   3.526   5.648
 8417SOL    HW126150   1.276   3.456   5.709
 8417SOL    HW226151   1.292   3.610   5.657
 8418SOL     OW26152   0.688   6.134   2.293
 8418SOL    HW126153   0.630   6.070   2.242
 8418SOL    HW226154   0.639   6.220   2.305
 8419SOL     OW26155   4.634   1.933   4.185
 8419SOL    HW126156   4.573   1.945   4.107
 8419SOL    HW226157   4.674   1.841   4.182
 8420SOL     OW26158   3.355   0.434   1.720
 8420SOL    HW126159   3.444   0.414   1.679
 8420SOL    HW226160   3.283   0.411   1.655
 8421SOL     OW26161   4.696   6.683   6.440
 8421SOL    HW126162   4.723   6.606   6.382
 8421SOL    HW226163   4.763   6.696   6.513
 8422SOL     OW26164   5.152   2.561   3.439
 8422SOL    HW126165   5.246   2.593   3.450
 8422SOL    HW226166   5.089   2.625   3.485
 8423SOL     OW26167   6.830   4.886   6.882
 8423SOL    HW126168   6.824   4.917   6.977
 8423SOL    HW226169   6.788   4.955   6.823
 8424SOL     OW26170   3.128   0.523   4.635
 8424SOL    HW126171   3.168   0.614   4.643
 8424SOL    HW226172   3.195   0.454   4.662
 8425SOL     OW26173   3.562   4.156   2.034
 8425SOL    HW126174   3.657   4.127   2.020
 8425SOL    HW226175   3.559   4.235   2.095
 8426SOL     OW26176   3.982   3.029   1.977
 8426SOL    HW126177   4.045   3.038   1.900
 8426SOL    HW226178   3.897   2.986   1.946
 8427SOL     OW26179   3.501   3.873   3.858
 8427SOL    HW126180   3.458   3.826   3.935
 8427SOL    HW226181   3.484   3.971   3.865
 8428SOL     OW26182   5.980   6.694   1.669
 8428SOL    HW126183   5.888   6.661   1.689
 8428SOL    HW226184   6.032   6.622   1.623
 8429SOL     OW26185   3.012   5.669   5.325
 8429SOL    HW126186   2.985   5.759   5.290
 8429SOL    HW226187   2.944   5.601   5.299
 8430SOL     OW26188   4.882   0.334   5.059
 8430SOL    HW126189   4.791   0.301   5.085
 8430SOL    HW226190   4.885   0.433   5.065
 8431SOL     OW26191   2.116   3.663   5.675
 8431SOL    HW126192   2.186   3.721   5.633
 8431SOL    HW226193   2.049   3.720   5.722
 8432SOL     OW26194   6.444   4.847   5.882
 8432SOL    HW126195   6.467   4.762   5.835
 8432SOL    HW226196   6.347   4.869   5.865
 8433SOL     OW26197   5.260   2.302   0.941
 8433SOL    HW126198   5.257   2.204   0.960
 8433SOL    HW226199   5.220   2.352   1.017
 8434SOL     OW26200   2.996   5.611   4.820
 8434SOL    HW126201   2.902   5.588   4.792
 8434SOL    HW226202   3.052   5.528   4.820
 8435SOL     OW26203   5.387   1.678   3.086
 8435SOL    HW126204   5.451   1.751   3.064
 8435SOL    HW226205   5.309   1.682   3.025
 8436SOL     OW26206   2.138   5.807   2.316
 8436SOL    HW126207   2.113   5.813   2.412
 8436SOL    HW226208   2.145   5.710   2.290
 8437SOL     OW26209   1.072   4.980   2.124
 8437SOL    HW126210   1.171   4.972   2.108
 8437SOL    HW226211   1.042   5.073   2.101
 8438SOL     OW26212   0.682   3.825   2.627
 8438SOL    HW126213   0.719   3.886   2.557
 8438SOL    HW226214   0.739   3.829   2.709
 8439SOL     OW26215   5.933   4.685   2.786
 8439SOL    HW126216   5.870   4.668   2.862
 8439SOL    HW226217   5.882   4.719   2.707
 8440SOL     OW26218   1.774   1.994   2.697
 8440SOL    HW126219   1.804   2.082   2.661
 8440SOL    HW226220   1.715   2.009   2.777
 8441SOL     OW26221   6.770   1.507   5.727
 8441SOL    HW126222   6.763   1.606   5.732
 8441SOL    HW226223   6.860   1.482   5.690
 8442SOL     OW26224   3.754   1.704   6.339
 8442SOL    HW126225   3.674   1.758   6.313
 8442SOL    HW226226   3.795   1.743   6.422
 8443SOL     OW26227   1.433   4.101   3.049
 8443SOL    HW126228   1.481   4.015   3.067
 8443SOL    HW226229   1.481   4.152   2.978
 8444SOL     OW26230   5.497   5.000   5.198
 8444SOL    HW126231   5.596   4.988   5.195
 8444SOL    HW226232   5.474   5.067   5.269
 8445SOL     OW26233   4.310   6.215   6.466
 8445SOL    HW126234   4.332   6.285   6.398
 8445SOL    HW226235   4.280   6.259   6.551
 8446SOL     OW26236   6.900   5.368   4.802
 8446SOL    HW126237   6.912   5.380   4.901
 8446SOL    HW226238   6.808   5.395   4.776
 8447SOL     OW26239   4.400   2.109   3.542
 8447SOL    HW126240   4.385   2.023   3.493
 8447SOL    HW226241   4.496   2.135   3.535
 8448SOL     OW26242   3.082   6.104   3.305
 8448SOL    HW126243   3.103   6.006   3.297
 8448SOL    HW226244   3.018   6.130   3.233
 8449SOL     OW26245   1.926   2.299   3.177
 8449SOL    HW126246   1.828   2.281   3.172
 8449SOL    HW226247   1.971   2.258   3.097
 8450SOL     OW26248   0.082   1.391   6.646
 8450SOL    HW126249   0.061   1.429   6.556
 8450SOL    HW226250   0.003   1.402   6.707
 8451SOL     OW26251   4.276   2.446   0.788
 8451SOL    HW126252   4.271   2.426   0.690
 8451SOL    HW226253   4.367   2.423   0.822
 8452SOL     OW26254   4.983   1.817   5.710
 8452SOL    HW126255   4.922   1.787   5.783
 8452SOL    HW226256   4.994   1.743   5.643
 8453SOL     OW26257   6.614   6.155   0.452
 8453SOL    HW126258   6.526   6.151   0.406
 8453SOL    HW226259   6.683   6.190   0.389
 8454SOL     OW26260   6.596   4.081   7.016
 8454SOL    HW126261   6.577   4.179   7.013
 8454SOL    HW226262   6.604   4.046   6.923
 8455SOL     OW26263   6.880   1.436   2.665
 8455SOL    HW126264   6.951   1.471   2.727
 8455SOL    HW226265   6.820   1.375   2.716
 8456SOL     OW26266   6.679   0.293   3.312
 8456SOL    HW126267   6.637   0.202   3.308
 8456SOL    HW226268   6.659   0.335   3.400
 8457SOL     OW26269   6.966   6.868   5.322
 8457SOL    HW126270   6.996   6.860   5.417
 8457SOL    HW226271   6.871   6.900   5.320
 8458SOL     OW26272   0.759   0.113   6.486
 8458SOL    HW126273   0.773   0.201   6.441
 8458SOL    HW226274   0.662   0.102   6.507
 8459SOL     OW26275   1.476   6.580   3.625
 8459SOL    HW126276   1.433   6.535   3.703
 8459SOL    HW226277   1.407   6.599   3.555
 8460SOL     OW26278   3.530   4.153   3.410
 8460SOL    HW126279   3.494   4.223   3.471
 8460SOL    HW226280   3.613   4.113   3.450
 8461SOL     OW26281   6.736   3.507   4.161
 8461SOL    HW126282   6.728   3.445   4.082
 8461SOL    HW226283   6.647   3.548   4.180
 8462SOL     OW26284   2.585   2.930   1.696
 8462SOL    HW126285   2.635   2.990   1.758
 8462SOL    HW226286   2.486   2.940   1.712
 8463SOL     OW26287   5.115   0.892   2.271
 8463SOL    HW126288   5.162   0.867   2.355
 8463SOL    HW226289   5.119   0.816   2.206
 8464SOL     OW26290   6.483   1.681   4.995
 8464SOL    HW126291   6.389   1.648   4.991
 8464SOL    HW226292   6.489   1.759   5.057
 8465SOL     OW26293   1.483   2.151   6.947
 8465SOL    HW126294   1.554   2.089   6.979
 8465SOL    HW226295   1.417   2.101   6.891
 8466SOL     OW26296   0.525   6.813   3.953
 8466SOL    HW126297   0.593   6.885   3.940
 8466SOL    HW226298   0.459   6.816   3.877
 8467SOL     OW26299   3.589   5.369   1.099
 8467SOL    HW126300   3.526   5.293   1.085
 8467SOL    HW226301   3.639   5.356   1.185
 8468SOL     OW26302   4.383   2.533   0.455
 8468SOL    HW126303   4.374   2.440   0.419
 8468SOL    HW226304   4.306   2.589   0.425
 8469SOL     OW26305   4.073   2.604   6.791
 8469SOL    HW126306   3.976   2.586   6.807
 8469SOL    HW226307   4.125   2.519   6.805
 8470SOL     OW26308   1.602   3.249   6.840
 8470SOL    HW126309   1.579   3.344   6.817
 8470SOL    HW226310   1.526   3.208   6.889
 8471SOL     OW26311   4.991   1.184   4.042
 8471SOL    HW126312   4.985   1.085   4.046
 8471SOL    HW226313   4.901   1.222   4.017
 8472SOL     OW26314   1.279   0.278   2.834
 8472SOL    HW126315   1.179   0.284   2.835
 8472SOL    HW226316   1.313   0.263   2.926
 8473SOL     OW26317   6.381   5.436   6.649
 8473SOL    HW126318   6.374   5.455   6.747
 8473SOL    HW226319   6.303   5.380   6.621
 8474SOL     OW26320   3.904   5.215   0.493
 8474SOL    HW126321   3.827   5.240   0.435
 8474SOL    HW226322   3.870   5.188   0.583
 8475SOL     OW26323   4.406   1.496   3.178
 8475SOL    HW126324   4.486   1.447   3.213
 8475SOL    HW226325   4.323   1.456   3.215
 8476SOL     OW26326   4.405   0.682   2.543
 8476SOL    HW126327   4.453   0.660   2.628
 8476SOL    HW226328   4.424   0.777   2.518
 8477SOL     OW26329   2.485   0.508   2.193
 8477SOL    HW126330   2.422   0.438   2.160
 8477SOL    HW226331   2.440   0.562   2.264
 8478SOL     OW26332   1.591   0.349   5.524
 8478SOL    HW126333   1.537   0.308   5.598
 8478SOL    HW226334   1.529   0.385   5.454
 8479SOL     OW26335   5.026   1.590   2.472
 8479SOL    HW126336   5.005   1.588   2.375
 8479SOL    HW226337   5.079   1.509   2.497
 8480SOL     OW26338   1.139   1.518   1.323
 8480SOL    HW126339   1.083   1.493   1.243
 8480SOL    HW226340   1.097   1.595   1.370
 8481SOL     OW26341   4.601   0.295   5.123
 8481SOL    HW126342   4.507   0.326   5.110
 8481SOL    HW226343   4.627   0.235   5.046
 8482SOL     OW26344   0.357   0.296   2.143
 8482SOL    HW126345   0.359   0.330   2.049
 8482SOL    HW226346   0.398   0.365   2.204
 8483SOL     OW26347   4.954   6.279   2.265
 8483SOL    HW126348   5.028   6.309   2.204
 8483SOL    HW226349   4.986   6.279   2.359
 8484SOL     OW26350   0.627   4.287   4.475
 8484SOL    HW126351   0.685   4.211   4.444
 8484SOL    HW226352   0.661   4.321   4.562
 8485SOL     OW26353   2.528   3.712   5.807
 8485SOL    HW126354   2.469   3.660   5.745
 8485SOL    HW226355   2.551   3.654   5.886
 8486SOL     OW26356   3.983   0.424   2.391
 8486SOL    HW126357   3.999   0.511   2.438
 8486SOL    HW226358   3.897   0.384   2.423
 8487SOL     OW26359   4.816   0.151   1.302
 8487SOL    HW126360   4.723   0.125   1.274
 8487SOL    HW226361   4.824   0.251   1.301
 8488SOL     OW26362   5.388   3.202   4.872
 8488SOL    HW126363   5.425   3.274   4.931
 8488SOL    HW226364   5.445   3.120   4.880
 8489SOL     OW26365   4.149   5.507   2.613
 8489SOL    HW126366   4.196   5.468   2.692
 8489SOL    HW226367   4.075   5.445   2.584
 8490SOL     OW26368   3.620   5.367   2.523
 8490SOL    HW126369   3.547   5.336   2.584
 8490SOL    HW226370   3.630   5.302   2.447
 8491SOL     OW26371   1.385   1.069   2.041
 8491SOL    HW126372   1.302   1.020   2.014
 8491SOL    HW226373   1.386   1.159   1.999
 8492SOL     OW26374   5.325   3.810   4.327
 8492SOL    HW126375   5.279   3.732   4.369
 8492SOL    HW226376   5.413   3.825   4.373
 8493SOL     OW26377   3.368   2.005   0.998
 8493SOL    HW126378   3.450   2.050   1.035
 8493SOL    HW226379   3.288   2.061   1.017
 8494SOL     OW26380   3.609   5.610   0.167
 8494SOL    HW126381   3.523   5.570   0.198
 8494SOL    HW226382   3.593   5.664   0.085
 8495SOL     OW26383   0.594   2.566   0.244
 8495SOL    HW126384   0.638   2.493   0.297
 8495SOL    HW226385   0.664   2.628   0.208
 8496SOL     OW26386   6.601   2.185   2.983
 8496SOL    HW126387   6.621   2.173   3.081
 8496SOL    HW226388   6.685   2.211   2.936
 8497SOL     OW26389   6.231   4.974   3.693
 8497SOL    HW126390   6.287   4.924   3.627
 8497SOL    HW226391   6.242   5.072   3.679
 8498SOL     OW26392   6.566   0.989   0.720
 8498SOL    HW126393   6.622   0.929   0.777
 8498SOL    HW226394   6.570   1.082   0.756
 8499SOL     OW26395   2.699   4.134   5.982
 8499SOL    HW126396   2.750   4.048   5.969
 8499SOL    HW226397   2.740   4.205   5.925
 8500SOL     OW26398   3.397   0.532   6.089
 8500SOL    HW126399   3.361   0.623   6.067
 8500SOL    HW226400   3.368   0.506   6.181
 8501SOL     OW26401   2.671   4.485   6.066
 8501SOL    HW126402   2.740   4.511   6.133
 8501SOL    HW226403   2.609   4.418   6.106
 8502SOL     OW26404   0.450   0.026   2.031
 8502SOL    HW126405   0.444   0.126   2.026
 8502SOL    HW226406   0.454   7.019   2.126
 8503SOL     OW26407   3.161   6.159   2.737
 8503SOL    HW126408   3.071   6.152   2.694
 8503SOL    HW226409   3.159   6.230   2.808
 8504SOL     OW26410   1.172   5.509   3.618
 8504SOL    HW126411   1.198   5.497   3.714
 8504SOL    HW226412   1.202   5.598   3.586
 8505SOL     OW26413   4.789   2.960   4.184
 8505SOL    HW126414   4.805   3.058   4.177
 8505SOL    HW226415   4.706   2.936   4.133
 8506SOL     OW26416   0.542   6.279   0.783
 8506SOL    HW126417   0.510   6.190   0.816
 8506SOL    HW226418   0.640   6.273   0.761
 8507SOL     OW26419   1.688   0.327   4.601
 8507SOL    HW126420   1.755   0.362   4.666
 8507SOL    HW226421   1.612   0.285   4.651
 8508SOL     OW26422   1.116   2.903   6.379
 8508SOL    HW126423   1.089   2.890   6.475
 8508SOL    HW226424   1.036   2.928   6.325
 8509SOL     OW26425   6.183   2.269   4.664
 8509SOL    HW126426   6.086   2.272   4.639
 8509SOL    HW226427   6.197   2.315   4.751
 8510SOL     OW26428   5.049   0.175   2.544
 8510SOL    HW126429   5.136   0.204   2.504
 8510SOL    HW226430   5.005   0.252   2.589
 8511SOL     OW26431   6.773   4.810   1.882
 8511SOL    HW126432   6.709   4.843   1.813
 8511SOL    HW226433   6.769   4.869   1.963
 8512SOL     OW26434   4.058   2.572   0.856
 8512SOL    HW126435   4.143   2.525   0.830
 8512SOL    HW226436   4.068   2.670   0.840
 8513SOL     OW26437   0.424   4.432   1.584
 8513SOL    HW126438   0.454   4.337   1.575
 8513SOL    HW226439   0.467   4.472   1.665
 8514SOL     OW26440   2.536   2.217   5.845
 8514SOL    HW126441   2.489   2.129   5.845
 8514SOL    HW226442   2.630   2.205   5.813
 8515SOL     OW26443   1.855   0.748   0.622
 8515SOL    HW126444   1.874   0.845   0.638
 8515SOL    HW226445   1.917   0.713   0.552
 8516SOL     OW26446   5.323   2.442   3.830
 8516SOL    HW126447   5.237   2.420   3.876
 8516SOL    HW226448   5.350   2.536   3.852
 8517SOL     OW26449   1.870   1.694   6.341
 8517SOL    HW126450   1.911   1.667   6.428
 8517SOL    HW226451   1.874   1.794   6.333
 8518SOL     OW26452   5.481   4.826   6.852
 8518SOL    HW126453   5.539   4.763   6.904
 8518SOL    HW226454   5.402   4.777   6.815
 8519SOL     OW26455   0.775   2.939   1.079
 8519SOL    HW126456   0.736   3.015   1.027
 8519SOL    HW226457   0.821   2.876   1.017
 8520SOL     OW26458   3.805   3.930   6.009
 8520SOL    HW126459   3.831   3.905   5.916
 8520SOL    HW226460   3.886   3.952   6.062
 8521SOL     OW26461   1.950   6.209   5.334
 8521SOL    HW126462   2.019   6.245   5.271
 8521SOL    HW226463   1.950   6.263   5.418
 8522SOL     OW26464   0.555   0.046   0.350
 8522SOL    HW126465   0.600   6.985   0.314
 8522SOL    HW226466   0.612   0.126   0.331
 8523SOL     OW26467   3.692   1.646   0.207
 8523SOL    HW126468   3.705   1.744   0.216
 8523SOL    HW226469   3.594   1.626   0.202
 8524SOL     OW26470   2.516   5.399   4.920
 8524SOL    HW126471   2.537   5.312   4.967
 8524SOL    HW226472   2.467   5.380   4.835
 8525SOL     OW26473   5.960   4.275   2.068
 8525SOL    HW126474   6.027   4.280   1.994
 8525SOL    HW226475   5.969   4.188   2.116
 8526SOL     OW26476   0.462   4.530   0.643
 8526SOL    HW126477   0.558   4.545   0.619
 8526SOL    HW226478   0.421   4.615   0.675
 8527SOL     OW26479   2.871   0.636   5.440
 8527SOL    HW126480   2.871   0.642   5.539
 8527SOL    HW226481   2.889   0.726   5.400
 8528SOL     OW26482   5.163   0.813   0.382
 8528SOL    HW126483   5.261   0.833   0.388
 8528SOL    HW226484   5.111   0.897   0.396
 8529SOL     OW26485   0.957   6.229   6.717
 8529SOL    HW126486   0.868   6.229   6.672
 8529SOL    HW226487   1.029   6.215   6.649
 8530SOL     OW26488   3.132   4.010   3.282
 8530SOL    HW126489   3.134   4.027   3.380
 8530SOL    HW226490   3.193   4.074   3.236
 8531SOL     OW26491   6.941   5.137   4.451
 8531SOL    HW126492   6.990   5.216   4.488
 8531SOL    HW226493   6.997   5.055   4.462
 8532SOL     OW26494   3.002   4.685   6.630
 8532SOL    HW126495   2.991   4.597   6.583
 8532SOL    HW226496   2.916   4.711   6.674
 8533SOL     OW26497   2.721   6.727   5.470
 8533SOL    HW126498   2.817   6.722   5.495
 8533SOL    HW226499   2.664   6.695   5.546
 8534SOL     OW26500   2.291   2.376   3.371
 8534SOL    HW126501   2.291   2.276   3.364
 8534SOL    HW226502   2.233   2.403   3.448
 8535SOL     OW26503   6.670   0.249   2.630
 8535SOL    HW126504   6.606   0.222   2.702
 8535SOL    HW226505   6.693   0.346   2.641
 8536SOL     OW26506   0.613   1.534   4.753
 8536SOL    HW126507   0.631   1.624   4.793
 8536SOL    HW226508   0.589   1.470   4.826
 8537SOL     OW26509   6.590   1.154   2.608
 8537SOL    HW126510   6.490   1.155   2.613
 8537SOL    HW226511   6.628   1.138   2.699
 8538SOL     OW26512   0.938   2.588   0.258
 8538SOL    HW126513   1.006   2.524   0.221
 8538SOL    HW226514   0.883   2.541   0.327
 8539SOL     OW26515   5.457   2.950   2.452
 8539SOL    HW126516   5.371   2.901   2.466
 8539SOL    HW226517   5.442   3.048   2.466
 8540SOL     OW26518   3.566   0.367   0.481
 8540SOL    HW126519   3.485   0.406   0.437
 8540SOL    HW226520   3.570   0.269   0.461
 8541SOL     OW26521   2.041   2.548   4.414
 8541SOL    HW126522   1.991   2.599   4.484
 8541SOL    HW226523   2.129   2.593   4.397
 8542SOL     OW26524   3.232   4.827   0.739
 8542SOL    HW126525   3.221   4.789   0.647
 8542SOL    HW226526   3.154   4.887   0.759
 8543SOL     OW26527   2.225   2.213   6.367
 8543SOL    HW126528   2.143   2.219   6.310
 8543SOL    HW226529   2.297   2.271   6.327
 8544SOL     OW26530   6.175   2.683   3.583
 8544SOL    HW126531   6.213   2.750   3.520
 8544SOL    HW226532   6.093   2.721   3.626
 8545SOL     OW26533   4.334   6.609   4.699
 8545SOL    HW126534   4.265   6.537   4.709
 8545SOL    HW226535   4.305   6.672   4.627
 8546SOL     OW26536   4.519   2.159   6.521
 8546SOL    HW126537   4.476   2.213   6.449
 8546SOL    HW226538   4.530   2.216   6.603
 8547SOL     OW26539   0.954   4.369   2.810
 8547SOL    HW126540   0.964   4.301   2.737
 8547SOL    HW226541   0.997   4.455   2.782
 8548SOL     OW26542   6.297   1.553   5.278
 8548SOL    HW126543   6.396   1.553   5.295
 8548SOL    HW226544   6.279   1.564   5.181
 8549SOL     OW26545   5.241   2.990   5.140
 8549SOL    HW126546   5.268   3.071   5.088
 8549SOL    HW226547   5.269   3.000   5.235
 8550SOL     OW26548   1.056   4.365   6.414
 8550SOL    HW126549   1.136   4.315   6.381
 8550SOL    HW226550   1.076   4.462   6.418
 8551SOL     OW26551   2.895   4.136   1.154
 8551SOL    HW126552   2.938   4.148   1.244
 8551SOL    HW226553   2.955   4.080   1.096
 8552SOL     OW26554   3.145   6.706   4.412
 8552SOL    HW126555   3.050   6.682   4.434
 8552SOL    HW226556   3.156   6.710   4.313
 8553SOL     OW26557   6.180   4.997   6.885
 8553SOL    HW126558   6.193   4.986   6.787
 8553SOL    HW226559   6.234   5.075   6.917
 8554SOL     OW26560   6.048   3.865   6.502
 8554SOL    HW126561   6.082   3.812   6.580
 8554SOL    HW226562   5.952   3.887   6.516
 8555SOL     OW26563   1.429   6.633   4.027
 8555SOL    HW126564   1.500   6.684   3.979
 8555SOL    HW226565   1.469   6.554   4.072
 8556SOL     OW26566   6.135   0.338   4.101
 8556SOL    HW126567   6.075   0.272   4.056
 8556SOL    HW226568   6.119   0.335   4.199
 8557SOL     OW26569   6.949   0.847   0.105
 8557SOL    HW126570   0.007   0.901   0.135
 8557SOL    HW226571   6.874   0.860   0.170
 8558SOL     OW26572   0.903   5.747   2.169
 8558SOL    HW126573   0.968   5.794   2.228
 8558SOL    HW226574   0.941   5.658   2.142
 8559SOL     OW26575   0.362   1.570   5.845
 8559SOL    HW126576   0.328   1.654   5.888
 8559SOL    HW226577   0.432   1.592   5.777
 8560SOL     OW26578   6.600   2.503   6.121
 8560SOL    HW126579   6.567   2.589   6.082
 8560SOL    HW226580   6.630   2.519   6.215
 8561SOL     OW26581   5.227   6.580   5.510
 8561SOL    HW126582   5.207   6.538   5.422
 8561SOL    HW226583   5.191   6.674   5.511
 8562SOL     OW26584   3.712   0.001   4.210
 8562SOL    HW126585   3.619   0.034   4.189
 8562SOL    HW226586   3.707   6.943   4.270
 8563SOL     OW26587   3.132   2.905   6.551
 8563SOL    HW126588   3.069   2.875   6.479
 8563SOL    HW226589   3.080   2.936   6.631
 8564SOL     OW26590   6.879   6.316   3.959
 8564SOL    HW126591   6.968   6.311   3.915
 8564SOL    HW226592   6.810   6.273   3.901
 8565SOL     OW26593   3.719   0.394   1.779
 8565SOL    HW126594   3.651   0.418   1.848
 8565SOL    HW226595   3.714   0.296   1.760
 8566SOL     OW26596   2.034   3.876   3.363
 8566SOL    HW126597   1.970   3.813   3.407
 8566SOL    HW226598   2.058   3.948   3.428
 8567SOL     OW26599   5.259   6.048   0.514
 8567SOL    HW126600   5.285   6.024   0.421
 8567SOL    HW226601   5.196   6.126   0.513
 8568SOL     OW26602   5.377   1.073   6.989
 8568SOL    HW126603   5.396   1.167   6.962
 8568SOL    HW226604   5.317   1.073   0.048
 8569SOL     OW26605   3.994   1.189   5.637
 8569SOL    HW126606   4.018   1.170   5.542
 8569SOL    HW226607   3.964   1.284   5.646
 8570SOL     OW26608   0.394   4.102   6.577
 8570SOL    HW126609   0.346   4.141   6.655
 8570SOL    HW226610   0.430   4.012   6.601
 8571SOL     OW26611   6.935   4.444   4.657
 8571SOL    HW126612   0.001   4.451   4.706
 8571SOL    HW226613   6.952   4.446   4.559
 8572SOL     OW26614   3.057   5.061   5.759
 8572SOL    HW126615   3.027   4.977   5.714
 8572SOL    HW226616   3.105   5.119   5.693
 8573SOL     OW26617   4.273   5.822   4.518
 8573SOL    HW126618   4.271   5.888   4.443
 8573SOL    HW226619   4.195   5.759   4.508
 8574SOL     OW26620   0.311   3.707   4.662
 8574SOL    HW126621   0.373   3.696   4.585
 8574SOL    HW226622   0.252   3.786   4.646
 8575SOL     OW26623   2.654   3.511   6.359
 8575SOL    HW126624   2.739   3.519   6.411
 8575SOL    HW226625   2.674   3.495   6.263
 8576SOL     OW26626   1.558   0.245   1.358
 8576SOL    HW126627   1.639   0.205   1.401
 8576SOL    HW226628   1.587   0.308   1.286
 8577SOL     OW26629   6.685   5.482   3.670
 8577SOL    HW126630   6.625   5.402   3.662
 8577SOL    HW226631   6.775   5.453   3.701
 8578SOL     OW26632   4.739   6.843   3.480
 8578SOL    HW126633   4.717   6.940   3.484
 8578SOL    HW226634   4.672   6.791   3.533
 8579SOL     OW26635   0.544   5.202   2.982
 8579SOL    HW126636   0.607   5.260   3.034
 8579SOL    HW226637   0.517   5.250   2.898
 8580SOL     OW26638   3.095   4.621   6.094
 8580SOL    HW126639   3.194   4.631   6.106
 8580SOL    HW226640   3.063   4.691   6.030
 8581SOL     OW26641   3.465   2.916   0.318
 8581SOL    HW126642   3.493   2.997   0.266
 8581SOL    HW226643   3.416   2.945   0.400
 8582SOL     OW26644   4.379   4.114   1.185
 8582SOL    HW126645   4.307   4.162   1.135
 8582SOL    HW226646   4.355   4.109   1.282
 8583SOL     OW26647   5.214   0.374   5.185
 8583SOL    HW126648   5.121   0.348   5.160
 8583SOL    HW226649   5.219   0.473   5.198
 8584SOL     OW26650   0.640   5.428   6.650
 8584SOL    HW126651   0.619   5.345   6.701
 8584SOL    HW226652   0.729   5.419   6.606
 8585SOL     OW26653   0.946   1.216   1.131
 8585SOL    HW126654   0.878   1.217   1.058
 8585SOL    HW226655   0.974   1.310   1.151
 8586SOL     OW26656   4.082   5.341   4.209
 8586SOL    HW126657   4.169   5.367   4.252
 8586SOL    HW226658   4.050   5.416   4.151
 8587SOL     OW26659   6.872   2.252   1.658
 8587SOL    HW126660   6.858   2.153   1.652
 8587SOL    HW226661   6.919   2.274   1.743
 8588SOL     OW26662   3.965   2.233   0.558
 8588SOL    HW126663   3.939   2.185   0.474
 8588SOL    HW226664   3.882   2.251   0.612
 8589SOL     OW26665   2.853   1.605   4.617
 8589SOL    HW126666   2.776   1.541   4.620
 8589SOL    HW226667   2.852   1.662   4.699
 8590SOL     OW26668   6.322   5.426   5.431
 8590SOL    HW126669   6.243   5.458   5.483
 8590SOL    HW226670   6.296   5.346   5.376
 8591SOL     OW26671   0.641   2.947   0.211
 8591SOL    HW126672   0.711   3.019   0.204
 8591SOL    HW226673   0.674   2.864   0.166
 8592SOL     OW26674   6.500   5.853   6.223
 8592SOL    HW126675   6.471   5.776   6.167
 8592SOL    HW226676   6.420   5.902   6.257
 8593SOL     OW26677   0.379   6.340   3.631
 8593SOL    HW126678   0.329   6.372   3.711
 8593SOL    HW226679   0.369   6.406   3.557
 8594SOL     OW26680   2.943   3.340   3.426
 8594SOL    HW126681   2.890   3.347   3.511
 8594SOL    HW226682   2.942   3.429   3.379
 8595SOL     OW26683   1.972   2.915   1.664
 8595SOL    HW126684   2.008   2.888   1.753
 8595SOL    HW226685   1.960   3.014   1.661
 8596SOL     OW26686   6.791   4.412   2.453
 8596SOL    HW126687   6.828   4.496   2.492
 8596SOL    HW226688   6.691   4.410   2.466
 8597SOL     OW26689   2.400   1.960   0.552
 8597SOL    HW126690   2.402   2.053   0.517
 8597SOL    HW226691   2.308   1.921   0.539
 8598SOL     OW26692   5.122   4.020   1.359
 8598SOL    HW126693   5.208   4.020   1.410
 8598SOL    HW226694   5.057   3.957   1.404
 8599SOL     OW26695   0.850   3.358   1.443
 8599SOL    HW126696   0.907   3.421   1.389
 8599SOL    HW226697   0.859   3.266   1.406
 8600SOL     OW26698   6.354   3.488   5.834
 8600SOL    HW126699   6.359   3.411   5.898
 8600SOL    HW226700   6.382   3.572   5.880
 8601SOL     OW26701   0.315   0.602   4.984
 8601SOL    HW126702   0.395   0.555   5.022
 8601SOL    HW226703   0.239   0.597   5.048
 8602SOL     OW26704   1.963   5.885   2.139
 8602SOL    HW126705   1.981   5.935   2.055
 8602SOL    HW226706   2.049   5.872   2.189
 8603SOL     OW26707   4.522   3.670   1.642
 8603SOL    HW126708   4.557   3.689   1.550
 8603SOL    HW226709   4.465   3.587   1.640
 8604SOL     OW26710   5.632   1.986   2.731
 8604SOL    HW126711   5.698   2.043   2.781
 8604SOL    HW226712   5.625   2.019   2.637
 8605SOL     OW26713   2.865   6.018   2.065
 8605SOL    HW126714   2.926   6.024   2.143
 8605SOL    HW226715   2.832   5.924   2.055
 8606SOL     OW26716   4.295   5.527   5.721
 8606SOL    HW126717   4.202   5.553   5.694
 8606SOL    HW226718   4.294   5.488   5.813
 8607SOL     OW26719   2.904   5.862   1.586
 8607SOL    HW126720   2.877   5.787   1.526
 8607SOL    HW226721   2.894   5.834   1.681
 8608SOL     OW26722   6.002   6.514   2.190
 8608SOL    HW126723   5.937   6.441   2.209
 8608SOL    HW226724   6.017   6.568   2.273
 8609SOL     OW26725   4.173   0.788   6.615
 8609SOL    HW126726   4.137   0.700   6.646
 8609SOL    HW226727   4.212   0.778   6.524
 8610SOL     OW26728   6.987   6.650   4.688
 8610SOL    HW126729   0.019   6.568   4.669
 8610SOL    HW226730   6.982   6.664   4.787
 8611SOL     OW26731   1.268   1.990   3.160
 8611SOL    HW126732   1.311   2.045   3.231
 8611SOL    HW226733   1.236   2.049   3.086
 8612SOL     OW26734   4.744   2.915   4.800
 8612SOL    HW126735   4.689   2.969   4.864
 8612SOL    HW226736   4.819   2.871   4.850
 8613SOL     OW26737   1.553   1.599   6.996
 8613SOL    HW126738   1.509   1.519   6.956
 8613SOL    HW226739   1.619   1.570   0.044
 8614SOL     OW26740   1.287   1.115   3.799
 8614SOL    HW126741   1.235   1.169   3.733
 8614SOL    HW226742   1.365   1.168   3.833
 8615SOL     OW26743   4.432   2.203   5.217
 8615SOL    HW126744   4.337   2.227   5.237
 8615SOL    HW226745   4.446   2.201   5.118
 8616SOL     OW26746   1.311   2.973   0.120
 8616SOL    HW126747   1.372   2.894   0.113
 8616SOL    HW226748   1.365   3.056   0.131
 8617SOL     OW26749   6.224   3.110   1.196
 8617SOL    HW126750   6.232   3.189   1.135
 8617SOL    HW226751   6.137   3.115   1.245
 8618SOL     OW26752   4.297   0.797   3.068
 8618SOL    HW126753   4.375   0.841   3.023
 8618SOL    HW226754   4.224   0.863   3.082
 8619SOL     OW26755   4.484   5.577   0.884
 8619SOL    HW126756   4.422   5.506   0.852
 8619SOL    HW226757   4.483   5.653   0.820
 8620SOL     OW26758   6.841   6.452   3.013
 8620SOL    HW126759   6.833   6.542   3.056
 8620SOL    HW226760   6.760   6.435   2.957
 8621SOL     OW26761   5.554   0.703   3.030
 8621SOL    HW126762   5.537   0.674   3.125
 8621SOL    HW226763   5.631   0.767   3.028
 8622SOL     OW26764   5.348   5.412   6.975
 8622SOL    HW126765   5.344   5.455   0.044
 8622SOL    HW226766   5.383   5.477   6.908
 8623SOL     OW26767   6.059   2.396   2.878
 8623SOL    HW126768   6.136   2.432   2.825
 8623SOL    HW226769   5.980   2.456   2.865
 8624SOL     OW26770   0.099   4.067   4.296
 8624SOL    HW126771   0.109   4.037   4.201
 8624SOL    HW226772   0.003   4.091   4.313
 8625SOL     OW26773   3.443   0.896   6.528
 8625SOL    HW126774   3.491   0.973   6.486
 8625SOL    HW226775   3.499   0.813   6.520
 8626SOL     OW26776   3.665   3.233   2.198
 8626SOL    HW126777   3.635   3.186   2.115
 8626SOL    HW226778   3.584   3.265   2.249
 8627SOL     OW26779   2.505   6.970   6.534
 8627SOL    HW126780   2.461   6.924   6.611
 8627SOL    HW226781   2.599   6.994   6.559
 8628SOL     OW26782   5.808   0.994   6.989
 8628SOL    HW126783   5.725   0.938   6.996
 8628SOL    HW226784   5.784   1.090   6.979
 8629SOL     OW26785   1.706   5.143   3.934
 8629SOL    HW126786   1.715   5.138   4.034
 8629SOL    HW226787   1.784   5.194   3.897
 8630SOL     OW26788   5.679   4.485   3.981
 8630SOL    HW126789   5.653   4.418   4.050
 8630SOL    HW226790   5.635   4.572   4.001
 8631SOL     OW26791   4.448   6.236   3.793
 8631SOL    HW126792   4.390   6.166   3.751
 8631SOL    HW226793   4.539   6.198   3.811
 8632SOL     OW26794   3.939   0.552   3.395
 8632SOL    HW126795   3.989   0.590   3.473
 8632SOL    HW226796   3.959   0.606   3.313
 8633SOL     OW26797   6.096   0.395   3.558
 8633SOL    HW126798   6.057   0.384   3.467
 8633SOL    HW226799   6.195   0.405   3.551
 8634SOL     OW26800   6.303   5.746   1.760
 8634SOL    HW126801   6.238   5.749   1.835
 8634SOL    HW226802   6.383   5.803   1.781
 8635SOL     OW26803   6.025   3.698   5.635
 8635SOL    HW126804   5.950   3.721   5.574
 8635SOL    HW226805   6.062   3.608   5.610
 8636SOL     OW26806   5.438   5.758   0.103
 8636SOL    HW126807   5.490   5.712   0.174
 8636SOL    HW226808   5.429   5.698   0.023
 8637SOL     OW26809   1.607   0.547   1.470
 8637SOL    HW126810   1.519   0.514   1.506
 8637SOL    HW226811   1.681   0.493   1.510
 8638SOL     OW26812   4.928   5.225   0.886
 8638SOL    HW126813   4.888   5.134   0.897
 8638SOL    HW226814   4.855   5.292   0.870
 8639SOL     OW26815   6.451   2.967   1.802
 8639SOL    HW126816   6.387   2.930   1.734
 8639SOL    HW226817   6.413   2.954   1.893
 8640SOL     OW26818   5.194   6.347   1.266
 8640SOL    HW126819   5.250   6.277   1.223
 8640SOL    HW226820   5.252   6.424   1.293
 8641SOL     OW26821   5.268   4.816   3.457
 8641SOL    HW126822   5.262   4.752   3.533
 8641SOL    HW226823   5.251   4.909   3.490
 8642SOL     OW26824   4.658   1.518   1.515
 8642SOL    HW126825   4.654   1.616   1.537
 8642SOL    HW226826   4.674   1.466   1.599
 8643SOL     OW26827   4.291   0.803   6.867
 8643SOL    HW126828   4.357   0.878   6.869
 8643SOL    HW226829   4.239   0.807   6.782
 8644SOL     OW26830   6.577   3.642   5.433
 8644SOL    HW126831   6.631   3.661   5.515
 8644SOL    HW226832   6.502   3.707   5.427
 8645SOL     OW26833   5.967   4.620   1.830
 8645SOL    HW126834   5.969   4.603   1.929
 8645SOL    HW226835   5.881   4.588   1.792
 8646SOL     OW26836   5.377   0.086   1.084
 8646SOL    HW126837   5.444   0.054   1.017
 8646SOL    HW226838   5.324   0.161   1.044
 8647SOL     OW26839   4.690   4.781   1.788
 8647SOL    HW126840   4.785   4.759   1.809
 8647SOL    HW226841   4.646   4.704   1.742
 8648SOL     OW26842   5.507   1.845   4.598
 8648SOL    HW126843   5.507   1.757   4.646
 8648SOL    HW226844   5.587   1.850   4.538
 8649SOL     OW26845   0.531   4.628   5.815
 8649SOL    HW126846   0.496   4.628   5.721
 8649SOL    HW226847   0.581   4.543   5.831
 8650SOL     OW26848   0.741   4.667   1.865
 8650SOL    HW126849   0.648   4.691   1.892
 8650SOL    HW226850   0.737   4.604   1.787
 8651SOL     OW26851   3.320   2.478   0.988
 8651SOL    HW126852   3.373   2.496   1.071
 8651SOL    HW226853   3.346   2.542   0.916
 8652SOL     OW26854   1.416   3.079   3.971
 8652SOL    HW126855   1.498   3.128   3.999
 8652SOL    HW226856   1.441   2.992   3.929
 8653SOL     OW26857   6.198   3.205   6.367
 8653SOL    HW126858   6.205   3.140   6.291
 8653SOL    HW226859   6.118   3.183   6.423
 8654SOL     OW26860   6.980   6.037   2.765
 8654SOL    HW126861   6.953   6.128   2.797
 8654SOL    HW226862   0.007   5.989   2.837
 8655SOL     OW26863   6.127   6.070   3.579
 8655SOL    HW126864   6.031   6.064   3.607
 8655SOL    HW226865   6.170   6.149   3.623
 8656SOL     OW26866   6.645   1.869   1.410
 8656SOL    HW126867   6.692   1.874   1.498
 8656SOL    HW226868   6.689   1.930   1.345
 8657SOL     OW26869   3.225   4.022   0.864
 8657SOL    HW126870   3.161   4.099   0.868
 8657SOL    HW226871   3.313   4.053   0.829
 8658SOL     OW26872   0.390   5.244   7.004
 8658SOL    HW126873   0.339   5.158   6.999
 8658SOL    HW226874   0.472   5.238   6.947
 8659SOL     OW26875   4.457   0.621   3.854
 8659SOL    HW126876   4.550   0.585   3.864
 8659SOL    HW226877   4.392   0.545   3.854
 8660SOL     OW26878   5.331   4.637   0.714
 8660SOL    HW126879   5.330   4.706   0.642
 8660SOL    HW226880   5.418   4.589   0.713
 8661SOL     OW26881   6.308   3.654   1.415
 8661SOL    HW126882   6.209   3.669   1.421
 8661SOL    HW226883   6.343   3.629   1.505
 8662SOL     OW26884   6.992   0.884   0.533
 8662SOL    HW126885   0.055   0.847   0.572
 8662SOL    HW226886   7.006   0.979   0.507
 8663SOL     OW26887   2.065   6.139   0.634
 8663SOL    HW126888   2.140   6.171   0.692
 8663SOL    HW226889   2.082   6.167   0.539
 8664SOL     OW26890   4.438   5.160   1.568
 8664SOL    HW126891   4.369   5.223   1.602
 8664SOL    HW226892   4.528   5.202   1.574
 8665SOL     OW26893   4.858   5.170   4.948
 8665SOL    HW126894   4.844   5.146   4.852
 8665SOL    HW226895   4.900   5.261   4.953
 8666SOL     OW26896   5.835   3.537   4.511
 8666SOL    HW126897   5.849   3.542   4.412
 8666SOL    HW226898   5.788   3.452   4.534
 8667SOL     OW26899   5.157   2.381   3.030
 8667SOL    HW126900   5.178   2.324   3.109
 8667SOL    HW226901   5.235   2.380   2.966
 8668SOL     OW26902   3.316   1.410   4.166
 8668SOL    HW126903   3.389   1.424   4.098
 8668SOL    HW226904   3.343   1.337   4.229
 8669SOL     OW26905   4.485   0.013   5.689
 8669SOL    HW126906   4.526   6.970   5.624
 8669SOL    HW226907   4.498   6.999   5.782
 8670SOL     OW26908   4.134   4.735   3.450
 8670SOL    HW126909   4.105   4.658   3.506
 8670SOL    HW226910   4.201   4.704   3.382
 8671SOL     OW26911   5.876   6.207   2.860
 8671SOL    HW126912   5.933   6.189   2.780
 8671SOL    HW226913   5.847   6.303   2.858
 8672SOL     OW26914   3.377   5.005   5.556
 8672SOL    HW126915   3.346   4.967   5.643
 8672SOL    HW226916   3.362   4.938   5.483
 8673SOL     OW26917   5.561   1.884   0.535
 8673SOL    HW126918   5.559   1.786   0.554
 8673SOL    HW226919   5.637   1.905   0.474
 8674SOL     OW26920   0.631   0.588   2.463
 8674SOL    HW126921   0.596   0.623   2.550
 8674SOL    HW226922   0.718   0.630   2.442
 8675SOL     OW26923   1.840   2.274   2.609
 8675SOL    HW126924   1.929   2.301   2.646
 8675SOL    HW226925   1.767   2.326   2.655
 8676SOL     OW26926   4.820   0.071   3.579
 8676SOL    HW126927   4.898   0.120   3.540
 8676SOL    HW226928   4.735   0.120   3.556
 8677SOL     OW26929   2.197   4.471   5.058
 8677SOL    HW126930   2.112   4.516   5.086
 8677SOL    HW226931   2.241   4.430   5.138
 8678SOL     OW26932   1.386   0.853   6.067
 8678SOL    HW126933   1.380   0.917   5.990
 8678SOL    HW226934   1.456   0.785   6.048
 8679SOL     OW26935   6.753   2.651   5.108
 8679SOL    HW126936   6.743   2.566   5.058
 8679SOL    HW226937   6.667   2.673   5.155
 8680SOL     OW26938   1.052   3.622   0.651
 8680SOL    HW126939   1.071   3.526   0.634
 8680SOL    HW226940   1.138   3.673   0.658
 8681SOL     OW26941   4.205   3.631   1.233
 8681SOL    HW126942   4.241   3.579   1.155
 8681SOL    HW226943   4.281   3.667   1.287
 8682SOL     OW26944   2.099   5.879   2.966
 8682SOL    HW126945   2.152   5.819   2.906
 8682SOL    HW226946   2.089   5.969   2.924
 8683SOL     OW26947   5.979   3.201   6.531
 8683SOL    HW126948   6.021   3.238   6.613
 8683SOL    HW226949   5.895   3.251   6.510
 8684SOL     OW26950   6.305   2.823   4.490
 8684SOL    HW126951   6.367   2.861   4.421
 8684SOL    HW226952   6.266   2.897   4.545
 8685SOL     OW26953   0.370   2.118   5.185
 8685SOL    HW126954   0.334   2.210   5.173
 8685SOL    HW226955   0.461   2.123   5.227
 8686SOL     OW26956   6.486   1.943   3.663
 8686SOL    HW126957   6.386   1.942   3.659
 8686SOL    HW226958   6.522   1.858   3.624
 8687SOL     OW26959   3.972   0.815   2.792
 8687SOL    HW126960   4.029   0.733   2.794
 8687SOL    HW226961   3.882   0.792   2.754
 8688SOL     OW26962   1.933   6.743   2.224
 8688SOL    HW126963   1.842   6.746   2.264
 8688SOL    HW226964   1.996   6.799   2.278
 8689SOL     OW26965   4.586   5.444   0.510
 8689SOL    HW126966   4.671   5.407   0.473
 8689SOL    HW226967   4.599   5.541   0.533
 8690SOL     OW26968   1.192   0.891   2.710
 8690SOL    HW126969   1.252   0.875   2.632
 8690SOL    HW226970   1.209   0.981   2.749
 8691SOL     OW26971   6.089   1.589   0.589
 8691SOL    HW126972   6.059   1.520   0.654
 8691SOL    HW226973   6.086   1.551   0.497
 8692SOL     OW26974   1.707   1.622   4.032
 8692SOL    HW126975   1.793   1.601   4.079
 8692SOL    HW226976   1.694   1.721   4.030
 8693SOL     OW26977   5.470   1.948   6.926
 8693SOL    HW126978   5.448   2.044   6.944
 8693SOL    HW226979   5.533   1.915   6.997
 8694SOL     OW26980   3.925   6.292   6.517
 8694SOL    HW126981   3.840   6.315   6.470
 8694SOL    HW226982   3.917   6.201   6.558
 8695SOL     OW26983   4.522   4.211   5.266
 8695SOL    HW126984   4.429   4.181   5.245
 8695SOL    HW226985   4.581   4.132   5.277
 8696SOL     OW26986   1.653   5.356   1.089
 8696SOL    HW126987   1.718   5.397   1.025
 8696SOL    HW226988   1.700   5.334   1.175
 8697SOL     OW26989   5.672   4.645   6.964
 8697SOL    HW126990   5.727   4.600   6.893
 8697SOL    HW226991   5.639   4.576   0.007
 8698SOL     OW26992   5.915   6.219   4.425
 8698SOL    HW126993   5.998   6.162   4.419
 8698SOL    HW226994   5.868   6.200   4.511
 8699SOL     OW26995   1.386   1.402   5.253
 8699SOL    HW126996   1.293   1.438   5.258
 8699SOL    HW226997   1.448   1.474   5.223
 8700SOL     OW26998   2.188   1.915   6.443
 8700SOL    HW126999   2.278   1.875   6.427
 8700SOL    HW227000   2.171   1.988   6.377
 8701SOL     OW27001   1.159   1.962   4.206
 8701SOL    HW127002   1.062   1.942   4.193
 8701SOL    HW227003   1.195   1.903   4.279
 8702SOL     OW27004   5.364   5.713   6.806
 8702SOL    HW127005   5.276   5.728   6.760
 8702SOL    HW227006   5.398   5.800   6.842
 8703SOL     OW27007   1.791   5.762   1.202
 8703SOL    HW127008   1.808   5.694   1.273
 8703SOL    HW227009   1.875   5.813   1.183
 8704SOL     OW27010   0.516   4.056   1.806
 8704SOL    HW127011   0.458   4.067   1.725
 8704SOL    HW227012   0.459   4.053   1.888
 8705SOL     OW27013   5.378   6.647   4.926
 8705SOL    HW127014   5.324   6.565   4.945
 8705SOL    HW227015   5.426   6.675   5.010
 8706SOL     OW27016   5.058   2.268   6.061
 8706SOL    HW127017   5.055   2.191   5.997
 8706SOL    HW227018   5.099   2.237   6.147
 8707SOL     OW27019   4.669   2.431   5.815
 8707SOL    HW127020   4.698   2.516   5.771
 8707SOL    HW227021   4.657   2.360   5.745
 8708SOL     OW27022   3.835   1.528   0.801
 8708SOL    HW127023   3.835   1.429   0.812
 8708SOL    HW227024   3.850   1.572   0.889
 8709SOL     OW27025   6.295   3.540   1.162
 8709SOL    HW127026   6.392   3.565   1.156
 8709SOL    HW227027   6.255   3.584   1.242
 8710SOL     OW27028   0.324   2.976   3.404
 8710SOL    HW127029   0.268   2.955   3.324
 8710SOL    HW227030   0.272   2.955   3.487
 8711SOL     OW27031   0.759   1.669   4.142
 8711SOL    HW127032   0.689   1.656   4.212
 8711SOL    HW227033   0.721   1.719   4.064
 8712SOL     OW27034   3.582   1.246   5.983
 8712SOL    HW127035   3.585   1.270   5.886
 8712SOL    HW227036   3.675   1.230   6.016
 8713SOL     OW27037   6.055   5.014   2.676
 8713SOL    HW127038   5.971   5.068   2.684
 8713SOL    HW227039   6.079   4.975   2.765
 8714SOL     OW27040   1.626   1.141   4.761
 8714SOL    HW127041   1.655   1.236   4.757
 8714SOL    HW227042   1.642   1.097   4.672
 8715SOL     OW27043   6.171   1.273   1.858
 8715SOL    HW127044   6.148   1.362   1.819
 8715SOL    HW227045   6.231   1.285   1.937
 8716SOL     OW27046   1.347   1.880   1.569
 8716SOL    HW127047   1.363   1.895   1.667
 8716SOL    HW227048   1.432   1.849   1.527
 8717SOL     OW27049   3.953   3.112   0.856
 8717SOL    HW127050   3.943   3.144   0.761
 8717SOL    HW227051   3.895   3.167   0.916
 8718SOL     OW27052   0.084   3.191   6.054
 8718SOL    HW127053   0.077   3.112   6.115
 8718SOL    HW227054   0.059   3.164   5.961
 8719SOL     OW27055   6.840   0.854   5.921
 8719SOL    HW127056   6.906   0.908   5.869
 8719SOL    HW227057   6.790   0.914   5.983
 8720SOL     OW27058   4.892   3.831   5.968
 8720SOL    HW127059   4.857   3.749   6.014
 8720SOL    HW227060   4.819   3.899   5.962
 8721SOL     OW27061   6.918   1.684   4.391
 8721SOL    HW127062   6.943   1.643   4.304
 8721SOL    HW227063   6.979   1.761   4.410
 8722SOL     OW27064   3.242   2.801   0.682
 8722SOL    HW127065   3.263   2.822   0.777
 8722SOL    HW227066   3.256   2.703   0.666
 8723SOL     OW27067   0.043   5.077   0.091
 8723SOL    HW127068   0.096   5.005   0.048
 8723SOL    HW227069   7.007   5.122   0.023
 8724SOL     OW27070   5.383   5.960   6.893
 8724SOL    HW127071   5.364   6.054   6.866
 8724SOL    HW227072   5.406   5.958   6.991
 8725SOL     OW27073   2.032   6.081   1.077
 8725SOL    HW127074   2.039   5.993   1.124
 8725SOL    HW227075   2.006   6.066   0.981
 8726SOL     OW27076   5.018   0.625   1.263
 8726SOL    HW127077   5.031   0.707   1.319
 8726SOL    HW227078   5.023   0.651   1.166
 8727SOL     OW27079   6.096   5.781   0.604
 8727SOL    HW127080   6.095   5.681   0.593
 8727SOL    HW227081   6.120   5.803   0.698
 8728SOL     OW27082   2.267   6.698   5.659
 8728SOL    HW127083   2.338   6.694   5.729
 8728SOL    HW227084   2.226   6.608   5.649
 8729SOL     OW27085   5.689   6.627   4.370
 8729SOL    HW127086   5.602   6.659   4.335
 8729SOL    HW227087   5.676   6.589   4.462
 8730SOL     OW27088   6.903   0.156   1.212
 8730SOL    HW127089   6.949   0.084   1.161
 8730SOL    HW227090   6.854   0.116   1.290
 8731SOL     OW27091   1.133   1.581   2.546
 8731SOL    HW127092   1.143   1.667   2.496
 8731SOL    HW227093   1.046   1.538   2.522
 8732SOL     OW27094   5.933   4.894   1.787
 8732SOL    HW127095   5.932   4.800   1.821
 8732SOL    HW227096   5.898   4.955   1.858
 8733SOL     OW27097   0.028   6.580   1.610
 8733SOL    HW127098   6.954   6.609   1.616
 8733SOL    HW227099   0.079   6.620   1.686
 8734SOL     OW27100   6.693   5.111   0.224
 8734SOL    HW127101   6.631   5.122   0.302
 8734SOL    HW227102   6.725   5.016   0.221
 8735SOL     OW27103   6.794   2.269   0.003
 8735SOL    HW127104   6.828   2.206   6.954
 8735SOL    HW227105   6.837   2.248   0.090
 8736SOL     OW27106   0.536   4.859   6.489
 8736SOL    HW127107   0.576   4.862   6.397
 8736SOL    HW227108   0.540   4.950   6.530
 8737SOL     OW27109   3.704   5.888   6.698
 8737SOL    HW127110   3.733   5.958   6.764
 8737SOL    HW227111   3.644   5.930   6.630
 8738SOL     OW27112   1.627   3.610   4.893
 8738SOL    HW127113   1.544   3.666   4.886
 8738SOL    HW227114   1.707   3.668   4.878
 8739SOL     OW27115   1.476   2.912   5.065
 8739SOL    HW127116   1.432   3.002   5.068
 8739SOL    HW227117   1.571   2.923   5.034
 8740SOL     OW27118   1.731   6.490   1.359
 8740SOL    HW127119   1.778   6.512   1.445
 8740SOL    HW227120   1.769   6.406   1.321
 8741SOL     OW27121   1.266   3.514   2.046
 8741SOL    HW127122   1.298   3.424   2.076
 8741SOL    HW227123   1.300   3.583   2.110
 8742SOL     OW27124   4.820   6.730   2.049
 8742SOL    HW127125   4.876   6.746   2.130
 8742SOL    HW227126   4.822   6.632   2.027
 8743SOL     OW27127   2.404   4.534   3.398
 8743SOL    HW127128   2.312   4.566   3.378
 8743SOL    HW227129   2.413   4.515   3.495
 8744SOL     OW27130   3.041   3.256   5.761
 8744SOL    HW127131   3.056   3.351   5.735
 8744SOL    HW227132   3.095   3.235   5.843
 8745SOL     OW27133   6.637   1.906   6.993
 8745SOL    HW127134   6.598   1.994   0.000
 8745SOL    HW227135   6.565   1.836   6.995
 8746SOL     OW27136   5.071   4.142   5.469
 8746SOL    HW127137   4.988   4.197   5.461
 8746SOL    HW227138   5.081   4.084   5.389
 8747SOL     OW27139   1.693   2.915   3.914
 8747SOL    HW127140   1.715   3.007   3.946
 8747SOL    HW227141   1.614   2.919   3.853
 8748SOL     OW27142   2.936   0.514   0.041
 8748SOL    HW127143   2.925   0.582   6.989
 8748SOL    HW227144   3.019   0.461   0.025
 8749SOL     OW27145   4.085   1.381   4.032
 8749SOL    HW127146   4.022   1.340   3.965
 8749SOL    HW227147   4.053   1.361   4.124
 8750SOL     OW27148   2.260   0.540   5.336
 8750SOL    HW127149   2.264   0.507   5.430
 8750SOL    HW227150   2.325   0.616   5.325
 8751SOL     OW27151   2.271   0.185   3.204
 8751SOL    HW127152   2.305   0.103   3.157
 8751SOL    HW227153   2.300   0.267   3.153
 8752SOL     OW27154   2.082   2.659   6.489
 8752SOL    HW127155   2.119   2.733   6.545
 8752SOL    HW227156   1.987   2.678   6.466
 8753SOL     OW27157   5.872   1.324   4.940
 8753SOL    HW127158   5.939   1.283   5.002
 8753SOL    HW227159   5.913   1.401   4.893
 8754SOL     OW27160   2.021   0.915   5.296
 8754SOL    HW127161   2.085   0.965   5.238
 8754SOL    HW227162   2.026   0.817   5.276
 8755SOL     OW27163   2.364   2.216   0.462
 8755SOL    HW127164   2.407   2.301   0.430
 8755SOL    HW227165   2.288   2.238   0.523
 8756SOL     OW27166   2.128   3.193   3.949
 8756SOL    HW127167   2.102   3.142   3.867
 8756SOL    HW227168   2.194   3.140   4.002
 8757SOL     OW27169   5.067   5.743   4.457
 8757SOL    HW127170   5.101   5.711   4.545
 8757SOL    HW227171   5.059   5.843   4.459
 8758SOL     OW27172   5.110   6.333   2.041
 8758SOL    HW127173   5.147   6.274   1.969
 8758SOL    HW227174   5.123   6.429   2.014
 8759SOL     OW27175   5.180   1.409   5.686
 8759SOL    HW127176   5.125   1.459   5.753
 8759SOL    HW227177   5.250   1.356   5.733
 8760SOL     OW27178   1.951   2.960   3.766
 8760SOL    HW127179   1.864   2.918   3.792
 8760SOL    HW227180   2.026   2.897   3.787
 8761SOL     OW27181   4.856   6.394   0.631
 8761SOL    HW127182   4.785   6.337   0.589
 8761SOL    HW227183   4.861   6.481   0.581
 8762SOL     OW27184   1.101   4.260   0.358
 8762SOL    HW127185   1.058   4.212   0.434
 8762SOL    HW227186   1.075   4.215   0.272
 8763SOL     OW27187   6.972   6.076   5.726
 8763SOL    HW127188   0.013   6.008   5.687
 8763SOL    HW227189   0.002   6.154   5.759
 8764SOL     OW27190   3.254   2.106   5.321
 8764SOL    HW127191   3.227   2.181   5.261
 8764SOL    HW227192   3.187   2.032   5.314
 8765SOL     OW27193   0.172   0.284   5.274
 8765SOL    HW127194   0.255   0.251   5.228
 8765SOL    HW227195   0.141   0.368   5.230
 8766SOL     OW27196   2.486   4.475   2.494
 8766SOL    HW127197   2.417   4.454   2.424
 8766SOL    HW227198   2.553   4.538   2.456
 8767SOL     OW27199   5.086   1.561   4.686
 8767SOL    HW127200   5.055   1.578   4.780
 8767SOL    HW227201   5.119   1.646   4.645
 8768SOL     OW27202   1.617   4.247   6.751
 8768SOL    HW127203   1.581   4.214   6.838
 8768SOL    HW227204   1.543   4.255   6.684
 8769SOL     OW27205   2.606   0.598   5.515
 8769SOL    HW127206   2.564   0.552   5.594
 8769SOL    HW227207   2.705   0.596   5.524
 8770SOL     OW27208   5.321   2.058   2.021
 8770SOL    HW127209   5.281   2.117   2.091
 8770SOL    HW227210   5.419   2.047   2.040
 8771SOL     OW27211   2.235   2.568   6.274
 8771SOL    HW127212   2.182   2.615   6.345
 8771SOL    HW227213   2.295   2.634   6.229
 8772SOL     OW27214   5.930   6.126   6.499
 8772SOL    HW127215   5.927   6.030   6.472
 8772SOL    HW227216   5.961   6.181   6.421
 8773SOL     OW27217   3.332   2.094   3.285
 8773SOL    HW127218   3.254   2.121   3.341
 8773SOL    HW227219   3.409   2.070   3.344
 8774SOL     OW27220   1.360   1.078   0.168
 8774SOL    HW127221   1.401   1.168   0.156
 8774SOL    HW227222   1.428   1.014   0.204
 8775SOL     OW27223   6.698   6.748   4.022
 8775SOL    HW127224   6.627   6.748   3.951
 8775SOL    HW227225   6.668   6.802   4.100
 8776SOL     OW27226   2.886   3.633   4.784
 8776SOL    HW127227   2.847   3.541   4.786
 8776SOL    HW227228   2.912   3.657   4.691
 8777SOL     OW27229   6.689   5.681   2.361
 8777SOL    HW127230   6.607   5.649   2.409
 8777SOL    HW227231   6.700   5.780   2.376
 8778SOL     OW27232   0.779   1.986   3.278
 8778SOL    HW127233   0.757   1.963   3.373
 8778SOL    HW227234   0.843   1.918   3.242
 8779SOL     OW27235   1.541   4.704   1.239
 8779SOL    HW127236   1.537   4.743   1.331
 8779SOL    HW227237   1.498   4.614   1.238
 8780SOL     OW27238   2.360   5.830   4.560
 8780SOL    HW127239   2.447   5.833   4.511
 8780SOL    HW227240   2.310   5.748   4.534
 8781SOL     OW27241   0.833   2.360   2.672
 8781SOL    HW127242   0.829   2.323   2.579
 8781SOL    HW227243   0.904   2.430   2.677
 8782SOL     OW27244   4.991   1.442   3.119
 8782SOL    HW127245   5.010   1.489   3.205
 8782SOL    HW227246   4.927   1.368   3.135
 8783SOL     OW27247   5.295   2.384   5.390
 8783SOL    HW127248   5.222   2.425   5.443
 8783SOL    HW227249   5.304   2.287   5.413
 8784SOL     OW27250   5.525   3.944   5.937
 8784SOL    HW127251   5.480   3.890   5.867
 8784SOL    HW227252   5.519   3.896   6.025
 8785SOL     OW27253   5.147   5.226   6.450
 8785SOL    HW127254   5.187   5.266   6.533
 8785SOL    HW227255   5.216   5.172   6.403
 8786SOL     OW27256   1.322   6.472   0.305
 8786SOL    HW127257   1.413   6.497   0.272
 8786SOL    HW227258   1.301   6.378   0.279
 8787SOL     OW27259   1.533   2.784   0.199
 8787SOL    HW127260   1.496   2.693   0.218
 8787SOL    HW227261   1.582   2.783   0.112
 8788SOL     OW27262   1.131   1.504   5.243
 8788SOL    HW127263   1.088   1.419   5.275
 8788SOL    HW227264   1.079   1.541   5.166
 8789SOL     OW27265   0.329   0.290   6.408
 8789SOL    HW127266   0.341   0.365   6.343
 8789SOL    HW227267   0.261   0.316   6.477
 8790SOL     OW27268   4.718   1.205   0.217
 8790SOL    HW127269   4.751   1.126   0.271
 8790SOL    HW227270   4.715   1.180   0.120
 8791SOL     OW27271   4.442   6.459   5.041
 8791SOL    HW127272   4.525   6.509   5.066
 8791SOL    HW227273   4.365   6.522   5.035
 8792SOL     OW27274   5.360   0.001   2.927
 8792SOL    HW127275   5.262   0.011   2.913
 8792SOL    HW227276   5.382   6.927   2.947
 8793SOL     OW27277   1.140   4.110   3.911
 8793SOL    HW127278   1.227   4.145   3.877
 8793SOL    HW227279   1.156   4.028   3.966
 8794SOL     OW27280   2.342   6.074   2.708
 8794SOL    HW127281   2.404   6.041   2.779
 8794SOL    HW227282   2.341   6.174   2.710
 8795SOL     OW27283   1.921   6.083   5.078
 8795SOL    HW127284   1.996   6.037   5.031
 8795SOL    HW227285   1.955   6.127   5.161
 8796SOL     OW27286   5.754   2.838   5.448
 8796SOL    HW127287   5.720   2.863   5.538
 8796SOL    HW227288   5.816   2.908   5.414
 8797SOL     OW27289   0.496   6.836   6.596
 8797SOL    HW127290   0.485   6.890   6.679
 8797SOL    HW227291   0.411   6.840   6.542
 8798SOL     OW27292   3.908   3.551   5.917
 8798SOL    HW127293   3.977   3.542   5.988
 8798SOL    HW227294   3.949   3.593   5.836
 8799SOL     OW27295   3.834   6.754   2.447
 8799SOL    HW127296   3.767   6.684   2.470
 8799SOL    HW227297   3.789   6.843   2.439
 8800SOL     OW27298   4.407   5.162   0.287
 8800SOL    HW127299   4.375   5.253   0.312
 8800SOL    HW227300   4.418   5.106   0.370
 8801SOL     OW27301   3.150   6.666   5.173
 8801SOL    HW127302   3.143   6.765   5.157
 8801SOL    HW227303   3.246   6.641   5.181
 8802SOL     OW27304   2.256   6.774   2.064
 8802SOL    HW127305   2.200   6.692   2.075
 8802SOL    HW227306   2.261   6.797   1.967
 8803SOL     OW27307   3.615   6.135   0.587
 8803SOL    HW127308   3.637   6.228   0.617
 8803SOL    HW227309   3.564   6.088   0.660
 8804SOL     OW27310   3.396   0.397   0.847
 8804SOL    HW127311   3.372   0.464   0.777
 8804SOL    HW227312   3.471   0.432   0.903
 8805SOL     OW27313   0.396   0.432   3.100
 8805SOL    HW127314   0.313   0.383   3.126
 8805SOL    HW227315   0.465   0.420   3.171
 8806SOL     OW27316   2.479   4.946   0.462
 8806SOL    HW127317   2.438   4.967   0.551
 8806SOL    HW227318   2.577   4.966   0.466
 8807SOL     OW27319   1.991   6.335   6.396
 8807SOL    HW127320   1.927   6.406   6.369
 8807SOL    HW227321   1.983   6.257   6.334
 8808SOL     OW27322   6.038   1.562   1.097
 8808SOL    HW127323   6.131   1.593   1.116
 8808SOL    HW227324   5.997   1.621   1.028
 8809SOL     OW27325   6.036   4.435   0.834
 8809SOL    HW127326   6.045   4.368   0.908
 8809SOL    HW227327   6.024   4.526   0.873
 8810SOL     OW27328   5.560   1.571   3.484
 8810SOL    HW127329   5.641   1.610   3.528
 8810SOL    HW227330   5.541   1.482   3.524
 8811SOL     OW27331   1.455   1.492   3.994
 8811SOL    HW127332   1.515   1.571   4.007
 8811SOL    HW227333   1.480   1.421   4.060
 8812SOL     OW27334   1.789   0.976   0.326
 8812SOL    HW127335   1.697   0.940   0.344
 8812SOL    HW227336   1.834   0.920   0.257
 8813SOL     OW27337   1.109   5.626   0.875
 8813SOL    HW127338   1.177   5.556   0.852
 8813SOL    HW227339   1.145   5.716   0.851
 8814SOL     OW27340   5.470   6.509   6.950
 8814SOL    HW127341   5.479   6.527   6.852
 8814SOL    HW227342   5.556   6.474   6.986
 8815SOL     OW27343   6.842   5.616   2.922
 8815SOL    HW127344   6.800   5.651   2.838
 8815SOL    HW227345   6.779   5.627   2.998
 8816SOL     OW27346   1.028   6.426   1.718
 8816SOL    HW127347   1.121   6.418   1.682
 8816SOL    HW227348   0.993   6.334   1.737
 8817SOL     OW27349   2.685   4.438   5.303
 8817SOL    HW127350   2.766   4.461   5.249
 8817SOL    HW227351   2.622   4.516   5.304
 8818SOL     OW27352   0.127   5.284   4.772
 8818SOL    HW127353   0.040   5.331   4.761
 8818SOL    HW227354   0.167   5.309   4.861
 8819SOL     OW27355   5.435   0.349   3.556
 8819SOL    HW127356   5.448   0.251   3.546
 8819SOL    HW227357   5.338   0.371   3.546
 8820SOL     OW27358   1.399   2.509   4.105
 8820SOL    HW127359   1.304   2.512   4.135
 8820SOL    HW227360   1.440   2.600   4.114
 8821SOL     OW27361   1.683   0.180   6.614
 8821SOL    HW127362   1.623   0.249   6.654
 8821SOL    HW227363   1.734   0.134   6.687
 8822SOL     OW27364   0.522   1.722   3.813
 8822SOL    HW127365   0.507   1.749   3.907
 8822SOL    HW227366   0.466   1.641   3.792
 8823SOL     OW27367   2.526   4.937   2.175
 8823SOL    HW127368   2.591   4.900   2.108
 8823SOL    HW227369   2.443   4.881   2.176
 8824SOL     OW27370   4.669   3.929   0.724
 8824SOL    HW127371   4.706   3.849   0.677
 8824SOL    HW227372   4.681   3.918   0.823
 8825SOL     OW27373   1.777   2.407   1.085
 8825SOL    HW127374   1.841   2.377   1.155
 8825SOL    HW227375   1.703   2.459   1.128
 8826SOL     OW27376   5.596   0.587   0.381
 8826SOL    HW127377   5.511   0.535   0.392
 8826SOL    HW227378   5.656   0.568   0.459
 8827SOL     OW27379   0.508   1.399   3.546
 8827SOL    HW127380   0.594   1.376   3.499
 8827SOL    HW227381   0.431   1.369   3.490
 8828SOL     OW27382   1.465   6.361   2.736
 8828SOL    HW127383   1.376   6.387   2.775
 8828SOL    HW227384   1.499   6.435   2.679
 8829SOL     OW27385   0.749   1.417   0.229
 8829SOL    HW127386   0.681   1.458   0.168
 8829SOL    HW227387   0.755   1.471   0.312
 8830SOL     OW27388   1.151   1.798   0.761
 8830SOL    HW127389   1.130   1.870   0.695
 8830SOL    HW227390   1.151   1.709   0.715
 8831SOL     OW27391   0.016   1.056   2.141
 8831SOL    HW127392   0.044   1.149   2.121
 8831SOL    HW227393   0.046   1.031   2.233
 8832SOL     OW27394   0.015   0.928   2.430
 8832SOL    HW127395   0.062   0.965   2.510
 8832SOL    HW227396   6.939   0.952   2.434
 8833SOL     OW27397   1.406   4.652   3.404
 8833SOL    HW127398   1.448   4.573   3.359
 8833SOL    HW227399   1.343   4.697   3.342
 8834SOL     OW27400   5.951   3.775   4.138
 8834SOL    HW127401   5.863   3.747   4.178
 8834SOL    HW227402   6.001   3.694   4.107
 8835SOL     OW27403   0.399   0.608   6.374
 8835SOL    HW127404   0.413   0.654   6.461
 8835SOL    HW227405   0.402   0.675   6.300
 8836SOL     OW27406   5.075   1.529   1.243
 8836SOL    HW127407   4.977   1.513   1.252
 8836SOL    HW227408   5.101   1.525   1.147
 8837SOL     OW27409   0.774   1.774   2.483
 8837SOL    HW127410   0.859   1.814   2.516
 8837SOL    HW227411   0.792   1.720   2.401
 8838SOL     OW27412   2.305   6.000   3.393
 8838SOL    HW127413   2.227   5.998   3.455
 8838SOL    HW227414   2.373   5.933   3.423
 8839SOL     OW27415   5.461   6.697   4.259
 8839SOL    HW127416   5.476   6.767   4.189
 8839SOL    HW227417   5.376   6.717   4.308
 8840SOL     OW27418   5.015   1.258   2.695
 8840SOL    HW127419   5.054   1.283   2.607
 8840SOL    HW227420   5.087   1.254   2.764
 8841SOL     OW27421   2.004   6.964   4.274
 8841SOL    HW127422   1.959   6.897   4.333
 8841SOL    HW227423   1.957   0.030   4.280
 8842SOL     OW27424   1.598   2.648   1.894
 8842SOL    HW127425   1.643   2.735   1.914
 8842SOL    HW227426   1.524   2.663   1.829
 8843SOL     OW27427   0.485   3.373   4.924
 8843SOL    HW127428   0.550   3.360   4.999
 8843SOL    HW227429   0.432   3.289   4.911
 8844SOL     OW27430   5.945   0.978   6.252
 8844SOL    HW127431   6.026   1.029   6.225
 8844SOL    HW227432   5.887   1.035   6.311
 8845SOL     OW27433   5.706   3.434   0.243
 8845SOL    HW127434   5.786   3.490   0.225
 8845SOL    HW227435   5.623   3.491   0.235
 8846SOL     OW27436   2.725   4.714   3.409
 8846SOL    HW127437   2.689   4.658   3.335
 8846SOL    HW227438   2.650   4.739   3.471
 8847SOL     OW27439   1.790   0.670   2.440
 8847SOL    HW127440   1.757   0.753   2.484
 8847SOL    HW227441   1.714   0.605   2.430
 8848SOL     OW27442   1.266   0.621   2.931
 8848SOL    HW127443   1.247   0.643   3.026
 8848SOL    HW227444   1.339   0.553   2.927
 8849SOL     OW27445   2.469   7.004   1.450
 8849SOL    HW127446   2.462   7.011   1.550
 8849SOL    HW227447   2.530   6.928   1.427
 8850SOL     OW27448   2.754   2.723   0.031
 8850SOL    HW127449   2.778   2.641   7.001
 8850SOL    HW227450   2.727   2.796   6.989
 8851SOL     OW27451   1.811   3.749   2.274
 8851SOL    HW127452   1.895   3.724   2.225
 8851SOL    HW227453   1.742   3.678   2.261
 8852SOL     OW27454   1.007   1.923   5.396
 8852SOL    HW127455   1.046   1.901   5.485
 8852SOL    HW227456   1.066   1.885   5.324
 8853SOL     OW27457   5.257   0.567   1.600
 8853SOL    HW127458   5.188   0.602   1.663
 8853SOL    HW227459   5.245   0.610   1.510
 8854SOL     OW27460   1.087   2.623   5.102
 8854SOL    HW127461   1.169   2.643   5.048
 8854SOL    HW227462   1.085   2.682   5.183
 8855SOL     OW27463   5.474   4.758   1.346
 8855SOL    HW127464   5.392   4.744   1.290
 8855SOL    HW227465   5.490   4.856   1.357
 8856SOL     OW27466   6.576   0.693   5.828
 8856SOL    HW127467   6.583   0.594   5.818
 8856SOL    HW227468   6.659   0.728   5.871
 8857SOL     OW27469   6.642   2.037   6.405
 8857SOL    HW127470   6.573   1.965   6.400
 8857SOL    HW227471   6.610   2.109   6.468
 8858SOL     OW27472   6.812   6.046   5.097
 8858SOL    HW127473   6.825   6.139   5.062
 8858SOL    HW227474   6.718   6.017   5.080
 8859SOL     OW27475   1.327   5.939   3.176
 8859SOL    HW127476   1.229   5.954   3.176
 8859SOL    HW227477   1.370   5.998   3.108
 8860SOL     OW27478   0.008   3.720   2.688
 8860SOL    HW127479   6.951   3.671   2.727
 8860SOL    HW227480   0.062   3.657   2.633
 8861SOL     OW27481   3.444   2.586   1.237
 8861SOL    HW127482   3.524   2.574   1.295
 8861SOL    HW227483   3.376   2.642   1.285
 8862SOL     OW27484   4.490   4.620   4.737
 8862SOL    HW127485   4.452   4.576   4.819
 8862SOL    HW227486   4.579   4.659   4.760
 8863SOL     OW27487   1.733   3.657   3.077
 8863SOL    HW127488   1.745   3.591   3.151
 8863SOL    HW227489   1.795   3.735   3.092
 8864SOL     OW27490   6.368   2.058   5.542
 8864SOL    HW127491   6.449   2.109   5.570
 8864SOL    HW227492   6.393   1.965   5.519
 8865SOL     OW27493   2.654   2.027   0.264
 8865SOL    HW127494   2.647   2.073   0.175
 8865SOL    HW227495   2.659   2.096   0.336
 8866SOL     OW27496   5.953   6.825   1.934
 8866SOL    HW127497   6.020   6.757   1.962
 8866SOL    HW227498   5.927   6.810   1.839
 8867SOL     OW27499   6.416   2.863   2.642
 8867SOL    HW127500   6.405   2.882   2.739
 8867SOL    HW227501   6.347   2.796   2.613
 8868SOL     OW27502   6.578   3.625   3.729
 8868SOL    HW127503   6.514   3.596   3.799
 8868SOL    HW227504   6.604   3.720   3.744
 8869SOL     OW27505   5.004   0.592   3.467
 8869SOL    HW127506   5.009   0.689   3.489
 8869SOL    HW227507   5.078   0.568   3.404
 8870SOL     OW27508   1.434   0.786   1.901
 8870SOL    HW127509   1.427   0.866   1.961
 8870SOL    HW227510   1.450   0.816   1.807
 8871SOL     OW27511   6.983   0.761   1.490
 8871SOL    HW127512   6.900   0.748   1.544
 8871SOL    HW227513   0.035   0.795   1.548
 8872SOL     OW27514   6.828   3.504   3.369
 8872SOL    HW127515   6.796   3.416   3.333
 8872SOL    HW227516   6.812   3.507   3.468
 8873SOL     OW27517   2.395   2.198   2.856
 8873SOL    HW127518   2.339   2.150   2.788
 8873SOL    HW227519   2.382   2.156   2.946
 8874SOL     OW27520   2.970   6.520   0.457
 8874SOL    HW127521   2.915   6.443   0.488
 8874SOL    HW227522   3.023   6.556   0.535
 8875SOL     OW27523   6.668   3.146   4.446
 8875SOL    HW127524   6.658   3.124   4.349
 8875SOL    HW227525   6.707   3.237   4.456
 8876SOL     OW27526   4.220   0.407   0.109
 8876SOL    HW127527   4.136   0.354   0.124
 8876SOL    HW227528   4.220   0.486   0.171
 8877SOL     OW27529   0.969   4.988   1.308
 8877SOL    HW127530   1.045   4.973   1.244
 8877SOL    HW227531   0.889   4.938   1.276
 8878SOL     OW27532   4.740   4.113   1.632
 8878SOL    HW127533   4.640   4.106   1.635
 8878SOL    HW227534   4.770   4.190   1.688
 8879SOL     OW27535   6.716   3.820   2.565
 8879SOL    HW127536   6.663   3.889   2.614
 8879SOL    HW227537   6.764   3.762   2.630
 8880SOL     OW27538   4.191   2.183   3.042
 8880SOL    HW127539   4.188   2.111   3.110
 8880SOL    HW227540   4.113   2.174   2.979
 8881SOL     OW27541   3.915   4.899   3.396
 8881SOL    HW127542   3.968   4.832   3.449
 8881SOL    HW227543   3.945   4.897   3.301
 8882SOL     OW27544   3.849   0.697   0.520
 8882SOL    HW127545   3.920   0.760   0.551
 8882SOL    HW227546   3.889   0.607   0.502
 8883SOL     OW27547   6.833   6.539   3.698
 8883SOL    HW127548   6.818   6.449   3.656
 8883SOL    HW227549   6.744   6.583   3.714
 8884SOL     OW27550   4.913   3.375   5.518
 8884SOL    HW127551   4.950   3.418   5.436
 8884SOL    HW227552   4.981   3.313   5.556
 8885SOL     OW27553   5.665   5.924   0.545
 8885SOL    HW127554   5.597   5.903   0.615
 8885SOL    HW227555   5.647   6.014   0.506
 8886SOL     OW27556   4.215   6.043   6.872
 8886SOL    HW127557   4.215   5.953   6.830
 8886SOL    HW227558   4.309   6.070   6.894
 8887SOL     OW27559   3.980   0.455   1.713
 8887SOL    HW127560   4.018   0.364   1.732
 8887SOL    HW227561   3.888   0.462   1.750
 8888SOL     OW27562   3.349   1.822   2.300
 8888SOL    HW127563   3.261   1.780   2.278
 8888SOL    HW227564   3.421   1.753   2.294
 8889SOL     OW27565   1.528   4.863   0.356
 8889SOL    HW127566   1.429   4.861   0.366
 8889SOL    HW227567   1.552   4.858   0.259
 8890SOL     OW27568   0.980   6.855   0.119
 8890SOL    HW127569   0.893   6.867   0.072
 8890SOL    HW227570   0.984   6.762   0.156
 8891SOL     OW27571   6.114   4.106   5.609
 8891SOL    HW127572   6.031   4.151   5.642
 8891SOL    HW227573   6.132   4.025   5.665
 8892SOL     OW27574   3.217   5.413   4.763
 8892SOL    HW127575   3.275   5.333   4.779
 8892SOL    HW227576   3.259   5.471   4.694
 8893SOL     OW27577   1.266   4.972   5.702
 8893SOL    HW127578   1.215   4.939   5.622
 8893SOL    HW227579   1.207   4.973   5.782
 8894SOL     OW27580   4.956   1.645   1.877
 8894SOL    HW127581   4.858   1.663   1.872
 8894SOL    HW227582   5.004   1.728   1.906
 8895SOL     OW27583   6.579   3.443   1.050
 8895SOL    HW127584   6.506   3.397   1.000
 8895SOL    HW227585   6.601   3.391   1.133
 8896SOL     OW27586   1.130   1.472   3.790
 8896SOL    HW127587   1.138   1.407   3.865
 8896SOL    HW227588   1.079   1.553   3.821
 8897SOL     OW27589   1.766   5.776   4.106
 8897SOL    HW127590   1.667   5.770   4.089
 8897SOL    HW227591   1.795   5.871   4.104
 8898SOL     OW27592   5.067   3.625   2.223
 8898SOL    HW127593   5.085   3.701   2.160
 8898SOL    HW227594   5.011   3.556   2.177
 8899SOL     OW27595   1.889   3.911   3.118
 8899SOL    HW127596   1.968   3.925   3.178
 8899SOL    HW227597   1.921   3.893   3.025
 8900SOL     OW27598   4.323   1.723   4.344
 8900SOL    HW127599   4.408   1.675   4.363
 8900SOL    HW227600   4.278   1.681   4.265
 8901SOL     OW27601   1.281   5.154   4.872
 8901SOL    HW127602   1.272   5.099   4.955
 8901SOL    HW227603   1.210   5.225   4.872
 8902SOL     OW27604   0.093   5.105   0.357
 8902SOL    HW127605   0.105   5.112   0.258
 8902SOL    HW227606   0.182   5.087   0.400
 8903SOL     OW27607   1.129   6.993   5.298
 8903SOL    HW127608   1.110   6.944   5.384
 8903SOL    HW227609   1.202   6.946   5.249
 8904SOL     OW27610   0.851   1.250   3.718
 8904SOL    HW127611   0.771   1.191   3.705
 8904SOL    HW227612   0.927   1.196   3.753
 8905SOL     OW27613   1.226   3.896   2.640
 8905SOL    HW127614   1.149   3.841   2.604
 8905SOL    HW227615   1.201   3.935   2.728
 8906SOL     OW27616   6.037   0.041   6.934
 8906SOL    HW127617   6.038   6.964   6.917
 8906SOL    HW227618   6.127   0.071   6.966
 8907SOL     OW27619   2.988   3.118   5.322
 8907SOL    HW127620   2.955   3.176   5.396
 8907SOL    HW227621   3.087   3.130   5.311
 8908SOL     OW27622   1.600   4.396   6.387
 8908SOL    HW127623   1.681   4.338   6.378
 8908SOL    HW227624   1.604   4.470   6.321
 8909SOL     OW27625   1.807   5.544   1.389
 8909SOL    HW127626   1.794   5.445   1.381
 8909SOL    HW227627   1.795   5.572   1.484
 8910SOL     OW27628   0.903   0.574   3.609
 8910SOL    HW127629   0.993   0.544   3.578
 8910SOL    HW227630   0.893   0.552   3.707
 8911SOL     OW27631   4.562   2.607   4.372
 8911SOL    HW127632   4.599   2.650   4.454
 8911SOL    HW227633   4.513   2.523   4.397
 8912SOL     OW27634   3.548   3.635   4.264
 8912SOL    HW127635   3.590   3.552   4.228
 8912SOL    HW227636   3.612   3.681   4.326
 8913SOL     OW27637   5.198   5.863   0.882
 8913SOL    HW127638   5.107   5.900   0.903
 8913SOL    HW227639   5.189   5.788   0.817
 8914SOL     OW27640   4.797   6.281   5.442
 8914SOL    HW127641   4.887   6.244   5.465
 8914SOL    HW227642   4.727   6.227   5.488
 8915SOL     OW27643   1.593   0.873   3.397
 8915SOL    HW127644   1.559   0.953   3.447
 8915SOL    HW227645   1.647   0.903   3.319
 8916SOL     OW27646   5.024   1.109   1.108
 8916SOL    HW127647   4.951   1.121   1.175
 8916SOL    HW227648   4.986   1.114   1.015
 8917SOL     OW27649   5.817   1.807   0.281
 8917SOL    HW127650   5.835   1.892   0.331
 8917SOL    HW227651   5.816   1.730   0.345
 8918SOL     OW27652   0.703   3.462   3.090
 8918SOL    HW127653   0.749   3.392   3.145
 8918SOL    HW227654   0.606   3.466   3.115
 8919SOL     OW27655   6.112   2.828   1.895
 8919SOL    HW127656   6.133   2.759   1.827
 8919SOL    HW227657   6.198   2.865   1.932
 8920SOL     OW27658   0.326   0.846   0.180
 8920SOL    HW127659   0.281   0.763   0.147
 8920SOL    HW227660   0.411   0.860   0.130
 8921SOL     OW27661   0.754   2.981   2.324
 8921SOL    HW127662   0.812   2.979   2.243
 8921SOL    HW227663   0.793   3.044   2.392
 8922SOL     OW27664   4.210   5.329   3.913
 8922SOL    HW127665   4.208   5.366   3.820
 8922SOL    HW227666   4.233   5.403   3.977
 8923SOL     OW27667   2.288   1.342   4.269
 8923SOL    HW127668   2.373   1.372   4.312
 8923SOL    HW227669   2.309   1.286   4.189
 8924SOL     OW27670   6.436   4.750   5.226
 8924SOL    HW127671   6.456   4.652   5.230
 8924SOL    HW227672   6.437   4.780   5.130
 8925SOL     OW27673   0.966   6.665   2.717
 8925SOL    HW127674   0.913   6.602   2.660
 8925SOL    HW227675   1.034   6.713   2.661
 8926SOL     OW27676   6.052   0.907   6.991
 8926SOL    HW127677   5.961   0.946   6.998
 8926SOL    HW227678   6.116   0.976   6.957
 8927SOL     OW27679   1.752   0.768   6.769
 8927SOL    HW127680   1.678   0.762   6.701
 8927SOL    HW227681   1.821   0.699   6.749
 8928SOL     OW27682   1.405   6.692   5.747
 8928SOL    HW127683   1.435   6.604   5.710
 8928SOL    HW227684   1.483   6.755   5.750
 8929SOL     OW27685   0.011   1.543   4.193
 8929SOL    HW127686   0.093   1.560   4.247
 8929SOL    HW227687   0.036   1.524   4.098
 8930SOL     OW27688   2.077   4.773   3.859
 8930SOL    HW127689   2.124   4.777   3.947
 8930SOL    HW227690   2.092   4.683   3.817
 8931SOL     OW27691   4.170   3.501   0.309
 8931SOL    HW127692   4.092   3.562   0.293
 8931SOL    HW227693   4.244   3.552   0.354
 8932SOL     OW27694   0.539   3.228   3.460
 8932SOL    HW127695   0.491   3.149   3.423
 8932SOL    HW227696   0.473   3.301   3.480
 8933SOL     OW27697   4.095   1.711   5.727
 8933SOL    HW127698   4.026   1.697   5.656
 8933SOL    HW227699   4.158   1.783   5.699
 8934SOL     OW27700   2.536   6.207   3.076
 8934SOL    HW127701   2.511   6.111   3.089
 8934SOL    HW227702   2.565   6.246   3.163
 8935SOL     OW27703   6.681   4.776   0.692
 8935SOL    HW127704   6.581   4.769   0.697
 8935SOL    HW227705   6.707   4.867   0.662
 8936SOL     OW27706   3.646   2.545   0.323
 8936SOL    HW127707   3.684   2.631   0.290
 8936SOL    HW227708   3.653   2.476   0.250
 8937SOL     OW27709   0.552   7.018   6.013
 8937SOL    HW127710   0.626   7.003   6.079
 8937SOL    HW227711   0.468   0.020   6.061
 8938SOL     OW27712   5.011   6.359   1.457
 8938SOL    HW127713   4.979   6.264   1.451
 8938SOL    HW227714   5.083   6.374   1.389
 8939SOL     OW27715   4.840   1.674   5.197
 8939SOL    HW127716   4.761   1.620   5.167
 8939SOL    HW227717   4.867   1.646   5.288
 8940SOL     OW27718   5.661   0.097   2.394
 8940SOL    HW127719   5.705   0.185   2.411
 8940SOL    HW227720   5.726   0.023   2.412
 8941SOL     OW27721   4.553   1.478   6.598
 8941SOL    HW127722   4.510   1.403   6.547
 8941SOL    HW227723   4.641   1.448   6.633
 8942SOL     OW27724   1.382   2.521   5.130
 8942SOL    HW127725   1.442   2.583   5.181
 8942SOL    HW227726   1.356   2.564   5.043
 8943SOL     OW27727   4.977   3.656   0.916
 8943SOL    HW127728   5.004   3.747   0.885
 8943SOL    HW227729   5.056   3.607   0.951
 8944SOL     OW27730   4.431   5.802   1.664
 8944SOL    HW127731   4.450   5.738   1.589
 8944SOL    HW227732   4.340   5.782   1.702
 8945SOL     OW27733   1.782   0.789   4.680
 8945SOL    HW127734   1.873   0.806   4.717
 8945SOL    HW227735   1.745   0.872   4.640
 8946SOL     OW27736   3.870   1.519   4.546
 8946SOL    HW127737   3.883   1.441   4.485
 8946SOL    HW227738   3.941   1.587   4.530
 8947SOL     OW27739   3.635   3.744   5.152
 8947SOL    HW127740   3.644   3.676   5.079
 8947SOL    HW227741   3.681   3.709   5.235
 8948SOL     OW27742   5.767   5.042   2.680
 8948SOL    HW127743   5.710   5.111   2.636
 8948SOL    HW227744   5.758   4.955   2.631
 8949SOL     OW27745   2.505   5.828   6.122
 8949SOL    HW127746   2.572   5.762   6.089
 8949SOL    HW227747   2.522   5.917   6.081
 8950SOL     OW27748   5.061   2.107   4.571
 8950SOL    HW127749   5.121   2.132   4.647
 8950SOL    HW227750   5.046   2.008   4.572
 8951SOL     OW27751   2.161   1.690   5.868
 8951SOL    HW127752   2.224   1.662   5.941
 8951SOL    HW227753   2.077   1.726   5.908
 8952SOL     OW27754   6.221   7.020   3.402
 8952SOL    HW127755   6.243   6.924   3.416
 8952SOL    HW227756   6.166   0.032   3.479
 8953SOL     OW27757   1.363   5.387   6.733
 8953SOL    HW127758   1.391   5.298   6.768
 8953SOL    HW227759   1.270   5.407   6.764
 8954SOL     OW27760   1.685   6.610   6.093
 8954SOL    HW127761   1.615   6.680   6.108
 8954SOL    HW227762   1.741   6.635   6.015
 8955SOL     OW27763   6.278   3.592   4.319
 8955SOL    HW127764   6.252   3.597   4.416
 8955SOL    HW227765   6.209   3.637   4.263
 8956SOL     OW27766   1.192   0.828   4.924
 8956SOL    HW127767   1.210   0.861   4.832
 8956SOL    HW227768   1.268   0.851   4.984
 8957SOL     OW27769   2.620   5.467   1.771
 8957SOL    HW127770   2.569   5.382   1.777
 8957SOL    HW227771   2.596   5.515   1.686
 8958SOL     OW27772   2.722   0.559   4.122
 8958SOL    HW127773   2.651   0.583   4.189
 8958SOL    HW227774   2.804   0.529   4.171
 8959SOL     OW27775   2.866   4.896   0.289
 8959SOL    HW127776   2.844   4.924   0.196
 8959SOL    HW227777   2.819   4.811   0.311
 8960SOL     OW27778   3.594   5.664   1.163
 8960SOL    HW127779   3.561   5.731   1.097
 8960SOL    HW227780   3.600   5.574   1.119
 8961SOL     OW27781   1.869   2.156   4.213
 8961SOL    HW127782   1.920   2.233   4.251
 8961SOL    HW227783   1.891   2.145   4.116
 8962SOL     OW27784   4.741   0.565   3.402
 8962SOL    HW127785   4.718   0.495   3.335
 8962SOL    HW227786   4.840   0.567   3.418
 8963SOL     OW27787   6.989   0.754   3.749
 8963SOL    HW127788   6.909   0.774   3.693
 8963SOL    HW227789   6.969   0.773   3.845
 8964SOL     OW27790   6.742   3.809   3.079
 8964SOL    HW127791   6.763   3.753   2.999
 8964SOL    HW227792   6.806   3.885   3.084
 8965SOL     OW27793   1.233   5.436   1.946
 8965SOL    HW127794   1.236   5.507   1.876
 8965SOL    HW227795   1.182   5.357   1.912
 8966SOL     OW27796   3.181   2.576   5.587
 8966SOL    HW127797   3.167   2.669   5.623
 8966SOL    HW227798   3.179   2.579   5.487
 8967SOL     OW27799   4.459   0.110   0.623
 8967SOL    HW127800   4.480   0.051   0.701
 8967SOL    HW227801   4.532   0.103   0.555
 8968SOL     OW27802   5.030   4.573   2.991
 8968SOL    HW127803   5.106   4.514   3.019
 8968SOL    HW227804   5.057   4.669   3.003
 8969SOL     OW27805   6.575   0.733   4.471
 8969SOL    HW127806   6.584   0.649   4.524
 8969SOL    HW227807   6.596   0.714   4.375
 8970SOL     OW27808   3.357   1.973   1.445
 8970SOL    HW127809   3.432   1.974   1.511
 8970SOL    HW227810   3.316   1.882   1.443
 8971SOL     OW27811   4.360   6.350   3.282
 8971SOL    HW127812   4.441   6.317   3.330
 8971SOL    HW227813   4.279   6.331   3.337
 8972SOL     OW27814   5.804   0.593   4.714
 8972SOL    HW127815   5.801   0.540   4.799
 8972SOL    HW227816   5.865   0.671   4.726
 8973SOL     OW27817   1.910   4.578   6.975
 8973SOL    HW127818   1.864   4.513   6.914
 8973SOL    HW227819   1.975   4.528   0.012
 8974SOL     OW27820   0.617   3.111   4.103
 8974SOL    HW127821   0.626   3.161   4.189
 8974SOL    HW227822   0.684   3.037   4.100
 8975SOL     OW27823   3.161   0.380   6.923
 8975SOL    HW127824   3.251   0.423   6.921
 8975SOL    HW227825   3.170   0.284   6.951
 8976SOL     OW27826   0.518   4.725   4.704
 8976SOL    HW127827   0.574   4.790   4.755
 8976SOL    HW227828   0.459   4.675   4.768
 8977SOL     OW27829   5.375   1.303   6.369
 8977SOL    HW127830   5.421   1.214   6.371
 8977SOL    HW227831   5.287   1.294   6.322
 8978SOL     OW27832   5.810   5.681   1.008
 8978SOL    HW127833   5.883   5.624   0.970
 8978SOL    HW227834   5.725   5.628   1.012
 8979SOL     OW27835   1.869   5.200   4.868
 8979SOL    HW127836   1.891   5.248   4.783
 8979SOL    HW227837   1.770   5.201   4.882
 8980SOL     OW27838   3.846   2.992   4.513
 8980SOL    HW127839   3.925   3.052   4.528
 8980SOL    HW227840   3.816   2.954   4.600
 8981SOL     OW27841   2.922   1.289   5.214
 8981SOL    HW127842   3.007   1.237   5.227
 8981SOL    HW227843   2.898   1.335   5.300
 8982SOL     OW27844   4.505   4.337   0.668
 8982SOL    HW127845   4.485   4.267   0.737
 8982SOL    HW227846   4.600   4.366   0.677
 8983SOL     OW27847   5.405   5.223   0.677
 8983SOL    HW127848   5.329   5.286   0.694
 8983SOL    HW227849   5.412   5.205   0.579
 8984SOL     OW27850   1.455   6.834   3.069
 8984SOL    HW127851   1.430   6.889   3.149
 8984SOL    HW227852   1.442   6.888   2.986
 8985SOL     OW27853   3.116   3.160   6.013
 8985SOL    HW127854   3.171   3.226   6.064
 8985SOL    HW227855   3.021   3.166   6.043
 8986SOL     OW27856   3.710   6.053   2.690
 8986SOL    HW127857   3.769   6.088   2.763
 8986SOL    HW227858   3.749   6.076   2.601
 8987SOL     OW27859   4.786   5.912   2.095
 8987SOL    HW127860   4.828   5.986   2.149
 8987SOL    HW227861   4.782   5.939   1.999
 8988SOL     OW27862   0.872   5.623   5.158
 8988SOL    HW127863   0.910   5.698   5.212
 8988SOL    HW227864   0.788   5.590   5.200
 8989SOL     OW27865   3.009   3.259   6.754
 8989SOL    HW127866   2.930   3.296   6.705
 8989SOL    HW227867   3.063   3.335   6.792
 8990SOL     OW27868   0.254   6.101   3.553
 8990SOL    HW127869   0.245   6.096   3.454
 8990SOL    HW227870   0.332   6.158   3.577
 8991SOL     OW27871   1.185   1.797   5.221
 8991SOL    HW127872   1.174   1.839   5.131
 8991SOL    HW227873   1.149   1.704   5.220
 8992SOL     OW27874   6.544   2.251   0.663
 8992SOL    HW127875   6.494   2.293   0.739
 8992SOL    HW227876   6.528   2.152   0.663
 8993SOL     OW27877   4.640   2.627   0.426
 8993SOL    HW127878   4.551   2.584   0.437
 8993SOL    HW227879   4.652   2.699   0.495
 8994SOL     OW27880   1.952   6.057   3.876
 8994SOL    HW127881   2.000   6.140   3.906
 8994SOL    HW227882   1.923   6.068   3.781
 8995SOL     OW27883   0.173   0.770   0.700
 8995SOL    HW127884   0.215   0.860   0.689
 8995SOL    HW227885   0.243   0.701   0.716
 8996SOL     OW27886   4.218   6.334   5.334
 8996SOL    HW127887   4.179   6.381   5.414
 8996SOL    HW227888   4.204   6.391   5.253
 8997SOL     OW27889   6.270   0.736   4.858
 8997SOL    HW127890   6.365   0.714   4.835
 8997SOL    HW227891   6.246   0.693   4.945
 8998SOL     OW27892   6.442   3.182   4.676
 8998SOL    HW127893   6.485   3.110   4.622
 8998SOL    HW227894   6.513   3.239   4.717
 8999SOL     OW27895   3.654   6.856   5.618
 8999SOL    HW127896   3.733   6.805   5.654
 8999SOL    HW227897   3.670   6.954   5.629
 9000SOL     OW27898   1.488   4.241   1.044
 9000SOL    HW127899   1.442   4.214   1.129
 9000SOL    HW227900   1.586   4.230   1.054
 9001SOL     OW27901   1.153   6.072   2.215
 9001SOL    HW127902   1.063   6.084   2.258
 9001SOL    HW227903   1.171   5.974   2.203
 9002SOL     OW27904   0.707   4.491   0.032
 9002SOL    HW127905   0.686   4.402   0.075
 9002SOL    HW227906   0.798   4.488   7.012
 9003SOL     OW27907   5.466   0.292   1.425
 9003SOL    HW127908   5.374   0.322   1.400
 9003SOL    HW227909   5.467   0.268   1.522
 9004SOL     OW27910   4.517   5.009   0.073
 9004SOL    HW127911   4.469   5.056   0.147
 9004SOL    HW227912   4.457   4.937   0.036
 9005SOL     OW27913   5.116   1.978   5.430
 9005SOL    HW127914   5.039   1.992   5.492
 9005SOL    HW227915   5.082   1.964   5.337
 9006SOL     OW27916   3.758   6.130   0.252
 9006SOL    HW127917   3.831   6.135   0.320
 9006SOL    HW227918   3.741   6.035   0.228
 9007SOL     OW27919   1.704   0.945   3.147
 9007SOL    HW127920   1.773   1.015   3.129
 9007SOL    HW227921   1.748   0.861   3.178
 9008SOL     OW27922   0.934   6.097   2.383
 9008SOL    HW127923   0.929   6.122   2.480
 9008SOL    HW227924   0.841   6.090   2.345
 9009SOL     OW27925   3.349   6.166   1.483
 9009SOL    HW127926   3.263   6.202   1.448
 9009SOL    HW227927   3.398   6.238   1.532
 9010SOL     OW27928   1.475   6.099   4.315
 9010SOL    HW127929   1.451   6.166   4.385
 9010SOL    HW227930   1.391   6.056   4.280
 9011SOL     OW27931   2.702   2.314   1.834
 9011SOL    HW127932   2.759   2.333   1.914
 9011SOL    HW227933   2.755   2.327   1.751
 9012SOL     OW27934   2.122   6.718   0.013
 9012SOL    HW127935   2.118   6.719   6.935
 9012SOL    HW227936   2.090   6.805   0.049
 9013SOL     OW27937   1.896   6.739   4.401
 9013SOL    HW127938   1.931   6.647   4.420
 9013SOL    HW227939   1.802   6.734   4.370
 9014SOL     OW27940   5.320   3.048   3.430
 9014SOL    HW127941   5.319   3.134   3.379
 9014SOL    HW227942   5.410   3.006   3.422
 9015SOL     OW27943   4.891   1.365   6.128
 9015SOL    HW127944   4.870   1.327   6.038
 9015SOL    HW227945   4.988   1.350   6.149
 9016SOL     OW27946   5.122   5.464   6.244
 9016SOL    HW127947   5.159   5.546   6.288
 9016SOL    HW227948   5.131   5.386   6.305
 9017SOL     OW27949   4.041   6.982   4.415
 9017SOL    HW127950   3.942   6.968   4.411
 9017SOL    HW227951   4.080   6.926   4.489
 9018SOL     OW27952   4.287   4.604   6.299
 9018SOL    HW127953   4.384   4.622   6.319
 9018SOL    HW227954   4.274   4.598   6.200
 9019SOL     OW27955   0.399   3.444   3.961
 9019SOL    HW127956   0.422   3.352   3.929
 9019SOL    HW227957   0.399   3.446   4.061
 9020SOL     OW27958   5.222   5.230   2.642
 9020SOL    HW127959   5.189   5.302   2.581
 9020SOL    HW227960   5.307   5.192   2.605
 9021SOL     OW27961   0.390   1.320   4.381
 9021SOL    HW127962   0.366   1.348   4.474
 9021SOL    HW227963   0.465   1.254   4.384
 9022SOL     OW27964   4.910   4.116   6.166
 9022SOL    HW127965   4.913   4.214   6.185
 9022SOL    HW227966   4.849   4.100   6.088
 9023SOL     OW27967   5.984   4.581   0.200
 9023SOL    HW127968   5.951   4.586   0.294
 9023SOL    HW227969   6.054   4.651   0.186
 9024SOL     OW27970   2.233   6.045   6.100
 9024SOL    HW127971   2.167   6.026   6.173
 9024SOL    HW227972   2.251   5.962   6.048
 9025SOL     OW27973   1.004   6.029   0.977
 9025SOL    HW127974   0.925   5.970   0.961
 9025SOL    HW227975   0.974   6.125   0.977
 9026SOL     OW27976   4.992   1.277   0.597
 9026SOL    HW127977   4.901   1.294   0.557
 9026SOL    HW227978   5.012   1.349   0.663
 9027SOL     OW27979   1.242   3.595   3.571
 9027SOL    HW127980   1.320   3.621   3.514
 9027SOL    HW227981   1.238   3.495   3.578
 9028SOL     OW27982   3.317   4.956   6.020
 9028SOL    HW127983   3.397   5.002   5.980
 9028SOL    HW227984   3.268   5.021   6.078
 9029SOL     OW27985   4.503   0.152   4.790
 9029SOL    HW127986   4.441   0.214   4.741
 9029SOL    HW227987   4.454   0.106   4.863
 9030SOL     OW27988   3.092   1.566   2.553
 9030SOL    HW127989   3.032   1.573   2.474
 9030SOL    HW227990   3.073   1.481   2.603
 9031SOL     OW27991   4.619   6.933   4.639
 9031SOL    HW127992   4.616   0.006   4.675
 9031SOL    HW227993   4.594   6.934   4.543
 9032SOL     OW27994   4.931   3.430   2.093
 9032SOL    HW127995   4.930   3.380   2.180
 9032SOL    HW227996   4.937   3.364   2.017
 9033SOL     OW27997   0.546   6.964   3.215
 9033SOL    HW127998   0.481   6.927   3.150
 9033SOL    HW227999   0.598   6.889   3.257
 9034SOL     OW28000   4.753   0.179   4.493
 9034SOL    HW128001   4.662   0.186   4.451
 9034SOL    HW228002   4.764   0.253   4.560
 9035SOL     OW28003   2.357   4.656   6.555
 9035SOL    HW128004   2.430   4.648   6.486
 9035SOL    HW228005   2.279   4.705   6.515
 9036SOL     OW28006   1.611   4.336   5.468
 9036SOL    HW128007   1.579   4.243   5.486
 9036SOL    HW228008   1.606   4.389   5.552
 9037SOL     OW28009   1.036   1.361   3.209
 9037SOL    HW128010   0.972   1.288   3.235
 9037SOL    HW228011   1.100   1.377   3.284
 9038SOL     OW28012   4.402   2.993   5.853
 9038SOL    HW128013   4.311   3.010   5.890
 9038SOL    HW228014   4.413   2.896   5.834
 9039SOL     OW28015   4.246   5.843   6.689
 9039SOL    HW128016   4.334   5.867   6.649
 9039SOL    HW228017   4.258   5.769   6.755
 9040SOL     OW28018   2.093   1.927   1.513
 9040SOL    HW128019   2.102   2.021   1.479
 9040SOL    HW228020   2.154   1.867   1.461
 9041SOL     OW28021   6.889   2.061   2.428
 9041SOL    HW128022   6.933   2.152   2.431
 9041SOL    HW228023   6.816   2.062   2.360
 9042SOL     OW28024   3.802   6.328   0.064
 9042SOL    HW128025   3.784   6.252   0.127
 9042SOL    HW228026   3.877   6.304   0.004
 9043SOL     OW28027   3.364   2.208   0.644
 9043SOL    HW128028   3.415   2.291   0.619
 9043SOL    HW228029   3.427   2.144   0.689
 9044SOL     OW28030   0.821   1.110   0.042
 9044SOL    HW128031   0.894   1.046   0.064
 9044SOL    HW228032   0.859   1.197   0.012
 9045SOL     OW28033   4.112   1.891   2.936
 9045SOL    HW128034   4.028   1.898   2.881
 9045SOL    HW228035   4.186   1.939   2.890
 9046SOL     OW28036   3.445   3.535   2.081
 9046SOL    HW128037   3.368   3.596   2.103
 9046SOL    HW228038   3.477   3.554   1.989
 9047SOL     OW28039   1.418   4.265   6.561
 9047SOL    HW128040   1.475   4.310   6.492
 9047SOL    HW228041   1.354   4.331   6.600
 9048SOL     OW28042   6.771   1.496   6.582
 9048SOL    HW128043   6.723   1.486   6.669
 9048SOL    HW228044   6.803   1.406   6.551
 9049SOL     OW28045   2.721   6.911   6.045
 9049SOL    HW128046   2.764   6.899   6.135
 9049SOL    HW228047   2.772   6.860   5.976
 9050SOL     OW28048   0.721   4.633   0.925
 9050SOL    HW128049   0.747   4.580   0.845
 9050SOL    HW228050   0.653   4.702   0.899
 9051SOL     OW28051   2.522   1.154   1.664
 9051SOL    HW128052   2.588   1.142   1.589
 9051SOL    HW228053   2.518   1.250   1.689
 9052SOL     OW28054   1.222   2.523   5.476
 9052SOL    HW128055   1.195   2.467   5.398
 9052SOL    HW228056   1.322   2.523   5.483
 9053SOL     OW28057   1.209   1.472   0.012
 9053SOL    HW128058   1.226   1.565   0.043
 9053SOL    HW228059   1.146   1.427   0.075
 9054SOL     OW28060   2.283   5.725   2.850
 9054SOL    HW128061   2.284   5.653   2.919
 9054SOL    HW228062   2.351   5.706   2.780
 9055SOL     OW28063   0.140   3.161   5.167
 9055SOL    HW128064   0.135   3.079   5.111
 9055SOL    HW228065   0.236   3.181   5.190
 9056SOL     OW28066   6.355   2.880   2.917
 9056SOL    HW128067   6.430   2.841   2.970
 9056SOL    HW228068   6.272   2.883   2.974
 9057SOL     OW28069   4.238   1.897   3.973
 9057SOL    HW128070   4.252   1.958   3.895
 9057SOL    HW228071   4.324   1.889   4.024
 9058SOL     OW28072   2.876   0.645   5.728
 9058SOL    HW128073   2.806   0.677   5.791
 9058SOL    HW228074   2.967   0.665   5.766
 9059SOL     OW28075   1.316   2.110   2.609
 9059SOL    HW128076   1.227   2.089   2.569
 9059SOL    HW228077   1.375   2.030   2.603
 9060SOL     OW28078   5.157   2.801   5.629
 9060SOL    HW128079   5.220   2.790   5.552
 9060SOL    HW228080   5.069   2.759   5.608
 9061SOL     OW28081   3.066   5.473   2.956
 9061SOL    HW128082   3.083   5.570   2.942
 9061SOL    HW228083   3.067   5.453   3.054
 9062SOL     OW28084   1.438   6.051   0.805
 9062SOL    HW128085   1.522   6.098   0.831
 9062SOL    HW228086   1.417   6.069   0.709
 9063SOL     OW28087   2.631   2.133   2.073
 9063SOL    HW128088   2.615   2.186   2.156
 9063SOL    HW228089   2.712   2.168   2.026
 9064SOL     OW28090   5.362   3.283   0.491
 9064SOL    HW128091   5.300   3.236   0.554
 9064SOL    HW228092   5.437   3.222   0.467
 9065SOL     OW28093   2.736   0.495   6.786
 9065SOL    HW128094   2.751   0.496   6.885
 9065SOL    HW228095   2.642   0.468   6.767
 9066SOL     OW28096   5.061   6.739   0.084
 9066SOL    HW128097   5.042   6.808   0.013
 9066SOL    HW228098   5.003   6.756   0.163
 9067SOL     OW28099   1.657   6.812   1.921
 9067SOL    HW128100   1.589   6.883   1.903
 9067SOL    HW228101   1.748   6.852   1.918
 9068SOL     OW28102   1.441   6.264   6.675
 9068SOL    HW128103   1.534   6.241   6.647
 9068SOL    HW228104   1.443   6.319   6.759
 9069SOL     OW28105   1.084   2.308   6.295
 9069SOL    HW128106   1.139   2.391   6.311
 9069SOL    HW228107   1.132   2.248   6.231
 9070SOL     OW28108   1.380   3.982   3.652
 9070SOL    HW128109   1.301   3.929   3.683
 9070SOL    HW228110   1.398   3.961   3.556
 9071SOL     OW28111   4.863   5.762   0.278
 9071SOL    HW128112   4.842   5.674   0.236
 9071SOL    HW228113   4.910   5.748   0.365
 9072SOL     OW28114   5.683   4.896   0.073
 9072SOL    HW128115   5.666   4.804   0.039
 9072SOL    HW228116   5.740   4.946   0.008
 9073SOL     OW28117   1.645   0.441   1.188
 9073SOL    HW128118   1.620   0.470   1.095
 9073SOL    HW228119   1.624   0.513   1.253
 9074SOL     OW28120   0.541   0.351   3.410
 9074SOL    HW128121   0.485   0.380   3.488
 9074SOL    HW228122   0.636   0.375   3.427
 9075SOL     OW28123   0.477   0.567   1.716
 9075SOL    HW128124   0.553   0.604   1.770
 9075SOL    HW228125   0.486   0.597   1.621
 9076SOL     OW28126   0.178   1.634   5.303
 9076SOL    HW128127   0.223   1.692   5.235
 9076SOL    HW228128   0.186   1.676   5.393
 9077SOL     OW28129   6.125   6.130   1.414
 9077SOL    HW128130   6.216   6.121   1.373
 9077SOL    HW228131   6.094   6.224   1.405
 9078SOL     OW28132   3.877   3.044   4.971
 9078SOL    HW128133   3.956   3.101   4.947
 9078SOL    HW228134   3.806   3.101   5.012
 9079SOL     OW28135   3.759   0.940   5.459
 9079SOL    HW128136   3.699   1.012   5.493
 9079SOL    HW228137   3.823   0.979   5.392
 9080SOL     OW28138   5.144   1.325   0.387
 9080SOL    HW128139   5.226   1.270   0.405
 9080SOL    HW228140   5.094   1.338   0.473
 9081SOL     OW28141   5.440   0.329   2.884
 9081SOL    HW128142   5.459   0.232   2.870
 9081SOL    HW228143   5.514   0.383   2.843
 9082SOL     OW28144   3.023   0.698   2.565
 9082SOL    HW128145   3.032   0.780   2.509
 9082SOL    HW228146   3.098   0.695   2.632
 9083SOL     OW28147   4.524   4.424   3.971
 9083SOL    HW128148   4.596   4.359   3.996
 9083SOL    HW228149   4.435   4.382   3.988
 9084SOL     OW28150   3.506   4.151   2.917
 9084SOL    HW128151   3.586   4.154   2.978
 9084SOL    HW228152   3.536   4.165   2.823
 9085SOL     OW28153   0.853   2.117   0.480
 9085SOL    HW128154   0.786   2.185   0.510
 9085SOL    HW228155   0.827   2.082   0.390
 9086SOL     OW28156   6.906   3.997   0.609
 9086SOL    HW128157   6.853   3.913   0.604
 9086SOL    HW228158   6.867   4.065   0.546
 9087SOL     OW28159   5.211   3.739   1.964
 9087SOL    HW128160   5.159   3.672   1.911
 9087SOL    HW228161   5.154   3.818   1.984
 9088SOL     OW28162   5.175   6.452   0.585
 9088SOL    HW128163   5.082   6.417   0.594
 9088SOL    HW228164   5.183   6.504   0.499
 9089SOL     OW28165   4.028   0.339   6.124
 9089SOL    HW128166   4.059   0.286   6.203
 9089SOL    HW228167   4.105   0.354   6.061
 9090SOL     OW28168   6.099   1.591   3.361
 9090SOL    HW128169   6.047   1.669   3.395
 9090SOL    HW228170   6.186   1.623   3.322
 9091SOL     OW28171   3.848   2.658   6.402
 9091SOL    HW128172   3.758   2.630   6.369
 9091SOL    HW228173   3.912   2.582   6.393
 9092SOL     OW28174   0.025   3.023   6.620
 9092SOL    HW128175   0.091   3.075   6.675
 9092SOL    HW228176   7.004   2.953   6.677
 9093SOL     OW28177   2.263   6.456   4.735
 9093SOL    HW128178   2.299   6.480   4.825
 9093SOL    HW228179   2.304   6.369   4.705
 9094SOL     OW28180   1.587   3.650   1.467
 9094SOL    HW128181   1.585   3.676   1.563
 9094SOL    HW228182   1.538   3.564   1.454
 9095SOL     OW28183   6.823   6.738   6.319
 9095SOL    HW128184   6.760   6.715   6.244
 9095SOL    HW228185   6.777   6.800   6.383
 9096SOL     OW28186   5.880   5.265   4.445
 9096SOL    HW128187   5.932   5.316   4.376
 9096SOL    HW228188   5.938   5.249   4.525
 9097SOL     OW28189   1.222   2.423   5.820
 9097SOL    HW128190   1.165   2.378   5.889
 9097SOL    HW228191   1.173   2.501   5.782
 9098SOL     OW28192   2.200   4.289   3.677
 9098SOL    HW128193   2.199   4.388   3.663
 9098SOL    HW228194   2.128   4.264   3.742
 9099SOL     OW28195   2.216   1.627   6.618
 9099SOL    HW128196   2.235   1.706   6.675
 9099SOL    HW228197   2.117   1.611   6.614
 9100SOL     OW28198   1.865   4.485   3.898
 9100SOL    HW128199   1.838   4.581   3.883
 9100SOL    HW228200   1.890   4.472   3.993
 9101SOL     OW28201   0.419   2.394   0.554
 9101SOL    HW128202   0.360   2.449   0.496
 9101SOL    HW228203   0.375   2.379   0.642
 9102SOL     OW28204   3.882   0.022   2.865
 9102SOL    HW128205   3.857   0.022   2.768
 9102SOL    HW228206   3.851   0.107   2.907
 9103SOL     OW28207   6.012   1.240   1.157
 9103SOL    HW128208   5.948   1.303   1.114
 9103SOL    HW228209   5.972   1.149   1.160
 9104SOL     OW28210   6.029   1.854   6.080
 9104SOL    HW128211   5.991   1.911   6.007
 9104SOL    HW228212   6.125   1.833   6.060
 9105SOL     OW28213   3.073   1.279   5.617
 9105SOL    HW128214   3.088   1.184   5.592
 9105SOL    HW228215   3.056   1.333   5.534
 9106SOL     OW28216   1.772   3.987   6.709
 9106SOL    HW128217   1.788   3.905   6.762
 9106SOL    HW228218   1.709   4.048   6.758
 9107SOL     OW28219   3.301   1.254   0.592
 9107SOL    HW128220   3.286   1.163   0.552
 9107SOL    HW228221   3.237   1.319   0.551
 9108SOL     OW28222   0.047   5.592   6.018
 9108SOL    HW128223   6.994   5.650   6.050
 9108SOL    HW228224   0.058   5.514   6.080
 9109SOL     OW28225   5.844   3.923   2.578
 9109SOL    HW128226   5.757   3.891   2.616
 9109SOL    HW228227   5.885   3.851   2.522
 9110SOL     OW28228   1.521   6.408   3.372
 9110SOL    HW128229   1.548   6.358   3.289
 9110SOL    HW228230   1.545   6.353   3.453
 9111SOL     OW28231   3.690   2.212   6.041
 9111SOL    HW128232   3.685   2.312   6.042
 9111SOL    HW228233   3.681   2.179   5.947
 9112SOL     OW28234   0.784   5.054   2.192
 9112SOL    HW128235   0.698   5.025   2.149
 9112SOL    HW228236   0.766   5.081   2.286
 9113SOL     OW28237   5.733   0.770   4.073
 9113SOL    HW128238   5.789   0.689   4.087
 9113SOL    HW228239   5.726   0.822   4.159
 9114SOL     OW28240   0.946   6.949   5.683
 9114SOL    HW128241   0.930   0.025   5.665
 9114SOL    HW228242   0.893   6.895   5.618
 9115SOL     OW28243   4.916   4.440   5.152
 9115SOL    HW128244   4.821   4.439   5.122
 9115SOL    HW228245   4.972   4.489   5.085
 9116SOL     OW28246   1.739   0.077   4.010
 9116SOL    HW128247   1.775   0.151   4.067
 9116SOL    HW228248   1.786   0.077   3.921
 9117SOL     OW28249   2.004   0.083   0.518
 9117SOL    HW128250   1.976   0.015   0.450
 9117SOL    HW228251   2.043   0.036   0.597
 9118SOL     OW28252   6.610   4.053   1.905
 9118SOL    HW128253   6.549   4.108   1.961
 9118SOL    HW228254   6.644   3.976   1.958
 9119SOL     OW28255   3.108   1.088   0.722
 9119SOL    HW128256   3.123   1.109   0.626
 9119SOL    HW228257   3.133   1.167   0.778
 9120SOL     OW28258   6.251   3.926   4.463
 9120SOL    HW128259   6.331   3.985   4.466
 9120SOL    HW228260   6.279   3.830   4.474
 9121SOL     OW28261   3.952   1.083   4.401
 9121SOL    HW128262   4.034   1.085   4.458
 9121SOL    HW228263   3.886   1.018   4.439
 9122SOL     OW28264   0.359   2.636   1.522
 9122SOL    HW128265   0.428   2.707   1.512
 9122SOL    HW228266   0.306   2.651   1.605
 9123SOL     OW28267   0.690   5.793   4.049
 9123SOL    HW128268   0.606   5.847   4.045
 9123SOL    HW228269   0.668   5.696   4.058
 9124SOL     OW28270   3.450   5.700   0.867
 9124SOL    HW128271   3.536   5.671   0.825
 9124SOL    HW228272   3.378   5.701   0.798
 9125SOL     OW28273   5.274   6.215   1.852
 9125SOL    HW128274   5.360   6.178   1.887
 9125SOL    HW228275   5.290   6.301   1.804
 9126SOL     OW28276   4.295   4.869   0.936
 9126SOL    HW128277   4.197   4.889   0.928
 9126SOL    HW228278   4.321   4.803   0.866
 9127SOL     OW28279   6.485   4.492   5.327
 9127SOL    HW128280   6.508   4.409   5.276
 9127SOL    HW228281   6.519   4.484   5.421
 9128SOL     OW28282   5.801   3.991   5.880
 9128SOL    HW128283   5.844   4.061   5.824
 9128SOL    HW228284   5.705   3.981   5.853
 9129SOL     OW28285   0.584   2.914   0.462
 9129SOL    HW128286   0.541   2.824   0.469
 9129SOL    HW228287   0.611   2.932   0.368
 9130SOL     OW28288   2.910   3.423   5.336
 9130SOL    HW128289   2.826   3.471   5.361
 9130SOL    HW228290   2.978   3.434   5.408
 9131SOL     OW28291   5.212   2.509   0.705
 9131SOL    HW128292   5.157   2.432   0.675
 9131SOL    HW228293   5.197   2.587   0.644
 9132SOL     OW28294   0.850   3.764   4.028
 9132SOL    HW128295   0.914   3.760   3.952
 9132SOL    HW228296   0.772   3.820   4.003
 9133SOL     OW28297   5.770   0.006   1.248
 9133SOL    HW128298   5.739   7.016   1.154
 9133SOL    HW228299   5.848   0.069   1.250
 9134SOL     OW28300   5.127   4.680   0.163
 9134SOL    HW128301   5.130   4.631   0.250
 9134SOL    HW228302   5.074   4.764   0.173
 9135SOL     OW28303   6.455   5.649   2.619
 9135SOL    HW128304   6.514   5.720   2.656
 9135SOL    HW228305   6.478   5.561   2.661
 9136SOL     OW28306   0.382   4.948   0.561
 9136SOL    HW128307   0.311   4.998   0.610
 9136SOL    HW228308   0.470   4.997   0.571
 9137SOL     OW28309   5.772   6.023   5.284
 9137SOL    HW128310   5.764   5.936   5.235
 9137SOL    HW228311   5.758   6.098   5.220
 9138SOL     OW28312   2.229   4.047   5.764
 9138SOL    HW128313   2.185   4.036   5.853
 9138SOL    HW228314   2.320   4.087   5.776
 9139SOL     OW28315   0.120   0.104   1.906
 9139SOL    HW128316   0.027   0.141   1.912
 9139SOL    HW228317   0.175   0.140   1.981
 9140SOL     OW28318   1.800   4.111   2.437
 9140SOL    HW128319   1.786   4.035   2.374
 9140SOL    HW228320   1.813   4.196   2.386
 9141SOL     OW28321   0.361   5.829   4.709
 9141SOL    HW128322   0.310   5.743   4.704
 9141SOL    HW228323   0.435   5.828   4.641
 9142SOL     OW28324   1.058   4.101   3.405
 9142SOL    HW128325   1.133   4.165   3.422
 9142SOL    HW228326   1.069   4.020   3.461
 9143SOL     OW28327   6.260   3.764   3.177
 9143SOL    HW128328   6.205   3.717   3.108
 9143SOL    HW228329   6.356   3.738   3.167
 9144SOL     OW28330   3.297   4.185   5.205
 9144SOL    HW128331   3.256   4.141   5.125
 9144SOL    HW228332   3.390   4.213   5.183
 9145SOL     OW28333   1.436   6.416   5.703
 9145SOL    HW128334   1.368   6.373   5.644
 9145SOL    HW228335   1.524   6.370   5.692
 9146SOL     OW28336   6.093   2.264   3.664
 9146SOL    HW128337   6.110   2.175   3.623
 9146SOL    HW228338   6.178   2.318   3.663
 9147SOL     OW28339   4.025   0.731   5.902
 9147SOL    HW128340   4.108   0.689   5.865
 9147SOL    HW228341   3.980   0.784   5.829
 9148SOL     OW28342   4.735   5.820   1.584
 9148SOL    HW128343   4.768   5.791   1.495
 9148SOL    HW228344   4.646   5.778   1.602
 9149SOL     OW28345   0.940   3.551   1.236
 9149SOL    HW128346   1.014   3.615   1.256
 9149SOL    HW228347   0.865   3.599   1.190
 9150SOL     OW28348   3.005   3.721   6.710
 9150SOL    HW128349   2.933   3.789   6.724
 9150SOL    HW228350   3.073   3.758   6.646
 9151SOL     OW28351   2.264   2.942   3.792
 9151SOL    HW128352   2.316   2.856   3.794
 9151SOL    HW228353   2.255   2.978   3.885
 9152SOL     OW28354   1.873   4.466   2.445
 9152SOL    HW128355   1.846   4.425   2.532
 9152SOL    HW228356   1.941   4.538   2.461
 9153SOL     OW28357   0.019   3.266   0.071
 9153SOL    HW128358   0.012   3.207   0.152
 9153SOL    HW228359   7.002   3.356   0.093
 9154SOL     OW28360   4.772   4.882   3.371
 9154SOL    HW128361   4.848   4.901   3.434
 9154SOL    HW228362   4.685   4.889   3.420
 9155SOL     OW28363   1.109   6.451   2.834
 9155SOL    HW128364   1.021   6.496   2.819
 9155SOL    HW228365   1.177   6.520   2.862
 9156SOL     OW28366   0.270   4.081   5.714
 9156SOL    HW128367   0.190   4.032   5.750
 9156SOL    HW228368   0.344   4.017   5.695
 9157SOL     OW28369   1.799   4.656   5.291
 9157SOL    HW128370   1.765   4.564   5.274
 9157SOL    HW228371   1.876   4.675   5.230
 9158SOL     OW28372   0.175   3.517   4.821
 9158SOL    HW128373   0.230   3.579   4.766
 9158SOL    HW228374   0.231   3.477   4.893
 9159SOL     OW28375   2.530   1.234   3.854
 9159SOL    HW128376   2.545   1.290   3.773
 9159SOL    HW228377   2.564   1.141   3.839
 9160SOL     OW28378   1.034   2.704   6.855
 9160SOL    HW128379   0.937   2.703   6.833
 9160SOL    HW228380   1.057   2.789   6.903
 9161SOL     OW28381   6.080   2.852   2.992
 9161SOL    HW128382   5.992   2.884   3.025
 9161SOL    HW228383   6.095   2.758   3.022
 9162SOL     OW28384   3.801   2.214   1.676
 9162SOL    HW128385   3.875   2.274   1.645
 9162SOL    HW228386   3.737   2.266   1.732
 9163SOL     OW28387   1.838   2.687   4.253
 9163SOL    HW128388   1.759   2.675   4.313
 9163SOL    HW228389   1.917   2.639   4.292
 9164SOL     OW28390   2.646   6.288   6.724
 9164SOL    HW128391   2.564   6.242   6.691
 9164SOL    HW228392   2.620   6.365   6.783
 9165SOL     OW28393   5.861   1.390   6.229
 9165SOL    HW128394   5.851   1.490   6.230
 9165SOL    HW228395   5.784   1.349   6.278
 9166SOL     OW28396   4.513   6.330   1.697
 9166SOL    HW128397   4.474   6.367   1.613
 9166SOL    HW228398   4.519   6.230   1.690
 9167SOL     OW28399   1.488   1.663   4.523
 9167SOL    HW128400   1.570   1.699   4.568
 9167SOL    HW228401   1.505   1.570   4.491
 9168SOL     OW28402   6.153   5.908   5.259
 9168SOL    HW128403   6.175   5.936   5.353
 9168SOL    HW228404   6.237   5.881   5.212
 9169SOL     OW28405   6.476   5.816   0.317
 9169SOL    HW128406   6.417   5.888   0.355
 9169SOL    HW228407   6.429   5.773   0.240
 9170SOL     OW28408   2.354   0.600   5.881
 9170SOL    HW128409   2.418   0.527   5.856
 9170SOL    HW228410   2.305   0.574   5.965
 9171SOL     OW28411   3.494   5.728   6.981
 9171SOL    HW128412   3.468   5.680   6.897
 9171SOL    HW228413   3.416   5.781   7.015
 9172SOL     OW28414   4.291   1.313   5.457
 9172SOL    HW128415   4.358   1.265   5.400
 9172SOL    HW228416   4.199   1.295   5.424
 9173SOL     OW28417   6.049   3.905   5.289
 9173SOL    HW128418   6.116   3.976   5.308
 9173SOL    HW228419   6.095   3.822   5.257
 9174SOL     OW28420   6.176   4.568   1.110
 9174SOL    HW128421   6.246   4.615   1.164
 9174SOL    HW228422   6.111   4.524   1.172
 9175SOL     OW28423   1.840   0.664   1.249
 9175SOL    HW128424   1.937   0.654   1.272
 9175SOL    HW228425   1.807   0.578   1.209
 9176SOL     OW28426   1.790   1.083   2.065
 9176SOL    HW128427   1.763   1.171   2.027
 9176SOL    HW228428   1.854   1.038   2.003
 9177SOL     OW28429   1.061   6.132   3.539
 9177SOL    HW128430   1.135   6.195   3.513
 9177SOL    HW228431   0.981   6.185   3.569
 9178SOL     OW28432   1.358   4.054   0.899
 9178SOL    HW128433   1.402   4.129   0.950
 9178SOL    HW228434   1.350   4.080   0.803
 9179SOL     OW28435   4.282   4.982   3.599
 9179SOL    HW128436   4.207   4.947   3.655
 9179SOL    HW228437   4.258   4.973   3.503
 9180SOL     OW28438   0.616   0.639   5.624
 9180SOL    HW128439   0.599   0.602   5.533
 9180SOL    HW228440   0.658   0.568   5.681
 9181SOL     OW28441   2.728   1.803   3.648
 9181SOL    HW128442   2.673   1.742   3.704
 9181SOL    HW228443   2.825   1.782   3.660
 9182SOL     OW28444   0.280   1.789   2.811
 9182SOL    HW128445   0.211   1.858   2.790
 9182SOL    HW228446   0.367   1.834   2.829
 9183SOL     OW28447   1.910   1.435   5.931
 9183SOL    HW128448   1.843   1.455   5.860
 9183SOL    HW228449   1.950   1.520   5.964
 9184SOL     OW28450   2.776   4.614   1.224
 9184SOL    HW128451   2.678   4.626   1.214
 9184SOL    HW228452   2.817   4.699   1.260
 9185SOL     OW28453   1.501   0.251   6.136
 9185SOL    HW128454   1.483   0.209   6.225
 9185SOL    HW228455   1.460   0.195   6.064
 9186SOL     OW28456   5.701   6.324   6.636
 9186SOL    HW128457   5.695   6.339   6.735
 9186SOL    HW228458   5.795   6.298   6.612
 9187SOL     OW28459   4.944   2.893   0.925
 9187SOL    HW128460   4.917   2.896   1.021
 9187SOL    HW228461   4.863   2.887   0.867
 9188SOL     OW28462   1.241   0.229   1.787
 9188SOL    HW128463   1.255   0.205   1.883
 9188SOL    HW228464   1.145   0.256   1.773
 9189SOL     OW28465   3.276   0.638   5.351
 9189SOL    HW128466   3.195   0.583   5.370
 9189SOL    HW228467   3.348   0.617   5.417
 9190SOL     OW28468   4.183   0.864   5.623
 9190SOL    HW128469   4.132   0.835   5.543
 9190SOL    HW228470   4.222   0.783   5.669
 9191SOL     OW28471   5.396   6.592   1.848
 9191SOL    HW128472   5.302   6.581   1.880
 9191SOL    HW228473   5.433   6.678   1.882
 9192SOL     OW28474   4.858   4.245   4.632
 9192SOL    HW128475   4.867   4.190   4.549
 9192SOL    HW228476   4.865   4.187   4.713
 9193SOL     OW28477   3.904   3.991   3.113
 9193SOL    HW128478   3.907   3.895   3.141
 9193SOL    HW228479   3.931   4.049   3.189
 9194SOL     OW28480   3.961   4.835   3.118
 9194SOL    HW128481   4.033   4.768   3.102
 9194SOL    HW228482   3.877   4.806   3.074
 9195SOL     OW28483   0.564   2.445   3.053
 9195SOL    HW128484   0.491   2.479   3.112
 9195SOL    HW228485   0.596   2.357   3.088
 9196SOL     OW28486   4.896   5.887   3.729
 9196SOL    HW128487   4.822   5.865   3.793
 9196SOL    HW228488   4.982   5.848   3.763
 9197SOL     OW28489   4.490   1.739   6.989
 9197SOL    HW128490   4.427   1.661   6.994
 9197SOL    HW228491   4.571   1.712   6.935
 9198SOL     OW28492   5.600   2.837   5.197
 9198SOL    HW128493   5.662   2.834   5.276
 9198SOL    HW228494   5.513   2.794   5.221
 9199SOL     OW28495   1.133   3.520   6.397
 9199SOL    HW128496   1.179   3.472   6.471
 9199SOL    HW228497   1.182   3.605   6.376
 9200SOL     OW28498   5.300   6.092   1.170
 9200SOL    HW128499   5.263   6.000   1.180
 9200SOL    HW228500   5.396   6.093   1.200
 9201SOL     OW28501   0.052   3.336   1.611
 9201SOL    HW128502   0.021   3.344   1.706
 9201SOL    HW228503   0.125   3.267   1.605
 9202SOL     OW28504   2.929   6.028   4.237
 9202SOL    HW128505   2.924   6.122   4.270
 9202SOL    HW228506   2.946   6.028   4.139
 9203SOL     OW28507   4.721   0.887   6.988
 9203SOL    HW128508   4.707   0.833   0.049
 9203SOL    HW228509   4.761   0.830   6.917
 9204SOL     OW28510   4.967   4.750   2.657
 9204SOL    HW128511   4.945   4.697   2.739
 9204SOL    HW228512   5.001   4.841   2.684
 9205SOL     OW28513   3.983   2.438   1.398
 9205SOL    HW128514   3.917   2.471   1.331
 9205SOL    HW228515   4.017   2.348   1.371
 9206SOL     OW28516   6.256   6.418   4.735
 9206SOL    HW128517   6.329   6.349   4.734
 9206SOL    HW228518   6.183   6.388   4.796
 9207SOL     OW28519   4.273   6.707   0.333
 9207SOL    HW128520   4.183   6.751   0.343
 9207SOL    HW228521   4.316   6.700   0.422
 9208SOL     OW28522   4.548   4.359   1.181
 9208SOL    HW128523   4.476   4.289   1.182
 9208SOL    HW228524   4.506   4.449   1.185
 9209SOL     OW28525   4.477   0.252   3.782
 9209SOL    HW128526   4.453   0.261   3.879
 9209SOL    HW228527   4.394   0.239   3.728
 9210SOL     OW28528   0.708   6.837   7.010
 9210SOL    HW128529   0.713   6.745   6.971
 9210SOL    HW228530   0.697   6.831   0.088
 9211SOL     OW28531   4.737   1.130   6.639
 9211SOL    HW128532   4.776   1.190   6.710
 9211SOL    HW228533   4.772   1.159   6.549
 9212SOL     OW28534   6.096   3.462   5.524
 9212SOL    HW128535   6.107   3.374   5.570
 9212SOL    HW228536   6.119   3.452   5.427
 9213SOL     OW28537   6.462   5.985   1.720
 9213SOL    HW128538   6.380   6.028   1.684
 9213SOL    HW228539   6.488   6.029   1.806
 9214SOL     OW28540   1.644   1.549   6.362
 9214SOL    HW128541   1.731   1.590   6.338
 9214SOL    HW228542   1.620   1.573   6.457
 9215SOL     OW28543   0.113   3.798   3.614
 9215SOL    HW128544   0.137   3.709   3.653
 9215SOL    HW228545   0.196   3.847   3.589
 9216SOL     OW28546   2.380   6.584   3.528
 9216SOL    HW128547   2.425   6.511   3.475
 9216SOL    HW228548   2.287   6.596   3.495
 9217SOL     OW28549   3.873   2.118   0.289
 9217SOL    HW128550   3.856   2.023   0.259
 9217SOL    HW228551   3.833   2.180   0.222
 9218SOL     OW28552   5.083   6.028   6.095
 9218SOL    HW128553   5.115   6.030   6.000
 9218SOL    HW228554   5.033   6.112   6.115
 9219SOL     OW28555   3.344   2.194   5.869
 9219SOL    HW128556   3.318   2.287   5.894
 9219SOL    HW228557   3.295   2.166   5.786
 9220SOL     OW28558   0.531   6.282   3.189
 9220SOL    HW128559   0.593   6.357   3.211
 9220SOL    HW228560   0.527   6.218   3.266
 9221SOL     OW28561   2.740   1.831   1.665
 9221SOL    HW128562   2.753   1.927   1.641
 9221SOL    HW228563   2.807   1.775   1.616
 9222SOL     OW28564   1.543   5.164   3.717
 9222SOL    HW128565   1.608   5.169   3.793
 9222SOL    HW228566   1.450   5.159   3.753
 9223SOL     OW28567   6.893   3.154   5.028
 9223SOL    HW128568   6.909   3.056   5.032
 9223SOL    HW228569   6.948   3.194   4.955
 9224SOL     OW28570   1.670   4.409   2.245
 9224SOL    HW128571   1.668   4.497   2.198
 9224SOL    HW228572   1.725   4.417   2.329
 9225SOL     OW28573   0.630   5.617   6.222
 9225SOL    HW128574   0.532   5.605   6.203
 9225SOL    HW228575   0.653   5.714   6.216
 9226SOL     OW28576   0.825   0.490   4.986
 9226SOL    HW128577   0.917   0.495   4.947
 9226SOL    HW228578   0.785   0.400   4.967
 9227SOL     OW28579   3.638   4.091   0.882
 9227SOL    HW128580   3.579   4.160   0.924
 9227SOL    HW228581   3.651   4.014   0.945
 9228SOL     OW28582   4.065   3.580   5.005
 9228SOL    HW128583   3.978   3.565   5.051
 9228SOL    HW228584   4.139   3.578   5.071
 9229SOL     OW28585   0.396   5.298   0.243
 9229SOL    HW128586   0.379   5.254   0.155
 9229SOL    HW228587   0.450   5.382   0.228
 9230SOL     OW28588   4.532   0.240   5.565
 9230SOL    HW128589   4.621   0.246   5.519
 9230SOL    HW228590   4.532   0.162   5.627
 9231SOL     OW28591   6.236   6.144   1.651
 9231SOL    HW128592   6.189   6.099   1.727
 9231SOL    HW228593   6.183   6.133   1.567
 9232SOL     OW28594   1.535   6.083   2.302
 9232SOL    HW128595   1.473   6.113   2.374
 9232SOL    HW228596   1.540   5.983   2.302
 9233SOL     OW28597   0.857   0.190   5.656
 9233SOL    HW128598   0.759   0.183   5.638
 9233SOL    HW228599   0.887   0.284   5.641
 9234SOL     OW28600   3.429   4.240   6.190
 9234SOL    HW128601   3.417   4.295   6.107
 9234SOL    HW228602   3.493   4.166   6.172
 9235SOL     OW28603   2.276   2.502   2.947
 9235SOL    HW128604   2.341   2.436   2.983
 9235SOL    HW228605   2.241   2.469   2.859
 9236SOL     OW28606   1.078   3.275   6.011
 9236SOL    HW128607   1.065   3.322   6.098
 9236SOL    HW228608   1.169   3.232   6.009
 9237SOL     OW28609   6.455   4.924   3.283
 9237SOL    HW128610   6.466   5.023   3.283
 9237SOL    HW228611   6.533   4.882   3.237
 9238SOL     OW28612   1.538   2.901   4.441
 9238SOL    HW128613   1.454   2.943   4.406
 9238SOL    HW228614   1.531   2.891   4.541
 9239SOL     OW28615   1.603   5.948   6.319
 9239SOL    HW128616   1.605   6.041   6.353
 9239SOL    HW228617   1.625   5.948   6.221
 9240SOL     OW28618   3.788   1.900   3.904
 9240SOL    HW128619   3.753   1.942   3.988
 9240SOL    HW228620   3.839   1.969   3.852
 9241SOL     OW28621   6.115   6.318   0.202
 9241SOL    HW128622   6.051   6.287   0.132
 9241SOL    HW228623   6.162   6.401   0.170
 9242SOL     OW28624   1.785   2.713   0.902
 9242SOL    HW128625   1.838   2.795   0.880
 9242SOL    HW228626   1.847   2.638   0.925
 9243SOL     OW28627   2.050   0.145   0.814
 9243SOL    HW128628   1.980   0.118   0.880
 9243SOL    HW228629   2.049   0.245   0.803
 9244SOL     OW28630   2.447   6.045   6.908
 9244SOL    HW128631   2.379   6.114   6.881
 9244SOL    HW228632   2.507   6.026   6.830
 9245SOL     OW28633   0.840   4.938   2.928
 9245SOL    HW128634   0.743   4.958   2.914
 9245SOL    HW228635   0.869   4.974   3.017
 9246SOL     OW28636   5.031   6.298   6.893
 9246SOL    HW128637   4.942   6.328   6.926
 9246SOL    HW228638   5.019   6.248   6.807
 9247SOL     OW28639   3.497   6.587   2.826
 9247SOL    HW128640   3.501   6.660   2.757
 9247SOL    HW228641   3.505   6.627   2.917
 9248SOL     OW28642   2.975   0.392   6.672
 9248SOL    HW128643   3.050   0.370   6.734
 9248SOL    HW228644   2.906   0.446   6.720
 9249SOL     OW28645   3.138   0.021   0.342
 9249SOL    HW128646   3.117   0.089   0.411
 9249SOL    HW228647   3.237   0.007   0.338
 9250SOL     OW28648   0.143   3.821   3.131
 9250SOL    HW128649   0.193   3.894   3.083
 9250SOL    HW228650   0.199   3.739   3.133
 9251SOL     OW28651   3.355   1.747   0.952
 9251SOL    HW128652   3.358   1.841   0.984
 9251SOL    HW228653   3.421   1.692   1.004
 9252SOL     OW28654   5.441   1.453   4.548
 9252SOL    HW128655   5.481   1.502   4.626
 9252SOL    HW228656   5.366   1.395   4.581
 9253SOL     OW28657   2.467   5.046   4.143
 9253SOL    HW128658   2.560   5.078   4.160
 9253SOL    HW228659   2.416   5.115   4.093
 9254SOL     OW28660   0.033   5.631   2.119
 9254SOL    HW128661   6.995   5.693   2.068
 9254SOL    HW228662   0.126   5.639   2.085
 9255SOL     OW28663   5.909   3.386   0.912
 9255SOL    HW128664   5.979   3.375   0.842
 9255SOL    HW228665   5.841   3.314   0.902
 9256SOL     OW28666   2.505   6.585   1.037
 9256SOL    HW128667   2.420   6.594   0.985
 9256SOL    HW228668   2.487   6.596   1.134
 9257SOL     OW28669   6.412   6.175   4.735
 9257SOL    HW128670   6.420   6.102   4.803
 9257SOL    HW228671   6.500   6.220   4.724
 9258SOL     OW28672   5.051   4.892   2.025
 9258SOL    HW128673   5.098   4.946   1.955
 9258SOL    HW228674   5.053   4.942   2.112
 9259SOL     OW28675   0.668   2.265   0.023
 9259SOL    HW128676   0.685   2.177   0.067
 9259SOL    HW228677   0.581   2.261   6.995
 9260SOL     OW28678   4.947   4.089   4.847
 9260SOL    HW128679   4.947   3.989   4.841
 9260SOL    HW228680   5.040   4.124   4.833
 9261SOL     OW28681   1.562   3.136   1.961
 9261SOL    HW128682   1.528   3.071   1.893
 9261SOL    HW228683   1.656   3.162   1.938
 9262SOL     OW28684   6.930   6.245   6.040
 9262SOL    HW128685   6.992   6.303   5.986
 9262SOL    HW228686   6.971   6.155   6.051
 9263SOL     OW28687   2.577   4.547   2.927
 9263SOL    HW128688   2.539   4.455   2.913
 9263SOL    HW228689   2.580   4.595   2.839
 9264SOL     OW28690   5.129   3.769   5.479
 9264SOL    HW128691   5.076   3.790   5.561
 9264SOL    HW228692   5.219   3.735   5.505
 9265SOL     OW28693   4.878   0.697   1.687
 9265SOL    HW128694   4.865   0.605   1.726
 9265SOL    HW228695   4.808   0.758   1.722
 9266SOL     OW28696   1.453   4.800   1.010
 9266SOL    HW128697   1.501   4.775   1.094
 9266SOL    HW228698   1.406   4.719   0.973
 9267SOL     OW28699   6.724   1.592   3.926
 9267SOL    HW128700   6.760   1.501   3.910
 9267SOL    HW228701   6.787   1.643   3.984
 9268SOL     OW28702   0.540   0.917   1.737
 9268SOL    HW128703   0.569   0.829   1.700
 9268SOL    HW228704   0.564   0.990   1.673
 9269SOL     OW28705   4.264   0.691   0.913
 9269SOL    HW128706   4.283   0.785   0.886
 9269SOL    HW228707   4.349   0.645   0.937
 9270SOL     OW28708   2.685   1.217   5.124
 9270SOL    HW128709   2.663   1.146   5.191
 9270SOL    HW228710   2.769   1.264   5.150
 9271SOL     OW28711   1.550   4.763   5.964
 9271SOL    HW128712   1.614   4.700   6.008
 9271SOL    HW228713   1.548   4.745   5.866
 9272SOL     OW28714   6.253   6.252   5.436
 9272SOL    HW128715   6.343   6.281   5.468
 9272SOL    HW228716   6.242   6.154   5.452
 9273SOL     OW28717   5.591   3.746   4.003
 9273SOL    HW128718   5.521   3.675   3.994
 9273SOL    HW228719   5.565   3.825   3.948
 9274SOL     OW28720   0.202   3.678   0.162
 9274SOL    HW128721   0.159   3.629   0.238
 9274SOL    HW228722   0.151   3.661   0.078
 9275SOL     OW28723   5.769   1.275   0.684
 9275SOL    HW128724   5.854   1.325   0.702
 9275SOL    HW228725   5.731   1.242   0.770
 9276SOL     OW28726   2.298   3.995   6.981
 9276SOL    HW128727   2.319   3.937   0.038
 9276SOL    HW228728   2.339   4.085   6.995
 9277SOL     OW28729   4.299   6.001   2.245
 9277SOL    HW128730   4.330   5.941   2.172
 9277SOL    HW228731   4.364   6.076   2.256
 9278SOL     OW28732   0.681   6.899   5.800
 9278SOL    HW128733   0.630   6.959   5.862
 9278SOL    HW228734   0.771   6.938   5.782
 9279SOL     OW28735   2.775   6.035   1.777
 9279SOL    HW128736   2.772   6.012   1.680
 9279SOL    HW228737   2.831   5.968   1.826
 9280SOL     OW28738   1.177   5.796   2.257
 9280SOL    HW128739   1.167   5.790   2.158
 9280SOL    HW228740   1.264   5.756   2.284
 9281SOL     OW28741   1.645   5.696   0.875
 9281SOL    HW128742   1.645   5.645   0.960
 9281SOL    HW228743   1.601   5.643   0.803
 9282SOL     OW28744   2.594   0.155   5.020
 9282SOL    HW128745   2.622   0.197   4.934
 9282SOL    HW228746   2.544   0.222   5.075
 9283SOL     OW28747   4.635   5.860   0.161
 9283SOL    HW128748   4.572   5.937   0.173
 9283SOL    HW228749   4.721   5.880   0.208
 9284SOL     OW28750   4.086   6.453   0.398
 9284SOL    HW128751   4.177   6.439   0.358
 9284SOL    HW228752   4.096   6.499   0.487
 9285SOL     OW28753   7.016   6.089   3.624
 9285SOL    HW128754   0.091   6.094   3.598
 9285SOL    HW228755   6.998   6.001   3.669
 9286SOL     OW28756   4.957   6.713   1.735
 9286SOL    HW128757   4.922   6.783   1.797
 9286SOL    HW228758   4.893   6.699   1.660
 9287SOL     OW28759   4.606   4.102   6.340
 9287SOL    HW128760   4.581   4.071   6.432
 9287SOL    HW228761   4.639   4.196   6.345
 9288SOL     OW28762   3.785   1.681   2.248
 9288SOL    HW128763   3.768   1.715   2.156
 9288SOL    HW228764   3.707   1.625   2.278
 9289SOL     OW28765   4.408   6.354   1.452
 9289SOL    HW128766   4.309   6.341   1.459
 9289SOL    HW228767   4.453   6.265   1.447
 9290SOL     OW28768   5.767   1.018   3.374
 9290SOL    HW128769   5.821   1.055   3.450
 9290SOL    HW228770   5.708   1.089   3.338
 9291SOL     OW28771   0.588   4.258   5.658
 9291SOL    HW128772   0.503   4.309   5.667
 9291SOL    HW228773   0.590   4.212   5.569
 9292SOL     OW28774   0.554   1.710   6.488
 9292SOL    HW128775   0.494   1.750   6.557
 9292SOL    HW228776   0.557   1.770   6.408
 9293SOL     OW28777   4.505   1.924   5.380
 9293SOL    HW128778   4.569   1.963   5.446
 9293SOL    HW228779   4.415   1.967   5.392
 9294SOL     OW28780   4.783   6.376   6.937
 9294SOL    HW128781   4.731   6.297   6.971
 9294SOL    HW228782   4.726   6.457   6.938
 9295SOL     OW28783   6.380   0.453   3.580
 9295SOL    HW128784   6.392   0.542   3.536
 9295SOL    HW228785   6.458   0.394   3.557
 9296SOL     OW28786   2.206   4.265   5.614
 9296SOL    HW128787   2.261   4.253   5.531
 9296SOL    HW228788   2.178   4.176   5.648
 9297SOL     OW28789   0.070   4.868   1.963
 9297SOL    HW128790   6.995   4.868   1.937
 9297SOL    HW228791   0.081   4.820   2.051
 9298SOL     OW28792   0.196   4.251   6.385
 9298SOL    HW128793   0.202   4.350   6.388
 9298SOL    HW228794   0.233   4.212   6.469
 9299SOL     OW28795   3.118   1.579   4.298
 9299SOL    HW128796   3.142   1.492   4.255
 9299SOL    HW228797   3.178   1.651   4.265
 9300SOL     OW28798   2.546   5.879   5.123
 9300SOL    HW128799   2.631   5.860   5.172
 9300SOL    HW228800   2.566   5.936   5.043
 9301SOL     OW28801   0.664   3.980   3.993
 9301SOL    HW128802   0.685   4.022   4.082
 9301SOL    HW228803   0.696   4.039   3.920
 9302SOL     OW28804   3.152   5.487   4.064
 9302SOL    HW128805   3.084   5.415   4.067
 9302SOL    HW228806   3.111   5.573   4.094
 9303SOL     OW28807   2.624   4.619   0.038
 9303SOL    HW128808   2.672   4.650   0.120
 9303SOL    HW228809   2.556   4.687   0.012
 9304SOL     OW28810   5.368   5.856   6.540
 9304SOL    HW128811   5.456   5.889   6.506
 9304SOL    HW228812   5.362   5.757   6.526
 9305SOL     OW28813   1.534   1.853   1.090
 9305SOL    HW128814   1.448   1.823   1.132
 9305SOL    HW228815   1.588   1.773   1.064
 9306SOL     OW28816   6.802   6.102   4.558
 9306SOL    HW128817   6.724   6.134   4.612
 9306SOL    HW228818   6.781   6.111   4.461
 9307SOL     OW28819   2.303   3.544   1.518
 9307SOL    HW128820   2.284   3.468   1.580
 9307SOL    HW228821   2.366   3.608   1.561
 9308SOL     OW28822   2.445   3.681   1.689
 9308SOL    HW128823   2.424   3.619   1.764
 9308SOL    HW228824   2.544   3.684   1.676
 9309SOL     OW28825   4.773   5.247   6.326
 9309SOL    HW128826   4.807   5.161   6.289
 9309SOL    HW228827   4.765   5.314   6.251
 9310SOL     OW28828   6.058   6.383   5.542
 9310SOL    HW128829   6.148   6.358   5.505
 9310SOL    HW228830   5.990   6.316   5.511
 9311SOL     OW28831   5.658   3.913   0.601
 9311SOL    HW128832   5.665   3.977   0.677
 9311SOL    HW228833   5.562   3.888   0.588
 9312SOL     OW28834   6.632   2.651   3.843
 9312SOL    HW128835   6.731   2.659   3.838
 9312SOL    HW228836   6.606   2.554   3.842
 9313SOL     OW28837   0.332   0.809   2.570
 9313SOL    HW128838   0.245   0.772   2.603
 9313SOL    HW228839   0.381   0.852   2.645
 9314SOL     OW28840   5.301   5.392   1.515
 9314SOL    HW128841   5.314   5.445   1.599
 9314SOL    HW228842   5.204   5.392   1.490
 9315SOL     OW28843   5.845   5.549   5.668
 9315SOL    HW128844   5.807   5.606   5.594
 9315SOL    HW228845   5.944   5.543   5.656
 9316SOL     OW28846   5.091   6.922   0.930
 9316SOL    HW128847   5.185   6.903   0.959
 9316SOL    HW228848   5.090   6.999   0.867
 9317SOL     OW28849   2.114   5.864   3.897
 9317SOL    HW128850   2.197   5.889   3.947
 9317SOL    HW228851   2.052   5.943   3.893
 9318SOL     OW28852   3.392   6.681   2.593
 9318SOL    HW128853   3.354   6.764   2.553
 9318SOL    HW228854   3.318   6.625   2.632
 9319SOL     OW28855   4.137   2.105   0.312
 9319SOL    HW128856   4.039   2.101   0.296
 9319SOL    HW228857   4.185   2.121   0.225
 9320SOL     OW28858   6.541   6.697   6.518
 9320SOL    HW128859   6.504   6.705   6.426
 9320SOL    HW228860   6.606   6.620   6.521
 9321SOL     OW28861   1.041   2.949   4.235
 9321SOL    HW128862   1.098   2.905   4.165
 9321SOL    HW228863   1.055   2.904   4.323
 9322SOL     OW28864   5.123   2.274   0.135
 9322SOL    HW128865   5.063   2.322   0.071
 9322SOL    HW228866   5.181   2.340   0.183
 9323SOL     OW28867   0.251   2.497   5.724
 9323SOL    HW128868   0.308   2.447   5.659
 9323SOL    HW228869   0.197   2.565   5.676
 9324SOL     OW28870   0.386   5.273   1.396
 9324SOL    HW128871   0.459   5.303   1.335
 9324SOL    HW228872   0.306   5.247   1.342
 9325SOL     OW28873   0.925   4.597   3.400
 9325SOL    HW128874   0.854   4.532   3.425
 9325SOL    HW228875   0.890   4.659   3.329
 9326SOL     OW28876   4.910   4.628   0.691
 9326SOL    HW128877   4.907   4.691   0.614
 9326SOL    HW228878   4.978   4.659   0.757
 9327SOL     OW28879   2.953   1.358   3.511
 9327SOL    HW128880   2.925   1.327   3.420
 9327SOL    HW228881   3.051   1.344   3.522
 9328SOL     OW28882   1.981   0.618   3.486
 9328SOL    HW128883   1.926   0.679   3.544
 9328SOL    HW228884   1.949   0.524   3.496
 9329SOL     OW28885   1.038   5.507   6.255
 9329SOL    HW128886   1.105   5.435   6.234
 9329SOL    HW228887   1.077   5.570   6.322
 9330SOL     OW28888   0.852   6.899   0.479
 9330SOL    HW128889   0.804   6.949   0.551
 9330SOL    HW228890   0.949   6.894   0.501
 9331SOL     OW28891   1.812   4.610   4.227
 9331SOL    HW128892   1.886   4.544   4.214
 9331SOL    HW228893   1.841   4.700   4.194
 9332SOL     OW28894   6.589   5.108   6.999
 9332SOL    HW128895   6.530   5.027   6.990
 9332SOL    HW228896   6.641   5.102   0.062
 9333SOL     OW28897   2.633   4.936   1.284
 9333SOL    HW128898   2.671   4.963   1.195
 9333SOL    HW228899   2.707   4.912   1.346
 9334SOL     OW28900   6.803   5.528   6.431
 9334SOL    HW128901   6.814   5.430   6.450
 9334SOL    HW228902   6.750   5.570   6.505
 9335SOL     OW28903   0.290   3.648   1.105
 9335SOL    HW128904   0.335   3.727   1.149
 9335SOL    HW228905   0.323   3.564   1.147
 9336SOL     OW28906   4.852   6.587   5.313
 9336SOL    HW128907   4.855   6.488   5.329
 9336SOL    HW228908   4.937   6.616   5.269
 9337SOL     OW28909   2.632   1.555   5.347
 9337SOL    HW128910   2.686   1.632   5.383
 9337SOL    HW228911   2.600   1.578   5.255
 9338SOL     OW28912   5.242   6.717   0.695
 9338SOL    HW128913   5.289   6.770   0.766
 9338SOL    HW228914   5.243   6.620   0.721
 9339SOL     OW28915   6.754   3.708   5.207
 9339SOL    HW128916   6.740   3.619   5.250
 9339SOL    HW228917   6.669   3.737   5.163
 9340SOL     OW28918   2.483   4.889   2.490
 9340SOL    HW128919   2.538   4.816   2.449
 9340SOL    HW228920   2.519   4.978   2.461
 9341SOL     OW28921   5.847   5.067   6.970
 9341SOL    HW128922   5.921   5.001   6.981
 9341SOL    HW228923   5.869   5.151   7.021
 9342SOL     OW28924   3.080   0.142   5.219
 9342SOL    HW128925   2.987   0.167   5.191
 9342SOL    HW228926   3.077   0.099   5.309
 9343SOL     OW28927   4.898   3.954   1.094
 9343SOL    HW128928   4.830   3.983   1.162
 9343SOL    HW228929   4.852   3.910   1.017
 9344SOL     OW28930   5.878   0.051   4.746
 9344SOL    HW128931   5.902   6.986   4.703
 9344SOL    HW228932   5.962   0.103   4.765
 9345SOL     OW28933   0.068   4.610   6.998
 9345SOL    HW128934   0.100   4.698   6.964
 9345SOL    HW228935   0.144   4.545   7.003
 9346SOL     OW28936   5.068   0.462   2.283
 9346SOL    HW128937   5.088   0.476   2.380
 9346SOL    HW228938   5.046   0.549   2.240
 9347SOL     OW28939   4.776   5.987   1.829
 9347SOL    HW128940   4.850   6.049   1.801
 9347SOL    HW228941   4.748   5.931   1.751
 9348SOL     OW28942   2.385   5.153   2.049
 9348SOL    HW128943   2.297   5.116   2.020
 9348SOL    HW228944   2.435   5.084   2.102
 9349SOL     OW28945   6.414   6.273   0.947
 9349SOL    HW128946   6.338   6.303   1.004
 9349SOL    HW228947   6.379   6.218   0.871
 9350SOL     OW28948   6.408   0.372   0.501
 9350SOL    HW128949   6.401   0.286   0.451
 9350SOL    HW228950   6.409   0.448   0.436
 9351SOL     OW28951   4.209   3.708   6.175
 9351SOL    HW128952   4.293   3.667   6.138
 9351SOL    HW228953   4.217   3.713   6.275
 9352SOL     OW28954   2.755   2.676   6.557
 9352SOL    HW128955   2.673   2.621   6.544
 9352SOL    HW228956   2.798   2.652   6.644
 9353SOL     OW28957   1.119   3.090   1.388
 9353SOL    HW128958   1.166   3.178   1.398
 9353SOL    HW228959   1.030   3.105   1.346
 9354SOL     OW28960   5.524   2.065   1.747
 9354SOL    HW128961   5.491   2.072   1.841
 9354SOL    HW228962   5.563   1.974   1.731
 9355SOL     OW28963   7.009   1.631   1.976
 9355SOL    HW128964   6.956   1.549   1.952
 9355SOL    HW228965   0.034   1.616   2.063
 9356SOL     OW28966   5.646   3.148   2.707
 9356SOL    HW128967   5.722   3.180   2.765
 9356SOL    HW228968   5.570   3.211   2.713
 9357SOL     OW28969   2.525   4.684   0.481
 9357SOL    HW128970   2.508   4.781   0.499
 9357SOL    HW228971   2.557   4.640   0.564
 9358SOL     OW28972   5.218   3.605   2.452
 9358SOL    HW128973   5.177   3.614   2.362
 9358SOL    HW228974   5.263   3.691   2.477
 9359SOL     OW28975   5.173   5.520   5.960
 9359SOL    HW128976   5.129   5.452   5.903
 9359SOL    HW228977   5.156   5.499   6.057
 9360SOL     OW28978   0.949   1.171   5.037
 9360SOL    HW128979   0.957   1.073   5.056
 9360SOL    HW228980   1.040   1.208   5.015
 9361SOL     OW28981   2.319   1.040   2.146
 9361SOL    HW128982   2.304   1.037   2.047
 9361SOL    HW228983   2.398   1.098   2.166
 9362SOL     OW28984   2.056   1.816   3.035
 9362SOL    HW128985   2.066   1.853   2.943
 9362SOL    HW228986   1.962   1.831   3.067
 9363SOL     OW28987   1.650   6.342   2.044
 9363SOL    HW128988   1.682   6.437   2.040
 9363SOL    HW228989   1.729   6.281   2.053
 9364SOL     OW28990   5.644   4.557   1.026
 9364SOL    HW128991   5.584   4.511   1.091
 9364SOL    HW228992   5.665   4.649   1.059
 9365SOL     OW28993   2.667   0.833   4.294
 9365SOL    HW128994   2.598   0.901   4.317
 9365SOL    HW228995   2.637   0.743   4.326
 9366SOL     OW28996   3.164   1.054   1.918
 9366SOL    HW128997   3.219   1.138   1.916
 9366SOL    HW228998   3.163   1.012   1.827
 9367SOL     OW28999   6.401   6.233   4.385
 9367SOL    HW129000   6.429   6.138   4.402
 9367SOL    HW229001   6.466   6.275   4.321
 9368SOL     OW29002   4.322   2.931   0.595
 9368SOL    HW129003   4.268   2.939   0.511
 9368SOL    HW229004   4.376   3.014   0.607
 9369SOL     OW29005   6.998   2.370   5.624
 9369SOL    HW129006   6.940   2.341   5.700
 9369SOL    HW229007   0.072   2.348   5.646
 9370SOL     OW29008   6.122   5.721   2.996
 9370SOL    HW129009   6.139   5.819   2.987
 9370SOL    HW229010   6.210   5.672   2.998
 9371SOL     OW29011   1.014   6.621   0.260
 9371SOL    HW129012   0.972   6.590   0.345
 9371SOL    HW229013   1.096   6.566   0.241
 9372SOL     OW29014   5.753   6.560   0.126
 9372SOL    HW129015   5.718   6.468   0.145
 9372SOL    HW229016   5.817   6.586   0.198
 9373SOL     OW29017   5.135   2.496   4.585
 9373SOL    HW129018   5.130   2.589   4.550
 9373SOL    HW229019   5.061   2.442   4.544
 9374SOL     OW29020   4.945   4.255   0.499
 9374SOL    HW129021   4.933   4.200   0.581
 9374SOL    HW229022   5.007   4.331   0.518
 9375SOL     OW29023   0.083   1.541   3.891
 9375SOL    HW129024   0.046   1.467   3.835
 9375SOL    HW229025   0.038   1.627   3.865
 9376SOL     OW29026   1.708   2.833   1.561
 9376SOL    HW129027   1.660   2.919   1.543
 9376SOL    HW229028   1.772   2.846   1.637
 9377SOL     OW29029   6.322   5.014   2.620
 9377SOL    HW129030   6.325   5.009   2.520
 9377SOL    HW229031   6.230   5.036   2.650
 9378SOL     OW29032   3.256   5.915   1.528
 9378SOL    HW129033   3.268   5.869   1.440
 9378SOL    HW229034   3.305   6.002   1.528
 9379SOL     OW29035   5.973   4.549   5.052
 9379SOL    HW129036   6.019   4.627   5.095
 9379SOL    HW229037   5.961   4.567   4.955
 9380SOL     OW29038   5.881   5.726   6.136
 9380SOL    HW129039   5.833   5.683   6.212
 9380SOL    HW229040   5.957   5.668   6.106
 9381SOL     OW29041   1.514   0.924   0.367
 9381SOL    HW129042   1.516   0.959   0.461
 9381SOL    HW229043   1.495   0.826   0.369
 9382SOL     OW29044   5.620   2.085   2.029
 9382SOL    HW129045   5.624   2.182   2.052
 9382SOL    HW229046   5.675   2.033   2.094
 9383SOL     OW29047   6.104   5.076   5.621
 9383SOL    HW129048   6.141   5.148   5.563
 9383SOL    HW229049   6.004   5.083   5.624
 9384SOL     OW29050   3.656   6.371   2.775
 9384SOL    HW129051   3.579   6.434   2.787
 9384SOL    HW229052   3.734   6.422   2.738
 9385SOL     OW29053   3.936   0.756   4.317
 9385SOL    HW129054   4.000   0.774   4.242
 9385SOL    HW229055   3.877   0.679   4.293
 9386SOL     OW29056   4.291   0.387   5.378
 9386SOL    HW129057   4.322   0.479   5.401
 9386SOL    HW229058   4.353   0.320   5.417
 9387SOL     OW29059   3.773   6.324   0.982
 9387SOL    HW129060   3.816   6.389   0.920
 9387SOL    HW229061   3.831   6.311   1.062
 9388SOL     OW29062   6.167   6.832   2.287
 9388SOL    HW129063   6.228   6.830   2.209
 9388SOL    HW229064   6.075   6.858   2.257
 9389SOL     OW29065   3.559   1.597   6.905
 9389SOL    HW129066   3.493   1.625   6.975
 9389SOL    HW229067   3.629   1.668   6.895
 9390SOL     OW29068   2.757   5.980   1.373
 9390SOL    HW129069   2.827   5.956   1.439
 9390SOL    HW229070   2.667   5.949   1.406
 9391SOL     OW29071   6.987   1.080   5.573
 9391SOL    HW129072   0.061   1.057   5.555
 9391SOL    HW229073   6.966   1.170   5.536
 9392SOL     OW29074   1.317   6.678   4.629
 9392SOL    HW129075   1.336   6.647   4.722
 9392SOL    HW229076   1.359   6.768   4.616
 9393SOL     OW29077   3.884   1.862   5.160
 9393SOL    HW129078   3.850   1.955   5.149
 9393SOL    HW229079   3.810   1.796   5.149
 9394SOL     OW29080   5.365   2.723   1.640
 9394SOL    HW129081   5.414   2.663   1.703
 9394SOL    HW229082   5.280   2.679   1.612
 9395SOL     OW29083   2.017   3.091   6.193
 9395SOL    HW129084   1.953   3.017   6.170
 9395SOL    HW229085   2.030   3.149   6.113
 9396SOL     OW29086   6.370   0.453   6.902
 9396SOL    HW129087   6.308   0.381   6.871
 9396SOL    HW229088   6.343   0.483   6.994
 9397SOL     OW29089   2.780   1.579   1.350
 9397SOL    HW129090   2.781   1.606   1.446
 9397SOL    HW229091   2.743   1.653   1.295
 9398SOL     OW29092   2.151   1.505   0.934
 9398SOL    HW129093   2.143   1.598   0.899
 9398SOL    HW229094   2.240   1.493   0.978
 9399SOL     OW29095   6.844   0.531   5.316
 9399SOL    HW129096   6.892   0.618   5.318
 9399SOL    HW229097   6.871   0.476   5.395
 9400SOL     OW29098   4.019   2.219   3.306
 9400SOL    HW129099   4.044   2.298   3.250
 9400SOL    HW229100   4.088   2.205   3.377
 9401SOL     OW29101   4.078   0.167   3.381
 9401SOL    HW129102   4.168   0.127   3.370
 9401SOL    HW229103   4.070   0.247   3.321
 9402SOL     OW29104   2.287   4.880   0.273
 9402SOL    HW129105   2.365   4.894   0.335
 9402SOL    HW229106   2.202   4.896   0.323
 9403SOL     OW29107   5.700   0.828   4.961
 9403SOL    HW129108   5.639   0.805   4.885
 9403SOL    HW229109   5.792   0.795   4.941
 9404SOL     OW29110   1.287   4.291   5.497
 9404SOL    HW129111   1.348   4.216   5.522
 9404SOL    HW229112   1.341   4.368   5.465
 9405SOL     OW29113   6.988   0.467   0.902
 9405SOL    HW129114   6.891   0.455   0.925
 9405SOL    HW229115   7.003   0.436   0.808
 9406SOL     OW29116   6.715   1.077   5.695
 9406SOL    HW129117   6.656   1.026   5.633
 9406SOL    HW229118   6.807   1.039   5.694
 9407SOL     OW29119   3.659   5.997   3.080
 9407SOL    HW129120   3.596   6.048   3.021
 9407SOL    HW229121   3.730   5.955   3.023
 9408SOL     OW29122   4.102   2.133   6.861
 9408SOL    HW129123   4.129   2.061   6.797
 9408SOL    HW229124   4.140   2.113   6.952
 9409SOL     OW29125   6.006   3.290   3.422
 9409SOL    HW129126   5.987   3.284   3.520
 9409SOL    HW229127   6.066   3.215   3.395
 9410SOL     OW29128   4.527   6.559   1.867
 9410SOL    HW129129   4.516   6.490   1.796
 9410SOL    HW229130   4.601   6.532   1.929
 9411SOL     OW29131   4.882   5.700   1.387
 9411SOL    HW129132   4.974   5.724   1.356
 9411SOL    HW229133   4.837   5.645   1.317
 9412SOL     OW29134   6.329   3.008   2.052
 9412SOL    HW129135   6.379   2.968   2.128
 9412SOL    HW229136   6.263   3.075   2.087
 9413SOL     OW29137   3.532   5.213   4.063
 9413SOL    HW129138   3.545   5.143   3.993
 9413SOL    HW229139   3.436   5.213   4.092
 9414SOL     OW29140   2.258   1.019   2.424
 9414SOL    HW129141   2.354   0.991   2.421
 9414SOL    HW229142   2.221   1.022   2.331
 9415SOL     OW29143   2.788   0.985   2.219
 9415SOL    HW129144   2.821   1.037   2.298
 9415SOL    HW229145   2.721   0.917   2.248
 9416SOL     OW29146   1.691   2.099   1.091
 9416SOL    HW129147   1.770   2.095   1.152
 9416SOL    HW229148   1.637   2.015   1.102
 9417SOL     OW29149   2.084   0.541   4.546
 9417SOL    HW129150   2.155   0.492   4.496
 9417SOL    HW229151   2.109   0.545   4.643
 9418SOL     OW29152   3.997   4.429   1.318
 9418SOL    HW129153   3.998   4.423   1.219
 9418SOL    HW229154   4.081   4.391   1.355
 9419SOL     OW29155   3.543   5.629   4.203
 9419SOL    HW129156   3.576   5.598   4.114
 9419SOL    HW229157   3.566   5.725   4.216
 9420SOL     OW29158   1.233   1.503   4.596
 9420SOL    HW129159   1.250   1.409   4.564
 9420SOL    HW229160   1.321   1.550   4.608
 9421SOL     OW29161   1.636   5.058   4.303
 9421SOL    HW129162   1.630   4.975   4.247
 9421SOL    HW229163   1.720   5.055   4.357
 9422SOL     OW29164   4.310   1.137   2.768
 9422SOL    HW129165   4.271   1.136   2.676
 9422SOL    HW229166   4.404   1.102   2.765
 9423SOL     OW29167   4.868   0.128   4.856
 9423SOL    HW129168   4.782   0.148   4.809
 9423SOL    HW229169   4.896   0.208   4.909
 9424SOL     OW29170   3.264   6.054   4.350
 9424SOL    HW129171   3.214   6.139   4.365
 9424SOL    HW229172   3.235   6.013   4.263
 9425SOL     OW29173   1.191   4.707   3.225
 9425SOL    HW129174   1.235   4.693   3.136
 9425SOL    HW229175   1.150   4.622   3.257
 9426SOL     OW29176   3.537   6.171   0.991
 9426SOL    HW129177   3.467   6.242   1.001
 9426SOL    HW229178   3.624   6.214   0.964
 9427SOL     OW29179   3.294   4.890   4.250
 9427SOL    HW129180   3.218   4.851   4.302
 9427SOL    HW229181   3.272   4.888   4.152
 9428SOL     OW29182   4.705   6.246   2.205
 9428SOL    HW129183   4.686   6.183   2.130
 9428SOL    HW229184   4.799   6.234   2.237
 9429SOL     OW29185   6.876   3.172   2.548
 9429SOL    HW129186   6.885   3.239   2.621
 9429SOL    HW229187   6.861   3.218   2.461
 9430SOL     OW29188   5.566   0.092   1.943
 9430SOL    HW129189   5.488   0.051   1.990
 9430SOL    HW229190   5.583   0.183   1.981
 9431SOL     OW29191   6.388   3.894   1.007
 9431SOL    HW129192   6.404   3.828   1.080
 9431SOL    HW229193   6.291   3.917   1.002
 9432SOL     OW29194   6.665   6.878   4.332
 9432SOL    HW129195   6.648   6.795   4.385
 9432SOL    HW229196   6.763   6.888   4.316
 9433SOL     OW29197   3.185   4.860   4.607
 9433SOL    HW129198   3.230   4.849   4.696
 9433SOL    HW229199   3.166   4.770   4.568
 9434SOL     OW29200   5.504   4.553   2.857
 9434SOL    HW129201   5.416   4.539   2.811
 9434SOL    HW229202   5.488   4.565   2.955
 9435SOL     OW29203   1.882   1.793   4.856
 9435SOL    HW129204   1.976   1.789   4.891
 9435SOL    HW229205   1.876   1.866   4.787
 9436SOL     OW29206   2.216   2.231   6.017
 9436SOL    HW129207   2.298   2.201   6.065
 9436SOL    HW229208   2.240   2.303   5.952
 9437SOL     OW29209   0.607   5.012   3.904
 9437SOL    HW129210   0.602   5.097   3.851
 9437SOL    HW229211   0.533   5.012   3.972
 9438SOL     OW29212   0.548   6.950   2.288
 9438SOL    HW129213   0.553   6.957   2.387
 9438SOL    HW229214   0.617   6.885   2.255
 9439SOL     OW29215   1.626   3.085   1.600
 9439SOL    HW129216   1.587   3.166   1.558
 9439SOL    HW229217   1.563   3.050   1.670
 9440SOL     OW29218   4.429   5.963   5.252
 9440SOL    HW129219   4.515   6.014   5.257
 9440SOL    HW229220   4.424   5.914   5.165
 9441SOL     OW29221   1.747   5.673   5.325
 9441SOL    HW129222   1.670   5.693   5.386
 9441SOL    HW229223   1.740   5.579   5.293
 9442SOL     OW29224   0.659   3.722   1.236
 9442SOL    HW129225   0.618   3.806   1.272
 9442SOL    HW229226   0.624   3.643   1.286
 9443SOL     OW29227   2.243   3.310   1.267
 9443SOL    HW129228   2.260   3.228   1.212
 9443SOL    HW229229   2.144   3.328   1.270
 9444SOL     OW29230   0.549   4.047   5.932
 9444SOL    HW129231   0.557   4.101   5.848
 9444SOL    HW229232   0.619   4.076   5.997
 9445SOL     OW29233   6.281   3.225   1.493
 9445SOL    HW129234   6.192   3.227   1.448
 9445SOL    HW229235   6.344   3.168   1.440
 9446SOL     OW29236   6.013   4.692   0.933
 9446SOL    HW129237   6.092   4.661   0.985
 9446SOL    HW229238   5.996   4.789   0.953
 9447SOL     OW29239   6.146   2.299   1.488
 9447SOL    HW129240   6.181   2.213   1.525
 9447SOL    HW229241   6.177   2.311   1.394
 9448SOL     OW29242   6.310   6.334   0.406
 9448SOL    HW129243   6.338   6.267   0.338
 9448SOL    HW229244   6.216   6.365   0.387
 9449SOL     OW29245   6.733   5.165   5.123
 9449SOL    HW129246   6.783   5.246   5.092
 9449SOL    HW229247   6.773   5.132   5.209
 9450SOL     OW29248   2.834   5.652   4.194
 9450SOL    HW129249   2.828   5.736   4.248
 9450SOL    HW229250   2.929   5.620   4.192
 9451SOL     OW29251   4.200   4.288   5.530
 9451SOL    HW129252   4.156   4.377   5.533
 9451SOL    HW229253   4.286   4.292   5.580
 9452SOL     OW29254   2.721   4.457   1.454
 9452SOL    HW129255   2.731   4.518   1.374
 9452SOL    HW229256   2.724   4.512   1.537
 9453SOL     OW29257   3.060   5.343   1.602
 9453SOL    HW129258   3.038   5.354   1.505
 9453SOL    HW229259   3.134   5.407   1.627
 9454SOL     OW29260   1.919   1.748   5.618
 9454SOL    HW129261   1.890   1.769   5.712
 9454SOL    HW229262   1.844   1.770   5.555
 9455SOL     OW29263   2.463   2.368   2.261
 9455SOL    HW129264   2.557   2.401   2.274
 9455SOL    HW229265   2.432   2.323   2.344
 9456SOL     OW29266   1.293   3.726   0.694
 9456SOL    HW129267   1.341   3.751   0.778
 9456SOL    HW229268   1.345   3.654   0.646
 9457SOL     OW29269   6.551   3.416   0.607
 9457SOL    HW129270   6.495   3.435   0.687
 9457SOL    HW229271   6.544   3.320   0.582
 9458SOL     OW29272   0.660   5.513   4.115
 9458SOL    HW129273   0.605   5.431   4.128
 9458SOL    HW229274   0.756   5.491   4.130
 9459SOL     OW29275   4.134   6.245   1.571
 9459SOL    HW129276   4.074   6.305   1.518
 9459SOL    HW229277   4.134   6.274   1.666
 9460SOL     OW29278   1.042   2.577   5.671
 9460SOL    HW129279   0.953   2.534   5.657
 9460SOL    HW229280   1.102   2.557   5.594
 9461SOL     OW29281   1.483   0.800   2.780
 9461SOL    HW129282   1.436   0.717   2.807
 9461SOL    HW229283   1.581   0.781   2.770
 9462SOL     OW29284   0.009   3.397   2.885
 9462SOL    HW129285   6.990   3.433   2.969
 9462SOL    HW229286   0.035   3.301   2.899
 9463SOL     OW29287   5.628   1.899   6.695
 9463SOL    HW129288   5.559   1.968   6.718
 9463SOL    HW229289   5.719   1.937   6.713
 9464SOL     OW29290   4.499   6.923   5.952
 9464SOL    HW129291   4.587   6.896   5.990
 9464SOL    HW229292   4.455   6.988   6.013
 9465SOL     OW29293   5.754   0.202   4.398
 9465SOL    HW129294   5.819   0.242   4.463
 9465SOL    HW229295   5.678   0.161   4.449
 9466SOL     OW29296   2.328   2.307   0.049
 9466SOL    HW129297   2.418   2.316   0.091
 9466SOL    HW229298   2.338   2.281   6.975
 9467SOL     OW29299   2.084   3.253   2.025
 9467SOL    HW129300   2.141   3.334   2.007
 9467SOL    HW229301   2.100   3.220   2.118
 9468SOL     OW29302   0.339   2.483   6.201
 9468SOL    HW129303   0.402   2.510   6.274
 9468SOL    HW229304   0.309   2.564   6.151
 9469SOL     OW29305   6.463   3.935   2.716
 9469SOL    HW129306   6.468   4.032   2.695
 9469SOL    HW229307   6.398   3.921   2.791
 9470SOL     OW29308   5.903   3.423   1.500
 9470SOL    HW129309   5.840   3.496   1.526
 9470SOL    HW229310   5.911   3.357   1.575
 9471SOL     OW29311   0.680   2.686   6.049
 9471SOL    HW129312   0.622   2.627   5.993
 9471SOL    HW229313   0.732   2.747   5.990
 9472SOL     OW29314   6.608   2.426   4.584
 9472SOL    HW129315   6.591   2.363   4.660
 9472SOL    HW229316   6.521   2.453   4.544
 9473SOL     OW29317   4.108   5.389   4.750
 9473SOL    HW129318   4.022   5.338   4.752
 9473SOL    HW229319   4.157   5.375   4.835
 9474SOL     OW29320   3.806   5.193   3.604
 9474SOL    HW129321   3.842   5.101   3.620
 9474SOL    HW229322   3.871   5.261   3.637
 9475SOL     OW29323   1.784   3.275   1.360
 9475SOL    HW129324   1.859   3.305   1.420
 9475SOL    HW229325   1.812   3.193   1.310
 9476SOL     OW29326   3.802   3.663   5.373
 9476SOL    HW129327   3.895   3.687   5.399
 9476SOL    HW229328   3.778   3.575   5.414
 9477SOL     OW29329   0.208   2.064   1.178
 9477SOL    HW129330   0.265   2.140   1.208
 9477SOL    HW229331   0.243   2.029   1.091
 9478SOL     OW29332   5.321   4.116   5.581
 9478SOL    HW129333   5.308   4.062   5.664
 9478SOL    HW229334   5.233   4.148   5.547
 9479SOL     OW29335   6.407   5.830   5.201
 9479SOL    HW129336   6.426   5.816   5.298
 9479SOL    HW229337   6.432   5.923   5.175
 9480SOL     OW29338   5.781   3.957   6.505
 9480SOL    HW129339   5.833   4.027   6.456
 9480SOL    HW229340   5.733   3.898   6.440
 9481SOL     OW29341   6.141   3.332   2.523
 9481SOL    HW129342   6.211   3.402   2.507
 9481SOL    HW229343   6.094   3.351   2.609
 9482SOL     OW29344   4.492   0.136   2.775
 9482SOL    HW129345   4.411   0.119   2.719
 9482SOL    HW229346   4.571   0.150   2.716
 9483SOL     OW29347   1.845   1.808   0.683
 9483SOL    HW129348   1.899   1.748   0.624
 9483SOL    HW229349   1.748   1.798   0.661
 9484SOL     OW29350   6.002   1.163   2.525
 9484SOL    HW129351   5.973   1.090   2.587
 9484SOL    HW229352   6.098   1.150   2.500
 9485SOL     OW29353   0.992   0.540   2.881
 9485SOL    HW129354   0.932   0.612   2.846
 9485SOL    HW229355   1.081   0.580   2.903
 9486SOL     OW29356   2.568   5.573   2.287
 9486SOL    HW129357   2.563   5.593   2.189
 9486SOL    HW229358   2.559   5.658   2.339
 9487SOL     OW29359   3.397   2.922   3.318
 9487SOL    HW129360   3.358   3.011   3.343
 9487SOL    HW229361   3.475   2.902   3.377
 9488SOL     OW29362   0.918   1.125   1.433
 9488SOL    HW129363   0.884   1.050   1.375
 9488SOL    HW229364   0.969   1.086   1.510
 9489SOL     OW29365   3.350   4.296   0.558
 9489SOL    HW129366   3.415   4.322   0.486
 9489SOL    HW229367   3.387   4.219   0.610
 9490SOL     OW29368   5.558   1.463   0.204
 9490SOL    HW129369   5.555   1.446   0.302
 9490SOL    HW229370   5.648   1.440   0.168
 9491SOL     OW29371   6.838   5.094   5.356
 9491SOL    HW129372   6.794   5.014   5.397
 9491SOL    HW229373   6.937   5.090   5.373
 9492SOL     OW29374   2.882   4.205   1.461
 9492SOL    HW129375   2.818   4.277   1.436
 9492SOL    HW229376   2.913   4.220   1.556
 9493SOL     OW29377   5.762   6.452   2.752
 9493SOL    HW129378   5.850   6.458   2.705
 9493SOL    HW229379   5.690   6.436   2.685
 9494SOL     OW29380   3.493   3.242   6.000
 9494SOL    HW129381   3.483   3.326   6.053
 9494SOL    HW229382   3.552   3.178   6.050
 9495SOL     OW29383   5.729   2.119   4.926
 9495SOL    HW129384   5.633   2.091   4.932
 9495SOL    HW229385   5.759   2.152   5.016
 9496SOL     OW29386   5.659   3.840   0.110
 9496SOL    HW129387   5.695   3.895   0.184
 9496SOL    HW229388   5.720   3.846   0.031
 9497SOL     OW29389   6.994   6.505   6.005
 9497SOL    HW129390   6.920   6.568   6.028
 9497SOL    HW229391   0.060   6.555   6.008
 9498SOL     OW29392   4.025   6.984   5.906
 9498SOL    HW129393   4.089   6.992   5.829
 9498SOL    HW229394   4.065   6.924   5.975
 9499SOL     OW29395   4.714   4.322   6.426
 9499SOL    HW129396   4.778   4.388   6.386
 9499SOL    HW229397   4.627   4.367   6.444
 9500SOL     OW29398   4.850   5.633   2.088
 9500SOL    HW129399   4.938   5.623   2.133
 9500SOL    HW229400   4.825   5.730   2.085
 9501SOL     OW29401   3.189   1.631   4.858
 9501SOL    HW129402   3.118   1.687   4.901
 9501SOL    HW229403   3.164   1.614   4.762
 9502SOL     OW29404   4.975   3.584   5.725
 9502SOL    HW129405   5.010   3.625   5.809
 9502SOL    HW229406   4.927   3.499   5.747
 9503SOL     OW29407   1.062   6.967   0.769
 9503SOL    HW129408   0.972   7.007   0.786
 9503SOL    HW229409   1.115   0.006   0.710
 9504SOL     OW29410   1.080   3.418   6.774
 9504SOL    HW129411   0.992   3.464   6.786
 9504SOL    HW229412   1.076   3.361   6.691
 9505SOL     OW29413   4.882   3.546   2.857
 9505SOL    HW129414   4.919   3.579   2.943
 9505SOL    HW229415   4.889   3.447   2.853
 9506SOL     OW29416   6.367   2.791   0.527
 9506SOL    HW129417   6.357   2.693   0.540
 9506SOL    HW229418   6.432   2.827   0.595
 9507SOL     OW29419   0.884   2.008   4.150
 9507SOL    HW129420   0.864   2.101   4.119
 9507SOL    HW229421   0.816   1.980   4.219
 9508SOL     OW29422   4.991   1.949   6.563
 9508SOL    HW129423   5.025   1.862   6.597
 9508SOL    HW229424   5.016   2.022   6.626
 9509SOL     OW29425   2.869   6.292   5.424
 9509SOL    HW129426   2.910   6.202   5.414
 9509SOL    HW229427   2.928   6.362   5.384
 9510SOL     OW29428   6.628   4.353   3.494
 9510SOL    HW129429   6.718   4.374   3.455
 9510SOL    HW229430   6.559   4.411   3.451
 9511SOL     OW29431   1.722   1.060   0.878
 9511SOL    HW129432   1.732   1.148   0.924
 9511SOL    HW229433   1.707   0.988   0.945
 9512SOL     OW29434   1.358   2.434   4.453
 9512SOL    HW129435   1.282   2.370   4.462
 9512SOL    HW229436   1.423   2.399   4.386
 9513SOL     OW29437   2.345   4.311   4.022
 9513SOL    HW129438   2.288   4.230   4.008
 9513SOL    HW229439   2.345   4.336   4.119
 9514SOL     OW29440   2.573   2.853   6.316
 9514SOL    HW129441   2.542   2.855   6.411
 9514SOL    HW229442   2.510   2.799   6.261
 9515SOL     OW29443   2.602   5.510   5.424
 9515SOL    HW129444   2.645   5.450   5.356
 9515SOL    HW229445   2.504   5.513   5.408
 9516SOL     OW29446   5.330   3.999   4.748
 9516SOL    HW129447   5.350   3.975   4.843
 9516SOL    HW229448   5.406   4.051   4.709
 9517SOL     OW29449   0.762   5.736   1.568
 9517SOL    HW129450   0.762   5.703   1.662
 9517SOL    HW229451   0.809   5.824   1.563
 9518SOL     OW29452   0.755   2.995   5.613
 9518SOL    HW129453   0.834   2.946   5.576
 9518SOL    HW229454   0.676   2.933   5.615
 9519SOL     OW29455   4.014   3.167   3.624
 9519SOL    HW129456   3.973   3.210   3.544
 9519SOL    HW229457   3.984   3.072   3.630
 9520SOL     OW29458   5.201   0.315   6.426
 9520SOL    HW129459   5.147   0.232   6.419
 9520SOL    HW229460   5.160   0.376   6.493
 9521SOL     OW29461   3.479   1.131   0.974
 9521SOL    HW129462   3.545   1.059   0.998
 9521SOL    HW229463   3.472   1.137   0.875
 9522SOL     OW29464   3.157   5.803   2.013
 9522SOL    HW129465   3.208   5.845   1.939
 9522SOL    HW229466   3.172   5.853   2.098
 9523SOL     OW29467   2.692   4.680   4.072
 9523SOL    HW129468   2.781   4.724   4.062
 9523SOL    HW229469   2.670   4.673   4.169
 9524SOL     OW29470   2.321   4.040   0.918
 9524SOL    HW129471   2.343   3.947   0.887
 9524SOL    HW229472   2.368   4.057   1.005
 9525SOL     OW29473   2.514   3.206   5.375
 9525SOL    HW129474   2.509   3.138   5.302
 9525SOL    HW229475   2.471   3.291   5.344
 9526SOL     OW29476   5.497   5.074   0.127
 9526SOL    HW129477   5.565   5.011   0.089
 9526SOL    HW229478   5.445   5.116   0.053
 9527SOL     OW29479   4.391   6.574   4.019
 9527SOL    HW129480   4.377   6.673   4.007
 9527SOL    HW229481   4.399   6.530   3.930
 9528SOL     OW29482   5.438   2.104   0.420
 9528SOL    HW129483   5.453   2.200   0.445
 9528SOL    HW229484   5.488   2.045   0.484
 9529SOL     OW29485   5.862   1.214   1.685
 9529SOL    HW129486   5.924   1.191   1.761
 9529SOL    HW229487   5.893   1.167   1.602
 9530SOL     OW29488   1.779   5.664   3.777
 9530SOL    HW129489   1.768   5.757   3.812
 9530SOL    HW229490   1.763   5.599   3.850
 9531SOL     OW29491   3.504   5.591   2.388
 9531SOL    HW129492   3.521   5.689   2.403
 9531SOL    HW229493   3.572   5.538   2.439
 9532SOL     OW29494   6.496   5.193   3.286
 9532SOL    HW129495   6.565   5.236   3.228
 9532SOL    HW229496   6.517   5.210   3.382
 9533SOL     OW29497   1.674   3.870   3.608
 9533SOL    HW129498   1.663   3.926   3.526
 9533SOL    HW229499   1.591   3.876   3.663
 9534SOL     OW29500   5.456   5.156   4.642
 9534SOL    HW129501   5.381   5.219   4.664
 9534SOL    HW229502   5.522   5.156   4.716
 9535SOL     OW29503   0.493   1.748   5.033
 9535SOL    HW129504   0.496   1.761   4.934
 9535SOL    HW229505   0.407   1.784   5.069
 9536SOL     OW29506   3.369   3.854   5.022
 9536SOL    HW129507   3.285   3.801   5.013
 9536SOL    HW229508   3.444   3.794   5.048
 9537SOL     OW29509   0.081   1.871   4.111
 9537SOL    HW129510   0.143   1.945   4.137
 9537SOL    HW229511   0.134   1.791   4.082
 9538SOL     OW29512   5.165   0.031   4.980
 9538SOL    HW129513   5.256   0.058   4.949
 9538SOL    HW229514   5.096   0.061   4.914
 9539SOL     OW29515   3.219   3.666   2.151
 9539SOL    HW129516   3.187   3.637   2.241
 9539SOL    HW229517   3.206   3.765   2.141
 9540SOL     OW29518   4.543   5.087   3.024
 9540SOL    HW129519   4.514   5.025   3.097
 9540SOL    HW229520   4.585   5.035   2.950
 9541SOL     OW29521   2.331   5.534   5.349
 9541SOL    HW129522   2.310   5.536   5.251
 9541SOL    HW229523   2.292   5.451   5.390
 9542SOL     OW29524   6.317   4.354   4.202
 9542SOL    HW129525   6.265   4.329   4.284
 9542SOL    HW229526   6.264   4.331   4.120
 9543SOL     OW29527   2.485   6.920   5.948
 9543SOL    HW129528   2.574   6.904   5.991
 9543SOL    HW229529   2.446   7.005   5.983
 9544SOL     OW29530   5.791   3.078   4.729
 9544SOL    HW129531   5.879   3.037   4.752
 9544SOL    HW229532   5.749   3.116   4.812
 9545SOL     OW29533   6.964   4.416   2.002
 9545SOL    HW129534   0.018   4.481   1.991
 9545SOL    HW229535   6.908   4.443   2.080
 9546SOL     OW29536   2.827   2.925   0.516
 9546SOL    HW129537   2.772   2.980   0.453
 9546SOL    HW229538   2.806   2.828   0.504
 9547SOL     OW29539   4.151   6.804   3.742
 9547SOL    HW129540   4.053   6.819   3.724
 9547SOL    HW229541   4.180   6.719   3.697
 9548SOL     OW29542   1.137   4.944   0.024
 9548SOL    HW129543   1.201   4.899   6.984
 9548SOL    HW229544   1.044   4.911   0.007
 9549SOL     OW29545   4.808   1.974   0.770
 9549SOL    HW129546   4.868   1.894   0.764
 9549SOL    HW229547   4.827   2.036   0.694
 9550SOL     OW29548   5.341   3.380   1.585
 9550SOL    HW129549   5.264   3.423   1.632
 9550SOL    HW229550   5.343   3.282   1.606
 9551SOL     OW29551   6.241   3.492   6.433
 9551SOL    HW129552   6.331   3.532   6.452
 9551SOL    HW229553   6.249   3.392   6.429
 9552SOL     OW29554   3.156   1.517   6.807
 9552SOL    HW129555   3.122   1.542   6.716
 9552SOL    HW229556   3.243   1.468   6.798
 9553SOL     OW29557   5.325   1.482   6.567
 9553SOL    HW129558   5.351   1.417   6.496
 9553SOL    HW229559   5.376   1.567   6.556
 9554SOL     OW29560   3.420   0.774   4.307
 9554SOL    HW129561   3.517   0.787   4.329
 9554SOL    HW229562   3.364   0.803   4.384
 9555SOL     OW29563   6.962   0.059   3.832
 9555SOL    HW129564   6.953   6.980   3.831
 9555SOL    HW229565   0.033   0.083   3.861
 9556SOL     OW29566   2.070   4.683   6.481
 9556SOL    HW129567   2.043   4.685   6.578
 9556SOL    HW229568   2.064   4.590   6.446
 9557SOL     OW29569   5.315   0.677   2.056
 9557SOL    HW129570   5.284   0.599   2.003
 9557SOL    HW229571   5.408   0.702   2.028
 9558SOL     OW29572   4.734   6.796   6.893
 9558SOL    HW129573   4.784   6.778   6.809
 9558SOL    HW229574   4.786   6.860   6.950
 9559SOL     OW29575   1.866   4.226   6.948
 9559SOL    HW129576   1.804   4.285   7.000
 9559SOL    HW229577   1.847   4.236   6.850
 9560SOL     OW29578   3.199   6.866   2.474
 9560SOL    HW129579   3.211   6.811   2.391
 9560SOL    HW229580   3.190   6.962   2.448
 9561SOL     OW29581   0.687   0.892   0.442
 9561SOL    HW129582   0.786   0.904   0.441
 9561SOL    HW229583   0.662   0.813   0.385
 9562SOL     OW29584   2.765   6.207   2.873
 9562SOL    HW129585   2.687   6.192   2.934
 9562SOL    HW229586   2.820   6.283   2.907
 9563SOL     OW29587   0.332   5.991   6.801
 9563SOL    HW129588   0.366   6.022   6.712
 9563SOL    HW229589   0.232   5.983   6.797
 9564SOL     OW29590   1.860   0.867   0.082
 9564SOL    HW129591   1.926   0.823   0.022
 9564SOL    HW229592   1.767   0.849   0.049
 9565SOL     OW29593   2.941   1.841   4.001
 9565SOL    HW129594   3.023   1.794   4.033
 9565SOL    HW229595   2.942   1.935   4.034
 9566SOL     OW29596   3.240   0.726   6.765
 9566SOL    HW129597   3.206   0.703   6.673
 9566SOL    HW229598   3.337   0.702   6.771
 9567SOL     OW29599   6.926   3.726   1.219
 9567SOL    HW129600   6.973   3.722   1.307
 9567SOL    HW229601   6.952   3.648   1.163
 9568SOL     OW29602   4.880   1.327   6.854
 9568SOL    HW129603   4.959   1.270   6.834
 9568SOL    HW229604   4.831   1.289   6.932
 9569SOL     OW29605   5.482   1.008   2.098
 9569SOL    HW129606   5.540   0.981   2.022
 9569SOL    HW229607   5.388   1.021   2.066
 9570SOL     OW29608   0.633   3.225   1.820
 9570SOL    HW129609   0.538   3.204   1.839
 9570SOL    HW229610   0.689   3.206   1.901
 9571SOL     OW29611   1.790   2.319   6.350
 9571SOL    HW129612   1.840   2.272   6.277
 9571SOL    HW229613   1.698   2.280   6.357
 9572SOL     OW29614   2.182   4.121   3.960
 9572SOL    HW129615   2.096   4.172   3.947
 9572SOL    HW229616   2.199   4.062   3.881
 9573SOL     OW29617   6.662   0.876   4.773
 9573SOL    HW129618   6.628   0.948   4.713
 9573SOL    HW229619   6.754   0.848   4.744
 9574SOL     OW29620   3.425   3.198   1.192
 9574SOL    HW129621   3.468   3.121   1.239
 9574SOL    HW229622   3.334   3.172   1.162
 9575SOL     OW29623   5.777   6.264   1.917
 9575SOL    HW129624   5.761   6.183   1.859
 9575SOL    HW229625   5.696   6.281   1.972
 9576SOL     OW29626   1.044   6.927   6.734
 9576SOL    HW129627   0.999   6.999   6.787
 9576SOL    HW229628   1.141   6.925   6.755
 9577SOL     OW29629   6.326   5.488   2.425
 9577SOL    HW129630   6.240   5.453   2.463
 9577SOL    HW229631   6.362   5.560   2.486
 9578SOL     OW29632   2.088   3.394   2.714
 9578SOL    HW129633   2.130   3.466   2.769
 9578SOL    HW229634   1.998   3.424   2.683
 9579SOL     OW29635   6.393   5.846   2.141
 9579SOL    HW129636   6.316   5.901   2.171
 9579SOL    HW229637   6.475   5.872   2.192
 9580SOL     OW29638   5.355   4.207   3.089
 9580SOL    HW129639   5.436   4.174   3.136
 9580SOL    HW229640   5.345   4.306   3.105
 9581SOL     OW29641   5.989   1.207   0.153
 9581SOL    HW129642   5.985   1.165   0.062
 9581SOL    HW229643   6.084   1.222   0.178
 9582SOL     OW29644   5.139   6.461   4.582
 9582SOL    HW129645   5.216   6.431   4.525
 9582SOL    HW229646   5.055   6.414   4.552
 9583SOL     OW29647   3.661   4.655   1.626
 9583SOL    HW129648   3.605   4.664   1.709
 9583SOL    HW229649   3.708   4.566   1.628
 9584SOL     OW29650   2.500   5.326   4.398
 9584SOL    HW129651   2.479   5.229   4.413
 9584SOL    HW229652   2.538   5.365   4.482
 9585SOL     OW29653   4.368   5.723   1.093
 9585SOL    HW129654   4.273   5.753   1.081
 9585SOL    HW229655   4.399   5.678   1.009
 9586SOL     OW29656   4.152   4.742   2.912
 9586SOL    HW129657   4.135   4.720   2.815
 9586SOL    HW229658   4.246   4.719   2.935
 9587SOL     OW29659   2.881   5.618   1.443
 9587SOL    HW129660   2.813   5.544   1.441
 9587SOL    HW229661   2.941   5.609   1.363
 9588SOL     OW29662   6.501   5.434   0.413
 9588SOL    HW129663   6.597   5.409   0.406
 9588SOL    HW229664   6.460   5.435   0.322
 9589SOL     OW29665   1.658   3.467   6.287
 9589SOL    HW129666   1.716   3.508   6.217
 9589SOL    HW229667   1.573   3.434   6.246
 9590SOL     OW29668   6.279   0.648   1.678
 9590SOL    HW129669   6.245   0.718   1.615
 9590SOL    HW229670   6.203   0.610   1.730
 9591SOL     OW29671   4.085   0.876   0.014
 9591SOL    HW129672   4.043   0.962   7.007
 9591SOL    HW229673   4.147   0.843   6.964
 9592SOL     OW29674   1.942   6.405   5.571
 9592SOL    HW129675   1.980   6.459   5.646
 9592SOL    HW229676   1.960   6.451   5.484
 9593SOL     OW29677   2.129   1.569   4.368
 9593SOL    HW129678   2.059   1.593   4.301
 9593SOL    HW229679   2.184   1.493   4.334
 9594SOL     OW29680   0.187   6.469   4.231
 9594SOL    HW129681   0.236   6.409   4.168
 9594SOL    HW229682   0.252   6.532   4.274
 9595SOL     OW29683   0.109   3.174   3.282
 9595SOL    HW129684   0.207   3.190   3.288
 9595SOL    HW229685   0.062   3.226   3.354
 9596SOL     OW29686   0.232   6.675   0.877
 9596SOL    HW129687   0.253   6.583   0.842
 9596SOL    HW229688   0.225   6.739   0.800
 9597SOL     OW29689   1.165   3.130   2.546
 9597SOL    HW129690   1.249   3.113   2.495
 9597SOL    HW229691   1.110   3.047   2.549
 9598SOL     OW29692   1.861   3.916   3.964
 9598SOL    HW129693   1.888   3.938   3.870
 9598SOL    HW229694   1.894   3.987   4.026
 9599SOL     OW29695   4.533   6.687   3.590
 9599SOL    HW129696   4.503   6.597   3.621
 9599SOL    HW229697   4.487   6.758   3.643
 9600SOL     OW29698   3.217   0.805   1.692
 9600SOL    HW129699   3.284   0.771   1.627
 9600SOL    HW229700   3.226   0.757   1.779
 9601SOL     OW29701   0.994   3.678   0.933
 9601SOL    HW129702   0.902   3.711   0.952
 9601SOL    HW229703   1.011   3.680   0.835
 9602SOL     OW29704   4.558   5.242   5.378
 9602SOL    HW129705   4.470   5.200   5.400
 9602SOL    HW229706   4.603   5.189   5.306
 9603SOL     OW29707   5.033   5.907   5.339
 9603SOL    HW129708   4.979   5.966   5.400
 9603SOL    HW229709   5.109   5.868   5.389
 9604SOL     OW29710   5.189   6.650   0.347
 9604SOL    HW129711   5.246   6.711   0.404
 9604SOL    HW229712   5.216   6.659   0.251
 9605SOL     OW29713   6.445   5.953   2.472
 9605SOL    HW129714   6.345   5.956   2.476
 9605SOL    HW229715   6.482   5.955   2.565
 9606SOL     OW29716   1.629   1.138   6.584
 9606SOL    HW129717   1.567   1.216   6.597
 9606SOL    HW229718   1.583   1.054   6.612
 9607SOL     OW29719   3.059   2.533   6.242
 9607SOL    HW129720   2.962   2.518   6.220
 9607SOL    HW229721   3.090   2.617   6.197
 9608SOL     OW29722   6.682   3.364   3.952
 9608SOL    HW129723   6.737   3.355   3.869
 9608SOL    HW229724   6.588   3.339   3.932
 9609SOL     OW29725   4.657   3.123   6.507
 9609SOL    HW129726   4.628   3.125   6.602
 9609SOL    HW229727   4.625   3.038   6.464
 9610SOL     OW29728   1.171   4.431   3.296
 9610SOL    HW129729   1.173   4.437   3.395
 9610SOL    HW229730   1.079   4.450   3.263
 9611SOL     OW29731   1.923   0.318   0.479
 9611SOL    HW129732   1.906   0.363   0.566
 9611SOL    HW229733   1.974   0.233   0.494
 9612SOL     OW29734   6.553   2.738   3.620
 9612SOL    HW129735   6.586   2.701   3.706
 9612SOL    HW229736   6.571   2.673   3.546
 9613SOL     OW29737   6.041   5.583   3.415
 9613SOL    HW129738   6.070   5.674   3.387
 9613SOL    HW229739   6.021   5.582   3.513
 9614SOL     OW29740   4.437   2.418   3.623
 9614SOL    HW129741   4.346   2.436   3.587
 9614SOL    HW229742   4.499   2.492   3.596
 9615SOL     OW29743   2.613   3.853   1.043
 9615SOL    HW129744   2.669   3.925   1.001
 9615SOL    HW229745   2.609   3.774   0.982
 9616SOL     OW29746   4.467   3.620   0.137
 9616SOL    HW129747   4.444   3.588   0.229
 9616SOL    HW229748   4.445   3.548   0.071
 9617SOL     OW29749   2.010   2.097   3.481
 9617SOL    HW129750   2.092   2.091   3.425
 9617SOL    HW229751   2.023   2.047   3.567
 9618SOL     OW29752   2.361   1.495   1.118
 9618SOL    HW129753   2.339   1.458   1.208
 9618SOL    HW229754   2.451   1.463   1.090
 9619SOL     OW29755   3.130   0.875   5.078
 9619SOL    HW129756   3.213   0.828   5.050
 9619SOL    HW229757   3.147   0.926   5.163
 9620SOL     OW29758   6.159   0.765   5.920
 9620SOL    HW129759   6.220   0.839   5.892
 9620SOL    HW229760   6.106   0.735   5.841
 9621SOL     OW29761   1.867   2.601   3.589
 9621SOL    HW129762   1.878   2.633   3.683
 9621SOL    HW229763   1.880   2.502   3.586
 9622SOL     OW29764   5.475   6.792   1.627
 9622SOL    HW129765   5.542   6.862   1.599
 9622SOL    HW229766   5.414   6.831   1.696
 9623SOL     OW29767   2.615   3.614   6.681
 9623SOL    HW129768   2.537   3.585   6.737
 9623SOL    HW229769   2.581   3.669   6.605
 9624SOL     OW29770   6.462   3.143   3.604
 9624SOL    HW129771   6.418   3.096   3.528
 9624SOL    HW229772   6.544   3.092   3.632
 9625SOL     OW29773   5.907   5.946   0.674
 9625SOL    HW129774   5.977   5.891   0.628
 9625SOL    HW229775   5.818   5.930   0.631
 9626SOL     OW29776   2.948   6.424   6.520
 9626SOL    HW129777   2.880   6.480   6.473
 9626SOL    HW229778   2.917   6.403   6.612
 9627SOL     OW29779   1.366   6.656   6.638
 9627SOL    HW129780   1.447   6.637   6.582
 9627SOL    HW229781   1.288   6.673   6.577
 9628SOL     OW29782   4.140   6.099   1.942
 9628SOL    HW129783   4.136   6.177   2.005
 9628SOL    HW229784   4.211   6.036   1.972
 9629SOL     OW29785   2.260   6.877   1.336
 9629SOL    HW129786   2.178   6.877   1.392
 9629SOL    HW229787   2.331   6.932   1.380
 9630SOL     OW29788   6.676   0.690   6.326
 9630SOL    HW129789   6.658   0.616   6.261
 9630SOL    HW229790   6.634   0.775   6.293
 9631SOL     OW29791   6.265   6.399   6.831
 9631SOL    HW129792   6.349   6.357   6.794
 9631SOL    HW229793   6.236   6.473   6.770
 9632SOL     OW29794   1.637   5.895   1.563
 9632SOL    HW129795   1.615   5.987   1.597
 9632SOL    HW229796   1.553   5.840   1.559
 9633SOL     OW29797   6.916   5.279   6.058
 9633SOL    HW129798   6.973   5.307   6.135
 9633SOL    HW229799   6.839   5.342   6.049
 9634SOL     OW29800   1.091   6.124   5.061
 9634SOL    HW129801   1.185   6.090   5.065
 9634SOL    HW229802   1.093   6.223   5.049
 9635SOL     OW29803   1.354   5.406   5.745
 9635SOL    HW129804   1.337   5.483   5.807
 9635SOL    HW229805   1.374   5.440   5.654
 9636SOL     OW29806   4.180   1.751   6.689
 9636SOL    HW129807   4.222   1.841   6.674
 9636SOL    HW229808   4.242   1.694   6.743
 9637SOL     OW29809   2.368   1.072   0.127
 9637SOL    HW129810   2.361   1.172   0.127
 9637SOL    HW229811   2.329   1.036   0.042
 9638SOL     OW29812   6.633   1.780   6.079
 9638SOL    HW129813   6.699   1.718   6.123
 9638SOL    HW229814   6.573   1.727   6.019
 9639SOL     OW29815   3.933   1.087   2.814
 9639SOL    HW129816   3.937   0.987   2.809
 9639SOL    HW229817   4.023   1.125   2.796
 9640SOL     OW29818   1.925   2.538   2.198
 9640SOL    HW129819   1.993   2.465   2.204
 9640SOL    HW229820   1.918   2.570   2.103
 9641SOL     OW29821   6.378   5.683   0.097
 9641SOL    HW129822   6.388   5.617   0.022
 9641SOL    HW229823   6.313   5.754   0.069
 9642SOL     OW29824   3.970   0.150   3.702
 9642SOL    HW129825   4.061   0.161   3.742
 9642SOL    HW229826   3.953   0.053   3.682
 9643SOL     OW29827   4.286   4.678   3.230
 9643SOL    HW129828   4.346   4.623   3.172
 9643SOL    HW229829   4.285   4.772   3.198
 9644SOL     OW29830   2.577   2.051   6.849
 9644SOL    HW129831   2.525   2.040   6.764
 9644SOL    HW229832   2.648   2.120   6.836
 9645SOL     OW29833   3.113   5.343   5.162
 9645SOL    HW129834   3.178   5.268   5.174
 9645SOL    HW229835   3.162   5.429   5.152
 9646SOL     OW29836   4.189   5.655   3.722
 9646SOL    HW129837   4.251   5.583   3.753
 9646SOL    HW229838   4.215   5.683   3.629
 9647SOL     OW29839   6.773   3.006   0.150
 9647SOL    HW129840   6.761   3.049   0.060
 9647SOL    HW229841   6.787   2.907   0.137
 9648SOL     OW29842   4.139   3.694   0.897
 9648SOL    HW129843   4.187   3.741   0.971
 9648SOL    HW229844   4.079   3.623   0.935
 9649SOL     OW29845   1.979   5.674   0.909
 9649SOL    HW129846   1.934   5.585   0.907
 9649SOL    HW229847   1.926   5.737   0.967
 9650SOL     OW29848   0.422   6.800   1.924
 9650SOL    HW129849   0.518   6.798   1.896
 9650SOL    HW229850   0.402   6.887   1.968
 9651SOL     OW29851   0.345   1.751   5.552
 9651SOL    HW129852   0.416   1.771   5.484
 9651SOL    HW229853   0.351   1.816   5.627
 9652SOL     OW29854   0.526   5.533   2.522
 9652SOL    HW129855   0.455   5.492   2.466
 9652SOL    HW229856   0.601   5.564   2.462
 9653SOL     OW29857   6.110   5.603   4.311
 9653SOL    HW129858   6.055   5.652   4.243
 9653SOL    HW229859   6.100   5.647   4.400
 9654SOL     OW29860   2.146   3.126   2.261
 9654SOL    HW129861   2.074   3.117   2.330
 9654SOL    HW229862   2.198   3.040   2.256
 9655SOL     OW29863   5.776   2.250   6.711
 9655SOL    HW129864   5.781   2.154   6.739
 9655SOL    HW229865   5.868   2.289   6.709
 9656SOL     OW29866   3.560   0.852   2.781
 9656SOL    HW129867   3.512   0.835   2.867
 9656SOL    HW229868   3.635   0.787   2.771
 9657SOL     OW29869   0.385   0.179   5.089
 9657SOL    HW129870   0.324   0.178   5.011
 9657SOL    HW229871   0.404   0.085   5.118
 9658SOL     OW29872   5.701   2.069   3.067
 9658SOL    HW129873   5.792   2.028   3.056
 9658SOL    HW229874   5.710   2.168   3.074
 9659SOL     OW29875   0.763   4.894   0.250
 9659SOL    HW129876   0.751   4.795   0.262
 9659SOL    HW229877   0.676   4.936   0.226
 9660SOL     OW29878   0.160   5.028   0.686
 9660SOL    HW129879   0.086   5.096   0.687
 9660SOL    HW229880   0.126   4.940   0.717
 9661SOL     OW29881   4.467   6.536   0.857
 9661SOL    HW129882   4.427   6.445   0.851
 9661SOL    HW229883   4.543   6.535   0.921
 9662SOL     OW29884   5.011   0.969   4.512
 9662SOL    HW129885   5.100   0.969   4.558
 9662SOL    HW229886   4.939   0.988   4.578
 9663SOL     OW29887   2.193   6.081   3.161
 9663SOL    HW129888   2.225   6.055   3.252
 9663SOL    HW229889   2.179   5.999   3.106
 9664SOL     OW29890   2.554   5.864   1.527
 9664SOL    HW129891   2.551   5.764   1.531
 9664SOL    HW229892   2.527   5.901   1.616
 9665SOL     OW29893   5.271   4.268   3.760
 9665SOL    HW129894   5.276   4.342   3.693
 9665SOL    HW229895   5.222   4.299   3.841
 9666SOL     OW29896   5.759   4.465   4.639
 9666SOL    HW129897   5.769   4.391   4.572
 9666SOL    HW229898   5.702   4.537   4.599
 9667SOL     OW29899   3.808   3.527   3.256
 9667SOL    HW129900   3.797   3.433   3.289
 9667SOL    HW229901   3.856   3.527   3.169
 9668SOL     OW29902   0.713   1.117   5.239
 9668SOL    HW129903   0.617   1.111   5.265
 9668SOL    HW229904   0.763   1.169   5.309
 9669SOL     OW29905   1.911   6.476   0.404
 9669SOL    HW129906   1.891   6.381   0.379
 9669SOL    HW229907   1.925   6.530   0.321
 9670SOL     OW29908   6.108   4.578   6.570
 9670SOL    HW129909   6.102   4.482   6.541
 9670SOL    HW229910   6.202   4.600   6.594
 9671SOL     OW29911   0.386   0.387   0.092
 9671SOL    HW129912   0.362   0.295   0.063
 9671SOL    HW229913   0.469   0.417   0.044
 9672SOL     OW29914   1.103   6.554   4.723
 9672SOL    HW129915   1.052   6.509   4.650
 9672SOL    HW229916   1.187   6.593   4.685
 9673SOL     OW29917   2.411   2.381   6.295
 9673SOL    HW129918   2.341   2.453   6.292
 9673SOL    HW229919   2.460   2.379   6.207
 9674SOL     OW29920   2.634   6.883   2.198
 9674SOL    HW129921   2.694   6.810   2.166
 9674SOL    HW229922   2.545   6.846   2.224
 9675SOL     OW29923   0.078   2.507   1.670
 9675SOL    HW129924   0.086   2.463   1.581
 9675SOL    HW229925   0.073   2.437   1.741
 9676SOL     OW29926   0.292   3.534   5.119
 9676SOL    HW129927   0.284   3.523   5.218
 9676SOL    HW229928   0.388   3.549   5.094
 9677SOL     OW29929   1.880   3.401   4.963
 9677SOL    HW129930   1.822   3.329   4.926
 9677SOL    HW229931   1.954   3.422   4.898
 9678SOL     OW29932   3.947   3.281   2.957
 9678SOL    HW129933   3.860   3.309   2.918
 9678SOL    HW229934   3.931   3.209   3.025
 9679SOL     OW29935   0.710   3.493   0.693
 9679SOL    HW129936   0.773   3.555   0.738
 9679SOL    HW229937   0.738   3.480   0.598
 9680SOL     OW29938   5.419   5.219   3.337
 9680SOL    HW129939   5.496   5.161   3.312
 9680SOL    HW229940   5.357   5.227   3.259
 9681SOL     OW29941   0.917   1.467   4.146
 9681SOL    HW129942   0.883   1.386   4.193
 9681SOL    HW229943   0.844   1.535   4.141
 9682SOL     OW29944   0.217   4.757   3.069
 9682SOL    HW129945   0.234   4.721   2.978
 9682SOL    HW229946   0.282   4.831   3.088
 9683SOL     OW29947   4.364   6.431   6.290
 9683SOL    HW129948   4.268   6.460   6.294
 9683SOL    HW229949   4.407   6.467   6.207
 9684SOL     OW29950   0.788   4.128   3.473
 9684SOL    HW129951   0.887   4.133   3.460
 9684SOL    HW229952   0.766   4.053   3.535
 9685SOL     OW29953   1.465   2.528   0.285
 9685SOL    HW129954   1.502   2.468   0.214
 9685SOL    HW229955   1.450   2.475   0.369
 9686SOL     OW29956   5.526   0.627   1.720
 9686SOL    HW129957   5.454   0.577   1.672
 9686SOL    HW229958   5.495   0.720   1.738
 9687SOL     OW29959   3.696   0.993   4.207
 9687SOL    HW129960   3.771   0.927   4.205
 9687SOL    HW229961   3.702   1.052   4.127
 9688SOL     OW29962   6.534   1.923   3.957
 9688SOL    HW129963   6.626   1.952   3.984
 9688SOL    HW229964   6.530   1.912   3.858
 9689SOL     OW29965   1.668   5.994   6.065
 9689SOL    HW129966   1.694   5.930   5.993
 9689SOL    HW229967   1.722   6.078   6.056
 9690SOL     OW29968   6.078   4.350   0.554
 9690SOL    HW129969   6.063   4.370   0.651
 9690SOL    HW229970   5.995   4.373   0.502
 9691SOL     OW29971   1.410   4.264   1.558
 9691SOL    HW129972   1.311   4.270   1.567
 9691SOL    HW229973   1.453   4.337   1.610
 9692SOL     OW29974   2.576   5.843   0.938
 9692SOL    HW129975   2.541   5.916   0.997
 9692SOL    HW229976   2.675   5.853   0.928
 9693SOL     OW29977   6.181   5.490   1.695
 9693SOL    HW129978   6.258   5.553   1.689
 9693SOL    HW229979   6.106   5.523   1.638
 9694SOL     OW29980   1.629   1.824   0.281
 9694SOL    HW129981   1.714   1.817   0.229
 9694SOL    HW229982   1.633   1.905   0.340
 9695SOL     OW29983   6.114   3.972   0.938
 9695SOL    HW129984   6.034   3.934   0.985
 9695SOL    HW229985   6.112   4.071   0.945
 9696SOL     OW29986   3.669   3.828   1.045
 9696SOL    HW129987   3.590   3.770   1.024
 9696SOL    HW229988   3.688   3.825   1.143
 9697SOL     OW29989   0.723   6.279   6.537
 9697SOL    HW129990   0.713   6.237   6.448
 9697SOL    HW229991   0.731   6.378   6.527
 9698SOL     OW29992   5.568   1.644   5.445
 9698SOL    HW129993   5.490   1.698   5.476
 9698SOL    HW229994   5.542   1.548   5.439
 9699SOL     OW29995   1.858   2.981   0.307
 9699SOL    HW129996   1.902   3.070   0.322
 9699SOL    HW229997   1.803   2.958   0.387
 9700SOL     OW29998   3.228   3.969   4.088
 9700SOL    HW129999   3.267   3.877   4.082
 9700SOL    HW230000   3.302   4.037   4.089
 9701SOL     OW30001   4.894   4.178   5.242
 9701SOL    HW130002   4.857   4.271   5.232
 9701SOL    HW230003   4.962   4.162   5.170
 9702SOL     OW30004   4.187   0.277   0.836
 9702SOL    HW130005   4.114   0.232   0.783
 9702SOL    HW230006   4.221   0.356   0.785
 9703SOL     OW30007   3.190   6.340   4.170
 9703SOL    HW130008   3.220   6.384   4.254
 9703SOL    HW230009   3.267   6.295   4.126
 9704SOL     OW30010   2.688   0.549   3.658
 9704SOL    HW130011   2.754   0.621   3.635
 9704SOL    HW230012   2.595   0.587   3.652
 9705SOL     OW30013   3.970   3.884   0.624
 9705SOL    HW130014   4.057   3.864   0.578
 9705SOL    HW230015   3.983   3.958   0.689
 9706SOL     OW30016   5.797   2.508   2.837
 9706SOL    HW130017   5.751   2.482   2.752
 9706SOL    HW230018   5.786   2.606   2.852
 9707SOL     OW30019   2.848   5.236   2.998
 9707SOL    HW130020   2.869   5.139   3.012
 9707SOL    HW230021   2.926   5.282   2.956
 9708SOL     OW30022   2.070   1.917   2.483
 9708SOL    HW130023   2.011   1.837   2.482
 9708SOL    HW230024   2.018   1.997   2.453
 9709SOL     OW30025   1.884   4.981   3.046
 9709SOL    HW130026   1.982   4.961   3.053
 9709SOL    HW230027   1.871   5.068   3.000
 9710SOL     OW30028   0.139   0.493   3.744
 9710SOL    HW130029   0.143   0.446   3.833
 9710SOL    HW230030   0.109   0.587   3.758
 9711SOL     OW30031   1.380   3.622   5.973
 9711SOL    HW130032   1.439   3.686   5.924
 9711SOL    HW230033   1.387   3.640   6.071
 9712SOL     OW30034   4.652   2.732   4.584
 9712SOL    HW130035   4.653   2.825   4.620
 9712SOL    HW230036   4.576   2.681   4.625
 9713SOL     OW30037   6.775   5.320   2.361
 9713SOL    HW130038   6.821   5.339   2.448
 9713SOL    HW230039   6.722   5.236   2.368
 9714SOL     OW30040   1.320   2.483   2.022
 9714SOL    HW130041   1.416   2.507   2.009
 9714SOL    HW230042   1.313   2.387   2.051
 9715SOL     OW30043   5.670   5.238   5.059
 9715SOL    HW130044   5.719   5.180   5.124
 9715SOL    HW230045   5.574   5.244   5.085
 9716SOL     OW30046   3.960   2.402   6.391
 9716SOL    HW130047   3.933   2.327   6.331
 9716SOL    HW230048   4.045   2.444   6.358
 9717SOL     OW30049   6.223   4.813   3.171
 9717SOL    HW130050   6.305   4.859   3.205
 9717SOL    HW230051   6.184   4.756   3.244
 9718SOL     OW30052   4.611   3.368   1.704
 9718SOL    HW130053   4.677   3.387   1.631
 9718SOL    HW230054   4.553   3.448   1.717
 9719SOL     OW30055   0.756   1.334   0.598
 9719SOL    HW130056   0.774   1.360   0.693
 9719SOL    HW230057   0.799   1.400   0.537
 9720SOL     OW30058   0.725   0.312   1.121
 9720SOL    HW130059   0.708   0.371   1.043
 9720SOL    HW230060   0.640   0.266   1.148
 9721SOL     OW30061   6.407   3.250   2.665
 9721SOL    HW130062   6.377   3.219   2.756
 9721SOL    HW230063   6.341   3.219   2.596
 9722SOL     OW30064   6.668   0.395   4.481
 9722SOL    HW130065   6.683   0.412   4.578
 9722SOL    HW230066   6.601   0.323   4.469
 9723SOL     OW30067   6.671   1.333   3.576
 9723SOL    HW130068   6.610   1.256   3.594
 9723SOL    HW230069   6.667   1.398   3.652
 9724SOL     OW30070   3.732   2.999   1.203
 9724SOL    HW130071   3.639   2.975   1.230
 9724SOL    HW230072   3.796   2.975   1.276
 9725SOL     OW30073   4.508   3.575   5.534
 9725SOL    HW130074   4.549   3.487   5.558
 9725SOL    HW230075   4.547   3.608   5.449
 9726SOL     OW30076   5.981   5.556   5.158
 9726SOL    HW130077   6.066   5.578   5.206
 9726SOL    HW230078   5.980   5.460   5.133
 9727SOL     OW30079   1.309   1.568   6.471
 9727SOL    HW130080   1.284   1.638   6.538
 9727SOL    HW230081   1.375   1.606   6.406
 9728SOL     OW30082   3.121   5.558   0.202
 9728SOL    HW130083   3.078   5.600   0.123
 9728SOL    HW230084   3.052   5.509   0.255
 9729SOL     OW30085   2.592   5.152   2.433
 9729SOL    HW130086   2.639   5.225   2.383
 9729SOL    HW230087   2.644   5.130   2.516
 9730SOL     OW30088   5.929   3.810   2.895
 9730SOL    HW130089   5.955   3.843   2.804
 9730SOL    HW230090   5.945   3.882   2.962
 9731SOL     OW30091   5.042   5.816   1.187
 9731SOL    HW130092   5.141   5.812   1.176
 9731SOL    HW230093   4.997   5.772   1.109
 9732SOL     OW30094   6.503   5.252   3.555
 9732SOL    HW130095   6.406   5.268   3.574
 9732SOL    HW230096   6.530   5.164   3.593
 9733SOL     OW30097   5.717   4.394   6.547
 9733SOL    HW130098   5.656   4.324   6.583
 9733SOL    HW230099   5.776   4.353   6.478
 9734SOL     OW30100   5.300   2.399   4.791
 9734SOL    HW130101   5.242   2.450   4.727
 9734SOL    HW230102   5.382   2.367   4.744
 9735SOL     OW30103   2.516   3.911   0.159
 9735SOL    HW130104   2.524   3.822   0.114
 9735SOL    HW230105   2.533   3.900   0.257
 9736SOL     OW30106   3.370   1.531   1.769
 9736SOL    HW130107   3.435   1.552   1.842
 9736SOL    HW230108   3.417   1.540   1.681
 9737SOL     OW30109   4.118   2.147   4.898
 9737SOL    HW130110   4.180   2.126   4.822
 9737SOL    HW230111   4.126   2.243   4.922
 9738SOL     OW30112   1.843   0.639   1.997
 9738SOL    HW130113   1.853   0.728   1.953
 9738SOL    HW230114   1.748   0.624   2.023
 9739SOL     OW30115   5.343   4.871   1.694
 9739SOL    HW130116   5.338   4.945   1.627
 9739SOL    HW230117   5.422   4.886   1.753
 9740SOL     OW30118   6.486   3.332   3.373
 9740SOL    HW130119   6.513   3.266   3.444
 9740SOL    HW230120   6.550   3.326   3.296
 9741SOL     OW30121   3.581   1.843   1.633
 9741SOL    HW130122   3.495   1.815   1.674
 9741SOL    HW230123   3.643   1.764   1.627
 9742SOL     OW30124   4.600   1.765   3.834
 9742SOL    HW130125   4.692   1.777   3.872
 9742SOL    HW230126   4.556   1.688   3.879
 9743SOL     OW30127   1.719   1.811   5.454
 9743SOL    HW130128   1.719   1.737   5.387
 9743SOL    HW230129   1.629   1.855   5.456
 9744SOL     OW30130   2.044   0.798   1.693
 9744SOL    HW130131   2.128   0.746   1.676
 9744SOL    HW230132   1.985   0.793   1.612
 9745SOL     OW30133   6.938   1.692   5.029
 9745SOL    HW130134   6.895   1.743   4.955
 9745SOL    HW230135   6.983   1.610   4.992
 9746SOL     OW30136   6.167   1.004   3.897
 9746SOL    HW130137   6.209   1.084   3.940
 9746SOL    HW230138   6.237   0.947   3.856
 9747SOL     OW30139   0.479   0.186   6.621
 9747SOL    HW130140   0.397   0.170   6.676
 9747SOL    HW230141   0.452   0.218   6.530
 9748SOL     OW30142   0.911   5.009   4.398
 9748SOL    HW130143   0.953   4.943   4.335
 9748SOL    HW230144   0.915   4.974   4.491
 9749SOL     OW30145   0.489   3.910   4.304
 9749SOL    HW130146   0.582   3.947   4.296
 9749SOL    HW230147   0.455   3.886   4.213
 9750SOL     OW30148   3.543   5.488   3.225
 9750SOL    HW130149   3.504   5.404   3.261
 9750SOL    HW230150   3.631   5.505   3.269
 9751SOL     OW30151   1.866   2.452   0.435
 9751SOL    HW130152   1.803   2.528   0.419
 9751SOL    HW230153   1.960   2.485   0.430
 9752SOL     OW30154   3.561   2.096   5.740
 9752SOL    HW130155   3.492   2.146   5.792
 9752SOL    HW230156   3.550   1.998   5.755
 9753SOL     OW30157   6.812   6.044   5.376
 9753SOL    HW130158   6.804   6.033   5.277
 9753SOL    HW230159   6.901   6.083   5.399
 9754SOL     OW30160   6.829   2.309   6.709
 9754SOL    HW130161   6.822   2.223   6.759
 9754SOL    HW230162   6.746   2.323   6.655
 9755SOL     OW30163   3.743   5.025   5.422
 9755SOL    HW130164   3.704   5.074   5.344
 9755SOL    HW230165   3.715   4.929   5.419
 9756SOL     OW30166   5.076   2.537   5.822
 9756SOL    HW130167   5.025   2.614   5.785
 9756SOL    HW230168   5.123   2.565   5.906
 9757SOL     OW30169   6.254   1.712   3.705
 9757SOL    HW130170   6.259   1.723   3.804
 9757SOL    HW230171   6.236   1.617   3.682
 9758SOL     OW30172   3.015   0.749   0.158
 9758SOL    HW130173   3.055   0.794   0.078
 9758SOL    HW230174   2.971   0.664   0.129
 9759SOL     OW30175   2.986   5.941   1.197
 9759SOL    HW130176   3.032   6.030   1.207
 9759SOL    HW230177   2.896   5.946   1.241
 9760SOL     OW30178   5.858   4.557   5.846
 9760SOL    HW130179   5.835   4.545   5.942
 9760SOL    HW230180   5.956   4.577   5.837
 9761SOL     OW30181   5.082   5.676   2.688
 9761SOL    HW130182   5.140   5.624   2.751
 9761SOL    HW230183   5.035   5.748   2.739
 9762SOL     OW30184   2.819   1.304   3.283
 9762SOL    HW130185   2.776   1.394   3.291
 9762SOL    HW230186   2.902   1.311   3.227
 9763SOL     OW30187   1.859   1.670   1.822
 9763SOL    HW130188   1.946   1.691   1.868
 9763SOL    HW230189   1.817   1.590   1.866
 9764SOL     OW30190   1.291   2.824   1.959
 9764SOL    HW130191   1.334   2.747   1.913
 9764SOL    HW230192   1.192   2.810   1.963
 9765SOL     OW30193   0.261   1.232   4.977
 9765SOL    HW130194   0.272   1.304   5.045
 9765SOL    HW230195   0.306   1.149   5.008
 9766SOL     OW30196   2.264   0.038   2.448
 9766SOL    HW130197   2.332   0.046   2.520
 9766SOL    HW230198   2.242   0.128   2.411
 9767SOL     OW30199   5.135   0.391   5.462
 9767SOL    HW130200   5.125   0.301   5.503
 9767SOL    HW230201   5.177   0.382   5.371
 9768SOL     OW30202   4.953   2.597   3.816
 9768SOL    HW130203   4.961   2.642   3.727
 9768SOL    HW230204   5.023   2.526   3.823
 9769SOL     OW30205   0.617   1.683   1.793
 9769SOL    HW130206   0.565   1.600   1.808
 9769SOL    HW230207   0.613   1.709   1.696
 9770SOL     OW30208   6.525   4.103   6.256
 9770SOL    HW130209   6.483   4.171   6.195
 9770SOL    HW230210   6.455   4.040   6.290
 9771SOL     OW30211   2.962   5.303   4.050
 9771SOL    HW130212   2.930   5.320   3.957
 9771SOL    HW230213   2.888   5.325   4.115
 9772SOL     OW30214   6.723   0.306   1.663
 9772SOL    HW130215   6.765   0.356   1.739
 9772SOL    HW230216   6.671   0.370   1.607
 9773SOL     OW30217   5.113   5.228   3.398
 9773SOL    HW130218   5.049   5.162   3.358
 9773SOL    HW230219   5.146   5.290   3.327
 9774SOL     OW30220   0.092   4.645   3.477
 9774SOL    HW130221   0.163   4.629   3.408
 9774SOL    HW230222   0.110   4.732   3.523
 9775SOL     OW30223   2.903   2.144   5.076
 9775SOL    HW130224   2.872   2.073   5.014
 9775SOL    HW230225   2.991   2.180   5.045
 9776SOL     OW30226   0.429   4.390   4.327
 9776SOL    HW130227   0.435   4.484   4.360
 9776SOL    HW230228   0.507   4.337   4.360
 9777SOL     OW30229   5.935   5.221   6.162
 9777SOL    HW130230   5.917   5.185   6.071
 9777SOL    HW230231   5.938   5.146   6.228
 9778SOL     OW30232   4.252   0.828   3.889
 9778SOL    HW130233   4.329   0.763   3.886
 9778SOL    HW230234   4.212   0.836   3.798
 9779SOL     OW30235   2.750   1.798   6.529
 9779SOL    HW130236   2.738   1.895   6.550
 9779SOL    HW230237   2.745   1.784   6.431
 9780SOL     OW30238   3.210   3.895   0.481
 9780SOL    HW130239   3.270   3.938   0.414
 9780SOL    HW230240   3.263   3.867   0.561
 9781SOL     OW30241   1.708   6.497   4.426
 9781SOL    HW130242   1.654   6.474   4.507
 9781SOL    HW230243   1.805   6.503   4.452
 9782SOL     OW30244   5.875   0.554   1.300
 9782SOL    HW130245   5.846   0.460   1.313
 9782SOL    HW230246   5.877   0.575   1.202
 9783SOL     OW30247   5.842   1.259   2.930
 9783SOL    HW130248   5.809   1.310   3.009
 9783SOL    HW230249   5.769   1.200   2.895
 9784SOL     OW30250   5.873   0.888   4.526
 9784SOL    HW130251   5.776   0.869   4.539
 9784SOL    HW230252   5.892   0.983   4.552
 9785SOL     OW30253   0.419   2.918   0.681
 9785SOL    HW130254   0.331   2.950   0.646
 9785SOL    HW230255   0.489   2.931   0.611
 9786SOL     OW30256   2.162   0.356   5.145
 9786SOL    HW130257   2.063   0.350   5.159
 9786SOL    HW230258   2.202   0.419   5.211
 9787SOL     OW30259   6.207   4.376   1.467
 9787SOL    HW130260   6.133   4.308   1.468
 9787SOL    HW230261   6.239   4.389   1.374
 9788SOL     OW30262   0.195   0.958   5.246
 9788SOL    HW130263   0.246   0.954   5.160
 9788SOL    HW230264   0.110   1.009   5.233
 9789SOL     OW30265   1.577   5.325   4.308
 9789SOL    HW130266   1.611   5.231   4.318
 9789SOL    HW230267   1.546   5.359   4.397
 9790SOL     OW30268   6.613   1.132   4.282
 9790SOL    HW130269   6.703   1.175   4.272
 9790SOL    HW230270   6.602   1.063   4.211
 9791SOL     OW30271   0.972   2.588   1.413
 9791SOL    HW130272   1.019   2.499   1.406
 9791SOL    HW230273   0.913   2.600   1.333
 9792SOL     OW30274   4.050   5.770   1.896
 9792SOL    HW130275   4.096   5.834   1.835
 9792SOL    HW230276   3.995   5.821   1.963
 9793SOL     OW30277   5.302   6.180   2.272
 9793SOL    HW130278   5.368   6.179   2.347
 9793SOL    HW230279   5.265   6.272   2.261
 9794SOL     OW30280   2.767   3.397   6.714
 9794SOL    HW130281   2.725   3.335   6.648
 9794SOL    HW230282   2.717   3.483   6.715
 9795SOL     OW30283   2.338   4.675   4.135
 9795SOL    HW130284   2.275   4.750   4.118
 9795SOL    HW230285   2.405   4.702   4.204
 9796SOL     OW30286   3.703   4.395   0.503
 9796SOL    HW130287   3.699   4.368   0.599
 9796SOL    HW230288   3.610   4.418   0.472
 9797SOL     OW30289   4.890   3.136   4.943
 9797SOL    HW130290   4.899   3.219   4.889
 9797SOL    HW230291   4.975   3.084   4.939
 9798SOL     OW30292   2.147   1.713   2.001
 9798SOL    HW130293   2.205   1.757   1.933
 9798SOL    HW230294   2.198   1.638   2.045
 9799SOL     OW30295   2.942   3.765   2.335
 9799SOL    HW130296   2.919   3.795   2.242
 9799SOL    HW230297   3.004   3.831   2.377
 9800SOL     OW30298   3.512   5.100   0.165
 9800SOL    HW130299   3.532   5.148   0.080
 9800SOL    HW230300   3.509   5.001   0.149
 9801SOL     OW30301   4.790   5.287   0.457
 9801SOL    HW130302   4.881   5.309   0.490
 9801SOL    HW230303   4.790   5.195   0.417
 9802SOL     OW30304   1.021   5.217   1.521
 9802SOL    HW130305   1.009   5.147   1.450
 9802SOL    HW230306   0.935   5.230   1.570
 9803SOL     OW30307   4.771   0.415   6.542
 9803SOL    HW130308   4.687   0.365   6.520
 9803SOL    HW230309   4.784   0.417   6.641
 9804SOL     OW30310   5.380   5.272   4.256
 9804SOL    HW130311   5.317   5.262   4.333
 9804SOL    HW230312   5.473   5.248   4.286
 9805SOL     OW30313   3.540   4.451   1.255
 9805SOL    HW130314   3.449   4.473   1.289
 9805SOL    HW230315   3.589   4.396   1.324
 9806SOL     OW30316   6.860   1.725   2.635
 9806SOL    HW130317   6.915   1.774   2.567
 9806SOL    HW230318   6.897   1.633   2.646
 9807SOL     OW30319   2.969   2.803   0.863
 9807SOL    HW130320   3.063   2.791   0.895
 9807SOL    HW230321   2.952   2.900   0.846
 9808SOL     OW30322   1.948   2.187   4.958
 9808SOL    HW130323   1.949   2.231   4.869
 9808SOL    HW230324   2.041   2.165   4.985
 9809SOL     OW30325   0.746   0.718   4.673
 9809SOL    HW130326   0.662   0.666   4.685
 9809SOL    HW230327   0.775   0.757   4.760
 9810SOL     OW30328   4.519   1.691   2.981
 9810SOL    HW130329   4.508   1.790   2.991
 9810SOL    HW230330   4.485   1.646   3.063
 9811SOL     OW30331   0.925   0.289   2.562
 9811SOL    HW130332   0.950   0.201   2.523
 9811SOL    HW230333   0.900   0.352   2.488
 9812SOL     OW30334   5.370   2.730   5.335
 9812SOL    HW130335   5.374   2.682   5.422
 9812SOL    HW230336   5.351   2.827   5.350
 9813SOL     OW30337   6.385   4.506   0.957
 9813SOL    HW130338   6.310   4.483   1.019
 9813SOL    HW230339   6.460   4.441   0.970
 9814SOL     OW30340   6.848   0.826   5.456
 9814SOL    HW130341   6.888   0.910   5.493
 9814SOL    HW230342   6.859   0.752   5.521
 9815SOL     OW30343   0.240   3.849   2.642
 9815SOL    HW130344   0.159   3.807   2.682
 9815SOL    HW230345   0.240   3.834   2.543
 9816SOL     OW30346   5.909   0.779   6.077
 9816SOL    HW130347   5.912   0.855   6.142
 9816SOL    HW230348   5.989   0.782   6.017
 9817SOL     OW30349   2.248   0.806   0.634
 9817SOL    HW130350   2.245   0.880   0.566
 9817SOL    HW230351   2.194   0.833   0.714
 9818SOL     OW30352   0.381   6.839   3.023
 9818SOL    HW130353   0.327   6.872   2.945
 9818SOL    HW230354   0.323   6.783   3.082
 9819SOL     OW30355   6.884   2.366   4.554
 9819SOL    HW130356   6.789   2.392   4.568
 9819SOL    HW230357   6.936   2.384   4.638
 9820SOL     OW30358   3.553   2.203   6.281
 9820SOL    HW130359   3.559   2.145   6.362
 9820SOL    HW230360   3.599   2.159   6.204
 9821SOL     OW30361   3.876   2.832   0.705
 9821SOL    HW130362   3.862   2.784   0.791
 9821SOL    HW230363   3.945   2.903   0.717
 9822SOL     OW30364   3.322   5.434   4.282
 9822SOL    HW130365   3.272   5.457   4.198
 9822SOL    HW230366   3.400   5.496   4.292
 9823SOL     OW30367   3.720   6.569   3.475
 9823SOL    HW130368   3.763   6.479   3.487
 9823SOL    HW230369   3.791   6.637   3.458
 9824SOL     OW30370   1.559   5.760   5.517
 9824SOL    HW130371   1.498   5.682   5.502
 9824SOL    HW230372   1.542   5.799   5.608
 9825SOL     OW30373   0.156   6.154   5.147
 9825SOL    HW130374   0.245   6.141   5.102
 9825SOL    HW230375   0.134   6.073   5.201
 9826SOL     OW30376   1.828   5.477   5.555
 9826SOL    HW130377   1.761   5.537   5.599
 9826SOL    HW230378   1.917   5.523   5.551
 9827SOL     OW30379   2.139   4.701   1.742
 9827SOL    HW130380   2.230   4.700   1.783
 9827SOL    HW230381   2.090   4.617   1.768
 9828SOL     OW30382   4.426   2.087   4.901
 9828SOL    HW130383   4.481   2.004   4.907
 9828SOL    HW230384   4.361   2.078   4.826
 9829SOL     OW30385   5.376   4.804   5.595
 9829SOL    HW130386   5.428   4.739   5.539
 9829SOL    HW230387   5.333   4.872   5.536
 9830SOL     OW30388   5.876   1.510   3.666
 9830SOL    HW130389   5.872   1.547   3.758
 9830SOL    HW230390   5.911   1.579   3.603
 9831SOL     OW30391   0.642   4.363   2.070
 9831SOL    HW130392   0.699   4.444   2.084
 9831SOL    HW230393   0.649   4.304   2.151
 9832SOL     OW30394   4.901   5.456   4.626
 9832SOL    HW130395   4.807   5.485   4.648
 9832SOL    HW230396   4.913   5.455   4.526
 9833SOL     OW30397   4.050   3.166   4.555
 9833SOL    HW130398   4.126   3.158   4.620
 9833SOL    HW230399   4.048   3.258   4.516
 9834SOL     OW30400   3.365   5.724   5.657
 9834SOL    HW130401   3.274   5.722   5.614
 9834SOL    HW230402   3.356   5.759   5.750
 9835SOL     OW30403   4.028   3.819   3.702
 9835SOL    HW130404   3.943   3.809   3.754
 9835SOL    HW230405   4.011   3.873   3.619
 9836SOL     OW30406   6.694   3.300   5.474
 9836SOL    HW130407   6.761   3.334   5.408
 9836SOL    HW230408   6.651   3.217   5.438
 9837SOL     OW30409   6.189   1.212   3.095
 9837SOL    HW130410   6.267   1.215   3.156
 9837SOL    HW230411   6.217   1.172   3.007
 9838SOL     OW30412   0.507   6.025   0.895
 9838SOL    HW130413   0.443   5.973   0.838
 9838SOL    HW230414   0.461   6.053   0.980
 9839SOL     OW30415   4.764   6.341   3.549
 9839SOL    HW130416   4.822   6.264   3.577
 9839SOL    HW230417   4.816   6.403   3.491
 9840SOL     OW30418   6.433   1.488   6.312
 9840SOL    HW130419   6.509   1.534   6.358
 9840SOL    HW230420   6.379   1.556   6.261
 9841SOL     OW30421   6.800   5.944   2.570
 9841SOL    HW130422   6.809   5.992   2.483
 9841SOL    HW230423   6.856   5.989   2.639
 9842SOL     OW30424   3.417   0.244   0.161
 9842SOL    HW130425   3.388   0.288   0.246
 9842SOL    HW230426   3.337   0.220   0.107
 9843SOL     OW30427   0.170   0.557   1.411
 9843SOL    HW130428   0.085   0.604   1.433
 9843SOL    HW230429   0.174   0.469   1.459
 9844SOL     OW30430   4.986   0.693   5.508
 9844SOL    HW130431   5.038   0.615   5.542
 9844SOL    HW230432   4.982   0.690   5.408
 9845SOL     OW30433   0.934   3.825   2.029
 9845SOL    HW130434   0.929   3.918   1.993
 9845SOL    HW230435   1.005   3.819   2.098
 9846SOL     OW30436   6.014   1.889   1.844
 9846SOL    HW130437   5.962   1.817   1.891
 9846SOL    HW230438   6.005   1.878   1.745
 9847SOL     OW30439   4.117   4.358   6.700
 9847SOL    HW130440   4.174   4.379   6.780
 9847SOL    HW230441   4.071   4.270   6.715
 9848SOL     OW30442   3.320   4.115   5.506
 9848SOL    HW130443   3.231   4.076   5.531
 9848SOL    HW230444   3.319   4.141   5.409
 9849SOL     OW30445   1.904   2.150   3.952
 9849SOL    HW130446   1.865   2.231   3.908
 9849SOL    HW230447   1.953   2.095   3.884
 9850SOL     OW30448   1.062   0.006   4.333
 9850SOL    HW130449   1.139   6.998   4.389
 9850SOL    HW230450   1.092   0.076   4.268
 9851SOL     OW30451   3.837   5.849   3.697
 9851SOL    HW130452   3.843   5.750   3.683
 9851SOL    HW230453   3.905   5.896   3.640
 9852SOL     OW30454   1.934   6.571   0.156
 9852SOL    HW130455   1.854   6.620   0.122
 9852SOL    HW230456   2.017   6.613   0.118
 9853SOL     OW30457   0.441   4.280   3.794
 9853SOL    HW130458   0.512   4.350   3.794
 9853SOL    HW230459   0.423   4.250   3.888
 9854SOL     OW30460   6.589   3.656   7.009
 9854SOL    HW130461   6.530   3.671   0.067
 9854SOL    HW230462   6.672   3.711   7.019
 9855SOL     OW30463   0.363   6.154   0.282
 9855SOL    HW130464   0.291   6.223   0.286
 9855SOL    HW230465   0.419   6.159   0.365
 9856SOL     OW30466   5.197   3.640   2.837
 9856SOL    HW130467   5.258   3.625   2.915
 9856SOL    HW230468   5.108   3.598   2.856
 9857SOL     OW30469   4.869   0.373   5.843
 9857SOL    HW130470   4.926   0.420   5.910
 9857SOL    HW230471   4.785   0.341   5.887
 9858SOL     OW30472   6.311   6.197   2.704
 9858SOL    HW130473   6.294   6.148   2.790
 9858SOL    HW230474   6.231   6.191   2.646
 9859SOL     OW30475   0.866   5.581   2.482
 9859SOL    HW130476   0.930   5.630   2.540
 9859SOL    HW230477   0.796   5.645   2.448
 9860SOL     OW30478   1.730   3.165   3.998
 9860SOL    HW130479   1.802   3.167   4.068
 9860SOL    HW230480   1.760   3.217   3.918
 9861SOL     OW30481   3.775   2.129   3.524
 9861SOL    HW130482   3.849   2.164   3.467
 9861SOL    HW230483   3.809   2.115   3.618
 9862SOL     OW30484   1.805   3.293   6.456
 9862SOL    HW130485   1.748   3.358   6.405
 9862SOL    HW230486   1.899   3.299   6.423
 9863SOL     OW30487   4.519   6.754   2.250
 9863SOL    HW130488   4.525   6.818   2.173
 9863SOL    HW230489   4.493   6.664   2.217
 9864SOL     OW30490   2.296   6.370   5.324
 9864SOL    HW130491   2.296   6.271   5.309
 9864SOL    HW230492   2.364   6.393   5.393
 9865SOL     OW30493   2.114   5.640   5.555
 9865SOL    HW130494   2.149   5.611   5.466
 9865SOL    HW230495   2.173   5.606   5.628
 9866SOL     OW30496   6.437   5.140   5.886
 9866SOL    HW130497   6.432   5.175   5.793
 9866SOL    HW230498   6.462   5.043   5.885
 9867SOL     OW30499   4.376   1.428   1.858
 9867SOL    HW130500   4.387   1.390   1.949
 9867SOL    HW230501   4.315   1.370   1.804
 9868SOL     OW30502   2.211   4.516   3.888
 9868SOL    HW130503   2.255   4.435   3.927
 9868SOL    HW230504   2.281   4.582   3.861
 9869SOL     OW30505   0.156   2.470   2.214
 9869SOL    HW130506   0.252   2.471   2.186
 9869SOL    HW230507   0.098   2.485   2.135
 9870SOL     OW30508   1.993   2.166   2.941
 9870SOL    HW130509   1.893   2.164   2.939
 9870SOL    HW230510   2.029   2.092   2.885
 9871SOL     OW30511   5.508   5.656   3.590
 9871SOL    HW130512   5.606   5.674   3.595
 9871SOL    HW230513   5.484   5.627   3.498
 9872SOL     OW30514   0.801   5.672   5.762
 9872SOL    HW130515   0.804   5.616   5.845
 9872SOL    HW230516   0.713   5.661   5.718
 9873SOL     OW30517   1.075   1.167   5.515
 9873SOL    HW130518   1.160   1.220   5.522
 9873SOL    HW230519   1.012   1.195   5.588
 9874SOL     OW30520   0.337   2.559   3.684
 9874SOL    HW130521   0.341   2.486   3.752
 9874SOL    HW230522   0.258   2.618   3.704
 9875SOL     OW30523   6.289   6.169   0.618
 9875SOL    HW130524   6.284   6.081   0.571
 9875SOL    HW230525   6.307   6.241   0.552
 9876SOL     OW30526   0.072   6.662   3.763
 9876SOL    HW130527   0.026   6.750   3.759
 9876SOL    HW230528   0.003   6.589   3.765
 9877SOL     OW30529   0.893   6.186   4.745
 9877SOL    HW130530   0.845   6.262   4.790
 9877SOL    HW230531   0.826   6.124   4.705
 9878SOL     OW30532   3.765   2.724   6.749
 9878SOL    HW130533   3.796   2.798   6.690
 9878SOL    HW230534   3.683   2.753   6.799
 9879SOL     OW30535   6.516   5.764   4.622
 9879SOL    HW130536   6.467   5.732   4.703
 9879SOL    HW230537   6.597   5.707   4.608
 9880SOL     OW30538   3.225   1.096   1.121
 9880SOL    HW130539   3.281   1.072   1.041
 9880SOL    HW230540   3.202   1.194   1.117
 9881SOL     OW30541   6.111   0.522   3.133
 9881SOL    HW130542   6.072   0.504   3.043
 9881SOL    HW230543   6.053   0.480   3.203
 9882SOL     OW30544   3.372   3.281   4.766
 9882SOL    HW130545   3.472   3.277   4.769
 9882SOL    HW230546   3.335   3.191   4.743
 9883SOL     OW30547   1.941   6.446   2.282
 9883SOL    HW130548   1.900   6.535   2.297
 9883SOL    HW230549   1.870   6.379   2.260
 9884SOL     OW30550   3.209   2.561   5.317
 9884SOL    HW130551   3.211   2.481   5.257
 9884SOL    HW230552   3.193   2.643   5.263
 9885SOL     OW30553   4.317   2.318   5.619
 9885SOL    HW130554   4.362   2.279   5.699
 9885SOL    HW230555   4.288   2.245   5.557
 9886SOL     OW30556   3.042   6.086   1.553
 9886SOL    HW130557   3.134   6.049   1.538
 9886SOL    HW230558   2.981   6.014   1.584
 9887SOL     OW30559   3.352   0.911   0.296
 9887SOL    HW130560   3.336   0.907   0.197
 9887SOL    HW230561   3.286   0.974   0.338
 9888SOL     OW30562   6.076   6.858   3.812
 9888SOL    HW130563   6.049   6.867   3.908
 9888SOL    HW230564   6.064   6.946   3.765
 9889SOL     OW30565   6.984   5.232   3.003
 9889SOL    HW130566   0.025   5.221   2.926
 9889SOL    HW230567   0.015   5.231   3.089
 9890SOL     OW30568   1.085   3.382   2.773
 9890SOL    HW130569   1.168   3.408   2.822
 9890SOL    HW230570   1.068   3.285   2.785
 9891SOL     OW30571   4.780   6.463   2.012
 9891SOL    HW130572   4.755   6.383   2.067
 9891SOL    HW230573   4.835   6.434   1.934
 9892SOL     OW30574   1.622   5.971   3.727
 9892SOL    HW130575   1.593   6.008   3.815
 9892SOL    HW230576   1.560   5.898   3.699
 9893SOL     OW30577   5.899   4.537   5.395
 9893SOL    HW130578   5.876   4.451   5.349
 9893SOL    HW230579   5.998   4.546   5.400
 9894SOL     OW30580   4.238   4.120   5.289
 9894SOL    HW130581   4.153   4.116   5.236
 9894SOL    HW230582   4.232   4.194   5.356
 9895SOL     OW30583   5.278   2.156   6.226
 9895SOL    HW130584   5.341   2.095   6.276
 9895SOL    HW230585   5.312   2.171   6.134
 9896SOL     OW30586   3.895   3.670   6.603
 9896SOL    HW130587   3.930   3.673   6.696
 9896SOL    HW230588   3.965   3.632   6.542
 9897SOL     OW30589   0.544   1.706   3.072
 9897SOL    HW130590   0.485   1.758   3.134
 9897SOL    HW230591   0.557   1.613   3.109
 9898SOL     OW30592   1.020   4.937   0.332
 9898SOL    HW130593   0.921   4.925   0.326
 9898SOL    HW230594   1.059   4.945   0.241
 9899SOL     OW30595   4.462   5.308   2.470
 9899SOL    HW130596   4.402   5.259   2.406
 9899SOL    HW230597   4.472   5.403   2.440
 9900SOL     OW30598   1.995   4.446   4.128
 9900SOL    HW130599   2.067   4.474   4.066
 9900SOL    HW230600   2.029   4.377   4.191
 9901SOL     OW30601   1.936   2.054   5.921
 9901SOL    HW130602   2.014   2.114   5.940
 9901SOL    HW230603   1.878   2.048   6.003
 9902SOL     OW30604   4.469   3.896   6.532
 9902SOL    HW130605   4.528   3.835   6.585
 9902SOL    HW230606   4.496   3.893   6.436
 9903SOL     OW30607   3.225   1.750   1.499
 9903SOL    HW130608   3.205   1.736   1.596
 9903SOL    HW230609   3.160   1.698   1.444
 9904SOL     OW30610   0.093   6.679   2.822
 9904SOL    HW130611   0.105   6.772   2.857
 9904SOL    HW230612   0.179   6.629   2.829
 9905SOL     OW30613   1.814   6.609   5.813
 9905SOL    HW130614   1.804   6.560   5.727
 9905SOL    HW230615   1.883   6.565   5.869
 9906SOL     OW30616   3.345   3.830   6.080
 9906SOL    HW130617   3.412   3.900   6.053
 9906SOL    HW230618   3.388   3.740   6.079
 9907SOL     OW30619   1.416   6.968   2.826
 9907SOL    HW130620   1.443   6.903   2.755
 9907SOL    HW230621   1.339   0.001   2.795
 9908SOL     OW30622   6.198   3.210   5.596
 9908SOL    HW130623   6.292   3.243   5.599
 9908SOL    HW230624   6.180   3.168   5.508
 9909SOL     OW30625   3.481   6.976   2.341
 9909SOL    HW130626   3.536   6.959   2.260
 9909SOL    HW230627   3.409   0.021   2.320
 9910SOL     OW30628   0.995   5.133   0.985
 9910SOL    HW130629   1.073   5.152   1.045
 9910SOL    HW230630   1.004   5.040   0.948
 9911SOL     OW30631   3.692   4.883   3.024
 9911SOL    HW130632   3.597   4.854   3.030
 9911SOL    HW230633   3.701   4.977   3.059
 9912SOL     OW30634   4.524   6.926   1.061
 9912SOL    HW130635   4.432   6.959   1.038
 9912SOL    HW230636   4.592   6.975   1.006
 9913SOL     OW30637   4.953   2.322   2.853
 9913SOL    HW130638   4.859   2.344   2.877
 9913SOL    HW230639   5.014   2.350   2.928
 9914SOL     OW30640   2.342   5.271   4.707
 9914SOL    HW130641   2.346   5.199   4.638
 9914SOL    HW230642   2.288   5.348   4.672
 9915SOL     OW30643   6.348   4.069   4.191
 9915SOL    HW130644   6.340   4.162   4.154
 9915SOL    HW230645   6.402   4.071   4.275
 9916SOL     OW30646   2.960   4.014   0.451
 9916SOL    HW130647   3.048   3.967   0.462
 9916SOL    HW230648   2.901   3.993   0.529
 9917SOL     OW30649   2.170   3.157   4.877
 9917SOL    HW130650   2.230   3.122   4.949
 9917SOL    HW230651   2.165   3.256   4.884
 9918SOL     OW30652   2.547   0.598   4.383
 9918SOL    HW130653   2.601   0.533   4.436
 9918SOL    HW230654   2.450   0.588   4.406
 9919SOL     OW30655   0.958   5.234   2.116
 9919SOL    HW130656   0.891   5.164   2.139
 9919SOL    HW230657   0.934   5.319   2.163
 9920SOL     OW30658   4.262   0.075   2.617
 9920SOL    HW130659   4.238   7.010   2.573
 9920SOL    HW230660   4.224   0.151   2.565
 9921SOL     OW30661   4.944   0.378   2.701
 9921SOL    HW130662   4.925   0.473   2.675
 9921SOL    HW230663   4.972   0.374   2.797
 9922SOL     OW30664   5.303   2.389   1.984
 9922SOL    HW130665   5.312   2.434   2.072
 9922SOL    HW230666   5.209   2.356   1.972
 9923SOL     OW30667   6.079   0.403   6.718
 9923SOL    HW130668   6.040   0.477   6.662
 9923SOL    HW230669   6.017   0.383   6.794
 9924SOL     OW30670   5.273   0.724   4.116
 9924SOL    HW130671   5.293   0.674   4.032
 9924SOL    HW230672   5.191   0.779   4.104
 9925SOL     OW30673   3.901   2.037   4.637
 9925SOL    HW130674   3.904   2.076   4.729
 9925SOL    HW230675   3.936   1.943   4.639
 9926SOL     OW30676   1.789   1.000   5.455
 9926SOL    HW130677   1.881   0.966   5.434
 9926SOL    HW230678   1.723   0.926   5.444
 9927SOL     OW30679   0.856   2.797   2.862
 9927SOL    HW130680   0.829   2.873   2.803
 9927SOL    HW230681   0.910   2.731   2.809
 9928SOL     OW30682   0.077   3.393   1.990
 9928SOL    HW130683   0.020   3.324   2.033
 9928SOL    HW230684   0.020   3.469   1.958
 9929SOL     OW30685   0.662   5.240   5.469
 9929SOL    HW130686   0.730   5.303   5.507
 9929SOL    HW230687   0.642   5.169   5.537
 9930SOL     OW30688   6.749   5.471   6.150
 9930SOL    HW130689   6.718   5.560   6.118
 9930SOL    HW230690   6.779   5.479   6.245
 9931SOL     OW30691   2.348   4.997   6.754
 9931SOL    HW130692   2.296   4.996   6.668
 9931SOL    HW230693   2.383   5.090   6.770
 9932SOL     OW30694   2.527   2.948   0.907
 9932SOL    HW130695   2.527   2.861   0.955
 9932SOL    HW230696   2.603   3.004   0.940
 9933SOL     OW30697   0.932   1.184   2.566
 9933SOL    HW130698   1.004   1.169   2.499
 9933SOL    HW230699   0.851   1.132   2.540
 9934SOL     OW30700   5.112   0.426   5.960
 9934SOL    HW130701   5.106   0.522   5.932
 9934SOL    HW230702   5.169   0.419   6.042
 9935SOL     OW30703   2.695   3.185   0.607
 9935SOL    HW130704   2.621   3.117   0.612
 9935SOL    HW230705   2.783   3.138   0.617
 9936SOL     OW30706   5.083   6.647   6.818
 9936SOL    HW130707   5.175   6.634   6.782
 9936SOL    HW230708   5.074   6.598   6.905
 9937SOL     OW30709   1.613   6.824   3.642
 9937SOL    HW130710   1.583   6.745   3.587
 9937SOL    HW230711   1.705   6.807   3.676
 9938SOL     OW30712   0.179   1.250   3.156
 9938SOL    HW130713   0.183   1.349   3.141
 9938SOL    HW230714   0.261   1.207   3.118
 9939SOL     OW30715   2.515   3.791   1.419
 9939SOL    HW130716   2.462   3.766   1.338
 9939SOL    HW230717   2.468   3.864   1.469
 9940SOL     OW30718   7.017   0.610   3.223
 9940SOL    HW130719   6.998   0.517   3.190
 9940SOL    HW230720   0.079   0.644   3.181
 9941SOL     OW30721   5.520   3.469   0.908
 9941SOL    HW130722   5.478   3.553   0.941
 9941SOL    HW230723   5.615   3.487   0.882
 9942SOL     OW30724   6.557   5.920   2.721
 9942SOL    HW130725   6.652   5.906   2.694
 9942SOL    HW230726   6.547   5.904   2.819
 9943SOL     OW30727   1.874   4.108   5.585
 9943SOL    HW130728   1.907   4.174   5.518
 9943SOL    HW230729   1.876   4.148   5.676
 9944SOL     OW30730   2.139   5.317   6.679
 9944SOL    HW130731   2.104   5.370   6.756
 9944SOL    HW230732   2.238   5.329   6.672
 9945SOL     OW30733   6.386   3.378   6.869
 9945SOL    HW130734   6.473   3.373   6.918
 9945SOL    HW230735   6.362   3.287   6.833
 9946SOL     OW30736   4.969   2.348   1.431
 9946SOL    HW130737   5.009   2.326   1.520
 9946SOL    HW230738   4.997   2.278   1.364
 9947SOL     OW30739   1.321   1.524   2.924
 9947SOL    HW130740   1.230   1.483   2.936
 9947SOL    HW230741   1.329   1.604   2.983
 9948SOL     OW30742   6.028   0.685   5.713
 9948SOL    HW130743   6.032   0.751   5.638
 9948SOL    HW230744   5.972   0.607   5.687
 9949SOL     OW30745   6.455   3.480   2.993
 9949SOL    HW130746   6.494   3.552   3.050
 9949SOL    HW230747   6.493   3.485   2.901
 9950SOL     OW30748   4.743   5.120   5.837
 9950SOL    HW130749   4.701   5.194   5.783
 9950SOL    HW230750   4.842   5.131   5.838
 9951SOL     OW30751   0.256   2.093   2.911
 9951SOL    HW130752   0.173   2.079   2.857
 9951SOL    HW230753   0.310   2.166   2.870
 9952SOL     OW30754   1.692   4.721   1.612
 9952SOL    HW130755   1.686   4.627   1.645
 9952SOL    HW230756   1.606   4.748   1.570
 9953SOL     OW30757   6.539   4.607   4.250
 9953SOL    HW130758   6.482   4.563   4.319
 9953SOL    HW230759   6.511   4.703   4.239
 9954SOL     OW30760   3.827   1.284   1.127
 9954SOL    HW130761   3.833   1.209   1.193
 9954SOL    HW230762   3.855   1.251   1.037
 9955SOL     OW30763   6.063   5.098   1.231
 9955SOL    HW130764   6.161   5.076   1.233
 9955SOL    HW230765   6.035   5.130   1.322
 9956SOL     OW30766   1.546   3.260   3.353
 9956SOL    HW130767   1.508   3.334   3.298
 9956SOL    HW230768   1.578   3.296   3.441
 9957SOL     OW30769   5.333   0.094   0.542
 9957SOL    HW130770   5.310   7.018   0.546
 9957SOL    HW230771   5.323   0.134   0.633
 9958SOL     OW30772   5.924   6.190   5.967
 9958SOL    HW130773   6.002   6.213   5.908
 9958SOL    HW230774   5.840   6.222   5.925
 9959SOL     OW30775   5.961   4.516   6.954
 9959SOL    HW130776   5.931   4.544   0.023
 9959SOL    HW230777   6.001   4.594   6.906
 9960SOL     OW30778   6.599   0.250   6.957
 9960SOL    HW130779   6.506   0.249   6.921
 9960SOL    HW230780   6.609   0.325   0.001
 9961SOL     OW30781   3.100   6.078   0.523
 9961SOL    HW130782   3.186   6.072   0.472
 9961SOL    HW230783   3.098   6.163   0.575
 9962SOL     OW30784   3.421   0.704   1.461
 9962SOL    HW130785   3.517   0.697   1.487
 9962SOL    HW230786   3.396   0.626   1.404
 9963SOL     OW30787   1.122   0.212   6.296
 9963SOL    HW130788   1.105   0.279   6.370
 9963SOL    HW230789   1.065   0.131   6.311
 9964SOL     OW30790   4.630   5.099   5.157
 9964SOL    HW130791   4.694   5.128   5.087
 9964SOL    HW230792   4.537   5.100   5.120
 9965SOL     OW30793   3.005   4.842   4.365
 9965SOL    HW130794   3.035   4.933   4.393
 9965SOL    HW230795   2.912   4.826   4.399
 9966SOL     OW30796   3.401   5.844   2.547
 9966SOL    HW130797   3.461   5.795   2.611
 9966SOL    HW230798   3.313   5.796   2.540
 9967SOL     OW30799   0.366   0.647   2.931
 9967SOL    HW130800   0.409   0.714   2.991
 9967SOL    HW230801   0.369   0.557   2.974
 9968SOL     OW30802   4.441   6.641   6.774
 9968SOL    HW130803   4.457   6.587   6.691
 9968SOL    HW230804   4.486   6.597   6.852
 9969SOL     OW30805   6.913   5.751   3.327
 9969SOL    HW130806   6.883   5.836   3.371
 9969SOL    HW230807   6.861   5.738   3.242
 9970SOL     OW30808   6.471   3.289   2.030
 9970SOL    HW130809   6.395   3.230   2.002
 9970SOL    HW230810   6.557   3.252   1.994
 9971SOL     OW30811   0.374   5.074   4.422
 9971SOL    HW130812   0.467   5.107   4.409
 9971SOL    HW230813   0.311   5.128   4.366
 9972SOL     OW30814   2.806   4.376   5.852
 9972SOL    HW130815   2.729   4.391   5.790
 9972SOL    HW230816   2.785   4.414   5.942
 9973SOL     OW30817   3.375   1.814   2.949
 9973SOL    HW130818   3.293   1.869   2.929
 9973SOL    HW230819   3.451   1.848   2.894
 9974SOL     OW30820   1.063   2.198   3.011
 9974SOL    HW130821   0.977   2.247   2.998
 9974SOL    HW230822   1.050   2.100   2.995
 9975SOL     OW30823   2.534   4.240   6.161
 9975SOL    HW130824   2.593   4.189   6.099
 9975SOL    HW230825   2.452   4.185   6.181
 9976SOL     OW30826   3.985   6.382   4.978
 9976SOL    HW130827   4.021   6.431   5.057
 9976SOL    HW230828   4.060   6.345   4.925
 9977SOL     OW30829   4.421   0.648   5.406
 9977SOL    HW130830   4.501   0.609   5.362
 9977SOL    HW230831   4.429   0.637   5.506
 9978SOL     OW30832   0.381   2.912   0.111
 9978SOL    HW130833   0.466   2.916   0.165
 9978SOL    HW230834   0.349   3.005   0.093
 9979SOL     OW30835   3.707   3.722   4.728
 9979SOL    HW130836   3.607   3.721   4.727
 9979SOL    HW230837   3.741   3.629   4.743
 9980SOL     OW30838   1.073   0.770   0.174
 9980SOL    HW130839   1.060   0.800   0.079
 9980SOL    HW230840   0.989   0.786   0.225
 9981SOL     OW30841   5.436   0.703   0.186
 9981SOL    HW130842   5.487   0.630   0.231
 9981SOL    HW230843   5.362   0.663   0.131
 9982SOL     OW30844   2.744   2.420   4.467
 9982SOL    HW130845   2.742   2.353   4.541
 9982SOL    HW230846   2.791   2.382   4.388
 9983SOL     OW30847   0.579   3.516   2.289
 9983SOL    HW130848   0.563   3.417   2.283
 9983SOL    HW230849   0.668   3.537   2.249
 9984SOL     OW30850   0.546   4.952   1.144
 9984SOL    HW130851   0.489   4.872   1.164
 9984SOL    HW230852   0.549   5.011   1.224
 9985SOL     OW30853   4.765   4.328   0.106
 9985SOL    HW130854   4.864   4.332   0.116
 9985SOL    HW230855   4.724   4.306   0.195
 9986SOL     OW30856   5.402   4.839   0.523
 9986SOL    HW130857   5.457   4.908   0.570
 9986SOL    HW230858   5.377   4.871   0.432
 9987SOL     OW30859   4.998   1.993   1.174
 9987SOL    HW130860   4.925   2.024   1.113
 9987SOL    HW230861   4.983   1.897   1.197
 9988SOL     OW30862   5.952   6.746   3.576
 9988SOL    HW130863   5.967   6.650   3.554
 9988SOL    HW230864   6.010   6.772   3.654
 9989SOL     OW30865   6.735   5.602   2.096
 9989SOL    HW130866   6.719   5.591   2.194
 9989SOL    HW230867   6.781   5.520   2.061
 9990SOL     OW30868   6.947   6.726   3.160
 9990SOL    HW130869   6.966   6.824   3.171
 9990SOL    HW230870   6.915   6.688   3.246
 9991SOL     OW30871   2.314   4.220   2.319
 9991SOL    HW130872   2.289   4.317   2.319
 9991SOL    HW230873   2.294   4.181   2.409
 9992SOL     OW30874   2.606   5.298   0.423
 9992SOL    HW130875   2.508   5.282   0.428
 9992SOL    HW230876   2.630   5.377   0.480
 9993SOL     OW30877   4.462   0.467   4.730
 9993SOL    HW130878   4.387   0.462   4.795
 9993SOL    HW230879   4.502   0.559   4.731
 9994SOL     OW30880   6.443   5.221   4.920
 9994SOL    HW130881   6.529   5.172   4.906
 9994SOL    HW230882   6.368   5.166   4.884
 9995SOL     OW30883   4.255   1.726   6.188
 9995SOL    HW130884   4.252   1.767   6.097
 9995SOL    HW230885   4.281   1.629   6.180
 9996SOL     OW30886   2.850   4.383   1.045
 9996SOL    HW130887   2.850   4.316   1.119
 9996SOL    HW230888   2.888   4.469   1.079
 9997SOL     OW30889   6.701   1.412   2.884
 9997SOL    HW130890   6.647   1.331   2.907
 9997SOL    HW230891   6.642   1.492   2.883
 9998SOL     OW30892   5.267   3.877   2.480
 9998SOL    HW130893   5.186   3.935   2.489
 9998SOL    HW230894   5.343   3.916   2.533
 9999SOL     OW30895   0.498   6.983   4.739
 9999SOL    HW130896   0.444   0.045   4.727
 9999SOL    HW230897   0.558   6.993   4.818
10000SOL     OW30898   4.407   2.080   1.280
10000SOL    HW130899   4.503   2.100   1.261
10000SOL    HW230900   4.368   2.030   1.202
10001SOL     OW30901   4.178   5.916   1.729
10001SOL    HW130902   4.232   5.964   1.799
10001SOL    HW230903   4.190   5.962   1.641
10002SOL     OW30904   2.366   6.846   2.298
10002SOL    HW130905   2.321   6.839   2.209
10002SOL    HW230906   2.330   6.926   2.347
10003SOL     OW30907   1.344   1.259   2.585
10003SOL    HW130908   1.408   1.182   2.579
10003SOL    HW230909   1.270   1.245   2.519
10004SOL     OW30910   0.345   4.021   3.644
10004SOL    HW130911   0.369   4.096   3.705
10004SOL    HW230912   0.427   3.968   3.622
10005SOL     OW30913   2.498   5.830   3.460
10005SOL    HW130914   2.444   5.773   3.399
10005SOL    HW230915   2.553   5.772   3.520
10006SOL     OW30916   5.256   1.532   5.328
10006SOL    HW130917   5.183   1.588   5.368
10006SOL    HW230918   5.247   1.532   5.228
10007SOL     OW30919   1.396   4.946   4.036
10007SOL    HW130920   1.433   4.900   4.117
10007SOL    HW230921   1.432   4.901   3.954
10008SOL     OW30922   4.356   1.050   5.972
10008SOL    HW130923   4.280   1.105   6.006
10008SOL    HW230924   4.364   1.062   5.873
10009SOL     OW30925   0.983   4.699   2.392
10009SOL    HW130926   1.003   4.778   2.450
10009SOL    HW230927   1.062   4.638   2.390
10010SOL     OW30928   2.120   4.215   1.441
10010SOL    HW130929   2.123   4.122   1.405
10010SOL    HW230930   2.088   4.277   1.370
10011SOL     OW30931   2.935   2.981   0.178
10011SOL    HW130932   2.866   3.016   0.241
10011SOL    HW230933   2.912   3.009   0.085
10012SOL     OW30934   5.726   1.807   3.327
10012SOL    HW130935   5.723   1.797   3.228
10012SOL    HW230936   5.634   1.797   3.365
10013SOL     OW30937   0.668   6.503   4.455
10013SOL    HW130938   0.743   6.471   4.396
10013SOL    HW230939   0.590   6.530   4.398
10014SOL     OW30940   1.284   0.788   3.324
10014SOL    HW130941   1.330   0.810   3.410
10014SOL    HW230942   1.344   0.810   3.247
10015SOL     OW30943   3.647   6.852   6.427
10015SOL    HW130944   3.636   6.814   6.335
10015SOL    HW230945   3.624   6.950   6.426
10016SOL     OW30946   2.093   0.901   4.540
10016SOL    HW130947   2.166   0.959   4.505
10016SOL    HW230948   2.060   0.840   4.468
10017SOL     OW30949   3.354   1.597   2.599
10017SOL    HW130950   3.256   1.586   2.579
10017SOL    HW230951   3.384   1.688   2.572
10018SOL     OW30952   0.091   3.849   5.346
10018SOL    HW130953   0.001   3.858   5.389
10018SOL    HW230954   0.082   3.799   5.260
10019SOL     OW30955   0.257   2.100   2.100
10019SOL    HW130956   0.271   2.153   2.184
10019SOL    HW230957   0.310   2.016   2.104
10020SOL     OW30958   6.737   1.378   2.134
10020SOL    HW130959   6.796   1.415   2.206
10020SOL    HW230960   6.697   1.292   2.164
10021SOL     OW30961   0.787   3.198   2.015
10021SOL    HW130962   0.768   3.256   2.094
10021SOL    HW230963   0.818   3.108   2.046
10022SOL     OW30964   1.134   6.284   5.871
10022SOL    HW130965   1.083   6.250   5.950
10022SOL    HW230966   1.228   6.304   5.898
10023SOL     OW30967   0.070   1.736   6.133
10023SOL    HW130968   0.073   1.688   6.045
10023SOL    HW230969   0.157   1.722   6.181
10024SOL     OW30970   2.303   4.442   2.930
10024SOL    HW130971   2.224   4.503   2.917
10024SOL    HW230972   2.329   4.402   2.842
10025SOL     OW30973   0.998   3.409   0.986
10025SOL    HW130974   1.067   3.375   1.050
10025SOL    HW230975   0.984   3.507   1.002
10026SOL     OW30976   5.740   1.053   5.349
10026SOL    HW130977   5.819   1.040   5.408
10026SOL    HW230978   5.709   1.148   5.356
10027SOL     OW30979   3.350   1.502   5.048
10027SOL    HW130980   3.306   1.564   4.983
10027SOL    HW230981   3.429   1.548   5.090
10028SOL     OW30982   4.524   0.039   1.806
10028SOL    HW130983   4.549   7.019   1.719
10028SOL    HW230984   4.548   6.998   1.881
10029SOL     OW30985   0.143   4.333   4.338
10029SOL    HW130986   0.104   4.242   4.354
10029SOL    HW230987   0.243   4.328   4.349
10030SOL     OW30988   2.815   0.229   4.608
10030SOL    HW130989   2.858   0.313   4.576
10030SOL    HW230990   2.727   0.251   4.652
10031SOL     OW30991   2.072   6.494   2.938
10031SOL    HW130992   2.042   6.400   2.957
10031SOL    HW230993   2.171   6.498   2.942
10032SOL     OW30994   3.150   6.045   4.753
10032SOL    HW130995   3.203   5.969   4.790
10032SOL    HW230996   3.148   6.120   4.818
10033SOL     OW30997   3.442   1.113   4.983
10033SOL    HW130998   3.374   1.180   4.953
10033SOL    HW230999   3.507   1.156   5.045
10034SOL     OW31000   2.645   1.002   2.678
10034SOL    HW131001   2.570   1.065   2.657
10034SOL    HW231002   2.677   1.018   2.771
10035SOL     OW31003   6.559   3.039   2.468
10035SOL    HW131004   6.504   3.121   2.459
10035SOL    HW231005   6.512   2.974   2.528
10036SOL     OW31006   1.114   1.185   6.926
10036SOL    HW131007   1.112   1.209   0.001
10036SOL    HW231008   1.072   1.258   6.872
10037SOL     OW31009   5.463   6.511   6.316
10037SOL    HW131010   5.468   6.422   6.362
10037SOL    HW231011   5.376   6.520   6.268
10038SOL     OW31012   4.484   6.537   6.512
10038SOL    HW131013   4.552   6.605   6.484
10038SOL    HW231014   4.429   6.510   6.433
10039SOL     OW31015   0.412   5.757   2.312
10039SOL    HW131016   0.435   5.794   2.402
10039SOL    HW231017   0.375   5.665   2.323
10040SOL     OW31018   2.373   0.223   0.765
10040SOL    HW131019   2.379   0.191   0.670
10040SOL    HW231020   2.289   0.277   0.776
10041SOL     OW31021   5.820   5.402   4.871
10041SOL    HW131022   5.778   5.349   4.945
10041SOL    HW231023   5.749   5.438   4.811
10042SOL     OW31024   6.749   0.336   5.172
10042SOL    HW131025   6.661   0.382   5.166
10042SOL    HW231026   6.815   0.397   5.216
10043SOL     OW31027   0.678   0.826   3.924
10043SOL    HW131028   0.620   0.750   3.954
10043SOL    HW231029   0.769   0.816   3.964
10044SOL     OW31030   3.150   1.786   0.156
10044SOL    HW131031   3.069   1.781   0.098
10044SOL    HW231032   3.173   1.882   0.172
10045SOL     OW31033   4.265   6.849   4.546
10045SOL    HW131034   4.285   6.919   4.615
10045SOL    HW231035   4.346   6.833   4.490
10046SOL     OW31036   6.343   2.541   1.346
10046SOL    HW131037   6.291   2.487   1.281
10046SOL    HW231038   6.286   2.616   1.381
10047SOL     OW31039   0.652   2.158   3.084
10047SOL    HW131040   0.682   2.094   3.155
10047SOL    HW231041   0.557   2.182   3.099
10048SOL     OW31042   3.702   2.678   1.780
10048SOL    HW131043   3.636   2.613   1.742
10048SOL    HW231044   3.794   2.641   1.770
10049SOL     OW31045   1.736   6.697   4.826
10049SOL    HW131046   1.806   6.743   4.771
10049SOL    HW231047   1.761   6.601   4.837
10050SOL     OW31048   5.646   1.391   4.378
10050SOL    HW131049   5.576   1.429   4.438
10050SOL    HW231050   5.608   1.377   4.287
10051SOL     OW31051   6.296   2.032   6.871
10051SOL    HW131052   6.349   2.087   6.935
10051SOL    HW231053   6.238   2.091   6.816
10052SOL     OW31054   0.983   4.096   1.930
10052SOL    HW131055   0.895   4.139   1.951
10052SOL    HW231056   0.976   4.046   1.844
10053SOL     OW31057   2.830   6.471   2.988
10053SOL    HW131058   2.912   6.521   3.018
10053SOL    HW231059   2.770   6.532   2.938
10054SOL     OW31060   4.430   5.781   4.069
10054SOL    HW131061   4.465   5.755   4.159
10054SOL    HW231062   4.505   5.814   4.012
10055SOL     OW31063   6.948   3.314   6.579
10055SOL    HW131064   6.950   3.217   6.600
10055SOL    HW231065   6.921   3.365   6.661
10056SOL     OW31066   6.604   4.990   2.102
10056SOL    HW131067   6.537   5.016   2.033
10056SOL    HW231068   6.557   4.956   2.183
10057SOL     OW31069   2.672   2.245   3.395
10057SOL    HW131070   2.754   2.224   3.448
10057SOL    HW231071   2.628   2.327   3.434
10058SOL     OW31072   0.773   4.190   3.843
10058SOL    HW131073   0.847   4.232   3.896
10058SOL    HW231074   0.708   4.261   3.814
10059SOL     OW31075   5.551   6.760   1.139
10059SOL    HW131076   5.519   6.821   1.211
10059SOL    HW231077   5.640   6.722   1.164
10060SOL     OW31078   2.102   2.821   2.250
10060SOL    HW131079   2.087   2.777   2.161
10060SOL    HW231080   2.018   2.869   2.277
10061SOL     OW31081   6.455   2.199   4.663
10061SOL    HW131082   6.360   2.230   4.664
10061SOL    HW231083   6.465   2.126   4.595
10062SOL     OW31084   6.068   5.314   3.375
10062SOL    HW131085   6.049   5.410   3.394
10062SOL    HW231086   5.982   5.267   3.354
10063SOL     OW31087   1.241   2.746   2.725
10063SOL    HW131088   1.337   2.725   2.746
10063SOL    HW231089   1.201   2.795   2.802
10064SOL     OW31090   5.750   6.163   4.660
10064SOL    HW131091   5.685   6.191   4.589
10064SOL    HW231092   5.701   6.149   4.746
10065SOL     OW31093   0.601   6.558   3.220
10065SOL    HW131094   0.605   6.553   3.120
10065SOL    HW231095   0.660   6.633   3.252
10066SOL     OW31096   0.628   0.617   3.633
10066SOL    HW131097   0.607   0.674   3.712
10066SOL    HW231098   0.725   0.592   3.634
10067SOL     OW31099   4.617   6.652   3.216
10067SOL    HW131100   4.573   6.736   3.183
10067SOL    HW231101   4.630   6.658   3.316
10068SOL     OW31102   5.048   3.985   5.689
10068SOL    HW131103   4.959   3.939   5.690
10068SOL    HW231104   5.048   4.053   5.615
10069SOL     OW31105   4.496   1.038   3.781
10069SOL    HW131106   4.443   1.115   3.819
10069SOL    HW231107   4.579   1.025   3.835
10070SOL     OW31108   0.816   6.845   4.520
10070SOL    HW131109   0.728   6.836   4.474
10070SOL    HW231110   0.814   6.792   4.605
10071SOL     OW31111   5.244   5.295   4.971
10071SOL    HW131112   5.162   5.317   4.919
10071SOL    HW231113   5.264   5.197   4.961
10072SOL     OW31114   0.972   6.766   3.757
10072SOL    HW131115   0.959   6.669   3.734
10072SOL    HW231116   1.069   6.783   3.776
10073SOL     OW31117   0.682   5.253   6.879
10073SOL    HW131118   0.729   5.335   6.910
10073SOL    HW231119   0.748   5.181   6.861
10074SOL     OW31120   2.218   6.424   5.704
10074SOL    HW131121   2.202   6.326   5.694
10074SOL    HW231122   2.181   6.456   5.791
10075SOL     OW31123   1.831   2.376   3.806
10075SOL    HW131124   1.867   2.469   3.814
10075SOL    HW231125   1.731   2.379   3.808
10076SOL     OW31126   5.457   0.354   4.602
10076SOL    HW131127   5.521   0.317   4.670
10076SOL    HW231128   5.366   0.315   4.617
10077SOL     OW31129   3.611   1.349   6.752
10077SOL    HW131130   3.672   1.406   6.699
10077SOL    HW231131   3.550   1.406   6.807
10078SOL     OW31132   6.017   6.480   5.788
10078SOL    HW131133   5.924   6.504   5.817
10078SOL    HW231134   6.014   6.435   5.699
10079SOL     OW31135   6.870   3.807   6.409
10079SOL    HW131136   6.804   3.754   6.461
10079SOL    HW231137   6.879   3.769   6.317
10080SOL     OW31138   1.552   2.932   6.202
10080SOL    HW131139   1.499   2.887   6.274
10080SOL    HW231140   1.492   2.993   6.151
10081SOL     OW31141   0.346   1.062   6.903
10081SOL    HW131142   0.318   0.978   6.950
10081SOL    HW231143   0.440   1.052   6.871
10082SOL     OW31144   6.583   1.226   0.826
10082SOL    HW131145   6.513   1.296   0.837
10082SOL    HW231146   6.640   1.222   0.908
10083SOL     OW31147   5.352   1.089   4.379
10083SOL    HW131148   5.446   1.092   4.414
10083SOL    HW231149   5.353   1.090   4.279
10084SOL     OW31150   2.530   0.998   6.247
10084SOL    HW131151   2.482   1.083   6.227
10084SOL    HW231152   2.621   1.000   6.205
10085SOL     OW31153   0.698   5.618   2.971
10085SOL    HW131154   0.634   5.695   2.965
10085SOL    HW231155   0.791   5.651   2.957
10086SOL     OW31156   6.373   3.487   2.544
10086SOL    HW131157   6.386   3.408   2.604
10086SOL    HW231158   6.452   3.497   2.484
10087SOL     OW31159   1.270   0.431   3.972
10087SOL    HW131160   1.183   0.382   3.962
10087SOL    HW231161   1.272   0.509   3.910
10088SOL     OW31162   6.936   0.701   4.761
10088SOL    HW131163   6.941   0.678   4.858
10088SOL    HW231164   6.970   0.794   4.747
10089SOL     OW31165   1.398   3.133   2.380
10089SOL    HW131166   1.343   3.079   2.315
10089SOL    HW231167   1.449   3.072   2.439
10090SOL     OW31168   0.788   4.798   1.181
10090SOL    HW131169   0.723   4.874   1.178
10090SOL    HW231170   0.775   4.740   1.101
10091SOL     OW31171   0.361   2.466   4.197
10091SOL    HW131172   0.426   2.497   4.266
10091SOL    HW231173   0.336   2.371   4.215
10092SOL     OW31174   1.951   3.625   4.645
10092SOL    HW131175   1.857   3.608   4.616
10092SOL    HW231176   1.952   3.699   4.712
10093SOL     OW31177   6.944   4.974   6.117
10093SOL    HW131178   6.917   5.070   6.127
10093SOL    HW231179   6.901   4.920   6.190
10094SOL     OW31180   1.498   1.159   1.640
10094SOL    HW131181   1.405   1.195   1.638
10094SOL    HW231182   1.495   1.061   1.658
10095SOL     OW31183   0.572   1.035   5.773
10095SOL    HW131184   0.591   1.100   5.699
10095SOL    HW231185   0.638   1.048   5.846
10096SOL     OW31186   0.467   4.679   2.068
10096SOL    HW131187   0.451   4.583   2.043
10096SOL    HW231188   0.416   4.738   2.005
10097SOL     OW31189   1.121   2.298   6.604
10097SOL    HW131190   1.172   2.374   6.644
10097SOL    HW231191   1.025   2.325   6.592
10098SOL     OW31192   3.432   4.651   6.478
10098SOL    HW131193   3.426   4.571   6.419
10098SOL    HW231194   3.462   4.730   6.423
10099SOL     OW31195   6.516   4.772   4.632
10099SOL    HW131196   6.585   4.716   4.679
10099SOL    HW231197   6.558   4.815   4.553
10100SOL     OW31198   5.844   0.996   5.788
10100SOL    HW131199   5.771   0.935   5.819
10100SOL    HW231200   5.890   1.037   5.867
10101SOL     OW31201   0.168   4.569   1.997
10101SOL    HW131202   0.257   4.531   1.971
10101SOL    HW231203   0.171   4.603   2.091
10102SOL     OW31204   3.891   1.144   3.079
10102SOL    HW131205   3.879   1.122   2.982
10102SOL    HW231206   3.905   1.243   3.089
10103SOL     OW31207   2.771   1.780   0.195
10103SOL    HW131208   2.756   1.867   0.242
10103SOL    HW231209   2.734   1.786   0.102
10104SOL     OW31210   1.705   5.885   5.087
10104SOL    HW131211   1.762   5.967   5.072
10104SOL    HW231212   1.736   5.813   5.025
10105SOL     OW31213   2.892   0.213   6.469
10105SOL    HW131214   2.925   0.250   6.555
10105SOL    HW231215   2.833   0.280   6.424
10106SOL     OW31216   5.548   5.575   0.348
10106SOL    HW131217   5.643   5.605   0.339
10106SOL    HW231218   5.545   5.476   0.357
10107SOL     OW31219   5.681   0.866   5.990
10107SOL    HW131220   5.763   0.828   6.031
10107SOL    HW231221   5.623   0.905   6.062
10108SOL     OW31222   5.846   6.603   6.818
10108SOL    HW131223   5.808   6.549   6.893
10108SOL    HW231224   5.774   6.622   6.751
10109SOL     OW31225   4.679   5.316   3.357
10109SOL    HW131226   4.699   5.304   3.454
10109SOL    HW231227   4.719   5.240   3.305
10110SOL     OW31228   3.370   1.511   5.714
10110SOL    HW131229   3.375   1.588   5.778
10110SOL    HW231230   3.274   1.493   5.690
10111SOL     OW31231   0.840   2.745   2.521
10111SOL    HW131232   0.747   2.777   2.542
10111SOL    HW231233   0.835   2.658   2.472
10112SOL     OW31234   4.009   4.224   5.981
10112SOL    HW131235   4.053   4.176   6.056
10112SOL    HW231236   3.935   4.281   6.016
10113SOL     OW31237   3.277   6.331   6.923
10113SOL    HW131238   3.220   6.410   6.948
10113SOL    HW231239   3.364   6.337   6.972
10114SOL     OW31240   4.076   1.558   1.113
10114SOL    HW131241   4.102   1.471   1.072
10114SOL    HW231242   4.154   1.597   1.162
10115SOL     OW31243   1.370   1.991   3.717
10115SOL    HW131244   1.321   1.963   3.800
10115SOL    HW231245   1.389   2.089   3.721
10116SOL     OW31246   0.946   0.937   1.179
10116SOL    HW131247   0.973   1.033   1.191
10116SOL    HW231248   0.863   0.932   1.123
10117SOL     OW31249   5.266   0.937   5.842
10117SOL    HW131250   5.189   0.918   5.781
10117SOL    HW231251   5.261   1.032   5.873
10118SOL     OW31252   6.768   5.006   2.679
10118SOL    HW131253   6.736   5.054   2.761
10118SOL    HW231254   6.694   5.004   2.611
10119SOL     OW31255   2.912   0.075   5.723
10119SOL    HW131256   2.917   0.118   5.813
10119SOL    HW231257   2.914   0.145   5.652
10120SOL     OW31258   6.303   2.420   3.650
10120SOL    HW131259   6.261   2.510   3.636
10120SOL    HW231260   6.375   2.428   3.719
10121SOL     OW31261   6.736   5.128   4.264
10121SOL    HW131262   6.806   5.184   4.309
10121SOL    HW231263   6.681   5.186   4.203
10122SOL     OW31264   5.451   3.021   0.343
10122SOL    HW131265   5.455   2.934   0.392
10122SOL    HW231266   5.538   3.069   0.354
10123SOL     OW31267   6.622   6.991   0.179
10123SOL    HW131268   6.620   6.928   0.257
10123SOL    HW231269   6.714   6.990   0.139
10124SOL     OW31270   3.092   4.274   0.902
10124SOL    HW131271   3.001   4.299   0.934
10124SOL    HW231272   3.127   4.345   0.840
10125SOL     OW31273   1.297   6.924   1.388
10125SOL    HW131274   1.329   6.990   1.456
10125SOL    HW231275   1.283   6.970   1.300
10126SOL     OW31276   6.100   5.031   0.273
10126SOL    HW131277   6.000   5.028   0.282
10126SOL    HW231278   6.141   5.027   0.364
10127SOL     OW31279   3.515   4.736   5.475
10127SOL    HW131280   3.553   4.645   5.459
10127SOL    HW231281   3.422   4.727   5.510
10128SOL     OW31282   0.260   1.833   1.787
10128SOL    HW131283   0.283   1.860   1.880
10128SOL    HW231284   0.309   1.749   1.764
10129SOL     OW31285   5.231   2.059   3.090
10129SOL    HW131286   5.252   2.032   2.996
10129SOL    HW231287   5.135   2.087   3.096
10130SOL     OW31288   6.851   5.078   2.034
10130SOL    HW131289   6.759   5.050   2.063
10130SOL    HW231290   6.858   5.178   2.037
10131SOL     OW31291   6.634   0.739   0.837
10131SOL    HW131292   6.691   0.756   0.917
10131SOL    HW231293   6.569   0.666   0.857
10132SOL     OW31294   2.912   6.941   2.536
10132SOL    HW131295   2.841   6.955   2.468
10132SOL    HW231296   2.997   6.913   2.490
10133SOL     OW31297   4.885   5.538   2.999
10133SOL    HW131298   4.841   5.572   3.081
10133SOL    HW231299   4.937   5.455   3.020
10134SOL     OW31300   0.261   1.493   2.635
10134SOL    HW131301   0.201   1.563   2.673
10134SOL    HW231302   0.224   1.402   2.656
10135SOL     OW31303   3.349   5.715   2.855
10135SOL    HW131304   3.428   5.764   2.816
10135SOL    HW231305   3.365   5.697   2.952
10136SOL     OW31306   6.203   0.035   2.048
10136SOL    HW131307   6.235   0.080   1.964
10136SOL    HW231308   6.257   6.974   2.064
10137SOL     OW31309   5.656   4.890   4.299
10137SOL    HW131310   5.697   4.905   4.209
10137SOL    HW231311   5.597   4.968   4.322
10138SOL     OW31312   5.395   2.567   6.693
10138SOL    HW131313   5.440   2.564   6.604
10138SOL    HW231314   5.381   2.473   6.726
10139SOL     OW31315   4.093   3.440   3.337
10139SOL    HW131316   4.104   3.484   3.426
10139SOL    HW231317   4.056   3.348   3.349
10140SOL     OW31318   0.596   4.743   5.490
10140SOL    HW131319   0.545   4.672   5.538
10140SOL    HW231320   0.581   4.735   5.391
10141SOL     OW31321   2.439   0.387   4.223
10141SOL    HW131322   2.518   0.368   4.282
10141SOL    HW231323   2.455   0.347   4.133
10142SOL     OW31324   5.143   5.955   4.776
10142SOL    HW131325   5.180   6.006   4.698
10142SOL    HW231326   5.071   6.009   4.820
10143SOL     OW31327   5.358   6.152   0.881
10143SOL    HW131328   5.396   6.070   0.836
10143SOL    HW231329   5.297   6.124   0.955
10144SOL     OW31330   2.903   5.389   3.483
10144SOL    HW131331   2.969   5.326   3.441
10144SOL    HW231332   2.883   5.463   3.420
10145SOL     OW31333   3.222   6.069   6.211
10145SOL    HW131334   3.198   5.988   6.157
10145SOL    HW231335   3.280   6.042   6.287
10146SOL     OW31336   4.800   4.897   4.471
10146SOL    HW131337   4.759   4.894   4.379
10146SOL    HW231338   4.898   4.916   4.463
10147SOL     OW31339   5.169   5.133   4.644
10147SOL    HW131340   5.218   5.091   4.720
10147SOL    HW231341   5.073   5.146   4.669
10148SOL     OW31342   5.567   5.281   1.164
10148SOL    HW131343   5.613   5.227   1.235
10148SOL    HW231344   5.490   5.228   1.127
10149SOL     OW31345   3.943   3.565   0.634
10149SOL    HW131346   3.918   3.654   0.673
10149SOL    HW231347   4.041   3.552   0.642
10150SOL     OW31348   5.104   4.559   1.474
10150SOL    HW131349   5.096   4.479   1.534
10150SOL    HW231350   5.052   4.635   1.513
10151SOL     OW31351   1.142   6.725   5.666
10151SOL    HW131352   1.241   6.712   5.663
10151SOL    HW231353   1.120   6.793   5.736
10152SOL     OW31354   0.363   4.948   3.564
10152SOL    HW131355   0.415   4.862   3.566
10152SOL    HW231356   0.400   5.007   3.493
10153SOL     OW31357   5.365   6.711   3.922
10153SOL    HW131358   5.320   6.697   3.834
10153SOL    HW231359   5.369   6.624   3.972
10154SOL     OW31360   6.603   5.546   5.815
10154SOL    HW131361   6.540   5.489   5.762
10154SOL    HW231362   6.693   5.501   5.819
10155SOL     OW31363   3.956   1.681   6.528
10155SOL    HW131364   3.892   1.636   6.591
10155SOL    HW231365   4.023   1.733   6.581
10156SOL     OW31366   5.984   0.443   2.202
10156SOL    HW131367   5.946   0.388   2.128
10156SOL    HW231368   5.975   0.540   2.180
10157SOL     OW31369   5.304   0.686   5.995
10157SOL    HW131370   5.348   0.605   6.034
10157SOL    HW231371   5.341   0.703   5.903
10158SOL     OW31372   4.223   3.748   6.463
10158SOL    HW131373   4.295   3.810   6.495
10158SOL    HW231374   4.138   3.798   6.453
10159SOL     OW31375   1.229   1.026   6.511
10159SOL    HW131376   1.146   0.987   6.550
10159SOL    HW231377   1.215   1.124   6.494
10160SOL     OW31378   0.736   5.744   3.262
10160SOL    HW131379   0.736   5.751   3.162
10160SOL    HW231380   0.796   5.815   3.300
10161SOL     OW31381   2.440   5.885   5.645
10161SOL    HW131382   2.372   5.927   5.706
10161SOL    HW231383   2.394   5.848   5.564
10162SOL     OW31384   3.352   1.817   6.767
10162SOL    HW131385   3.293   1.867   6.703
10162SOL    HW231386   3.296   1.750   6.817
10163SOL     OW31387   6.403   2.871   5.388
10163SOL    HW131388   6.423   2.916   5.475
10163SOL    HW231389   6.304   2.867   5.375
10164SOL     OW31390   0.554   2.576   5.643
10164SOL    HW131391   0.562   2.671   5.614
10164SOL    HW231392   0.528   2.572   5.740
10165SOL     OW31393   6.928   2.022   3.414
10165SOL    HW131394   6.907   1.963   3.492
10165SOL    HW231395   6.845   2.038   3.360
10166SOL     OW31396   1.567   0.933   2.181
10166SOL    HW131397   1.659   0.957   2.149
10166SOL    HW231398   1.499   0.979   2.126
10167SOL     OW31399   4.823   0.539   0.232
10167SOL    HW131400   4.842   0.447   0.198
10167SOL    HW231401   4.849   0.546   0.328
10168SOL     OW31402   6.737   4.611   4.592
10168SOL    HW131403   6.804   4.551   4.637
10168SOL    HW231404   6.751   4.609   4.493
10169SOL     OW31405   6.560   4.616   3.967
10169SOL    HW131406   6.578   4.714   3.959
10169SOL    HW231407   6.547   4.592   4.063
10170SOL     OW31408   1.793   4.179   4.808
10170SOL    HW131409   1.827   4.130   4.888
10170SOL    HW231410   1.870   4.216   4.756
10171SOL     OW31411   5.940   3.591   5.881
10171SOL    HW131412   5.963   3.642   5.797
10171SOL    HW231413   5.844   3.609   5.905
10172SOL     OW31414   5.048   1.582   3.372
10172SOL    HW131415   5.144   1.572   3.400
10172SOL    HW231416   5.033   1.675   3.340
10173SOL     OW31417   2.189   1.567   2.345
10173SOL    HW131418   2.262   1.632   2.366
10173SOL    HW231419   2.111   1.617   2.308
10174SOL     OW31420   6.619   4.359   1.497
10174SOL    HW131421   6.587   4.425   1.429
10174SOL    HW231422   6.715   4.375   1.516
10175SOL     OW31423   6.160   2.459   6.042
10175SOL    HW131424   6.220   2.538   6.052
10175SOL    HW231425   6.168   2.423   5.950
10176SOL     OW31426   2.386   4.155   0.218
10176SOL    HW131427   2.425   4.066   0.194
10176SOL    HW231428   2.295   4.142   0.257
10177SOL     OW31429   1.626   0.015   6.388
10177SOL    HW131430   1.611   0.084   6.459
10177SOL    HW231431   1.723   7.015   6.382
10178SOL     OW31432   5.508   2.487   4.369
10178SOL    HW131433   5.503   2.438   4.282
10178SOL    HW231434   5.591   2.461   4.417
10179SOL     OW31435   1.515   3.480   6.726
10179SOL    HW131436   1.588   3.539   6.691
10179SOL    HW231437   1.445   3.537   6.768
10180SOL     OW31438   2.620   6.230   5.518
10180SOL    HW131439   2.699   6.240   5.457
10180SOL    HW231440   2.562   6.311   5.510
10181SOL     OW31441   5.063   3.166   0.996
10181SOL    HW131442   4.968   3.196   0.985
10181SOL    HW231443   5.096   3.126   0.911
10182SOL     OW31444   5.416   1.247   0.625
10182SOL    HW131445   5.428   1.163   0.678
10182SOL    HW231446   5.476   1.246   0.545
10183SOL     OW31447   1.457   1.943   6.654
10183SOL    HW131448   1.428   1.880   6.726
10183SOL    HW231449   1.491   1.890   6.576
10184SOL     OW31450   4.283   0.750   6.072
10184SOL    HW131451   4.330   0.812   6.009
10184SOL    HW231452   4.185   0.750   6.052
10185SOL     OW31453   5.055   0.149   6.827
10185SOL    HW131454   5.007   0.237   6.834
10185SOL    HW231455   5.152   0.166   6.812
10186SOL     OW31456   4.384   2.380   3.182
10186SOL    HW131457   4.326   2.346   3.108
10186SOL    HW231458   4.449   2.308   3.208
10187SOL     OW31459   1.077   2.483   1.791
10187SOL    HW131460   1.136   2.406   1.814
10187SOL    HW231461   0.981   2.453   1.789
10188SOL     OW31462   3.756   5.904   1.227
10188SOL    HW131463   3.688   5.977   1.224
10188SOL    HW231464   3.710   5.815   1.225
10189SOL     OW31465   1.288   6.407   5.165
10189SOL    HW131466   1.319   6.312   5.172
10189SOL    HW231467   1.244   6.434   5.250
10190SOL     OW31468   5.607   2.650   0.360
10190SOL    HW131469   5.531   2.692   0.310
10190SOL    HW231470   5.577   2.625   0.452
10191SOL     OW31471   6.243   4.524   6.978
10191SOL    HW131472   6.208   4.599   6.922
10191SOL    HW231473   6.262   4.445   6.919
10192SOL     OW31474   3.039   1.245   6.225
10192SOL    HW131475   3.122   1.300   6.223
10192SOL    HW231476   2.985   1.263   6.142
10193SOL     OW31477   4.772   3.819   0.330
10193SOL    HW131478   4.712   3.821   0.410
10193SOL    HW231479   4.847   3.884   0.343
10194SOL     OW31480   5.363   3.696   5.589
10194SOL    HW131481   5.457   3.665   5.605
10194SOL    HW231482   5.337   3.761   5.660
10195SOL     OW31483   6.885   4.224   2.277
10195SOL    HW131484   6.818   4.255   2.210
10195SOL    HW231485   6.864   4.264   2.366
10196SOL     OW31486   0.539   1.868   4.783
10196SOL    HW131487   0.602   1.908   4.716
10196SOL    HW231488   0.467   1.933   4.804
10197SOL     OW31489   5.814   1.147   6.444
10197SOL    HW131490   5.844   1.105   6.529
10197SOL    HW231491   5.718   1.172   6.450
10198SOL     OW31492   3.569   6.931   3.387
10198SOL    HW131493   3.507   6.967   3.456
10198SOL    HW231494   3.660   6.971   3.399
10199SOL     OW31495   1.144   2.406   5.241
10199SOL    HW131496   1.135   2.487   5.184
10199SOL    HW231497   1.200   2.338   5.194
10200SOL     OW31498   5.684   2.536   1.345
10200SOL    HW131499   5.656   2.486   1.264
10200SOL    HW231500   5.621   2.612   1.362
10201SOL     OW31501   1.058   3.312   0.728
10201SOL    HW131502   1.130   3.271   0.783
10201SOL    HW231503   0.995   3.362   0.787
10202SOL     OW31504   3.872   0.504   4.740
10202SOL    HW131505   3.937   0.579   4.733
10202SOL    HW231506   3.783   0.533   4.705
10203SOL     OW31507   6.491   2.687   4.765
10203SOL    HW131508   6.554   2.687   4.687
10203SOL    HW231509   6.437   2.771   4.765
10204SOL     OW31510   5.780   5.544   6.340
10204SOL    HW131511   5.753   5.450   6.319
10204SOL    HW231512   5.876   5.546   6.367
10205SOL     OW31513   1.315   0.593   5.781
10205SOL    HW131514   1.335   0.690   5.778
10205SOL    HW231515   1.341   0.556   5.871
10206SOL     OW31516   1.450   0.826   5.032
10206SOL    HW131517   1.519   0.897   5.024
10206SOL    HW231518   1.494   0.737   5.037
10207SOL     OW31519   2.104   2.392   5.171
10207SOL    HW131520   2.009   2.417   5.152
10207SOL    HW231521   2.113   2.364   5.266
10208SOL     OW31522   6.679   5.289   5.514
10208SOL    HW131523   6.714   5.215   5.457
10208SOL    HW231524   6.740   5.302   5.593
10209SOL     OW31525   6.950   0.311   5.434
10209SOL    HW131526   6.891   0.257   5.373
10209SOL    HW231527   0.023   0.308   5.400
10210SOL     OW31528   3.104   7.011   1.896
10210SOL    HW131529   3.087   0.022   1.803
10210SOL    HW231530   3.026   6.955   1.926
10211SOL     OW31531   5.466   6.064   5.845
10211SOL    HW131532   5.410   6.144   5.821
10211SOL    HW231533   5.445   6.036   5.939
10212SOL     OW31534   0.556   0.469   6.897
10212SOL    HW131535   0.581   0.549   6.844
10212SOL    HW231536   0.465   0.437   6.871
10213SOL     OW31537   6.350   1.685   0.756
10213SOL    HW131538   6.276   1.635   0.711
10213SOL    HW231539   6.318   1.776   0.781
10214SOL     OW31540   0.862   2.025   0.225
10214SOL    HW131541   0.927   2.089   0.185
10214SOL    HW231542   0.823   1.968   0.153
10215SOL     OW31543   3.374   3.000   2.217
10215SOL    HW131544   3.399   3.090   2.254
10215SOL    HW231545   3.280   3.003   2.185
10216SOL     OW31546   0.110   6.324   2.340
10216SOL    HW131547   0.088   6.361   2.430
10216SOL    HW231548   0.190   6.264   2.347
10217SOL     OW31549   3.472   1.400   4.487
10217SOL    HW131550   3.459   1.344   4.406
10217SOL    HW231551   3.424   1.487   4.475
10218SOL     OW31552   1.511   3.005   2.598
10218SOL    HW131553   1.480   2.927   2.544
10218SOL    HW231554   1.603   2.986   2.633
10219SOL     OW31555   6.531   6.814   3.229
10219SOL    HW131556   6.614   6.826   3.285
10219SOL    HW231557   6.546   6.738   3.164
10220SOL     OW31558   3.488   2.624   0.824
10220SOL    HW131559   3.487   2.672   0.737
10220SOL    HW231560   3.581   2.621   0.860
10221SOL     OW31561   0.849   5.062   4.047
10221SOL    HW131562   0.774   5.053   3.981
10221SOL    HW231563   0.923   4.999   4.022
10222SOL     OW31564   3.185   3.561   4.333
10222SOL    HW131565   3.248   3.632   4.364
10222SOL    HW231566   3.119   3.600   4.269
10223SOL     OW31567   0.801   6.302   1.176
10223SOL    HW131568   0.864   6.234   1.213
10223SOL    HW231569   0.820   6.316   1.079
10224SOL     OW31570   6.163   4.211   2.990
10224SOL    HW131571   6.227   4.226   3.066
10224SOL    HW231572   6.075   4.252   3.012
10225SOL     OW31573   2.272   3.882   5.566
10225SOL    HW131574   2.243   3.948   5.497
10225SOL    HW231575   2.261   3.922   5.657
10226SOL     OW31576   5.124   2.884   6.847
10226SOL    HW131577   5.104   2.828   6.927
10226SOL    HW231578   5.090   2.838   6.765
10227SOL     OW31579   5.196   3.465   0.951
10227SOL    HW131580   5.294   3.444   0.948
10227SOL    HW231581   5.152   3.429   0.869
10228SOL     OW31582   5.224   0.760   0.800
10228SOL    HW131583   5.169   0.738   0.719
10228SOL    HW231584   5.298   0.693   0.809
10229SOL     OW31585   0.020   3.440   5.139
10229SOL    HW131586   0.060   3.348   5.144
10229SOL    HW231587   0.093   3.508   5.129
10230SOL     OW31588   0.399   6.496   2.166
10230SOL    HW131589   0.476   6.498   2.102
10230SOL    HW231590   0.316   6.524   2.118
10231SOL     OW31591   0.774   5.373   3.051
10231SOL    HW131592   0.725   5.461   3.052
10231SOL    HW231593   0.866   5.387   3.016
10232SOL     OW31594   4.977   4.518   3.816
10232SOL    HW131595   4.934   4.431   3.792
10232SOL    HW231596   4.926   4.562   3.891
10233SOL     OW31597   3.161   3.474   5.589
10233SOL    HW131598   3.088   3.543   5.589
10233SOL    HW231599   3.249   3.520   5.604
10234SOL     OW31600   0.370   1.100   2.476
10234SOL    HW131601   0.282   1.108   2.522
10234SOL    HW231602   0.359   1.045   2.393
10235SOL     OW31603   1.561   0.567   3.426
10235SOL    HW131604   1.577   0.664   3.409
10235SOL    HW231605   1.517   0.555   3.514
10236SOL     OW31606   2.349   6.581   2.405
10236SOL    HW131607   2.349   6.677   2.376
10236SOL    HW231608   2.440   6.556   2.436
10237SOL     OW31609   0.596   3.341   5.197
10237SOL    HW131610   0.557   3.433   5.203
10237SOL    HW231611   0.667   3.330   5.266
10238SOL     OW31612   3.098   0.152   1.654
10238SOL    HW131613   3.002   0.131   1.636
10238SOL    HW231614   3.127   0.228   1.595
10239SOL     OW31615   0.756   2.423   4.090
10239SOL    HW131616   0.731   2.519   4.096
10239SOL    HW231617   0.776   2.388   4.182
10240SOL     OW31618   2.275   6.538   0.867
10240SOL    HW131619   2.202   6.564   0.930
10240SOL    HW231620   2.245   6.555   0.773
10241SOL     OW31621   4.129   2.895   1.559
10241SOL    HW131622   4.219   2.919   1.522
10241SOL    HW231623   4.133   2.804   1.600
10242SOL     OW31624   0.142   2.688   6.686
10242SOL    HW131625   0.227   2.691   6.738
10242SOL    HW231626   0.068   2.731   6.738
10243SOL     OW31627   2.707   5.417   1.424
10243SOL    HW131628   2.687   5.391   1.329
10243SOL    HW231629   2.741   5.338   1.474
10244SOL     OW31630   2.832   4.826   1.424
10244SOL    HW131631   2.907   4.892   1.433
10244SOL    HW231632   2.813   4.786   1.513
10245SOL     OW31633   4.884   4.223   0.917
10245SOL    HW131634   4.930   4.216   1.005
10245SOL    HW231635   4.785   4.225   0.931
10246SOL     OW31636   3.409   2.909   4.081
10246SOL    HW131637   3.322   2.940   4.043
10246SOL    HW231638   3.419   2.943   4.174
10247SOL     OW31639   0.836   2.724   4.342
10247SOL    HW131640   0.777   2.713   4.261
10247SOL    HW231641   0.897   2.646   4.350
10248SOL     OW31642   1.146   1.206   4.312
10248SOL    HW131643   1.092   1.126   4.288
10248SOL    HW231644   1.213   1.225   4.240
10249SOL     OW31645   2.674   5.083   6.013
10249SOL    HW131646   2.599   5.110   5.952
10249SOL    HW231647   2.762   5.097   5.966
10250SOL     OW31648   3.754   2.277   0.701
10250SOL    HW131649   3.753   2.201   0.765
10250SOL    HW231650   3.743   2.363   0.751
10251SOL     OW31651   1.592   0.532   4.441
10251SOL    HW131652   1.618   0.459   4.503
10251SOL    HW231653   1.540   0.493   4.364
10252SOL     OW31654   5.402   4.591   6.331
10252SOL    HW131655   5.453   4.508   6.308
10252SOL    HW231656   5.450   4.671   6.294
10253SOL     OW31657   3.395   5.779   6.276
10253SOL    HW131658   3.335   5.751   6.351
10253SOL    HW231659   3.362   5.740   6.190
10254SOL     OW31660   6.010   1.463   5.691
10254SOL    HW131661   5.970   1.463   5.783
10254SOL    HW231662   5.943   1.500   5.626
10255SOL     OW31663   4.065   4.488   1.655
10255SOL    HW131664   4.083   4.572   1.603
10255SOL    HW231665   4.116   4.491   1.741
10256SOL     OW31666   3.806   1.310   3.429
10256SOL    HW131667   3.876   1.263   3.484
10256SOL    HW231668   3.730   1.247   3.412
10257SOL     OW31669   3.900   5.909   2.929
10257SOL    HW131670   3.937   5.824   2.891
10257SOL    HW231671   3.933   5.987   2.876
10258SOL     OW31672   1.971   1.450   2.113
10258SOL    HW131673   1.894   1.425   2.053
10258SOL    HW231674   1.951   1.537   2.157
10259SOL     OW31675   2.113   4.230   4.234
10259SOL    HW131676   2.184   4.299   4.250
10259SOL    HW231677   2.155   4.147   4.197
10260SOL     OW31678   0.638   0.869   3.348
10260SOL    HW131679   0.729   0.831   3.363
10260SOL    HW231680   0.585   0.862   3.432
10261SOL     OW31681   0.193   3.876   0.808
10261SOL    HW131682   0.114   3.872   0.869
10261SOL    HW231683   0.245   3.791   0.816
10262SOL     OW31684   4.337   1.488   0.794
10262SOL    HW131685   4.347   1.560   0.862
10262SOL    HW231686   4.240   1.473   0.773
10263SOL     OW31687   5.771   1.162   2.299
10263SOL    HW131688   5.745   1.079   2.349
10263SOL    HW231689   5.802   1.138   2.207
10264SOL     OW31690   6.375   6.691   6.733
10264SOL    HW131691   6.445   6.699   6.661
10264SOL    HW231692   6.286   6.715   6.695
10265SOL     OW31693   2.127   1.761   0.873
10265SOL    HW131694   2.059   1.831   0.895
10265SOL    HW231695   2.212   1.804   0.843
10266SOL     OW31696   2.716   3.538   1.677
10266SOL    HW131697   2.715   3.619   1.618
10266SOL    HW231698   2.802   3.535   1.728
10267SOL     OW31699   5.482   0.811   1.489
10267SOL    HW131700   5.582   0.809   1.490
10267SOL    HW231701   5.449   0.846   1.576
10268SOL     OW31702   3.534   6.502   2.004
10268SOL    HW131703   3.454   6.537   1.954
10268SOL    HW231704   3.617   6.535   1.959
10269SOL     OW31705   2.729   2.080   0.571
10269SOL    HW131706   2.779   1.994   0.558
10269SOL    HW231707   2.642   2.077   0.522
10270SOL     OW31708   2.974   0.555   3.212
10270SOL    HW131709   2.892   0.499   3.202
10270SOL    HW231710   3.055   0.499   3.190
10271SOL     OW31711   1.558   1.921   6.397
10271SOL    HW131712   1.657   1.907   6.400
10271SOL    HW231713   1.536   2.016   6.418
10272SOL     OW31714   6.100   0.396   4.371
10272SOL    HW131715   6.047   0.354   4.444
10272SOL    HW231716   6.198   0.386   4.390
10273SOL     OW31717   2.435   5.282   3.593
10273SOL    HW131718   2.365   5.326   3.648
10273SOL    HW231719   2.456   5.192   3.632
10274SOL     OW31720   0.860   4.798   5.414
10274SOL    HW131721   0.774   4.779   5.461
10274SOL    HW231722   0.867   4.897   5.396
10275SOL     OW31723   6.740   0.803   2.244
10275SOL    HW131724   6.830   0.761   2.230
10275SOL    HW231725   6.737   0.846   2.334
10276SOL     OW31726   3.869   5.443   5.143
10276SOL    HW131727   3.952   5.405   5.183
10276SOL    HW231728   3.820   5.372   5.093
10277SOL     OW31729   0.942   5.673   3.781
10277SOL    HW131730   0.986   5.677   3.871
10277SOL    HW231731   0.958   5.759   3.733
10278SOL     OW31732   6.940   6.940   4.993
10278SOL    HW131733   6.933   6.844   4.966
10278SOL    HW231734   7.019   6.952   5.052
10279SOL     OW31735   2.214   6.440   4.199
10279SOL    HW131736   2.114   6.440   4.191
10279SOL    HW231737   2.252   6.517   4.148
10280SOL     OW31738   6.343   4.513   0.209
10280SOL    HW131739   6.268   4.494   0.146
10280SOL    HW231740   6.329   4.464   0.294
10281SOL     OW31741   6.367   1.213   3.479
10281SOL    HW131742   6.413   1.169   3.557
10281SOL    HW231743   6.320   1.295   3.510
10282SOL     OW31744   5.182   3.309   3.391
10282SOL    HW131745   5.100   3.358   3.363
10282SOL    HW231746   5.247   3.306   3.314
10283SOL     OW31747   0.914   2.709   0.911
10283SOL    HW131748   0.872   2.778   0.851
10283SOL    HW231749   0.954   2.637   0.855
10284SOL     OW31750   0.131   3.706   4.295
10284SOL    HW131751   0.053   3.675   4.240
10284SOL    HW231752   0.099   3.743   4.382
10285SOL     OW31753   6.255   5.984   5.497
10285SOL    HW131754   6.204   5.977   5.582
10285SOL    HW231755   6.351   5.958   5.513
10286SOL     OW31756   3.098   1.335   3.204
10286SOL    HW131757   3.144   1.363   3.289
10286SOL    HW231758   3.166   1.323   3.132
10287SOL     OW31759   2.282   5.573   3.103
10287SOL    HW131760   2.280   5.637   3.180
10287SOL    HW231761   2.203   5.512   3.108
10288SOL     OW31762   3.923   6.716   5.300
10288SOL    HW131763   3.954   6.780   5.370
10288SOL    HW231764   3.925   6.760   5.210
10289SOL     OW31765   3.352   5.440   7.009
10289SOL    HW131766   3.446   5.414   6.985
10289SOL    HW231767   3.346   5.455   0.087
10290SOL     OW31768   3.718   2.893   1.941
10290SOL    HW131769   3.655   2.891   2.018
10290SOL    HW231770   3.703   2.813   1.883
10291SOL     OW31771   2.317   1.837   2.234
10291SOL    HW131772   2.379   1.831   2.155
10291SOL    HW231773   2.222   1.830   2.203
10292SOL     OW31774   6.614   7.021   5.649
10292SOL    HW131775   6.624   6.926   5.620
10292SOL    HW231776   6.698   0.050   5.629
10293SOL     OW31777   1.244   4.159   4.764
10293SOL    HW131778   1.295   4.232   4.719
10293SOL    HW231779   1.284   4.142   4.854
10294SOL     OW31780   3.333   1.492   2.126
10294SOL    HW131781   3.349   1.400   2.090
10294SOL    HW231782   3.360   1.560   2.058
10295SOL     OW31783   1.200   1.734   6.647
10295SOL    HW131784   1.162   1.826   6.633
10295SOL    HW231785   1.259   1.735   6.727
10296SOL     OW31786   6.176   1.170   5.639
10296SOL    HW131787   6.237   1.197   5.713
10296SOL    HW231788   6.227   1.171   5.553
10297SOL     OW31789   3.340   1.211   6.937
10297SOL    HW131790   3.315   1.114   6.930
10297SOL    HW231791   3.301   1.250   7.020
10298SOL     OW31792   0.476   2.397   2.494
10298SOL    HW131793   0.523   2.338   2.559
10298SOL    HW231794   0.452   2.484   2.538
10299SOL     OW31795   4.173   6.675   2.972
10299SOL    HW131796   4.196   6.604   2.906
10299SOL    HW231797   4.096   6.728   2.939
10300SOL     OW31798   1.179   3.994   1.661
10300SOL    HW131799   1.220   3.913   1.703
10300SOL    HW231800   1.116   3.965   1.588
10301SOL     OW31801   3.783   0.426   6.790
10301SOL    HW131802   3.694   0.420   6.835
10301SOL    HW231803   3.826   0.513   6.811
10302SOL     OW31804   3.170   6.279   4.906
10302SOL    HW131805   3.270   6.278   4.903
10302SOL    HW231806   3.136   6.370   4.884
10303SOL     OW31807   0.546   5.498   4.549
10303SOL    HW131808   0.454   5.529   4.569
10303SOL    HW231809   0.612   5.551   4.603
10304SOL     OW31810   6.025   6.511   0.775
10304SOL    HW131811   5.933   6.524   0.811
10304SOL    HW231812   6.083   6.588   0.802
10305SOL     OW31813   3.398   4.303   5.699
10305SOL    HW131814   3.314   4.336   5.656
10305SOL    HW231815   3.374   4.241   5.774
10306SOL     OW31816   4.049   0.336   1.076
10306SOL    HW131817   4.125   0.334   1.011
10306SOL    HW231818   3.963   0.324   1.025
10307SOL     OW31819   2.183   0.161   5.651
10307SOL    HW131820   2.236   0.080   5.676
10307SOL    HW231821   2.161   0.213   5.733
10308SOL     OW31822   2.802   5.029   2.242
10308SOL    HW131823   2.720   5.076   2.272
10308SOL    HW231824   2.777   4.957   2.177
10309SOL     OW31825   0.223   1.244   4.652
10309SOL    HW131826   0.261   1.186   4.725
10309SOL    HW231827   0.257   1.338   4.663
10310SOL     OW31828   1.876   3.840   5.709
10310SOL    HW131829   1.830   3.802   5.629
10310SOL    HW231830   1.896   3.937   5.693
10311SOL     OW31831   4.709   5.465   6.822
10311SOL    HW131832   4.769   5.474   6.742
10311SOL    HW231833   4.747   5.518   6.897
10312SOL     OW31834   4.311   0.475   2.051
10312SOL    HW131835   4.337   0.553   1.993
10312SOL    HW231836   4.348   0.391   2.013
10313SOL     OW31837   5.390   6.819   3.187
10313SOL    HW131838   5.397   6.735   3.241
10313SOL    HW231839   5.325   6.806   3.112
10314SOL     OW31840   0.464   0.319   0.870
10314SOL    HW131841   0.409   0.340   0.952
10314SOL    HW231842   0.542   0.381   0.865
10315SOL     OW31843   5.673   5.292   3.743
10315SOL    HW131844   5.574   5.288   3.736
10315SOL    HW231845   5.711   5.330   3.659
10316SOL     OW31846   0.461   1.858   6.991
10316SOL    HW131847   0.396   1.805   6.937
10316SOL    HW231848   0.425   1.950   7.006
10317SOL     OW31849   3.779   6.179   4.920
10317SOL    HW131850   3.852   6.247   4.931
10317SOL    HW231851   3.816   6.096   4.878
10318SOL     OW31852   6.444   6.795   0.587
10318SOL    HW131853   6.543   6.788   0.599
10318SOL    HW231854   6.405   6.704   0.582
10319SOL     OW31855   0.788   3.918   3.678
10319SOL    HW131856   0.690   3.898   3.683
10319SOL    HW231857   0.813   3.979   3.753
10320SOL     OW31858   0.497   6.171   3.864
10320SOL    HW131859   0.552   6.229   3.924
10320SOL    HW231860   0.440   6.229   3.805
10321SOL     OW31861   5.127   2.800   2.225
10321SOL    HW131862   5.218   2.787   2.186
10321SOL    HW231863   5.116   2.742   2.306
10322SOL     OW31864   4.630   4.418   5.085
10322SOL    HW131865   4.603   4.348   5.151
10322SOL    HW231866   4.548   4.458   5.044
10323SOL     OW31867   1.062   4.288   5.667
10323SOL    HW131868   0.997   4.363   5.679
10323SOL    HW231869   1.139   4.320   5.611
10324SOL     OW31870   3.092   3.308   1.847
10324SOL    HW131871   3.012   3.269   1.893
10324SOL    HW231872   3.174   3.287   1.900
10325SOL     OW31873   6.750   5.740   3.678
10325SOL    HW131874   6.711   5.648   3.674
10325SOL    HW231875   6.728   5.789   3.594
10326SOL     OW31876   5.577   3.530   6.834
10326SOL    HW131877   5.553   3.459   6.900
10326SOL    HW231878   5.531   3.615   6.859
10327SOL     OW31879   2.015   4.405   1.266
10327SOL    HW131880   2.057   4.431   1.179
10327SOL    HW231881   1.944   4.472   1.290
10328SOL     OW31882   5.567   2.126   2.497
10328SOL    HW131883   5.556   2.217   2.537
10328SOL    HW231884   5.656   2.121   2.452
10329SOL     OW31885   3.764   1.760   3.107
10329SOL    HW131886   3.818   1.691   3.058
10329SOL    HW231887   3.777   1.849   3.064
10330SOL     OW31888   4.794   1.339   2.012
10330SOL    HW131889   4.869   1.321   1.947
10330SOL    HW231890   4.718   1.382   1.963
10331SOL     OW31891   6.265   5.272   6.066
10331SOL    HW131892   6.342   5.218   6.032
10331SOL    HW231893   6.193   5.210   6.099
10332SOL     OW31894   1.916   0.871   6.477
10332SOL    HW131895   1.947   0.939   6.544
10332SOL    HW231896   1.991   0.849   6.415
10333SOL     OW31897   1.074   4.207   4.228
10333SOL    HW131898   1.019   4.254   4.159
10333SOL    HW231899   1.058   4.249   4.317
10334SOL     OW31900   3.647   0.741   3.567
10334SOL    HW131901   3.575   0.673   3.579
10334SOL    HW231902   3.703   0.745   3.649
10335SOL     OW31903   0.636   2.147   5.260
10335SOL    HW131904   0.663   2.207   5.184
10335SOL    HW231905   0.679   2.179   5.344
10336SOL     OW31906   5.260   6.860   3.450
10336SOL    HW131907   5.310   6.855   3.364
10336SOL    HW231908   5.162   6.851   3.433
10337SOL     OW31909   6.450   5.523   6.913
10337SOL    HW131910   6.544   5.487   6.919
10337SOL    HW231911   6.451   5.610   6.864
10338SOL     OW31912   1.600   6.141   1.690
10338SOL    HW131913   1.675   6.208   1.692
10338SOL    HW231914   1.531   6.166   1.758
10339SOL     OW31915   6.317   2.518   5.716
10339SOL    HW131916   6.252   2.587   5.749
10339SOL    HW231917   6.309   2.436   5.772
10340SOL     OW31918   2.416   3.358   6.392
10340SOL    HW131919   2.432   3.325   6.299
10340SOL    HW231920   2.464   3.445   6.405
10341SOL     OW31921   2.093   3.155   3.145
10341SOL    HW131922   2.050   3.070   3.175
10341SOL    HW231923   2.161   3.134   3.075
10342SOL     OW31924   0.535   0.992   4.104
10342SOL    HW131925   0.481   1.038   4.033
10342SOL    HW231926   0.629   1.024   4.099
10343SOL     OW31927   3.350   5.389   2.252
10343SOL    HW131928   3.257   5.416   2.228
10343SOL    HW231929   3.392   5.461   2.307
10344SOL     OW31930   4.263   5.840   5.900
10344SOL    HW131931   4.205   5.920   5.919
10344SOL    HW231932   4.286   5.838   5.802
10345SOL     OW31933   2.130   3.593   4.239
10345SOL    HW131934   2.147   3.659   4.312
10345SOL    HW231935   2.164   3.503   4.268
10346SOL     OW31936   6.672   5.929   0.135
10346SOL    HW131937   6.626   5.955   0.050
10346SOL    HW231938   6.617   5.861   0.184
10347SOL     OW31939   5.083   1.688   4.380
10347SOL    HW131940   5.160   1.624   4.369
10347SOL    HW231941   4.997   1.640   4.363
10348SOL     OW31942   6.561   4.311   0.975
10348SOL    HW131943   6.624   4.338   0.902
10348SOL    HW231944   6.607   4.247   1.036
10349SOL     OW31945   0.992   0.002   6.432
10349SOL    HW131946   0.908   0.048   6.459
10349SOL    HW231947   1.041   6.992   6.514
10350SOL     OW31948   3.099   0.004   6.048
10350SOL    HW131949   3.163   6.954   6.020
10350SOL    HW231950   3.072   0.057   5.967
10351SOL     OW31951   4.268   5.207   6.967
10351SOL    HW131952   4.248   5.304   6.956
10351SOL    HW231953   4.362   5.189   6.940
10352SOL     OW31954   3.244   3.642   6.235
10352SOL    HW131955   3.290   3.627   6.322
10352SOL    HW231956   3.292   3.713   6.183
10353SOL     OW31957   1.130   2.519   4.659
10353SOL    HW131958   1.060   2.562   4.716
10353SOL    HW231959   1.192   2.465   4.717
10354SOL     OW31960   5.735   1.476   1.414
10354SOL    HW131961   5.668   1.534   1.460
10354SOL    HW231962   5.727   1.382   1.447
10355SOL     OW31963   1.683   5.093   2.515
10355SOL    HW131964   1.749   5.162   2.484
10355SOL    HW231965   1.731   5.025   2.570
10356SOL     OW31966   0.115   2.694   4.790
10356SOL    HW131967   0.045   2.766   4.797
10356SOL    HW231968   0.201   2.734   4.759
10357SOL     OW31969   2.667   2.291   0.110
10357SOL    HW131970   2.697   2.352   0.183
10357SOL    HW231971   2.730   2.299   0.033
10358SOL     OW31972   0.165   1.286   2.054
10358SOL    HW131973   0.169   1.385   2.038
10358SOL    HW231974   0.231   1.261   2.125
10359SOL     OW31975   0.495   1.388   1.323
10359SOL    HW131976   0.589   1.360   1.344
10359SOL    HW231977   0.474   1.473   1.371
10360SOL     OW31978   6.786   6.274   3.237
10360SOL    HW131979   6.851   6.198   3.240
10360SOL    HW231980   6.816   6.340   3.167
10361SOL     OW31981   1.865   4.943   1.577
10361SOL    HW131982   1.811   5.025   1.597
10361SOL    HW231983   1.815   4.862   1.606
10362SOL     OW31984   1.395   4.993   4.414
10362SOL    HW131985   1.336   5.060   4.369
10362SOL    HW231986   1.487   5.000   4.377
10363SOL     OW31987   5.894   0.275   3.716
10363SOL    HW131988   5.963   0.342   3.688
10363SOL    HW231989   5.807   0.321   3.730
10364SOL     OW31990   1.355   4.512   1.276
10364SOL    HW131991   1.367   4.413   1.273
10364SOL    HW231992   1.305   4.537   1.359
10365SOL     OW31993   4.461   6.105   0.242
10365SOL    HW131994   4.439   6.148   0.330
10365SOL    HW231995   4.379   6.060   0.206
10366SOL     OW31996   3.641   0.107   3.771
10366SOL    HW131997   3.705   0.043   3.814
10366SOL    HW231998   3.646   0.195   3.818
10367SOL     OW31999   6.389   2.012   2.929
10367SOL    HW132000   6.459   2.082   2.918
10367SOL    HW232001   6.401   1.966   3.017
10368SOL     OW32002   2.854   0.365   0.906
10368SOL    HW132003   2.795   0.445   0.919
10368SOL    HW232004   2.803   0.282   0.930
10369SOL     OW32005   4.546   3.075   0.208
10369SOL    HW132006   4.513   2.995   0.258
10369SOL    HW232007   4.478   3.102   0.139
10370SOL     OW32008   3.958   0.609   5.549
10370SOL    HW132009   3.877   0.626   5.493
10370SOL    HW232010   3.964   0.680   5.620
10371SOL     OW32011   5.140   6.527   5.753
10371SOL    HW132012   5.168   6.602   5.814
10371SOL    HW232013   5.162   6.550   5.659
10372SOL     OW32014   1.187   0.482   3.582
10372SOL    HW132015   1.254   0.408   3.584
10372SOL    HW232016   1.183   0.520   3.490
10373SOL     OW32017   1.565   5.409   4.590
10373SOL    HW132018   1.540   5.320   4.627
10373SOL    HW232019   1.492   5.442   4.530
10374SOL     OW32020   2.836   2.207   4.655
10374SOL    HW132021   2.930   2.240   4.657
10374SOL    HW232022   2.796   2.216   4.747
10375SOL     OW32023   0.132   2.134   0.444
10375SOL    HW132024   0.059   2.066   0.436
10375SOL    HW232025   0.123   2.182   0.531
10376SOL     OW32026   6.486   0.799   3.636
10376SOL    HW132027   6.431   0.765   3.559
10376SOL    HW232028   6.572   0.748   3.640
10377SOL     OW32029   0.550   6.927   4.455
10377SOL    HW132030   0.587   6.944   4.546
10377SOL    HW232031   0.452   6.910   4.461
10378SOL     OW32032   6.572   6.904   5.918
10378SOL    HW132033   6.623   6.965   5.857
10378SOL    HW232034   6.531   6.829   5.864
10379SOL     OW32035   5.204   1.825   4.603
10379SOL    HW132036   5.158   1.809   4.516
10379SOL    HW232037   5.298   1.855   4.586
10380SOL     OW32038   4.629   0.816   3.457
10380SOL    HW132039   4.687   0.734   3.462
10380SOL    HW232040   4.680   0.895   3.491
10381SOL     OW32041   4.355   5.002   5.175
10381SOL    HW132042   4.305   4.938   5.116
10381SOL    HW232043   4.417   4.952   5.235
10382SOL     OW32044   1.809   6.232   0.343
10382SOL    HW132045   1.762   6.238   0.255
10382SOL    HW232046   1.742   6.214   0.416
10383SOL     OW32047   5.658   2.481   6.855
10383SOL    HW132048   5.698   2.398   6.817
10383SOL    HW232049   5.727   2.554   6.855
10384SOL     OW32050   6.125   0.456   0.040
10384SOL    HW132051   6.052   0.499   0.092
10384SOL    HW232052   6.171   0.389   0.098
10385SOL     OW32053   5.435   2.298   6.779
10385SOL    HW132054   5.397   2.250   6.858
10385SOL    HW232055   5.499   2.368   6.810
10386SOL     OW32056   6.369   2.170   6.400
10386SOL    HW132057   6.411   2.079   6.391
10386SOL    HW232058   6.293   2.178   6.335
10387SOL     OW32059   2.032   3.945   2.495
10387SOL    HW132060   2.098   3.888   2.446
10387SOL    HW232061   1.955   3.966   2.434
10388SOL     OW32062   1.419   4.704   2.209
10388SOL    HW132063   1.514   4.674   2.200
10388SOL    HW232064   1.412   4.771   2.284
10389SOL     OW32065   0.492   5.619   3.223
10389SOL    HW132066   0.557   5.678   3.271
10389SOL    HW232067   0.412   5.672   3.197
10390SOL     OW32068   2.014   3.285   3.363
10390SOL    HW132069   2.052   3.377   3.377
10390SOL    HW232070   2.038   3.252   3.272
10391SOL     OW32071   3.515   6.299   4.846
10391SOL    HW132072   3.599   6.246   4.855
10391SOL    HW232073   3.537   6.397   4.847
10392SOL     OW32074   6.675   5.241   6.747
10392SOL    HW132075   6.670   5.277   6.840
10392SOL    HW232076   6.593   5.188   6.727
10393SOL     OW32077   1.014   1.135   3.899
10393SOL    HW132078   1.102   1.114   3.857
10393SOL    HW232079   1.027   1.197   3.976
10394SOL     OW32080   2.909   6.647   0.207
10394SOL    HW132081   2.869   6.739   0.216
10394SOL    HW232082   2.931   6.611   0.297
10395SOL     OW32083   1.296   1.488   4.980
10395SOL    HW132084   1.306   1.579   4.940
10395SOL    HW232085   1.361   1.477   5.054
10396SOL     OW32086   0.411   6.710   5.128
10396SOL    HW132087   0.460   6.624   5.142
10396SOL    HW232088   0.390   6.721   5.031
10397SOL     OW32089   4.156   2.255   2.401
10397SOL    HW132090   4.071   2.212   2.431
10397SOL    HW232091   4.234   2.209   2.445
10398SOL     OW32092   6.644   3.589   2.143
10398SOL    HW132093   6.685   3.547   2.061
10398SOL    HW232094   6.640   3.521   2.216
10399SOL     OW32095   6.131   2.887   5.400
10399SOL    HW132096   6.117   2.795   5.438
10399SOL    HW232097   6.042   2.934   5.394
10400SOL     OW32098   1.773   4.524   1.839
10400SOL    HW132099   1.839   4.489   1.773
10400SOL    HW232100   1.809   4.513   1.932
10401SOL     OW32101   0.711   5.698   0.808
10401SOL    HW132102   0.636   5.677   0.746
10401SOL    HW232103   0.732   5.617   0.864
10402SOL     OW32104   0.597   2.103   4.597
10402SOL    HW132105   0.554   2.193   4.587
10402SOL    HW232106   0.688   2.114   4.638
10403SOL     OW32107   4.522   1.193   2.280
10403SOL    HW132108   4.564   1.204   2.371
10403SOL    HW232109   4.474   1.277   2.256
10404SOL     OW32110   0.299   6.840   3.775
10404SOL    HW132111   0.287   6.907   3.702
10404SOL    HW232112   0.229   6.769   3.768
10405SOL     OW32113   2.309   6.466   6.610
10405SOL    HW132114   2.302   6.367   6.597
10405SOL    HW232115   2.263   6.492   6.695
10406SOL     OW32116   1.968   5.847   5.846
10406SOL    HW132117   1.949   5.944   5.864
10406SOL    HW232118   1.940   5.825   5.752
10407SOL     OW32119   1.997   1.435   6.235
10407SOL    HW132120   1.958   1.525   6.213
10407SOL    HW232121   1.956   1.366   6.175
10408SOL     OW32122   4.094   6.180   3.341
10408SOL    HW132123   3.999   6.154   3.329
10408SOL    HW232124   4.144   6.166   3.255
10409SOL     OW32125   6.828   4.562   2.194
10409SOL    HW132126   6.857   4.657   2.201
10409SOL    HW232127   6.820   4.523   2.286
10410SOL     OW32128   5.757   6.357   0.346
10410SOL    HW132129   5.844   6.402   0.364
10410SOL    HW232130   5.703   6.354   0.430
10411SOL     OW32131   1.808   4.400   2.708
10411SOL    HW132132   1.796   4.306   2.741
10411SOL    HW232133   1.805   4.463   2.786
10412SOL     OW32134   0.207   2.080   6.687
10412SOL    HW132135   0.167   2.002   6.735
10412SOL    HW232136   0.161   2.164   6.716
10413SOL     OW32137   0.296   2.041   5.694
10413SOL    HW132138   0.204   2.054   5.656
10413SOL    HW232139   0.302   2.087   5.782
10414SOL     OW32140   5.557   6.197   4.867
10414SOL    HW132141   5.502   6.116   4.884
10414SOL    HW232142   5.508   6.259   4.806
10415SOL     OW32143   0.220   5.684   3.177
10415SOL    HW132144   0.204   5.700   3.079
10415SOL    HW232145   0.148   5.727   3.231
10416SOL     OW32146   4.948   6.987   6.980
10416SOL    HW132147   4.862   7.020   7.019
10416SOL    HW232148   4.977   0.028   6.907
10417SOL     OW32149   3.987   4.828   4.224
10417SOL    HW132150   4.062   4.789   4.278
10417SOL    HW232151   4.024   4.896   4.161
10418SOL     OW32152   6.636   3.967   0.235
10418SOL    HW132153   6.624   4.001   0.142
10418SOL    HW232154   6.547   3.944   0.274
10419SOL     OW32155   1.909   0.698   4.426
10419SOL    HW132156   1.828   0.707   4.484
10419SOL    HW232157   1.979   0.644   4.474
10420SOL     OW32158   5.737   3.299   4.567
10420SOL    HW132159   5.756   3.239   4.645
10420SOL    HW232160   5.671   3.254   4.506
10421SOL     OW32161   1.420   4.476   3.996
10421SOL    HW132162   1.392   4.560   4.044
10421SOL    HW232163   1.415   4.399   4.058
10422SOL     OW32164   5.502   3.181   5.349
10422SOL    HW132165   5.590   3.222   5.371
10422SOL    HW232166   5.429   3.248   5.366
10423SOL     OW32167   2.642   5.415   3.852
10423SOL    HW132168   2.563   5.395   3.794
10423SOL    HW232169   2.613   5.419   3.947
10424SOL     OW32170   3.839   1.198   1.442
10424SOL    HW132171   3.874   1.149   1.521
10424SOL    HW232172   3.768   1.143   1.397
10425SOL     OW32173   1.535   3.864   0.371
10425SOL    HW132174   1.584   3.888   0.454
10425SOL    HW232175   1.537   3.764   0.359
10426SOL     OW32176   5.919   2.549   6.347
10426SOL    HW132177   5.997   2.545   6.410
10426SOL    HW232178   5.891   2.457   6.323
10427SOL     OW32179   5.754   0.890   2.968
10427SOL    HW132180   5.677   0.951   2.949
10427SOL    HW232181   5.839   0.942   2.970
10428SOL     OW32182   1.613   6.436   5.088
10428SOL    HW132183   1.592   6.403   5.179
10428SOL    HW232184   1.613   6.536   5.088
10429SOL     OW32185   2.046   3.935   1.522
10429SOL    HW132186   2.112   3.886   1.579
10429SOL    HW232187   2.022   4.021   1.567
10430SOL     OW32188   3.342   0.354   4.660
10430SOL    HW132189   3.416   0.345   4.594
10430SOL    HW232190   3.345   0.278   4.724
10431SOL     OW32191   3.954   1.359   4.330
10431SOL    HW132192   3.964   1.261   4.348
10431SOL    HW232193   4.041   1.405   4.346
10432SOL     OW32194   1.086   5.309   0.329
10432SOL    HW132195   1.049   5.230   0.378
10432SOL    HW232196   1.027   5.332   0.252
10433SOL     OW32197   4.010   6.303   3.689
10433SOL    HW132198   3.958   6.320   3.773
10433SOL    HW232199   3.948   6.300   3.611
10434SOL     OW32200   4.196   1.165   6.173
10434SOL    HW132201   4.164   1.073   6.153
10434SOL    HW232202   4.176   1.187   6.269
10435SOL     OW32203   2.282   1.716   1.442
10435SOL    HW132204   2.304   1.624   1.410
10435SOL    HW232205   2.284   1.779   1.364
10436SOL     OW32206   1.298   3.377   4.626
10436SOL    HW132207   1.306   3.327   4.539
10436SOL    HW232208   1.388   3.411   4.653
10437SOL     OW32209   7.011   6.322   5.252
10437SOL    HW132210   0.040   6.247   5.209
10437SOL    HW232211   0.031   6.344   5.340
10438SOL     OW32212   6.850   6.036   6.666
10438SOL    HW132213   6.813   6.085   6.745
10438SOL    HW232214   6.824   6.084   6.582
10439SOL     OW32215   6.311   5.463   4.911
10439SOL    HW132216   6.368   5.381   4.916
10439SOL    HW232217   6.290   5.494   5.003
10440SOL     OW32218   5.914   2.202   1.051
10440SOL    HW132219   5.848   2.197   0.976
10440SOL    HW232220   5.919   2.296   1.085
10441SOL     OW32221   4.702   2.114   6.905
10441SOL    HW132222   4.610   2.077   6.890
10441SOL    HW232223   4.770   2.041   6.895
10442SOL     OW32224   2.457   1.354   4.888
10442SOL    HW132225   2.454   1.302   4.973
10442SOL    HW232226   2.550   1.351   4.851
10443SOL     OW32227   0.893   0.512   0.638
10443SOL    HW132228   0.878   0.476   0.546
10443SOL    HW232229   0.958   0.454   0.687
10444SOL     OW32230   4.497   4.827   3.463
10444SOL    HW132231   4.440   4.854   3.541
10444SOL    HW232232   4.551   4.747   3.488
10445SOL     OW32233   1.097   3.199   3.806
10445SOL    HW132234   1.104   3.236   3.898
10445SOL    HW232235   1.004   3.213   3.771
10446SOL     OW32236   2.439   4.824   5.180
10446SOL    HW132237   2.470   4.913   5.214
10446SOL    HW232238   2.343   4.830   5.155
10447SOL     OW32239   0.977   1.948   2.653
10447SOL    HW132240   0.908   1.984   2.715
10447SOL    HW232241   1.015   1.864   2.690
10448SOL     OW32242   1.787   6.147   2.370
10448SOL    HW132243   1.691   6.158   2.344
10448SOL    HW232244   1.804   6.196   2.456
10449SOL     OW32245   3.971   5.190   4.477
10449SOL    HW132246   3.935   5.225   4.564
10449SOL    HW232247   4.058   5.235   4.456
10450SOL     OW32248   0.639   1.568   4.355
10450SOL    HW132249   0.604   1.476   4.338
10450SOL    HW232250   0.703   1.566   4.432
10451SOL     OW32251   3.255   2.066   4.066
10451SOL    HW132252   3.264   2.095   3.971
10451SOL    HW232253   3.282   1.970   4.074
10452SOL     OW32254   6.705   2.683   4.531
10452SOL    HW132255   6.804   2.685   4.540
10452SOL    HW232256   6.672   2.590   4.547
10453SOL     OW32257   4.166   6.032   4.382
10453SOL    HW132258   4.115   6.032   4.296
10453SOL    HW232259   4.108   6.067   4.455
10454SOL     OW32260   6.504   0.849   6.723
10454SOL    HW132261   6.410   0.844   6.756
10454SOL    HW232262   6.557   0.773   6.760
10455SOL     OW32263   0.706   6.257   2.610
10455SOL    HW132264   0.618   6.280   2.651
10455SOL    HW232265   0.690   6.207   2.525
10456SOL     OW32266   0.972   5.727   6.135
10456SOL    HW132267   1.041   5.798   6.148
10456SOL    HW232268   1.002   5.642   6.178
10457SOL     OW32269   4.342   1.525   6.777
10457SOL    HW132270   4.347   1.485   6.869
10457SOL    HW232271   4.426   1.505   6.727
10458SOL     OW32272   1.463   6.397   6.924
10458SOL    HW132273   1.392   6.467   6.910
10458SOL    HW232274   1.459   6.365   7.019
10459SOL     OW32275   6.228   5.735   1.211
10459SOL    HW132276   6.149   5.791   1.186
10459SOL    HW232277   6.240   5.736   1.310
10460SOL     OW32278   6.473   0.878   0.458
10460SOL    HW132279   6.516   0.903   0.544
10460SOL    HW232280   6.448   0.960   0.407
10461SOL     OW32281   6.994   4.355   6.024
10461SOL    HW132282   7.018   4.272   6.075
10461SOL    HW232283   7.014   4.436   6.080
10462SOL     OW32284   3.039   3.986   6.326
10462SOL    HW132285   3.087   3.999   6.239
10462SOL    HW232286   2.990   3.899   6.325
10463SOL     OW32287   5.126   3.010   6.477
10463SOL    HW132288   5.084   2.946   6.542
10463SOL    HW232289   5.171   2.960   6.404
10464SOL     OW32290   6.523   4.369   1.893
10464SOL    HW132291   6.470   4.357   1.809
10464SOL    HW232292   6.616   4.399   1.869
10465SOL     OW32293   5.986   4.821   1.537
10465SOL    HW132294   6.032   4.732   1.545
10465SOL    HW232295   5.947   4.846   1.625
10466SOL     OW32296   6.084   3.910   5.855
10466SOL    HW132297   6.093   3.824   5.805
10466SOL    HW232298   5.991   3.945   5.845
10467SOL     OW32299   0.091   2.348   6.791
10467SOL    HW132300   0.148   2.430   6.783
10467SOL    HW232301   7.021   2.367   6.754
10468SOL     OW32302   1.301   4.312   4.528
10468SOL    HW132303   1.317   4.217   4.500
10468SOL    HW232304   1.388   4.354   4.553
10469SOL     OW32305   0.991   1.733   3.901
10469SOL    HW132306   1.012   1.759   3.996
10469SOL    HW232307   0.924   1.797   3.864
10470SOL     OW32308   2.092   4.046   2.188
10470SOL    HW132309   2.135   4.095   2.264
10470SOL    HW232310   2.109   3.948   2.198
10471SOL     OW32311   2.011   5.661   6.533
10471SOL    HW132312   2.026   5.735   6.599
10471SOL    HW232313   2.083   5.593   6.542
10472SOL     OW32314   4.011   5.293   6.489
10472SOL    HW132315   3.968   5.297   6.579
10472SOL    HW232316   4.065   5.376   6.474
10473SOL     OW32317   6.407   4.718   0.692
10473SOL    HW132318   6.370   4.665   0.768
10473SOL    HW232319   6.412   4.661   0.610
10474SOL     OW32320   6.477   6.881   5.000
10474SOL    HW132321   6.540   6.953   4.972
10474SOL    HW232322   6.426   6.848   4.921
10475SOL     OW32323   0.816   5.522   1.349
10475SOL    HW132324   0.886   5.461   1.314
10475SOL    HW232325   0.858   5.606   1.382
10476SOL     OW32326   5.052   6.438   1.003
10476SOL    HW132327   5.073   6.346   0.970
10476SOL    HW232328   5.025   6.434   1.099
10477SOL     OW32329   0.163   5.655   3.850
10477SOL    HW132330   0.170   5.681   3.946
10477SOL    HW232331   0.253   5.628   3.816
10478SOL     OW32332   0.156   0.902   6.643
10478SOL    HW132333   0.089   0.832   6.667
10478SOL    HW232334   0.134   0.988   6.691
10479SOL     OW32335   0.540   3.262   2.271
10479SOL    HW132336   0.472   3.280   2.200
10479SOL    HW232337   0.513   3.181   2.324
10480SOL     OW32338   2.703   0.854   3.188
10480SOL    HW132339   2.651   0.775   3.219
10480SOL    HW232340   2.693   0.929   3.253
10481SOL     OW32341   6.582   1.569   1.281
10481SOL    HW132342   6.505   1.524   1.326
10481SOL    HW232343   6.578   1.668   1.298
10482SOL     OW32344   5.552   2.916   3.424
10482SOL    HW132345   5.567   2.830   3.471
10482SOL    HW232346   5.638   2.967   3.419
10483SOL     OW32347   5.991   6.922   0.170
10483SOL    HW132348   6.016   6.825   0.170
10483SOL    HW232349   5.983   6.953   0.075
10484SOL     OW32350   6.862   0.962   1.932
10484SOL    HW132351   6.765   0.940   1.941
10484SOL    HW232352   6.894   1.007   2.016
10485SOL     OW32353   5.127   3.306   4.876
10485SOL    HW132354   5.138   3.398   4.913
10485SOL    HW232355   5.215   3.272   4.844
10486SOL     OW32356   5.097   2.772   2.846
10486SOL    HW132357   5.180   2.717   2.858
10486SOL    HW232358   5.039   2.729   2.777
10487SOL     OW32359   4.791   6.991   2.206
10487SOL    HW132360   4.837   6.919   2.258
10487SOL    HW232361   4.850   0.051   2.202
10488SOL     OW32362   3.579   3.891   6.774
10488SOL    HW132363   3.539   3.805   6.806
10488SOL    HW232364   3.641   3.873   6.698
10489SOL     OW32365   1.923   5.414   5.197
10489SOL    HW132366   1.854   5.452   5.137
10489SOL    HW232367   1.889   5.329   5.238
10490SOL     OW32368   6.402   0.430   4.214
10490SOL    HW132369   6.314   0.430   4.166
10490SOL    HW232370   6.385   0.425   4.313
10491SOL     OW32371   0.175   5.120   5.166
10491SOL    HW132372   0.196   5.031   5.124
10491SOL    HW232373   0.160   5.108   5.264
10492SOL     OW32374   3.883   4.539   6.007
10492SOL    HW132375   3.800   4.496   6.041
10492SOL    HW232376   3.888   4.633   6.041
10493SOL     OW32377   3.704   1.335   0.646
10493SOL    HW132378   3.661   1.296   0.565
10493SOL    HW232379   3.652   1.309   0.727
10494SOL     OW32380   5.513   2.052   5.274
10494SOL    HW132381   5.461   2.089   5.350
10494SOL    HW232382   5.553   2.127   5.221
10495SOL     OW32383   1.607   0.053   0.298
10495SOL    HW132384   1.577   0.120   0.366
10495SOL    HW232385   1.537   7.004   0.287
10496SOL     OW32386   6.260   0.430   5.725
10496SOL    HW132387   6.342   0.395   5.771
10496SOL    HW232388   6.256   0.530   5.737
10497SOL     OW32389   0.996   1.766   6.938
10497SOL    HW132390   1.070   1.785   6.873
10497SOL    HW232391   0.913   1.739   6.888
10498SOL     OW32392   2.997   4.600   5.823
10498SOL    HW132393   2.925   4.670   5.828
10498SOL    HW232394   2.956   4.510   5.840
10499SOL     OW32395   3.155   5.213   3.367
10499SOL    HW132396   3.160   5.115   3.348
10499SOL    HW232397   3.172   5.229   3.464
10500SOL     OW32398   1.959   2.212   6.863
10500SOL    HW132399   1.958   2.116   6.834
10500SOL    HW232400   1.921   2.269   6.790
10501SOL     OW32401   1.197   2.585   3.321
10501SOL    HW132402   1.174   2.488   3.324
10501SOL    HW232403   1.234   2.614   3.409
10502SOL     OW32404   2.990   5.918   5.164
10502SOL    HW132405   2.980   6.017   5.166
10502SOL    HW232406   2.945   5.881   5.082
10503SOL     OW32407   2.714   3.280   5.564
10503SOL    HW132408   2.724   3.380   5.563
10503SOL    HW232409   2.652   3.252   5.491
10504SOL     OW32410   2.428   3.218   1.489
10504SOL    HW132411   2.474   3.262   1.565
10504SOL    HW232412   2.400   3.287   1.422
10505SOL     OW32413   0.275   0.402   1.058
10505SOL    HW132414   0.238   0.368   1.144
10505SOL    HW232415   0.201   0.439   1.002
10506SOL     OW32416   0.374   3.897   5.383
10506SOL    HW132417   0.403   3.934   5.295
10506SOL    HW232418   0.274   3.904   5.391
10507SOL     OW32419   1.531   0.458   3.955
10507SOL    HW132420   1.560   0.484   4.047
10507SOL    HW232421   1.438   0.424   3.957
10508SOL     OW32422   5.491   3.382   2.355
10508SOL    HW132423   5.417   3.411   2.295
10508SOL    HW232424   5.467   3.296   2.399
10509SOL     OW32425   1.809   0.751   6.232
10509SOL    HW132426   1.895   0.722   6.189
10509SOL    HW232427   1.828   0.787   6.324
10510SOL     OW32428   5.765   6.690   6.462
10510SOL    HW132429   5.847   6.740   6.432
10510SOL    HW232430   5.769   6.596   6.430
10511SOL     OW32431   0.475   2.080   0.800
10511SOL    HW132432   0.528   2.098   0.883
10511SOL    HW232433   0.422   2.161   0.776
10512SOL     OW32434   3.129   6.660   6.030
10512SOL    HW132435   3.201   6.591   6.024
10512SOL    HW232436   3.151   6.724   6.104
10513SOL     OW32437   0.085   1.644   0.593
10513SOL    HW132438   0.120   1.565   0.643
10513SOL    HW232439   0.152   1.673   0.525
10514SOL     OW32440   6.935   3.358   1.362
10514SOL    HW132441   6.878   3.440   1.361
10514SOL    HW232442   7.012   3.371   1.424
10515SOL     OW32443   6.122   2.613   4.506
10515SOL    HW132444   6.171   2.695   4.478
10515SOL    HW232445   6.076   2.630   4.593
10516SOL     OW32446   3.009   0.119   0.752
10516SOL    HW132447   2.963   0.030   0.757
10516SOL    HW232448   2.995   0.158   0.661
10517SOL     OW32449   6.836   2.273   2.875
10517SOL    HW132450   6.875   2.204   2.935
10517SOL    HW232451   6.910   2.315   2.821
10518SOL     OW32452   0.329   6.534   2.823
10518SOL    HW132453   0.408   6.508   2.879
10518SOL    HW232454   0.359   6.551   2.729
10519SOL     OW32455   3.365   3.380   5.294
10519SOL    HW132456   3.337   3.475   5.307
10519SOL    HW232457   3.289   3.329   5.252
10520SOL     OW32458   3.658   4.467   6.388
10520SOL    HW132459   3.711   4.510   6.460
10520SOL    HW232460   3.631   4.375   6.416
10521SOL     OW32461   6.431   5.333   2.232
10521SOL    HW132462   6.396   5.382   2.311
10521SOL    HW232463   6.480   5.251   2.264
10522SOL     OW32464   6.580   0.125   1.861
10522SOL    HW132465   6.619   0.176   1.784
10522SOL    HW232466   6.488   0.096   1.837
10523SOL     OW32467   0.167   5.694   6.714
10523SOL    HW132468   0.144   5.779   6.667
10523SOL    HW232469   0.263   5.696   6.742
10524SOL     OW32470   4.784   0.624   4.501
10524SOL    HW132471   4.824   0.689   4.437
10524SOL    HW232472   4.793   0.531   4.465
10525SOL     OW32473   3.050   6.185   5.151
10525SOL    HW132474   3.094   6.196   5.240
10525SOL    HW232475   3.113   6.213   5.078
10526SOL     OW32476   5.241   0.309   2.100
10526SOL    HW132477   5.249   0.307   2.001
10526SOL    HW232478   5.179   0.382   2.128
10527SOL     OW32479   1.966   2.521   4.797
10527SOL    HW132480   1.896   2.520   4.868
10527SOL    HW232481   1.935   2.576   4.720
10528SOL     OW32482   6.427   4.617   5.688
10528SOL    HW132483   6.420   4.662   5.599
10528SOL    HW232484   6.493   4.541   5.682
10529SOL     OW32485   0.184   6.322   4.464
10529SOL    HW132486   0.255   6.385   4.498
10529SOL    HW232487   0.148   6.357   4.378
10530SOL     OW32488   2.400   1.888   5.463
10530SOL    HW132489   2.307   1.898   5.497
10530SOL    HW232490   2.429   1.793   5.473
10531SOL     OW32491   1.361   2.178   5.827
10531SOL    HW132492   1.429   2.250   5.839
10531SOL    HW232493   1.304   2.199   5.747
10532SOL     OW32494   3.516   3.000   5.119
10532SOL    HW132495   3.604   2.956   5.136
10532SOL    HW232496   3.490   2.989   5.023
10533SOL     OW32497   2.615   1.325   6.348
10533SOL    HW132498   2.693   1.269   6.374
10533SOL    HW232499   2.565   1.352   6.430
10534SOL     OW32500   6.002   5.849   1.104
10534SOL    HW132501   5.969   5.902   1.181
10534SOL    HW232502   5.927   5.799   1.062
10535SOL     OW32503   0.362   1.298   2.260
10535SOL    HW132504   0.343   1.382   2.311
10535SOL    HW232505   0.368   1.221   2.323
10536SOL     OW32506   5.156   5.913   4.098
10536SOL    HW132507   5.198   6.004   4.097
10536SOL    HW232508   5.203   5.855   4.164
10537SOL     OW32509   6.990   5.677   1.659
10537SOL    HW132510   6.910   5.711   1.710
10537SOL    HW232511   7.009   5.739   1.583
10538SOL     OW32512   4.363   4.274   6.873
10538SOL    HW132513   4.315   4.198   6.828
10538SOL    HW232514   4.452   4.242   6.907
10539SOL     OW32515   0.968   3.266   5.551
10539SOL    HW132516   1.057   3.290   5.511
10539SOL    HW232517   0.956   3.314   5.638
10540SOL     OW32518   2.904   0.967   0.373
10540SOL    HW132519   2.838   1.027   0.328
10540SOL    HW232520   2.935   0.897   0.308
10541SOL     OW32521   4.576   2.248   0.317
10541SOL    HW132522   4.498   2.246   0.380
10541SOL    HW232523   4.645   2.311   0.352
10542SOL     OW32524   1.408   2.330   0.472
10542SOL    HW132525   1.310   2.322   0.486
10542SOL    HW232526   1.456   2.300   0.554
10543SOL     OW32527   2.669   0.979   4.957
10543SOL    HW132528   2.622   1.059   4.994
10543SOL    HW232529   2.728   0.940   5.027
10544SOL     OW32530   6.854   2.459   1.302
10544SOL    HW132531   6.794   2.536   1.283
10544SOL    HW232532   6.801   2.382   1.338
10545SOL     OW32533   5.076   0.849   3.511
10545SOL    HW132534   5.088   0.925   3.447
10545SOL    HW232535   5.109   0.876   3.601
10546SOL     OW32536   4.063   1.244   5.330
10546SOL    HW132537   4.070   1.312   5.256
10546SOL    HW232538   4.079   1.153   5.293
10547SOL     OW32539   3.922   0.019   1.265
10547SOL    HW132540   3.876   0.107   1.250
10547SOL    HW232541   3.994   0.030   1.333
10548SOL     OW32542   4.295   4.803   5.473
10548SOL    HW132543   4.277   4.755   5.387
10548SOL    HW232544   4.303   4.737   5.547
10549SOL     OW32545   1.244   1.213   1.582
10549SOL    HW132546   1.302   1.276   1.530
10549SOL    HW232547   1.238   1.126   1.533
10550SOL     OW32548   5.506   6.970   4.695
10550SOL    HW132549   5.483   0.038   4.733
10550SOL    HW232550   5.567   6.922   4.758
10551SOL     OW32551   1.268   2.958   6.109
10551SOL    HW132552   1.238   2.867   6.081
10551SOL    HW232553   1.248   2.970   6.207
10552SOL     OW32554   3.370   1.971   4.816
10552SOL    HW132555   3.354   2.046   4.752
10552SOL    HW232556   3.286   1.952   4.867
10553SOL     OW32557   2.939   5.152   5.993
10553SOL    HW132558   2.986   5.106   5.917
10553SOL    HW232559   2.992   5.141   6.077
10554SOL     OW32560   6.321   4.329   5.812
10554SOL    HW132561   6.411   4.364   5.786
10554SOL    HW232562   6.254   4.402   5.806
10555SOL     OW32563   3.246   2.232   0.893
10555SOL    HW132564   3.252   2.328   0.923
10555SOL    HW232565   3.281   2.224   0.800
10556SOL     OW32566   1.866   3.551   4.256
10556SOL    HW132567   1.962   3.569   4.278
10556SOL    HW232568   1.847   3.583   4.163
10557SOL     OW32569   5.631   1.262   3.353
10557SOL    HW132570   5.535   1.268   3.379
10557SOL    HW232571   5.647   1.318   3.271
10558SOL     OW32572   5.112   5.736   4.937
10558SOL    HW132573   5.113   5.816   4.875
10558SOL    HW232574   5.124   5.767   5.031
10559SOL     OW32575   4.325   2.432   1.184
10559SOL    HW132576   4.250   2.403   1.124
10559SOL    HW232577   4.287   2.483   1.262
10560SOL     OW32578   0.266   3.096   4.442
10560SOL    HW132579   0.340   3.131   4.500
10560SOL    HW232580   0.272   2.997   4.437
10561SOL     OW32581   3.076   4.323   6.080
10561SOL    HW132582   3.075   4.420   6.055
10561SOL    HW232583   3.094   4.268   5.998
10562SOL     OW32584   3.442   1.484   0.487
10562SOL    HW132585   3.346   1.504   0.466
10562SOL    HW232586   3.448   1.431   0.571
10563SOL     OW32587   1.200   1.890   3.430
10563SOL    HW132588   1.214   1.920   3.336
10563SOL    HW232589   1.273   1.828   3.457
10564SOL     OW32590   0.062   2.273   2.391
10564SOL    HW132591   0.029   2.314   2.476
10564SOL    HW232592   0.066   2.343   2.320
10565SOL     OW32593   5.203   1.566   5.070
10565SOL    HW132594   5.158   1.481   5.045
10565SOL    HW232595   5.251   1.603   4.990
10566SOL     OW32596   4.336   5.405   0.421
10566SOL    HW132597   4.272   5.408   0.497
10566SOL    HW232598   4.430   5.410   0.457
10567SOL     OW32599   2.017   5.089   4.074
10567SOL    HW132600   2.075   5.118   4.150
10567SOL    HW232601   1.994   5.169   4.018
10568SOL     OW32602   3.807   1.873   2.775
10568SOL    HW132603   3.751   1.804   2.730
10568SOL    HW232604   3.752   1.955   2.790
10569SOL     OW32605   5.935   2.956   3.358
10569SOL    HW132606   6.024   2.988   3.328
10569SOL    HW232607   5.946   2.897   3.439
10570SOL     OW32608   1.140   4.256   1.622
10570SOL    HW132609   1.080   4.305   1.685
10570SOL    HW232610   1.134   4.158   1.641
10571SOL     OW32611   5.858   6.541   4.905
10571SOL    HW132612   5.807   6.529   4.990
10571SOL    HW232613   5.820   6.619   4.855
10572SOL     OW32614   6.613   3.153   1.546
10572SOL    HW132615   6.541   3.124   1.484
10572SOL    HW232616   6.610   3.099   1.630
10573SOL     OW32617   6.331   4.403   6.310
10573SOL    HW132618   6.232   4.407   6.295
10573SOL    HW232619   6.349   4.384   6.406
10574SOL     OW32620   0.727   1.898   3.519
10574SOL    HW132621   0.789   1.923   3.593
10574SOL    HW232622   0.704   1.801   3.526
10575SOL     OW32623   0.433   6.754   6.256
10575SOL    HW132624   0.520   6.802   6.270
10575SOL    HW232625   0.447   6.655   6.267
10576SOL     OW32626   1.215   5.265   3.361
10576SOL    HW132627   1.209   5.326   3.283
10576SOL    HW232628   1.130   5.270   3.414
10577SOL     OW32629   0.577   3.444   5.593
10577SOL    HW132630   0.480   3.419   5.596
10577SOL    HW232631   0.630   3.377   5.645
10578SOL     OW32632   5.661   1.278   5.790
10578SOL    HW132633   5.697   1.189   5.764
10578SOL    HW232634   5.734   1.333   5.831
10579SOL     OW32635   4.857   0.041   1.009
10579SOL    HW132636   4.855   0.026   1.108
10579SOL    HW232637   4.936   7.016   0.970
10580SOL     OW32638   6.796   6.208   0.683
10580SOL    HW132639   6.733   6.268   0.732
10580SOL    HW232640   6.750   6.171   0.602
10581SOL     OW32641   4.860   2.234   3.678
10581SOL    HW132642   4.958   2.247   3.695
10581SOL    HW232643   4.808   2.299   3.733
10582SOL     OW32644   3.341   4.753   0.293
10582SOL    HW132645   3.403   4.775   0.218
10582SOL    HW232646   3.270   4.823   0.300
10583SOL     OW32647   4.047   0.829   1.478
10583SOL    HW132648   4.044   0.862   1.383
10583SOL    HW232649   4.047   0.907   1.540
10584SOL     OW32650   5.864   0.006   1.541
10584SOL    HW132651   5.795   6.999   1.608
10584SOL    HW232652   5.886   6.950   1.482
10585SOL     OW32653   2.245   4.457   6.429
10585SOL    HW132654   2.249   4.474   6.330
10585SOL    HW232655   2.296   4.528   6.477
10586SOL     OW32656   4.778   1.352   0.445
10586SOL    HW132657   4.691   1.355   0.494
10586SOL    HW232658   4.763   1.320   0.352
10587SOL     OW32659   5.728   3.202   0.370
10587SOL    HW132660   5.691   3.284   0.326
10587SOL    HW232661   5.818   3.222   0.407
10588SOL     OW32662   1.459   4.859   3.594
10588SOL    HW132663   1.434   4.952   3.567
10588SOL    HW232664   1.474   4.805   3.511
10589SOL     OW32665   6.147   1.355   4.425
10589SOL    HW132666   6.223   1.296   4.399
10589SOL    HW232667   6.064   1.326   4.378
10590SOL     OW32668   1.560   0.573   5.077
10590SOL    HW132669   1.575   0.564   4.978
10590SOL    HW232670   1.638   0.620   5.118
10591SOL     OW32671   1.296   2.493   0.888
10591SOL    HW132672   1.378   2.537   0.853
10591SOL    HW232673   1.291   2.507   0.987
10592SOL     OW32674   6.123   1.580   6.727
10592SOL    HW132675   6.028   1.606   6.709
10592SOL    HW232676   6.179   1.662   6.741
10593SOL     OW32677   1.357   4.897   2.054
10593SOL    HW132678   1.372   4.816   2.111
10593SOL    HW232679   1.425   4.967   2.077
10594SOL     OW32680   0.884   1.531   4.493
10594SOL    HW132681   0.957   1.594   4.468
10594SOL    HW232682   0.885   1.452   4.432
10595SOL     OW32683   2.608   5.237   5.252
10595SOL    HW132684   2.662   5.159   5.282
10595SOL    HW232685   2.534   5.206   5.192
10596SOL     OW32686   3.315   0.760   2.329
10596SOL    HW132687   3.247   0.800   2.391
10596SOL    HW232688   3.310   0.805   2.240
10597SOL     OW32689   2.419   0.581   3.624
10597SOL    HW132690   2.361   0.614   3.698
10597SOL    HW232691   2.372   0.591   3.537
10598SOL     OW32692   2.137   1.591   0.027
10598SOL    HW132693   2.142   1.492   0.013
10598SOL    HW232694   2.128   1.610   0.125
10599SOL     OW32695   4.882   0.417   6.801
10599SOL    HW132696   4.950   0.447   6.735
10599SOL    HW232697   4.865   0.491   6.867
10600SOL     OW32698   1.512   2.008   5.476
10600SOL    HW132699   1.494   1.965   5.387
10600SOL    HW232700   1.576   2.084   5.464
10601SOL     OW32701   3.747   5.608   5.734
10601SOL    HW132702   3.695   5.555   5.800
10601SOL    HW232703   3.697   5.612   5.648
10602SOL     OW32704   4.740   0.890   1.306
10602SOL    HW132705   4.756   0.878   1.208
10602SOL    HW232706   4.642   0.885   1.324
10603SOL     OW32707   0.936   5.006   4.931
10603SOL    HW132708   0.849   5.039   4.970
10603SOL    HW232709   1.007   5.009   5.002
10604SOL     OW32710   6.901   4.346   5.501
10604SOL    HW132711   6.937   4.350   5.595
10604SOL    HW232712   6.953   4.279   5.449
10605SOL     OW32713   1.988   5.100   6.158
10605SOL    HW132714   1.986   5.049   6.244
10605SOL    HW232715   2.071   5.075   6.107
10606SOL     OW32716   0.594   0.858   2.860
10606SOL    HW132717   0.692   0.868   2.840
10606SOL    HW232718   0.561   0.773   2.820
10607SOL     OW32719   5.876   4.967   6.615
10607SOL    HW132720   5.926   4.906   6.554
10607SOL    HW232721   5.801   4.916   6.658
10608SOL     OW32722   5.948   0.678   2.769
10608SOL    HW132723   5.998   0.743   2.712
10608SOL    HW232724   5.902   0.727   2.844
10609SOL     OW32725   3.941   6.642   2.205
10609SOL    HW132726   3.891   6.559   2.178
10609SOL    HW232727   3.887   6.693   2.272
10610SOL     OW32728   1.887   4.522   4.590
10610SOL    HW132729   1.827   4.483   4.520
10610SOL    HW232730   1.876   4.622   4.591
10611SOL     OW32731   5.041   2.670   6.264
10611SOL    HW132732   4.966   2.713   6.213
10611SOL    HW232733   5.042   2.706   6.358
10612SOL     OW32734   1.431   6.667   1.027
10612SOL    HW132735   1.487   6.738   1.069
10612SOL    HW232736   1.427   6.587   1.087
10613SOL     OW32737   0.213   6.886   6.375
10613SOL    HW132738   0.305   6.870   6.341
10613SOL    HW232739   0.155   6.807   6.355
10614SOL     OW32740   6.616   0.885   3.991
10614SOL    HW132741   6.555   0.843   4.058
10614SOL    HW232742   6.578   0.973   3.962
10615SOL     OW32743   6.741   5.771   5.477
10615SOL    HW132744   6.641   5.767   5.466
10615SOL    HW232745   6.772   5.866   5.467
10616SOL     OW32746   2.687   5.973   0.645
10616SOL    HW132747   2.780   5.937   0.640
10616SOL    HW232748   2.622   5.902   0.619
10617SOL     OW32749   0.008   1.902   6.755
10617SOL    HW132750   0.034   1.835   6.825
10617SOL    HW232751   6.997   1.854   6.674
10618SOL     OW32752   6.475   3.747   1.244
10618SOL    HW132753   6.411   3.745   1.320
10618SOL    HW232754   6.562   3.786   1.274
10619SOL     OW32755   0.405   4.132   3.231
10619SOL    HW132756   0.366   4.172   3.314
10619SOL    HW232757   0.338   4.073   3.187
10620SOL     OW32758   1.220   5.204   4.379
10620SOL    HW132759   1.143   5.222   4.318
10620SOL    HW232760   1.186   5.171   4.467
10621SOL     OW32761   2.793   6.494   0.751
10621SOL    HW132762   2.753   6.556   0.818
10621SOL    HW232763   2.729   6.480   0.676
10622SOL     OW32764   4.715   1.900   1.215
10622SOL    HW132765   4.695   1.995   1.240
10622SOL    HW232766   4.774   1.859   1.284
10623SOL     OW32767   6.965   0.778   4.437
10623SOL    HW132768   6.876   0.774   4.391
10623SOL    HW232769   6.956   0.833   4.520
10624SOL     OW32770   2.662   1.262   4.312
10624SOL    HW132771   2.644   1.281   4.215
10624SOL    HW232772   2.664   1.348   4.363
10625SOL     OW32773   0.835   3.132   0.165
10625SOL    HW132774   0.934   3.116   0.167
10625SOL    HW232775   0.813   3.196   0.091
10626SOL     OW32776   5.866   2.128   1.776
10626SOL    HW132777   5.881   2.044   1.829
10626SOL    HW232778   5.935   2.196   1.801
10627SOL     OW32779   5.851   5.669   4.537
10627SOL    HW132780   5.814   5.633   4.623
10627SOL    HW232781   5.941   5.708   4.553
10628SOL     OW32782   0.141   5.857   5.912
10628SOL    HW132783   0.108   5.763   5.897
10628SOL    HW232784   0.077   5.905   5.971
10629SOL     OW32785   2.795   4.977   6.227
10629SOL    HW132786   2.734   5.008   6.154
10629SOL    HW232787   2.864   5.048   6.244
10630SOL     OW32788   6.781   0.996   2.457
10630SOL    HW132789   6.716   1.072   2.445
10630SOL    HW232790   6.781   0.968   2.553
10631SOL     OW32791   0.868   6.714   4.743
10631SOL    HW132792   0.944   6.649   4.744
10631SOL    HW232793   0.885   6.786   4.810
10632SOL     OW32794   0.158   2.972   5.763
10632SOL    HW132795   0.071   2.977   5.811
10632SOL    HW232796   0.198   3.063   5.757
10633SOL     OW32797   0.762   5.178   1.097
10633SOL    HW132798   0.681   5.138   1.054
10633SOL    HW232799   0.844   5.155   1.043
10634SOL     OW32800   4.154   6.285   2.119
10634SOL    HW132801   4.192   6.277   2.211
10634SOL    HW232802   4.059   6.315   2.125
10635SOL     OW32803   1.474   0.899   1.651
10635SOL    HW132804   1.526   0.862   1.573
10635SOL    HW232805   1.376   0.886   1.633
10636SOL     OW32806   5.990   1.409   0.813
10636SOL    HW132807   5.953   1.463   0.889
10636SOL    HW232808   6.086   1.388   0.831
10637SOL     OW32809   3.379   4.448   5.998
10637SOL    HW132810   3.364   4.438   5.900
10637SOL    HW232811   3.377   4.545   6.022
10638SOL     OW32812   6.756   0.211   5.943
10638SOL    HW132813   6.825   0.248   6.005
10638SOL    HW232814   6.783   0.229   5.848
10639SOL     OW32815   3.473   1.781   5.135
10639SOL    HW132816   3.400   1.804   5.070
10639SOL    HW232817   3.495   1.862   5.189
10640SOL     OW32818   4.226   6.013   0.877
10640SOL    HW132819   4.147   6.000   0.936
10640SOL    HW232820   4.290   6.076   0.920
10641SOL     OW32821   4.035   1.008   6.631
10641SOL    HW132822   3.982   1.028   6.713
10641SOL    HW232823   4.078   0.918   6.640
10642SOL     OW32824   0.075   4.600   0.505
10642SOL    HW132825   0.098   4.504   0.520
10642SOL    HW232826   6.997   4.611   0.501
10643SOL     OW32827   4.324   3.320   5.639
10643SOL    HW132828   4.309   3.391   5.707
10643SOL    HW232829   4.309   3.357   5.548
10644SOL     OW32830   3.823   1.294   4.747
10644SOL    HW132831   3.742   1.346   4.720
10644SOL    HW232832   3.904   1.353   4.741
10645SOL     OW32833   2.131   6.823   5.092
10645SOL    HW132834   2.124   6.902   5.030
10645SOL    HW232835   2.039   6.794   5.118
10646SOL     OW32836   1.282   4.481   6.665
10646SOL    HW132837   1.368   4.525   6.693
10646SOL    HW232838   1.216   4.552   6.638
10647SOL     OW32839   0.133   5.817   1.076
10647SOL    HW132840   0.135   5.916   1.081
10647SOL    HW232841   0.108   5.789   0.983
10648SOL     OW32842   4.510   5.287   6.792
10648SOL    HW132843   4.432   5.296   6.730
10648SOL    HW232844   4.572   5.365   6.779
10649SOL     OW32845   0.075   4.591   6.183
10649SOL    HW132846   0.137   4.636   6.118
10649SOL    HW232847   0.128   4.551   6.258
10650SOL     OW32848   3.344   0.703   5.084
10650SOL    HW132849   3.325   0.683   5.181
10650SOL    HW232850   3.405   0.634   5.047
10651SOL     OW32851   2.895   0.356   5.693
10651SOL    HW132852   2.907   0.320   5.785
10651SOL    HW232853   2.922   0.452   5.691
10652SOL     OW32854   3.761   1.026   0.717
10652SOL    HW132855   3.795   1.014   0.624
10652SOL    HW232856   3.666   1.056   0.715
10653SOL     OW32857   5.603   3.134   4.153
10653SOL    HW132858   5.604   3.043   4.195
10653SOL    HW232859   5.682   3.186   4.185
10654SOL     OW32860   4.449   0.688   1.581
10654SOL    HW132861   4.355   0.661   1.561
10654SOL    HW232862   4.485   0.742   1.505
10655SOL     OW32863   2.878   5.568   1.042
10655SOL    HW132864   2.952   5.518   0.997
10655SOL    HW232865   2.914   5.613   1.124
10656SOL     OW32866   6.545   2.808   6.731
10656SOL    HW132867   6.533   2.886   6.668
10656SOL    HW232868   6.561   2.725   6.678
10657SOL     OW32869   6.131   0.096   1.405
10657SOL    HW132870   6.122   0.046   1.491
10657SOL    HW232871   6.220   0.142   1.401
10658SOL     OW32872   0.385   6.711   4.847
10658SOL    HW132873   0.432   6.797   4.826
10658SOL    HW232874   0.444   6.634   4.822
10659SOL     OW32875   5.034   0.733   0.618
10659SOL    HW132876   4.951   0.678   0.611
10659SOL    HW232877   5.085   0.728   0.532
10660SOL     OW32878   5.689   5.746   5.914
10660SOL    HW132879   5.700   5.661   5.863
10660SOL    HW232880   5.754   5.748   5.990
10661SOL     OW32881   0.478   0.523   2.257
10661SOL    HW132882   0.520   0.513   2.347
10661SOL    HW232883   0.548   0.534   2.187
10662SOL     OW32884   6.386   1.757   6.994
10662SOL    HW132885   6.301   1.711   7.019
10662SOL    HW232886   6.366   1.851   6.967
10663SOL     OW32887   0.530   1.597   0.642
10663SOL    HW132888   0.602   1.531   0.666
10663SOL    HW232889   0.560   1.689   0.667
10664SOL     OW32890   1.935   5.513   6.093
10664SOL    HW132891   1.887   5.563   6.165
10664SOL    HW232892   1.958   5.576   6.018
10665SOL     OW32893   5.568   1.203   6.585
10665SOL    HW132894   5.482   1.255   6.579
10665SOL    HW232895   5.547   1.105   6.584
10666SOL     OW32896   0.294   6.885   0.347
10666SOL    HW132897   0.252   6.863   0.258
10666SOL    HW232898   0.368   6.951   0.333
10667SOL     OW32899   3.086   2.392   5.778
10667SOL    HW132900   2.989   2.391   5.757
10667SOL    HW232901   3.131   2.464   5.726
10668SOL     OW32902   2.554   0.997   6.526
10668SOL    HW132903   2.633   0.936   6.519
10668SOL    HW232904   2.509   1.004   6.437
10669SOL     OW32905   1.011   6.651   6.692
10669SOL    HW132906   1.013   6.746   6.725
10669SOL    HW232907   1.039   6.648   6.596
10670SOL     OW32908   6.514   4.409   4.684
10670SOL    HW132909   6.445   4.457   4.630
10670SOL    HW232910   6.582   4.475   4.717
10671SOL     OW32911   1.588   2.061   3.182
10671SOL    HW132912   1.656   2.058   3.255
10671SOL    HW232913   1.510   2.117   3.212
10672SOL     OW32914   6.957   2.701   0.948
10672SOL    HW132915   0.000   2.775   0.968
10672SOL    HW232916   6.865   2.730   0.974
10673SOL     OW32917   3.266   3.500   4.660
10673SOL    HW132918   3.321   3.426   4.698
10673SOL    HW232919   3.261   3.491   4.561
10674SOL     OW32920   4.006   1.262   2.526
10674SOL    HW132921   3.919   1.223   2.554
10674SOL    HW232922   3.992   1.324   2.449
10675SOL     OW32923   0.780   1.015   5.975
10675SOL    HW132924   0.764   1.113   5.981
10675SOL    HW232925   0.848   0.988   6.043
10676SOL     OW32926   6.818   0.089   6.951
10676SOL    HW132927   6.901   0.140   6.928
10676SOL    HW232928   6.741   0.152   6.955
10677SOL     OW32929   6.133   1.202   0.529
10677SOL    HW132930   6.195   1.155   0.467
10677SOL    HW232931   6.105   1.139   0.602
10678SOL     OW32932   1.954   5.187   3.698
10678SOL    HW132933   1.966   5.257   3.627
10678SOL    HW232934   1.881   5.124   3.670
10679SOL     OW32935   5.678   4.765   3.656
10679SOL    HW132936   5.740   4.815   3.717
10679SOL    HW232937   5.647   4.826   3.583
10680SOL     OW32938   1.170   2.513   3.805
10680SOL    HW132939   1.215   2.574   3.740
10680SOL    HW232940   1.199   2.418   3.787
10681SOL     OW32941   0.335   2.338   6.534
10681SOL    HW132942   0.349   2.333   6.633
10681SOL    HW232943   0.400   2.276   6.489
10682SOL     OW32944   6.397   1.801   2.744
10682SOL    HW132945   6.385   1.876   2.809
10682SOL    HW232946   6.307   1.765   2.718
10683SOL     OW32947   1.451   0.349   4.261
10683SOL    HW132948   1.352   0.363   4.254
10683SOL    HW232949   1.480   0.277   4.199
10684SOL     OW32950   5.482   6.003   0.157
10684SOL    HW132951   5.407   6.021   0.219
10684SOL    HW232952   5.474   5.910   0.120
10685SOL     OW32953   6.090   2.499   2.266
10685SOL    HW132954   6.081   2.400   2.256
10685SOL    HW232955   6.187   2.524   2.263
10686SOL     OW32956   4.381   4.731   0.512
10686SOL    HW132957   4.440   4.717   0.591
10686SOL    HW232958   4.287   4.747   0.542
10687SOL     OW32959   6.491   5.394   1.094
10687SOL    HW132960   6.501   5.485   1.134
10687SOL    HW232961   6.440   5.400   1.008
10688SOL     OW32962   0.128   5.034   1.017
10688SOL    HW132963   0.075   5.108   0.975
10688SOL    HW232964   0.198   5.003   0.953
10689SOL     OW32965   0.742   6.967   1.208
10689SOL    HW132966   0.689   0.031   1.213
10689SOL    HW232967   0.761   6.935   1.301
10690SOL     OW32968   4.503   6.402   3.025
10690SOL    HW132969   4.521   6.494   3.062
10690SOL    HW232970   4.412   6.371   3.055
10691SOL     OW32971   6.192   1.519   1.723
10691SOL    HW132972   6.103   1.558   1.702
10691SOL    HW232973   6.249   1.518   1.640
10692SOL     OW32974   6.180   6.329   3.680
10692SOL    HW132975   6.102   6.349   3.739
10692SOL    HW232976   6.219   6.415   3.647
10693SOL     OW32977   5.350   2.686   3.572
10693SOL    HW132978   5.428   2.626   3.553
10693SOL    HW232979   5.343   2.701   3.671
10694SOL     OW32980   2.856   6.921   0.231
10694SOL    HW132981   2.803   6.991   0.279
10694SOL    HW232982   2.954   6.940   0.242
10695SOL     OW32983   5.391   2.962   5.476
10695SOL    HW132984   5.459   2.939   5.546
10695SOL    HW232985   5.422   3.042   5.425
10696SOL     OW32986   6.155   6.932   1.643
10696SOL    HW132987   6.233   6.881   1.606
10696SOL    HW232988   6.079   6.869   1.657
10697SOL     OW32989   1.693   6.656   2.805
10697SOL    HW132990   1.700   6.641   2.903
10697SOL    HW232991   1.784   6.644   2.763
10698SOL     OW32992   3.262   0.245   4.427
10698SOL    HW132993   3.284   0.148   4.437
10698SOL    HW232994   3.255   0.287   4.518
10699SOL     OW32995   1.961   2.372   3.436
10699SOL    HW132996   1.982   2.290   3.489
10699SOL    HW232997   1.970   2.352   3.339
10700SOL     OW32998   1.121   1.808   2.411
10700SOL    HW132999   1.116   1.825   2.312
10700SOL    HW233000   1.115   1.895   2.460
10701SOL     OW33001   3.108   0.394   1.495
10701SOL    HW133002   3.046   0.372   1.419
10701SOL    HW233003   3.067   0.465   1.552
10702SOL     OW33004   4.871   2.602   0.933
10702SOL    HW133005   4.919   2.657   1.002
10702SOL    HW233006   4.827   2.663   0.867
10703SOL     OW33007   3.834   2.973   3.888
10703SOL    HW133008   3.860   2.934   3.976
10703SOL    HW233009   3.851   3.071   3.888
10704SOL     OW33010   5.704   6.066   2.179
10704SOL    HW133011   5.764   6.034   2.106
10704SOL    HW233012   5.759   6.090   2.259
10705SOL     OW33013   1.536   3.137   6.433
10705SOL    HW133014   1.612   3.161   6.372
10705SOL    HW233015   1.568   3.134   6.528
10706SOL     OW33016   3.227   2.811   0.981
10706SOL    HW133017   3.279   2.888   1.019
10706SOL    HW233018   3.246   2.729   1.035
10707SOL     OW33019   6.292   6.942   6.297
10707SOL    HW133020   6.241   7.013   6.248
10707SOL    HW233021   6.360   6.985   6.356
10708SOL     OW33022   4.859   1.252   1.300
10708SOL    HW133023   4.825   1.336   1.259
10708SOL    HW233024   4.906   1.273   1.386
10709SOL     OW33025   0.828   0.103   6.140
10709SOL    HW133026   0.855   0.143   6.052
10709SOL    HW233027   0.808   0.175   6.205
10710SOL     OW33028   6.756   6.188   3.744
10710SOL    HW133029   6.845   6.205   3.701
10710SOL    HW233030   6.684   6.207   3.678
10711SOL     OW33031   2.368   5.041   5.361
10711SOL    HW133032   2.394   5.100   5.437
10711SOL    HW233033   2.331   5.097   5.287
10712SOL     OW33034   3.455   1.493   6.104
10712SOL    HW133035   3.553   1.501   6.124
10712SOL    HW233036   3.440   1.411   6.049
10713SOL     OW33037   1.910   6.646   0.886
10713SOL    HW133038   1.968   6.669   0.964
10713SOL    HW233039   1.835   6.587   0.916
10714SOL     OW33040   6.311   5.709   4.815
10714SOL    HW133041   6.314   5.611   4.839
10714SOL    HW233042   6.217   5.743   4.828
10715SOL     OW33043   5.634   0.874   2.637
10715SOL    HW133044   5.588   0.902   2.553
10715SOL    HW233045   5.566   0.841   2.703
10716SOL     OW33046   0.134   0.993   1.873
10716SOL    HW133047   0.208   0.979   1.938
10716SOL    HW233048   0.046   0.995   1.921
10717SOL     OW33049   6.996   6.630   2.294
10717SOL    HW133050   7.007   6.711   2.353
10717SOL    HW233051   6.899   6.606   2.289
10718SOL     OW33052   1.111   4.140   5.319
10718SOL    HW133053   1.182   4.133   5.389
10718SOL    HW233054   1.094   4.237   5.299
10719SOL     OW33055   3.550   6.239   2.074
10719SOL    HW133056   3.519   6.191   1.992
10719SOL    HW233057   3.547   6.338   2.057
10720SOL     OW33058   0.105   3.461   6.468
10720SOL    HW133059   0.066   3.392   6.529
10720SOL    HW233060   0.130   3.418   6.381
10721SOL     OW33061   5.321   2.189   4.405
10721SOL    HW133062   5.248   2.161   4.344
10721SOL    HW233063   5.336   2.288   4.397
10722SOL     OW33064   0.174   5.386   0.423
10722SOL    HW133065   0.111   5.310   0.402
10722SOL    HW233066   0.257   5.377   0.367
10723SOL     OW33067   6.247   4.354   6.787
10723SOL    HW133068   6.163   4.301   6.787
10723SOL    HW233069   6.290   4.349   6.697
10724SOL     OW33070   3.656   0.094   5.560
10724SOL    HW133071   3.714   0.061   5.485
10724SOL    HW233072   3.713   0.145   5.626
10725SOL     OW33073   0.161   0.170   4.930
10725SOL    HW133074   0.069   0.183   4.894
10725SOL    HW233075   0.156   0.127   5.020
10726SOL     OW33076   6.717   0.622   3.649
10726SOL    HW133077   6.717   0.572   3.736
10726SOL    HW233078   6.770   0.572   3.581
10727SOL     OW33079   4.177   6.784   6.339
10727SOL    HW133080   4.152   6.731   6.420
10727SOL    HW233081   4.243   6.855   6.364
10728SOL     OW33082   5.953   5.321   3.869
10728SOL    HW133083   5.956   5.293   3.773
10728SOL    HW233084   5.871   5.284   3.912
10729SOL     OW33085   6.141   3.278   4.021
10729SOL    HW133086   6.123   3.183   4.046
10729SOL    HW233087   6.203   3.319   4.087
10730SOL     OW33088   1.118   6.479   4.318
10730SOL    HW133089   1.115   6.571   4.356
10730SOL    HW233090   1.096   6.412   4.389
10731SOL     OW33091   5.156   5.716   6.366
10731SOL    HW133092   5.124   5.711   6.461
10731SOL    HW233093   5.220   5.792   6.356
10732SOL     OW33094   6.881   6.135   2.368
10732SOL    HW133095   6.871   6.197   2.290
10732SOL    HW233096   6.978   6.117   2.384
10733SOL     OW33097   0.399   1.851   5.985
10733SOL    HW133098   0.340   1.931   5.994
10733SOL    HW233099   0.451   1.856   5.900
10734SOL     OW33100   0.859   0.850   4.318
10734SOL    HW133101   0.796   0.778   4.287
10734SOL    HW233102   0.813   0.905   4.388
10735SOL     OW33103   0.173   0.648   2.065
10735SOL    HW133104   0.236   0.605   2.001
10735SOL    HW233105   0.216   0.652   2.156
10736SOL     OW33106   6.066   5.683   4.041
10736SOL    HW133107   6.006   5.673   3.962
10736SOL    HW233108   6.126   5.603   4.048
10737SOL     OW33109   6.733   0.733   1.637
10737SOL    HW133110   6.677   0.673   1.694
10737SOL    HW233111   6.684   0.754   1.552
10738SOL     OW33112   2.659   0.259   1.349
10738SOL    HW133113   2.719   0.236   1.426
10738SOL    HW233114   2.618   0.349   1.365
10739SOL     OW33115   4.851   2.803   4.395
10739SOL    HW133116   4.763   2.791   4.441
10739SOL    HW233117   4.838   2.853   4.309
10740SOL     OW33118   3.151   0.371   5.973
10740SOL    HW133119   3.211   0.316   6.031
10740SOL    HW233120   3.149   0.465   6.009
10741SOL     OW33121   1.256   2.687   3.572
10741SOL    HW133122   1.354   2.679   3.591
10741SOL    HW233123   1.224   2.779   3.594
10742SOL     OW33124   0.015   0.381   2.122
10742SOL    HW133125   6.989   0.408   2.206
10742SOL    HW233126   0.113   0.374   2.140
10743SOL     OW33127   3.575   1.830   5.471
10743SOL    HW133128   3.673   1.812   5.463
10743SOL    HW233129   3.549   1.830   5.568
10744SOL     OW33130   2.471   1.673   1.653
10744SOL    HW133131   2.549   1.734   1.666
10744SOL    HW233132   2.423   1.697   1.569
10745SOL     OW33133   2.512   5.590   1.548
10745SOL    HW133134   2.570   5.522   1.502
10745SOL    HW233135   2.418   5.582   1.514
10746SOL     OW33136   2.224   5.821   5.955
10746SOL    HW133137   2.144   5.816   5.895
10746SOL    HW233138   2.276   5.736   5.948
10747SOL     OW33139   0.505   1.083   4.815
10747SOL    HW133140   0.560   1.110   4.736
10747SOL    HW233141   0.496   0.984   4.817
10748SOL     OW33142   2.758   6.352   2.648
10748SOL    HW133143   2.770   6.307   2.736
10748SOL    HW233144   2.833   6.327   2.587
10749SOL     OW33145   5.926   4.555   2.088
10749SOL    HW133146   6.004   4.585   2.142
10749SOL    HW233147   5.927   4.456   2.079
10750SOL     OW33148   4.249   2.229   4.220
10750SOL    HW133149   4.182   2.239   4.293
10750SOL    HW233150   4.298   2.142   4.230
10751SOL     OW33151   6.175   6.257   4.013
10751SOL    HW133152   6.145   6.299   4.098
10751SOL    HW233153   6.097   6.211   3.969
10752SOL     OW33154   6.786   6.548   6.723
10752SOL    HW133155   6.738   6.496   6.652
10752SOL    HW233156   6.834   6.625   6.680
10753SOL     OW33157   5.602   6.939   5.094
10753SOL    HW133158   5.571   0.011   5.112
10753SOL    HW233159   5.550   6.875   5.151
10754SOL     OW33160   0.675   5.656   2.308
10754SOL    HW133161   0.592   5.708   2.288
10754SOL    HW233162   0.749   5.688   2.249
10755SOL     OW33163   0.561   2.131   1.555
10755SOL    HW133164   0.481   2.191   1.563
10755SOL    HW233165   0.624   2.149   1.631
10756SOL     OW33166   0.981   0.246   0.059
10756SOL    HW133167   0.956   0.197   6.997
10756SOL    HW233168   0.923   0.214   0.134
10757SOL     OW33169   6.761   2.992   2.183
10757SOL    HW133170   6.733   2.985   2.279
10757SOL    HW233171   6.695   2.943   2.125
10758SOL     OW33172   1.505   1.349   0.227
10758SOL    HW133173   1.492   1.447   0.244
10758SOL    HW233174   1.599   1.324   0.250
10759SOL     OW33175   2.933   3.221   4.811
10759SOL    HW133176   2.836   3.204   4.830
10759SOL    HW233177   2.951   3.203   4.714
10760SOL     OW33178   0.528   5.046   0.188
10760SOL    HW133179   0.466   4.976   0.153
10760SOL    HW233180   0.480   5.133   0.194
10761SOL     OW33181   1.570   1.260   6.018
10761SOL    HW133182   1.528   1.283   6.106
10761SOL    HW233183   1.610   1.342   5.977
10762SOL     OW33184   1.567   6.834   0.572
10762SOL    HW133185   1.639   6.785   0.522
10762SOL    HW233186   1.488   6.774   0.584
10763SOL     OW33187   4.819   1.012   3.241
10763SOL    HW133188   4.781   0.919   3.236
10763SOL    HW233189   4.919   1.007   3.245
10764SOL     OW33190   4.933   6.062   4.912
10764SOL    HW133191   4.885   6.063   4.825
10764SOL    HW233192   4.898   5.987   4.969
10765SOL     OW33193   0.755   2.118   0.846
10765SOL    HW133194   0.715   2.169   0.922
10765SOL    HW233195   0.717   2.150   0.760
10766SOL     OW33196   2.358   5.254   6.281
10766SOL    HW133197   2.419   5.275   6.204
10766SOL    HW233198   2.269   5.224   6.247
10767SOL     OW33199   1.400   5.005   6.705
10767SOL    HW133200   1.334   4.979   6.776
10767SOL    HW233201   1.351   5.044   6.627
10768SOL     OW33202   5.284   6.515   6.608
10768SOL    HW133203   5.297   6.574   6.528
10768SOL    HW233204   5.271   6.421   6.577
10769SOL     OW33205   2.948   3.425   4.417
10769SOL    HW133206   3.017   3.487   4.381
10769SOL    HW233207   2.885   3.398   4.344
10770SOL     OW33208   4.954   0.319   3.109
10770SOL    HW133209   4.876   0.357   3.160
10770SOL    HW233210   4.922   0.245   3.050
10771SOL     OW33211   4.468   6.005   6.061
10771SOL    HW133212   4.524   5.930   6.098
10771SOL    HW233213   4.382   5.968   6.025
10772SOL     OW33214   5.277   4.326   2.491
10772SOL    HW133215   5.224   4.411   2.501
10772SOL    HW233216   5.270   4.273   2.576
10773SOL     OW33217   0.762   4.096   0.351
10773SOL    HW133218   0.776   4.100   0.450
10773SOL    HW233219   0.665   4.112   0.330
10774SOL     OW33220   0.438   3.428   0.748
10774SOL    HW133221   0.521   3.474   0.718
10774SOL    HW233222   0.463   3.353   0.810
10775SOL     OW33223   2.003   3.845   0.408
10775SOL    HW133224   1.990   3.780   0.333
10775SOL    HW233225   1.959   3.932   0.385
10776SOL     OW33226   0.785   2.803   3.254
10776SOL    HW133227   0.775   2.752   3.168
10776SOL    HW233228   0.700   2.796   3.306
10777SOL     OW33229   1.153   0.152   1.199
10777SOL    HW133230   1.099   0.081   1.153
10777SOL    HW233231   1.244   0.156   1.158
10778SOL     OW33232   4.644   0.297   3.533
10778SOL    HW133233   4.679   0.390   3.545
10778SOL    HW233234   4.582   0.275   3.608
10779SOL     OW33235   5.631   2.928   5.677
10779SOL    HW133236   5.674   3.018   5.661
10779SOL    HW233237   5.615   2.916   5.775
10780SOL     OW33238   1.484   4.993   5.061
10780SOL    HW133239   1.473   4.955   4.969
10780SOL    HW233240   1.524   4.924   5.121
10781SOL     OW33241   5.882   2.217   6.023
10781SOL    HW133242   5.871   2.127   5.981
10781SOL    HW233243   5.934   2.276   5.961
10782SOL     OW33244   1.291   2.736   4.963
10782SOL    HW133245   1.317   2.728   4.867
10782SOL    HW233246   1.354   2.798   5.009
10783SOL     OW33247   1.352   3.487   3.140
10783SOL    HW133248   1.358   3.469   3.042
10783SOL    HW233249   1.365   3.584   3.157
10784SOL     OW33250   4.977   5.356   3.594
10784SOL    HW133251   5.054   5.312   3.546
10784SOL    HW233252   4.910   5.286   3.620
10785SOL     OW33253   2.076   5.242   1.503
10785SOL    HW133254   2.042   5.205   1.417
10785SOL    HW233255   2.011   5.221   1.576
10786SOL     OW33256   4.785   1.505   2.629
10786SOL    HW133257   4.708   1.559   2.595
10786SOL    HW233258   4.871   1.543   2.595
10787SOL     OW33259   4.018   1.885   3.701
10787SOL    HW133260   4.006   1.815   3.631
10787SOL    HW233261   4.111   1.881   3.737
10788SOL     OW33262   1.771   3.284   0.064
10788SOL    HW133263   1.739   3.376   0.041
10788SOL    HW233264   1.727   3.217   0.005
10789SOL     OW33265   0.104   1.595   2.229
10789SOL    HW133266   0.195   1.614   2.193
10789SOL    HW233267   0.096   1.636   2.320
10790SOL     OW33268   0.004   2.042   5.657
10790SOL    HW133269   6.937   2.036   5.610
10790SOL    HW233270   0.006   1.977   5.732
10791SOL     OW33271   1.864   2.649   3.865
10791SOL    HW133272   1.805   2.727   3.887
10791SOL    HW233273   1.944   2.651   3.924
10792SOL     OW33274   3.619   1.016   2.319
10792SOL    HW133275   3.560   1.092   2.348
10792SOL    HW233276   3.592   0.933   2.368
10793SOL     OW33277   3.418   1.690   4.494
10793SOL    HW133278   3.412   1.672   4.592
10793SOL    HW233279   3.338   1.741   4.465
10794SOL     OW33280   4.723   2.792   6.846
10794SOL    HW133281   4.743   2.885   6.815
10794SOL    HW233282   4.786   2.767   6.920
10795SOL     OW33283   6.388   3.154   3.090
10795SOL    HW133284   6.376   3.252   3.111
10795SOL    HW233285   6.324   3.128   3.017
10796SOL     OW33286   0.496   1.644   6.139
10796SOL    HW133287   0.596   1.645   6.146
10796SOL    HW233288   0.467   1.713   6.073
10797SOL     OW33289   5.036   4.602   6.926
10797SOL    HW133290   5.059   4.631   7.019
10797SOL    HW233291   5.032   4.502   6.922
10798SOL     OW33292   1.828   6.722   0.485
10798SOL    HW133293   1.848   6.636   0.437
10798SOL    HW233294   1.887   6.729   0.566
10799SOL     OW33295   3.321   0.340   2.377
10799SOL    HW133296   3.277   0.419   2.335
10799SOL    HW233297   3.420   0.356   2.382
10800SOL     OW33298   2.035   6.545   5.330
10800SOL    HW133299   2.007   6.557   5.234
10800SOL    HW233300   2.125   6.501   5.333
10801SOL     OW33301   2.662   5.941   6.759
10801SOL    HW133302   2.622   5.872   6.698
10801SOL    HW233303   2.710   6.010   6.705
10802SOL     OW33304   0.676   4.596   4.350
10802SOL    HW133305   0.689   4.663   4.276
10802SOL    HW233306   0.594   4.618   4.401
10803SOL     OW33307   6.776   3.738   4.902
10803SOL    HW133308   6.688   3.737   4.950
10803SOL    HW233309   6.823   3.651   4.916
10804SOL     OW33310   3.724   4.585   1.080
10804SOL    HW133311   3.765   4.637   1.155
10804SOL    HW233312   3.666   4.512   1.118
10805SOL     OW33313   3.895   5.937   0.605
10805SOL    HW133314   3.815   5.959   0.549
10805SOL    HW233315   3.876   5.962   0.700
10806SOL     OW33316   5.913   3.614   6.464
10806SOL    HW133317   6.003   3.632   6.505
10806SOL    HW233318   5.925   3.566   6.377
10807SOL     OW33319   4.972   2.333   4.414
10807SOL    HW133320   4.887   2.291   4.381
10807SOL    HW233321   5.027   2.264   4.461
10808SOL     OW33322   0.727   2.032   6.713
10808SOL    HW133323   0.738   1.960   6.781
10808SOL    HW233324   0.630   2.041   6.689
10809SOL     OW33325   1.703   0.956   2.424
10809SOL    HW133326   1.650   0.947   2.340
10809SOL    HW233327   1.794   0.991   2.402
10810SOL     OW33328   2.109   1.047   6.145
10810SOL    HW133329   2.148   1.086   6.228
10810SOL    HW233330   2.020   1.088   6.127
10811SOL     OW33331   4.324   5.673   6.872
10811SOL    HW133332   4.383   5.676   6.953
10811SOL    HW233333   4.267   5.591   6.876
10812SOL     OW33334   6.659   2.812   2.396
10812SOL    HW133335   6.691   2.752   2.469
10812SOL    HW233336   6.635   2.901   2.434
10813SOL     OW33337   3.431   6.488   2.280
10813SOL    HW133338   3.495   6.449   2.345
10813SOL    HW233339   3.463   6.471   2.187
10814SOL     OW33340   1.638   6.750   4.261
10814SOL    HW133341   1.627   6.651   4.252
10814SOL    HW233342   1.613   6.794   4.174
10815SOL     OW33343   5.073   1.816   5.166
10815SOL    HW133344   5.116   1.772   5.087
10815SOL    HW233345   4.989   1.768   5.189
10816SOL     OW33346   1.919   1.731   1.562
10816SOL    HW133347   1.982   1.807   1.579
10816SOL    HW233348   1.857   1.721   1.639
10817SOL     OW33349   3.949   1.576   1.782
10817SOL    HW133350   3.974   1.532   1.868
10817SOL    HW233351   3.978   1.671   1.783
10818SOL     OW33352   4.465   3.577   6.218
10818SOL    HW133353   4.494   3.499   6.273
10818SOL    HW233354   4.541   3.641   6.208
10819SOL     OW33355   1.399   3.847   5.614
10819SOL    HW133356   1.459   3.768   5.629
10819SOL    HW233357   1.320   3.818   5.560
10820SOL     OW33358   0.556   5.856   4.498
10820SOL    HW133359   0.647   5.823   4.475
10820SOL    HW233360   0.493   5.841   4.422
10821SOL     OW33361   0.725   0.853   6.840
10821SOL    HW133362   0.654   0.836   6.909
10821SOL    HW233363   0.808   0.883   6.885
10822SOL     OW33364   0.532   4.299   6.814
10822SOL    HW133365   0.450   4.262   6.770
10822SOL    HW233366   0.567   4.376   6.760
10823SOL     OW33367   1.996   2.507   0.970
10823SOL    HW133368   1.941   2.437   1.015
10823SOL    HW233369   2.093   2.492   0.991
10824SOL     OW33370   5.521   1.334   4.088
10824SOL    HW133371   5.447   1.274   4.118
10824SOL    HW233372   5.570   1.292   4.012
10825SOL     OW33373   3.087   1.295   2.700
10825SOL    HW133374   3.036   1.320   2.782
10825SOL    HW233375   3.120   1.200   2.709
10826SOL     OW33376   0.336   3.403   1.252
10826SOL    HW133377   0.295   3.316   1.223
10826SOL    HW233378   0.287   3.438   1.332
10827SOL     OW33379   0.588   2.525   4.377
10827SOL    HW133380   0.683   2.495   4.379
10827SOL    HW233381   0.582   2.620   4.409
10828SOL     OW33382   2.338   5.264   0.450
10828SOL    HW133383   2.304   5.188   0.505
10828SOL    HW233384   2.261   5.308   0.404
10829SOL     OW33385   2.166   4.057   1.940
10829SOL    HW133386   2.137   4.065   2.035
10829SOL    HW233387   2.170   3.960   1.915
10830SOL     OW33388   6.079   0.775   3.306
10830SOL    HW133389   6.000   0.766   3.366
10830SOL    HW233390   6.094   0.689   3.258
10831SOL     OW33391   5.473   2.529   1.808
10831SOL    HW133392   5.405   2.483   1.865
10831SOL    HW233393   5.533   2.461   1.766
10832SOL     OW33394   0.668   3.060   2.929
10832SOL    HW133395   0.743   3.018   2.980
10832SOL    HW233396   0.703   3.099   2.845
10833SOL     OW33397   3.144   6.690   4.131
10833SOL    HW133398   3.205   6.656   4.060
10833SOL    HW233399   3.094   6.770   4.097
10834SOL     OW33400   6.846   0.946   6.434
10834SOL    HW133401   6.889   1.004   6.364
10834SOL    HW233402   6.887   0.854   6.431
10835SOL     OW33403   0.879   1.819   0.798
10835SOL    HW133404   0.887   1.919   0.791
10835SOL    HW233405   0.970   1.778   0.794
10836SOL     OW33406   0.572   2.624   1.235
10836SOL    HW133407   0.558   2.660   1.327
10836SOL    HW233408   0.671   2.618   1.217
10837SOL     OW33409   0.767   5.932   0.933
10837SOL    HW133410   0.683   5.985   0.925
10837SOL    HW233411   0.750   5.837   0.904
10838SOL     OW33412   6.338   6.534   0.602
10838SOL    HW133413   6.318   6.546   0.700
10838SOL    HW233414   6.348   6.437   0.582
10839SOL     OW33415   1.821   1.752   6.785
10839SOL    HW133416   1.900   1.801   6.822
10839SOL    HW233417   1.755   1.735   6.858
10840SOL     OW33418   2.444   0.053   2.659
10840SOL    HW133419   2.495   7.001   2.614
10840SOL    HW233420   2.487   0.074   2.747
10841SOL     OW33421   4.526   3.623   0.678
10841SOL    HW133422   4.461   3.695   0.701
10841SOL    HW233423   4.611   3.637   0.729
10842SOL     OW33424   5.844   2.313   1.480
10842SOL    HW133425   5.938   2.283   1.466
10842SOL    HW233426   5.799   2.323   1.391
10843SOL     OW33427   0.679   1.871   1.988
10843SOL    HW133428   0.779   1.879   1.990
10843SOL    HW233429   0.651   1.813   1.912
10844SOL     OW33430   4.984   0.366   3.922
10844SOL    HW133431   5.021   0.273   3.915
10844SOL    HW233432   4.951   0.381   4.016
10845SOL     OW33433   2.292   3.115   1.115
10845SOL    HW133434   2.373   3.161   1.080
10845SOL    HW233435   2.305   3.016   1.110
10846SOL     OW33436   3.357   2.851   1.565
10846SOL    HW133437   3.321   2.836   1.657
10846SOL    HW233438   3.283   2.844   1.499
10847SOL     OW33439   4.661   2.275   5.356
10847SOL    HW133440   4.579   2.243   5.310
10847SOL    HW233441   4.739   2.271   5.293
10848SOL     OW33442   1.569   0.804   6.997
10848SOL    HW133443   1.603   0.785   6.905
10848SOL    HW233444   1.573   0.720   0.031
10849SOL     OW33445   1.586   4.800   4.176
10849SOL    HW133446   1.599   4.742   4.257
10849SOL    HW233447   1.672   4.807   4.125
10850SOL     OW33448   5.305   1.333   1.952
10850SOL    HW133449   5.288   1.247   2.001
10850SOL    HW233450   5.370   1.317   1.879
10851SOL     OW33451   4.402   3.125   6.999
10851SOL    HW133452   4.452   3.055   6.949
10851SOL    HW233453   4.308   3.094   7.016
10852SOL     OW33454   6.464   0.370   6.298
10852SOL    HW133455   6.394   0.299   6.308
10852SOL    HW233456   6.476   0.417   6.385
10853SOL     OW33457   3.265   0.871   4.498
10853SOL    HW133458   3.314   0.834   4.576
10853SOL    HW233459   3.169   0.888   4.523
10854SOL     OW33460   6.340   6.979   0.779
10854SOL    HW133461   6.309   0.041   0.736
10854SOL    HW233462   6.376   6.916   0.710
10855SOL     OW33463   0.338   5.877   1.586
10855SOL    HW133464   0.407   5.839   1.525
10855SOL    HW233465   0.247   5.865   1.546
10856SOL     OW33466   5.243   6.912   6.713
10856SOL    HW133467   5.314   6.896   6.781
10856SOL    HW233468   5.157   6.935   6.760
10857SOL     OW33469   6.327   6.960   4.540
10857SOL    HW133470   6.349   6.881   4.483
10857SOL    HW233471   6.266   0.000   4.490
10858SOL     OW33472   2.049   2.344   0.056
10858SOL    HW133473   2.012   2.285   7.006
10858SOL    HW233474   2.149   2.335   0.058
10859SOL     OW33475   1.993   5.254   2.897
10859SOL    HW133476   2.062   5.184   2.880
10859SOL    HW233477   1.996   5.323   2.824
10860SOL     OW33478   5.874   1.997   1.275
10860SOL    HW133479   5.857   1.902   1.251
10860SOL    HW233480   5.865   2.055   1.194
10861SOL     OW33481   1.742   3.945   1.463
10861SOL    HW133482   1.772   4.035   1.495
10861SOL    HW233483   1.651   3.926   1.500
10862SOL     OW33484   3.674   4.507   5.371
10862SOL    HW133485   3.764   4.477   5.340
10862SOL    HW233486   3.661   4.482   5.467
10863SOL     OW33487   2.134   6.966   3.107
10863SOL    HW133488   2.119   0.021   3.170
10863SOL    HW233489   2.084   6.981   3.023
10864SOL     OW33490   2.954   3.531   1.815
10864SOL    HW133491   2.977   3.577   1.901
10864SOL    HW233492   3.012   3.451   1.804
10865SOL     OW33493   3.097   1.918   2.879
10865SOL    HW133494   3.089   1.867   2.794
10865SOL    HW233495   3.037   1.997   2.877
10866SOL     OW33496   0.864   3.335   4.447
10866SOL    HW133497   0.917   3.315   4.365
10866SOL    HW233498   0.925   3.350   4.524
10867SOL     OW33499   4.418   3.404   6.996
10867SOL    HW133500   4.335   3.408   6.941
10867SOL    HW233501   4.427   3.313   0.014
10868SOL     OW33502   1.233   6.678   5.261
10868SOL    HW133503   1.284   6.710   5.341
10868SOL    HW233504   1.287   6.609   5.213
10869NA      NA33505   0.249   1.016   6.473
10870NA      NA33506   4.697   4.848   5.222
10871NA      NA33507   0.965   4.795   2.805
10872NA      NA33508   6.017   3.445   3.232
10873NA      NA33509   3.847   2.780   5.406
10874NA      NA33510   2.444   4.468   6.918
10875NA      NA33511   1.540   5.478   0.252
10876NA      NA33512   4.138   4.907   1.806
10877NA      NA33513   5.136   3.957   1.123
10878NA      NA33514   3.743   1.567   0.587
10879NA      NA33515   5.402   6.558   1.591
10880NA      NA33516   2.346   6.838   5.200
10881NA      NA33517   4.103   5.004   2.793
10882NA      NA33518   4.187   4.491   6.486
   7.02135   7.02135   7.02135
