Generated by trjconv : CNT in water t=  91.00000
33518
    1C        C    1   2.846   2.774   4.747
    1C        C    2   2.901   2.727   4.868
    1C        C    3   2.844   2.774   4.987
    1C        C    4   2.852   2.777   4.259
    1C        C    5   2.899   2.727   4.383
    1C        C    6   2.847   2.773   4.506
    1C        C    7   3.013   2.639   4.625
    1C        C    8   2.897   2.719   4.627
    1C        C    9   3.079   2.607   4.746
    1C        C   10   3.011   2.638   4.865
    1C        C   11   3.189   2.500   4.977
    1C        C   12   3.067   2.568   4.973
    1C        C   13   2.848   2.772   3.774
    1C        C   14   2.899   2.722   3.896
    1C        C   15   2.848   2.776   4.016
    1C        C   16   3.020   2.650   4.138
    1C        C   17   2.901   2.727   4.137
    1C        C   18   3.084   2.621   4.261
    1C        C   19   3.018   2.651   4.383
    1C        C   20   3.205   2.549   4.504
    1C        C   21   3.075   2.605   4.503
    1C        C   22   3.280   2.533   4.623
    1C        C   23   3.210   2.552   4.745
    1C        C   24   3.417   2.489   4.865
    1C        C   25   3.275   2.505   4.862
    1C        C   26   3.494   2.474   4.981
    1C        C   27   2.846   2.764   3.284
    1C        C   28   2.905   2.724   3.406
    1C        C   29   2.852   2.775   3.527
    1C        C   30   3.019   2.649   3.649
    1C        C   31   2.902   2.728   3.650
    1C        C   32   3.079   2.611   3.771
    1C        C   33   3.015   2.640   3.894
    1C        C   34   3.209   2.558   4.017
    1C        C   35   3.077   2.607   4.016
    1C        C   36   3.277   2.537   4.140
    1C        C   37   3.208   2.555   4.262
    1C        C   38   3.415   2.507   4.381
    1C        C   39   3.275   2.526   4.383
    1C        C   40   3.490   2.498   4.501
    1C        C   41   3.419   2.509   4.623
    1C        C   42   3.632   2.495   4.746
    1C        C   43   3.490   2.488   4.743
    1C        C   44   3.708   2.488   4.865
    1C        C   45   3.633   2.483   4.983
    1C        C   46   2.833   2.754   2.797
    1C        C   47   2.892   2.710   2.917
    1C        C   48   2.839   2.760   3.038
    1C        C   49   3.013   2.640   3.161
    1C        C   50   2.895   2.718   3.160
    1C        C   51   3.077   2.607   3.283
    1C        C   52   3.017   2.638   3.407
    1C        C   53   3.210   2.549   3.527
    1C        C   54   3.080   2.605   3.529
    1C        C   55   3.278   2.535   3.650
    1C        C   56   3.211   2.559   3.772
    1C        C   57   3.416   2.514   3.895
    1C        C   58   3.278   2.542   3.895
    1C        C   59   3.486   2.507   4.018
    1C        C   60   3.416   2.513   4.141
    1C        C   61   3.630   2.501   4.259
    1C        C   62   3.489   2.499   4.261
    1C        C   63   3.702   2.510   4.380
    1C        C   64   3.631   2.494   4.502
    1C        C   65   3.838   2.538   4.620
    1C        C   66   3.702   2.502   4.624
    1C        C   67   3.907   2.562   4.741
    1C        C   68   3.844   2.525   4.862
    1C        C   69   4.054   2.585   4.980
    1C        C   70   3.924   2.533   4.978
    1C        C   71   2.826   2.735   2.310
    1C        C   72   2.890   2.699   2.431
    1C        C   73   2.832   2.747   2.551
    1C        C   74   3.008   2.635   2.673
    1C        C   75   2.888   2.710   2.675
    1C        C   76   3.072   2.600   2.794
    1C        C   77   3.011   2.633   2.917
    1C        C   78   3.205   2.548   3.038
    1C        C   79   3.075   2.604   3.039
    1C        C   80   3.274   2.531   3.160
    1C        C   81   3.206   2.551   3.283
    1C        C   82   3.415   2.508   3.403
    1C        C   83   3.275   2.529   3.404
    1C        C   84   3.484   2.502   3.526
    1C        C   85   3.418   2.512   3.650
    1C        C   86   3.627   2.503   3.770
    1C        C   87   3.486   2.503   3.773
    1C        C   88   3.696   2.511   3.893
    1C        C   89   3.627   2.511   4.016
    1C        C   90   3.837   2.549   4.136
    1C        C   91   3.700   2.515   4.137
    1C        C   92   3.906   2.568   4.258
    1C        C   93   3.838   2.547   4.380
    1C        C   94   4.032   2.631   4.500
    1C        C   95   3.911   2.558   4.501
    1C        C   96   4.091   2.672   4.622
    1C        C   97   4.035   2.623   4.742
    1C        C   98   4.194   2.761   4.864
    1C        C   99   4.105   2.649   4.863
    1C        C  100   4.206   2.847   4.974
    1C        C  101   2.827   2.732   2.070
    1C        C  102   2.991   2.592   2.192
    1C        C  103   2.878   2.680   2.190
    1C        C  104   3.065   2.573   2.312
    1C        C  105   3.004   2.616   2.432
    1C        C  106   3.200   2.537   2.554
    1C        C  107   3.067   2.586   2.554
    1C        C  108   3.271   2.518   2.674
    1C        C  109   3.203   2.547   2.795
    1C        C  110   3.411   2.501   2.915
    1C        C  111   3.272   2.523   2.916
    1C        C  112   3.482   2.494   3.037
    1C        C  113   3.414   2.510   3.159
    1C        C  114   3.627   2.510   3.280
    1C        C  115   3.485   2.504   3.281
    1C        C  116   3.695   2.519   3.403
    1C        C  117   3.626   2.503   3.525
    1C        C  118   3.834   2.545   3.646
    1C        C  119   3.697   2.511   3.647
    1C        C  120   3.897   2.574   3.769
    1C        C  121   3.832   2.550   3.892
    1C        C  122   4.030   2.631   4.014
    1C        C  123   3.902   2.571   4.013
    1C        C  124   4.090   2.672   4.135
    1C        C  125   4.030   2.635   4.257
    1C        C  126   4.198   2.767   4.376
    1C        C  127   4.089   2.676   4.379
    1C        C  128   4.244   2.820   4.498
    1C        C  129   4.194   2.768   4.620
    1C        C  130   4.323   2.935   4.741
    1C        C  131   4.245   2.816   4.743
    1C        C  132   4.352   3.004   4.861
    1C        C  133   4.282   2.964   4.976
    1C        C  134   3.171   2.463   2.085
    1C        C  135   3.039   2.510   2.085
    1C        C  136   3.260   2.478   2.192
    1C        C  137   3.195   2.515   2.311
    1C        C  138   3.406   2.487   2.427
    1C        C  139   3.266   2.507   2.433
    1C        C  140   3.479   2.488   2.548
    1C        C  141   3.411   2.499   2.671
    1C        C  142   3.623   2.504   2.791
    1C        C  143   3.482   2.500   2.793
    1C        C  144   3.693   2.512   2.914
    1C        C  145   3.624   2.497   3.036
    1C        C  146   3.834   2.542   3.155
    1C        C  147   3.696   2.508   3.157
    1C        C  148   3.901   2.562   3.277
    1C        C  149   3.834   2.546   3.400
    1C        C  150   4.029   2.624   3.523
    1C        C  151   3.901   2.564   3.523
    1C        C  152   4.087   2.665   3.646
    1C        C  153   4.026   2.634   3.769
    1C        C  154   4.196   2.761   3.887
    1C        C  155   4.087   2.671   3.891
    1C        C  156   4.250   2.810   4.008
    1C        C  157   4.199   2.761   4.130
    1C        C  158   4.335   2.923   4.252
    1C        C  159   4.252   2.809   4.252
    1C        C  160   4.369   2.985   4.374
    1C        C  161   4.333   2.929   4.499
    1C        C  162   4.440   3.114   4.616
    1C        C  163   4.369   2.992   4.620
    1C        C  164   4.465   3.183   4.737
    1C        C  165   4.426   3.123   4.859
    1C        C  166   4.511   3.320   4.972
    1C        C  167   4.474   3.186   4.975
    1C        C  168   3.479   2.440   2.074
    1C        C  169   3.400   2.456   2.188
    1C        C  170   3.619   2.471   2.304
    1C        C  171   3.477   2.466   2.306
    1C        C  172   3.691   2.491   2.424
    1C        C  173   3.620   2.497   2.545
    1C        C  174   3.826   2.553   2.666
    1C        C  175   3.691   2.512   2.667
    1C        C  176   3.894   2.572   2.788
    1C        C  177   3.830   2.545   2.911
    1C        C  178   4.027   2.627   3.029
    1C        C  179   3.900   2.566   3.032
    1C        C  180   4.087   2.659   3.152
    1C        C  181   4.029   2.622   3.276
    1C        C  182   4.198   2.747   3.398
    1C        C  183   4.085   2.662   3.399
    1C        C  184   4.247   2.802   3.519
    1C        C  185   4.191   2.761   3.642
    1C        C  186   4.335   2.918   3.761
    1C        C  187   4.243   2.811   3.763
    1C        C  188   4.377   2.976   3.883
    1C        C  189   4.335   2.924   4.007
    1C        C  190   4.443   3.105   4.131
    1C        C  191   4.376   2.980   4.130
    1C        C  192   4.472   3.171   4.253
    1C        C  193   4.439   3.108   4.375
    1C        C  194   4.498   3.318   4.491
    1C        C  195   4.459   3.182   4.494
    1C        C  196   4.518   3.388   4.612
    1C        C  197   4.507   3.319   4.735
    1C        C  198   4.552   3.535   4.851
    1C        C  199   4.524   3.394   4.854
    1C        C  200   4.578   3.622   4.961
    1C        C  201   3.617   2.416   2.073
    1C        C  202   3.828   2.510   2.179
    1C        C  203   3.694   2.459   2.184
    1C        C  204   3.898   2.539   2.300
    1C        C  205   3.830   2.519   2.421
    1C        C  206   4.022   2.614   2.542
    1C        C  207   3.894   2.555   2.542
    1C        C  208   4.086   2.656   2.660
    1C        C  209   4.024   2.627   2.784
    1C        C  210   4.201   2.745   2.907
    1C        C  211   4.086   2.662   2.905
    1C        C  212   4.250   2.792   3.031
    1C        C  213   4.200   2.744   3.154
    1C        C  214   4.334   2.909   3.271
    1C        C  215   4.250   2.795   3.276
    1C        C  216   4.375   2.967   3.393
    1C        C  217   4.333   2.914   3.517
    1C        C  218   4.432   3.104   3.639
    1C        C  219   4.369   2.978   3.638
    1C        C  220   4.462   3.168   3.762
    1C        C  221   4.438   3.104   3.885
    1C        C  222   4.503   3.305   4.002
    1C        C  223   4.465   3.170   4.007
    1C        C  224   4.511   3.375   4.125
    1C        C  225   4.502   3.309   4.249
    1C        C  226   4.520   3.526   4.365
    1C        C  227   4.511   3.385   4.368
    1C        C  228   4.519   3.598   4.486
    1C        C  229   4.529   3.529   4.609
    1C        C  230   4.501   3.742   4.727
    1C        C  231   4.533   3.604   4.728
    1C        C  232   4.488   3.819   4.844
    1C        C  233   4.538   3.757   4.959
    1C        C  234   4.022   2.608   2.062
    1C        C  235   3.897   2.547   2.063
    1C        C  236   4.089   2.642   2.180
    1C        C  237   4.025   2.604   2.300
    1C        C  238   4.197   2.735   2.417
    1C        C  239   4.086   2.646   2.420
    1C        C  240   4.251   2.783   2.538
    1C        C  241   4.197   2.744   2.662
    1C        C  242   4.336   2.905   2.782
    1C        C  243   4.250   2.794   2.784
    1C        C  244   4.378   2.961   2.905
    1C        C  245   4.336   2.904   3.028
    1C        C  246   4.436   3.093   3.147
    1C        C  247   4.376   2.965   3.148
    1C        C  248   4.458   3.159   3.270
    1C        C  249   4.437   3.094   3.393
    1C        C  250   4.497   3.300   3.512
    1C        C  251   4.459   3.164   3.514
    1C        C  252   4.513   3.370   3.634
    1C        C  253   4.502   3.303   3.758
    1C        C  254   4.521   3.516   3.877
    1C        C  255   4.517   3.374   3.879
    1C        C  256   4.512   3.587   3.999
    1C        C  257   4.515   3.516   4.121
    1C        C  258   4.489   3.732   4.240
    1C        C  259   4.510   3.592   4.240
    1C        C  260   4.472   3.802   4.361
    1C        C  261   4.487   3.735   4.485
    1C        C  262   4.428   3.942   4.601
    1C        C  263   4.470   3.807   4.605
    1C        C  264   4.406   4.012   4.722
    1C        C  265   4.435   3.950   4.845
    1C        C  266   4.323   4.134   4.955
    1C        C  267   4.396   4.016   4.963
    1C        C  268   4.262   2.778   2.060
    1C        C  269   4.204   2.723   2.176
    1C        C  270   4.346   2.888   2.297
    1C        C  271   4.255   2.779   2.296
    1C        C  272   4.388   2.948   2.418
    1C        C  273   4.344   2.890   2.539
    1C        C  274   4.445   3.083   2.660
    1C        C  275   4.377   2.959   2.658
    1C        C  276   4.471   3.152   2.780
    1C        C  277   4.444   3.086   2.902
    1C        C  278   4.499   3.293   3.023
    1C        C  279   4.465   3.156   3.023
    1C        C  280   4.502   3.365   3.145
    1C        C  281   4.488   3.297   3.268
    1C        C  282   4.509   3.510   3.387
    1C        C  283   4.505   3.369   3.388
    1C        C  284   4.504   3.579   3.510
    1C        C  285   4.509   3.511   3.634
    1C        C  286   4.493   3.724   3.754
    1C        C  287   4.516   3.585   3.754
    1C        C  288   4.473   3.793   3.875
    1C        C  289   4.489   3.726   3.999
    1C        C  290   4.423   3.933   4.116
    1C        C  291   4.467   3.799   4.118
    1C        C  292   4.397   4.000   4.237
    1C        C  293   4.428   3.936   4.360
    1C        C  294   4.323   4.126   4.479
    1C        C  295   4.398   4.006   4.479
    1C        C  296   4.283   4.189   4.598
    1C        C  297   4.330   4.132   4.718
    1C        C  298   4.203   4.314   4.837
    1C        C  299   4.291   4.201   4.836
    1C        C  300   4.169   4.401   4.945
    1C        C  301   4.353   2.883   2.059
    1C        C  302   4.466   3.070   2.176
    1C        C  303   4.396   2.945   2.177
    1C        C  304   4.484   3.143   2.297
    1C        C  305   4.450   3.075   2.416
    1C        C  306   4.508   3.282   2.532
    1C        C  307   4.476   3.145   2.536
    1C        C  308   4.512   3.355   2.654
    1C        C  309   4.500   3.290   2.779
    1C        C  310   4.521   3.501   2.895
    1C        C  311   4.517   3.360   2.900
    1C        C  312   4.519   3.573   3.017
    1C        C  313   4.517   3.505   3.141
    1C        C  314   4.483   3.716   3.265
    1C        C  315   4.506   3.576   3.262
    1C        C  316   4.469   3.786   3.387
    1C        C  317   4.485   3.719   3.510
    1C        C  318   4.433   3.926   3.628
    1C        C  319   4.476   3.792   3.631
    1C        C  320   4.396   3.989   3.749
    1C        C  321   4.422   3.925   3.873
    1C        C  322   4.316   4.114   3.989
    1C        C  323   4.391   3.994   3.992
    1C        C  324   4.279   4.173   4.112
    1C        C  325   4.326   4.122   4.235
    1C        C  326   4.184   4.283   4.355
    1C        C  327   4.281   4.180   4.355
    1C        C  328   4.133   4.341   4.473
    1C        C  329   4.190   4.296   4.594
    1C        C  330   4.028   4.437   4.715
    1C        C  331   4.142   4.353   4.714
    1C        C  332   3.971   4.491   4.832
    1C        C  333   4.053   4.480   4.945
    1C        C  334   4.550   3.265   2.059
    1C        C  335   4.532   3.126   2.062
    1C        C  336   4.539   3.351   2.170
    1C        C  337   4.515   3.281   2.290
    1C        C  338   4.518   3.495   2.413
    1C        C  339   4.518   3.354   2.411
    1C        C  340   4.518   3.571   2.532
    1C        C  341   4.519   3.496   2.652
    1C        C  342   4.491   3.708   2.775
    1C        C  343   4.521   3.570   2.772
    1C        C  344   4.476   3.778   2.897
    1C        C  345   4.497   3.712   3.020
    1C        C  346   4.427   3.916   3.134
    1C        C  347   4.471   3.782   3.141
    1C        C  348   4.396   3.981   3.256
    1C        C  349   4.421   3.919   3.381
    1C        C  350   4.322   4.103   3.501
    1C        C  351   4.400   3.985   3.504
    1C        C  352   4.278   4.164   3.620
    1C        C  353   4.320   4.108   3.743
    1C        C  354   4.180   4.269   3.865
    1C        C  355   4.279   4.169   3.864
    1C        C  356   4.123   4.312   3.987
    1C        C  357   4.178   4.271   4.111
    1C        C  358   4.015   4.409   4.230
    1C        C  359   4.130   4.327   4.232
    1C        C  360   3.955   4.455   4.349
    1C        C  361   4.017   4.422   4.471
    1C        C  362   3.830   4.516   4.595
    1C        C  363   3.962   4.465   4.594
    1C        C  364   3.763   4.545   4.716
    1C        C  365   3.838   4.540   4.835
    1C        C  366   3.626   4.585   4.957
    1C        C  367   3.764   4.574   4.949
    1C        C  368   4.506   3.564   2.052
    1C        C  369   4.526   3.491   2.170
    1C        C  370   4.496   3.705   2.290
    1C        C  371   4.515   3.565   2.290
    1C        C  372   4.480   3.780   2.409
    1C        C  373   4.498   3.711   2.531
    1C        C  374   4.427   3.911   2.648
    1C        C  375   4.476   3.778   2.653
    1C        C  376   4.394   3.975   2.770
    1C        C  377   4.428   3.911   2.892
    1C        C  378   4.325   4.100   3.009
    1C        C  379   4.402   3.981   3.012
    1C        C  380   4.278   4.153   3.131
    1C        C  381   4.317   4.098   3.255
    1C        C  382   4.179   4.258   3.379
    1C        C  383   4.277   4.156   3.378
    1C        C  384   4.124   4.309   3.499
    1C        C  385   4.182   4.267   3.621
    1C        C  386   4.009   4.392   3.742
    1C        C  387   4.126   4.314   3.742
    1C        C  388   3.949   4.432   3.864
    1C        C  389   4.008   4.394   3.986
    1C        C  390   3.820   4.492   4.106
    1C        C  391   3.949   4.434   4.108
    1C        C  392   3.753   4.514   4.229
    1C        C  393   3.822   4.504   4.352
    1C        C  394   3.618   4.553   4.475
    1C        C  395   3.757   4.531   4.474
    1C        C  396   3.549   4.566   4.597
    1C        C  397   3.623   4.567   4.717
    1C        C  398   3.412   4.547   4.839
    1C        C  399   3.551   4.574   4.838
    1C        C  400   3.344   4.510   4.955
    1C        C  401   4.497   3.703   2.053
    1C        C  402   4.450   3.915   2.167
    1C        C  403   4.486   3.779   2.170
    1C        C  404   4.414   3.985   2.285
    1C        C  405   4.437   3.914   2.405
    1C        C  406   4.323   4.094   2.524
    1C        C  407   4.400   3.976   2.526
    1C        C  408   4.281   4.154   2.645
    1C        C  409   4.321   4.095   2.766
    1C        C  410   4.176   4.252   2.888
    1C        C  411   4.276   4.152   2.888
    1C        C  412   4.127   4.299   3.012
    1C        C  413   4.181   4.256   3.135
    1C        C  414   4.005   4.377   3.252
    1C        C  415   4.126   4.304   3.256
    1C        C  416   3.941   4.409   3.374
    1C        C  417   4.001   4.377   3.498
    1C        C  418   3.813   4.474   3.618
    1C        C  419   3.943   4.419   3.620
    1C        C  420   3.749   4.501   3.741
    1C        C  421   3.818   4.484   3.864
    1C        C  422   3.611   4.533   3.988
    1C        C  423   3.751   4.512   3.985
    1C        C  424   3.543   4.545   4.111
    1C        C  425   3.615   4.541   4.233
    1C        C  426   3.402   4.544   4.356
    1C        C  427   3.543   4.552   4.354
    1C        C  428   3.334   4.536   4.480
    1C        C  429   3.409   4.552   4.599
    1C        C  430   3.197   4.514   4.723
    1C        C  431   3.336   4.545   4.720
    1C        C  432   3.126   4.493   4.844
    1C        C  433   3.207   4.483   4.957
    1C        C  434   4.376   4.116   2.048
    1C        C  435   4.435   3.989   2.049
    1C        C  436   4.296   4.159   2.158
    1C        C  437   4.336   4.104   2.282
    1C        C  438   4.182   4.254   2.402
    1C        C  439   4.285   4.156   2.403
    1C        C  440   4.125   4.300   2.522
    1C        C  441   4.182   4.255   2.644
    1C        C  442   4.006   4.377   2.768
    1C        C  443   4.121   4.294   2.765
    1C        C  444   3.945   4.411   2.890
    1C        C  445   4.010   4.379   3.011
    1C        C  446   3.813   4.467   3.131
    1C        C  447   3.943   4.414   3.131
    1C        C  448   3.747   4.492   3.254
    1C        C  449   3.814   4.470   3.376
    1C        C  450   3.607   4.530   3.497
    1C        C  451   3.745   4.497   3.496
    1C        C  452   3.541   4.539   3.622
    1C        C  453   3.611   4.532   3.744
    1C        C  454   3.399   4.543   3.868
    1C        C  455   3.540   4.538   3.866
    1C        C  456   3.331   4.531   3.991
    1C        C  457   3.402   4.540   4.112
    1C        C  458   3.195   4.498   4.237
    1C        C  459   3.332   4.533   4.235
    1C        C  460   3.128   4.484   4.361
    1C        C  461   3.197   4.502   4.483
    1C        C  462   2.998   4.428   4.601
    1C        C  463   3.128   4.483   4.604
    1C        C  464   2.929   4.405   4.722
    1C        C  465   2.990   4.446   4.844
    1C        C  466   2.804   4.338   4.960
    1C        C  467   2.907   4.432   4.960
    1C        C  468   4.122   4.282   2.037
    1C        C  469   4.183   4.248   2.158
    1C        C  470   4.010   4.376   2.277
    1C        C  471   4.130   4.300   2.279
    1C        C  472   3.944   4.405   2.399
    1C        C  473   4.009   4.380   2.522
    1C        C  474   3.813   4.461   2.643
    1C        C  475   3.946   4.412   2.645
    1C        C  476   3.748   4.486   2.766
    1C        C  477   3.814   4.464   2.888
    1C        C  478   3.606   4.518   3.009
    1C        C  479   3.744   4.486   3.009
    1C        C  480   3.538   4.531   3.131
    1C        C  481   3.609   4.523   3.253
    1C        C  482   3.396   4.530   3.378
    1C        C  483   3.537   4.534   3.375
    1C        C  484   3.326   4.533   3.501
    1C        C  485   3.400   4.538   3.621
    1C        C  486   3.193   4.504   3.745
    1C        C  487   3.331   4.534   3.744
    1C        C  488   3.128   4.477   3.868
    1C        C  489   3.194   4.497   3.991
    1C        C  490   3.001   4.415   4.114
    1C        C  491   3.130   4.472   4.115
    1C        C  492   2.940   4.383   4.238
    1C        C  493   2.998   4.428   4.359
    1C        C  494   2.827   4.300   4.484
    1C        C  495   2.935   4.390   4.480
    1C        C  496   2.772   4.256   4.607
    1C        C  497   2.821   4.313   4.727
    1C        C  498   2.666   4.165   4.846
    1C        C  499   2.755   4.274   4.846
    1C        C  500   2.595   4.115   4.956
    1C        C  501   4.008   4.360   2.038
    1C        C  502   3.815   4.459   2.159
    1C        C  503   3.946   4.407   2.155
    1C        C  504   3.742   4.480   2.278
    1C        C  505   3.811   4.451   2.398
    1C        C  506   3.607   4.507   2.522
    1C        C  507   3.745   4.475   2.521
    1C        C  508   3.536   4.517   2.644
    1C        C  509   3.609   4.514   2.764
    1C        C  510   3.396   4.531   2.889
    1C        C  511   3.538   4.525   2.886
    1C        C  512   3.324   4.523   3.010
    1C        C  513   3.396   4.533   3.131
    1C        C  514   3.190   4.493   3.255
    1C        C  515   3.328   4.524   3.254
    1C        C  516   3.124   4.470   3.378
    1C        C  517   3.190   4.493   3.500
    1C        C  518   3.000   4.408   3.625
    1C        C  519   3.126   4.472   3.625
    1C        C  520   2.942   4.371   3.748
    1C        C  521   3.004   4.409   3.870
    1C        C  522   2.834   4.285   3.996
    1C        C  523   2.943   4.374   3.992
    1C        C  524   2.786   4.237   4.120
    1C        C  525   2.831   4.295   4.241
    1C        C  526   2.688   4.138   4.367
    1C        C  527   2.776   4.249   4.363
    1C        C  528   2.649   4.078   4.488
    1C        C  529   2.688   4.142   4.608
    1C        C  530   2.578   3.961   4.732
    1C        C  531   2.636   4.091   4.729
    1C        C  532   2.531   3.903   4.853
    1C        C  533   2.519   3.998   4.960
    1C        C  534   3.619   4.551   2.036
    1C        C  535   3.752   4.505   2.043
    1C        C  536   3.540   4.538   2.155
    1C        C  537   3.605   4.518   2.280
    1C        C  538   3.394   4.514   2.400
    1C        C  539   3.535   4.523   2.402
    1C        C  540   3.326   4.504   2.523
    1C        C  541   3.394   4.518   2.646
    1C        C  542   3.187   4.483   2.767
    1C        C  543   3.324   4.519   2.768
    1C        C  544   3.121   4.459   2.889
    1C        C  545   3.190   4.478   3.010
    1C        C  546   2.999   4.395   3.137
    1C        C  547   3.124   4.462   3.134
    1C        C  548   2.940   4.360   3.260
    1C        C  549   3.000   4.402   3.381
    1C        C  550   2.833   4.275   3.506
    1C        C  551   2.942   4.365   3.504
    1C        C  552   2.784   4.225   3.629
    1C        C  553   2.835   4.279   3.749
    1C        C  554   2.706   4.118   3.878
    1C        C  555   2.783   4.237   3.873
    1C        C  556   2.666   4.060   4.001
    1C        C  557   2.705   4.121   4.122
    1C        C  558   2.600   3.942   4.245
    1C        C  559   2.665   4.067   4.247
    1C        C  560   2.567   3.880   4.368
    1C        C  561   2.590   3.950   4.489
    1C        C  562   2.530   3.750   4.616
    1C        C  563   2.566   3.887   4.613
    1C        C  564   2.520   3.681   4.739
    1C        C  565   2.522   3.760   4.858
    1C        C  566   2.527   3.547   4.978
    1C        C  567   2.524   3.686   4.976
    1C        C  568   3.330   4.473   2.044
    1C        C  569   3.400   4.512   2.158
    1C        C  570   3.185   4.479   2.278
    1C        C  571   3.323   4.511   2.278
    1C        C  572   3.121   4.451   2.401
    1C        C  573   3.188   4.471   2.523
    1C        C  574   2.989   4.404   2.648
    1C        C  575   3.119   4.458   2.645
    1C        C  576   2.929   4.364   2.770
    1C        C  577   2.995   4.394   2.891
    1C        C  578   2.826   4.272   3.017
    1C        C  579   2.941   4.355   3.015
    1C        C  580   2.773   4.225   3.139
    1C        C  581   2.830   4.271   3.260
    1C        C  582   2.697   4.110   3.386
    1C        C  583   2.784   4.221   3.385
    1C        C  584   2.658   4.055   3.510
    1C        C  585   2.697   4.114   3.632
    1C        C  586   2.598   3.933   3.757
    1C        C  587   2.665   4.057   3.757
    1C        C  588   2.571   3.869   3.879
    1C        C  589   2.597   3.937   4.000
    1C        C  590   2.536   3.737   4.129
    1C        C  591   2.576   3.873   4.124
    1C        C  592   2.522   3.671   4.253
    1C        C  593   2.534   3.743   4.374
    1C        C  594   2.510   3.534   4.499
    1C        C  595   2.520   3.675   4.497
    1C        C  596   2.515   3.463   4.621
    1C        C  597   2.518   3.539   4.740
    1C        C  598   2.533   3.328   4.864
    1C        C  599   2.523   3.469   4.862
    1C        C  600   2.530   3.248   4.979
    1C        C  601   3.197   4.436   2.043
    1C        C  602   2.982   4.397   2.161
    1C        C  603   3.117   4.445   2.157
    1C        C  604   2.927   4.358   2.286
    1C        C  605   2.994   4.390   2.406
    1C        C  606   2.819   4.272   2.529
    1C        C  607   2.928   4.362   2.528
    1C        C  608   2.771   4.220   2.651
    1C        C  609   2.816   4.278   2.772
    1C        C  610   2.684   4.114   2.895
    1C        C  611   2.773   4.224   2.895
    1C        C  612   2.647   4.055   3.017
    1C        C  613   2.687   4.113   3.139
    1C        C  614   2.591   3.928   3.267
    1C        C  615   2.656   4.053   3.264
    1C        C  616   2.567   3.864   3.391
    1C        C  617   2.598   3.927   3.513
    1C        C  618   2.532   3.728   3.638
    1C        C  619   2.573   3.863   3.636
    1C        C  620   2.512   3.663   3.761
    1C        C  621   2.532   3.733   3.883
    1C        C  622   2.512   3.526   4.010
    1C        C  623   2.519   3.667   4.007
    1C        C  624   2.512   3.459   4.134
    1C        C  625   2.509   3.530   4.256
    1C        C  626   2.538   3.321   4.378
    1C        C  627   2.512   3.460   4.379
    1C        C  628   2.557   3.254   4.501
    1C        C  629   2.535   3.323   4.623
    1C        C  630   2.594   3.119   4.748
    1C        C  631   2.547   3.254   4.745
    1C        C  632   2.615   3.046   4.868
    1C        C  633   2.559   3.111   4.983
    1C        C  634   2.779   4.305   2.058
    1C        C  635   2.894   4.383   2.049
    1C        C  636   2.746   4.231   2.172
    1C        C  637   2.811   4.275   2.289
    1C        C  638   2.679   4.107   2.409
    1C        C  639   2.763   4.221   2.410
    1C        C  640   2.643   4.049   2.533
    1C        C  641   2.684   4.109   2.654
    1C        C  642   2.584   3.923   2.778
    1C        C  643   2.642   4.051   2.776
    1C        C  644   2.561   3.856   2.901
    1C        C  645   2.589   3.926   3.021
    1C        C  646   2.530   3.725   3.146
    1C        C  647   2.572   3.860   3.145
    1C        C  648   2.519   3.657   3.270
    1C        C  649   2.537   3.725   3.392
    1C        C  650   2.510   3.518   3.520
    1C        C  651   2.522   3.658   3.515
    1C        C  652   2.515   3.451   3.645
    1C        C  653   2.512   3.522   3.767
    1C        C  654   2.533   3.312   3.890
    1C        C  655   2.513   3.452   3.890
    1C        C  656   2.551   3.249   4.015
    1C        C  657   2.534   3.319   4.136
    1C        C  658   2.606   3.119   4.258
    1C        C  659   2.552   3.249   4.257
    1C        C  660   2.634   3.056   4.382
    1C        C  661   2.600   3.120   4.504
    1C        C  662   2.700   2.934   4.624
    1C        C  663   2.629   3.057   4.627
    1C        C  664   2.746   2.876   4.743
    1C        C  665   2.698   2.930   4.866
    1C        C  666   2.743   2.870   4.984
    1C        C  667   2.689   4.022   2.056
    1C        C  668   2.684   4.104   2.170
    1C        C  669   2.584   3.912   2.291
    1C        C  670   2.641   4.043   2.290
    1C        C  671   2.558   3.849   2.414
    1C        C  672   2.584   3.920   2.534
    1C        C  673   2.519   3.720   2.657
    1C        C  674   2.561   3.855   2.657
    1C        C  675   2.512   3.650   2.780
    1C        C  676   2.525   3.720   2.902
    1C        C  677   2.505   3.511   3.030
    1C        C  678   2.515   3.652   3.026
    1C        C  679   2.508   3.444   3.154
    1C        C  680   2.506   3.516   3.276
    1C        C  681   2.531   3.308   3.398
    1C        C  682   2.503   3.447   3.399
    1C        C  683   2.547   3.242   3.522
    1C        C  684   2.528   3.310   3.645
    1C        C  685   2.596   3.111   3.769
    1C        C  686   2.546   3.243   3.767
    1C        C  687   2.632   3.051   3.892
    1C        C  688   2.602   3.117   4.013
    1C        C  689   2.716   2.939   4.141
    1C        C  690   2.636   3.055   4.136
    1C        C  691   2.757   2.882   4.263
    1C        C  692   2.712   2.939   4.384
    1C        C  693   2.757   2.882   4.506
    1C        C  694   2.631   3.895   2.058
    1C        C  695   2.527   3.704   2.174
    1C        C  696   2.572   3.838   2.171
    1C        C  697   2.508   3.639   2.297
    1C        C  698   2.518   3.714   2.417
    1C        C  699   2.487   3.506   2.542
    1C        C  700   2.496   3.646   2.539
    1C        C  701   2.501   3.436   2.664
    1C        C  702   2.502   3.509   2.785
    1C        C  703   2.521   3.300   2.909
    1C        C  704   2.502   3.440   2.908
    1C        C  705   2.539   3.232   3.031
    1C        C  706   2.525   3.304   3.152
    1C        C  707   2.596   3.107   3.279
    1C        C  708   2.548   3.240   3.276
    1C        C  709   2.631   3.047   3.402
    1C        C  710   2.597   3.110   3.524
    1C        C  711   2.711   2.933   3.649
    1C        C  712   2.632   3.049   3.647
    1C        C  713   2.757   2.879   3.771
    1C        C  714   2.714   2.936   3.893
    1C        C  715   2.753   2.880   4.017
    1C        C  716   2.448   3.500   2.066
    1C        C  717   2.494   3.632   2.058
    1C        C  718   2.467   3.422   2.185
    1C        C  719   2.487   3.498   2.303
    1C        C  720   2.515   3.288   2.423
    1C        C  721   2.490   3.427   2.425
    1C        C  722   2.538   3.223   2.546
    1C        C  723   2.528   3.297   2.666
    1C        C  724   2.588   3.095   2.791
    1C        C  725   2.540   3.228   2.789
    1C        C  726   2.623   3.036   2.914
    1C        C  727   2.593   3.101   3.036
    1C        C  728   2.702   2.921   3.161
    1C        C  729   2.624   3.039   3.158
    1C        C  730   2.749   2.867   3.283
    1C        C  731   2.711   2.930   3.403
    1C        C  732   2.754   2.877   3.526
    1C        C  733   2.500   3.202   2.067
    1C        C  734   2.490   3.281   2.183
    1C        C  735   2.581   3.084   2.304
    1C        C  736   2.522   3.213   2.304
    1C        C  737   2.617   3.021   2.426
    1C        C  738   2.588   3.091   2.545
    1C        C  739   2.695   2.912   2.670
    1C        C  740   2.619   3.030   2.669
    1C        C  741   2.733   2.854   2.793
    1C        C  742   2.694   2.914   2.915
    1C        C  743   2.742   2.863   3.038
    1C        C  744   2.544   3.071   2.071
    1C        C  745   2.683   2.896   2.184
    1C        C  746   2.608   3.016   2.183
    1C        C  747   2.728   2.838   2.305
    1C        C  748   2.690   2.900   2.426
    1C        C  749   2.737   2.851   2.549
    1C        C  750   2.738   2.840   2.069
    1C        C  751   3.663   2.296   1.999
    1C        O  752   3.670   2.182   2.052
    1C        O  753   3.652   2.303   1.859
    1C        C  754   4.615   3.041   1.973
    1C        O  755   4.573   3.005   1.860
    1C        O  756   4.754   3.033   1.979
    1C        C  757   4.440   4.213   1.955
    1C        O  758   4.548   4.270   1.985
    1C        O  759   4.377   4.233   1.832
    1C        C  760   3.587   4.657   1.938
    1C        O  761   3.649   4.766   1.925
    1C        O  762   3.538   4.615   1.813
    1C        C  763   2.896   4.479   1.936
    1C        O  764   2.942   4.449   1.822
    1C        O  765   2.889   4.618   1.948
    1C        C  766   2.326   3.475   1.987
    1C        O  767   2.338   3.427   1.870
    1C        O  768   2.195   3.499   2.029
    1C        C  769   4.649   3.604   5.090
    1C        O  770   4.591   3.589   5.201
    1C        O  771   4.786   3.576   5.093
    1C        C  772   4.282   4.460   5.020
    1C        O  773   4.268   4.478   5.144
    1C        O  774   4.361   4.561   4.963
    1C        C  775   4.132   2.535   5.096
    1C        O  776   4.235   2.466   5.073
    1C        O  777   4.113   2.575   5.229
    1C        C  778   2.865   4.560   5.023
    1C        O  779   2.792   4.653   4.981
    1C        O  780   2.917   4.587   5.150
    1C        C  781   2.460   3.045   5.071
    1C        O  782   2.344   3.007   5.039
    1C        O  783   2.489   3.035   5.207
    1C        C  784   2.402   4.005   5.050
    1C        O  785   2.280   4.003   5.017
    1C        O  786   2.414   4.006   5.190
    1C        C  787   2.944   2.422   2.012
    1C        O  788   2.931   2.442   1.888
    1C        O  789   2.917   2.288   2.037
    1C        C  790   3.192   2.390   5.076
    1C        O  791   3.189   2.269   5.042
    1C        O  792   3.196   2.405   5.215
    1C        H  793   4.327   2.981   5.071
    1C        H  794   4.175   2.816   5.071
    1C        H  795   4.468   3.142   5.073
    1C        H  796   4.576   3.352   5.050
    1C        H  797   4.591   3.819   5.028
    1C        H  798   4.460   4.009   5.049
    1C        H  799   4.250   4.157   5.030
    1C        H  800   4.018   4.518   5.039
    1C        H  801   3.821   4.618   5.029
    1C        H  802   3.586   4.636   5.042
    1C        H  803   3.399   4.449   5.024
    1C        H  804   3.158   4.511   5.048
    1C        H  805   3.876   2.519   5.073
    1C        H  806   3.674   2.535   5.067
    1C        H  807   3.013   2.573   5.066
    1C        H  808   3.451   2.456   5.077
    1C        H  809   2.890   2.760   5.082
    1C        H  810   2.721   2.922   5.075
    1C        H  811   2.552   3.294   5.074
    1C        H  812   2.531   3.498   5.073
    1C        H  813   2.487   3.731   5.066
    1C        H  814   2.596   4.170   5.048
    1C        H  815   2.759   4.312   5.054
    1C        H  816   2.747   2.902   1.983
    1C        H  817   2.815   2.670   1.984
    1C        H  818   3.202   2.384   2.020
    1C        H  819   3.450   2.507   1.995
    1C        H  820   3.843   2.552   1.970
    1C        H  821   4.057   2.634   1.964
    1C        H  822   4.260   2.721   1.970
    1C        H  823   4.366   2.935   1.967
    1C        H  824   4.556   3.303   1.960
    1C        H  825   4.532   3.519   1.959
    1C        H  826   4.528   3.753   1.963
    1C        H  827   3.819   4.545   1.970
    1C        H  828   3.960   4.388   1.946
    1C        H  829   4.135   4.220   1.950
    1C        H  830   4.443   3.942   1.953
    1C        H  831   2.598   3.856   1.964
    1C        H  832   2.727   4.064   1.965
    1C        H  833   2.713   4.299   1.973
    1C        H  834   3.368   4.486   1.944
    1C        H  835   3.151   4.423   1.947
    1C        H  836   2.560   3.030   1.973
    1C        H  837   2.441   3.226   1.981
    1C        H  838   2.550   3.652   1.969
    2V3OU   H29  839   2.799   3.556   1.439
    2V3OU   C27  840   2.783   3.505   1.537
    2V3OU   H27  841   2.723   3.573   1.602
    2V3OU   H28  842   2.737   3.403   1.525
    2V3OU   O11  843   2.909   3.479   1.601
    2V3OU   C15  844   2.920   3.394   1.709
    2V3OU   C13  845   3.052   3.378   1.759
    2V3OU   C14  846   3.078   3.270   1.844
    2V3OU   C16  847   2.973   3.188   1.883
    2V3OU    H6  848   2.990   3.111   1.959
    2V3OU   C12  849   3.217   3.229   1.874
    2V3OU    O2  850   3.238   3.124   1.940
    2V3OU   C10  851   3.329   3.311   1.825
    2V3OU    C8  852   3.460   3.277   1.857
    2V3OU   O10  853   3.492   3.162   1.923
    2V3OU   H26  854   3.410   3.124   1.959
    2V3OU    C6  855   3.569   3.354   1.805
    2V3OU    C5  856   3.541   3.466   1.726
    2V3OU    C4  857   3.704   3.294   1.792
    2V3OU    H4  858   3.725   3.230   1.882
    2V3OU    H5  859   3.712   3.227   1.701
    2V3OU    C2  860   3.815   3.400   1.788
    2V3OU    O6  861   3.801   3.474   1.909
    2V3OU   H21  862   3.762   3.558   1.880
    2V3OU    C3  863   3.782   3.498   1.676
    2V3OU    H2  864   3.863   3.576   1.675
    2V3OU    H3  865   3.782   3.443   1.579
    2V3OU   C25  866   3.949   3.327   1.782
    2V3OU    O7  867   3.995   3.297   1.672
    2V3OU   C26  868   4.022   3.287   1.909
    2V3OU   H22  869   4.063   3.380   1.955
    2V3OU   H23  870   4.110   3.222   1.884
    2V3OU    O8  871   3.960   3.213   2.012
    2V3OU   H24  872   3.923   3.271   2.080
    2V3OU    C1  873   3.647   3.566   1.693
    2V3OU    H1  874   3.624   3.620   1.597
    2V3OU    O3  875   3.663   3.655   1.804
    2V3OU   C19  876   3.622   3.791   1.791
    2V3OU    H9  877   3.520   3.803   1.744
    2V3OU    O4  878   3.713   3.849   1.699
    2V3OU   C20  879   3.840   3.879   1.755
    2V3OU   H10  880   3.897   3.782   1.766
    2V3OU   C24  881   3.611   3.852   1.930
    2V3OU   H16  882   3.548   3.790   1.999
    2V3OU   H17  883   3.559   3.951   1.920
    2V3OU   C23  884   3.749   3.874   1.993
    2V3OU   H15  885   3.788   3.770   2.016
    2V3OU    N1  886   3.734   3.959   2.110
    2V3OU   H19  887   3.815   3.927   2.159
    2V3OU   H20  888   3.652   3.927   2.157
    2V3OU   C21  889   3.840   3.949   1.891
    2V3OU   H11  890   3.944   3.922   1.925
    2V3OU    O5  891   3.827   4.090   1.904
    2V3OU   H18  892   3.783   4.106   1.989
    2V3OU   C22  893   3.911   3.952   1.642
    2V3OU   H12  894   3.859   4.049   1.619
    2V3OU   H13  895   3.901   3.892   1.548
    2V3OU   H14  896   4.021   3.960   1.658
    2V3OU   C11  897   3.160   3.470   1.724
    2V3OU    O1  898   3.140   3.590   1.693
    2V3OU    C9  899   3.299   3.426   1.748
    2V3OU    C7  900   3.405   3.500   1.696
    2V3OU    O9  901   3.392   3.622   1.634
    2V3OU   H25  902   3.296   3.634   1.639
    2V3OU   C17  903   2.814   3.317   1.761
    2V3OU    H7  904   2.711   3.344   1.740
    2V3OU   C18  905   2.841   3.212   1.849
    2V3OU    H8  906   2.764   3.153   1.901
    3SOL     OW  907   1.446   3.373   1.555
    3SOL    HW1  908   1.370   3.408   1.502
    3SOL    HW2  909   1.511   3.326   1.495
    4SOL     OW  910   5.916   0.451   1.720
    4SOL    HW1  911   5.852   0.388   1.762
    4SOL    HW2  912   5.884   0.476   1.628
    5SOL     OW  913   3.816   1.850   0.834
    5SOL    HW1  914   3.831   1.756   0.865
    5SOL    HW2  915   3.732   1.885   0.875
    6SOL     OW  916   2.790   1.836   1.941
    6SOL    HW1  917   2.857   1.909   1.956
    6SOL    HW2  918   2.734   1.825   2.024
    7SOL     OW  919   5.730   1.665   2.312
    7SOL    HW1  920   5.820   1.704   2.329
    7SOL    HW2  921   5.662   1.738   2.307
    8SOL     OW  922   2.705   1.022   4.077
    8SOL    HW1  923   2.654   0.968   4.011
    8SOL    HW2  924   2.680   0.994   4.170
    9SOL     OW  925   1.393   4.064   5.928
    9SOL    HW1  926   1.298   4.034   5.922
    9SOL    HW2  927   1.434   4.026   6.011
   10SOL     OW  928   0.996   4.285   6.512
   10SOL    HW1  929   1.038   4.333   6.589
   10SOL    HW2  930   0.902   4.317   6.500
   11SOL     OW  931   4.005   6.674   0.275
   11SOL    HW1  932   4.023   6.620   0.193
   11SOL    HW2  933   4.085   6.671   0.335
   12SOL     OW  934   5.529   6.059   2.496
   12SOL    HW1  935   5.557   6.133   2.434
   12SOL    HW2  936   5.547   6.086   2.591
   13SOL     OW  937   2.605   6.244   3.554
   13SOL    HW1  938   2.595   6.314   3.625
   13SOL    HW2  939   2.608   6.288   3.464
   14SOL     OW  940   3.859   6.480   0.926
   14SOL    HW1  941   3.908   6.486   1.012
   14SOL    HW2  942   3.794   6.404   0.929
   15SOL     OW  943   1.427   6.633   6.733
   15SOL    HW1  944   1.421   6.572   6.812
   15SOL    HW2  945   1.383   6.720   6.755
   16SOL     OW  946   6.232   2.602   6.029
   16SOL    HW1  947   6.178   2.636   6.106
   16SOL    HW2  948   6.316   2.560   6.063
   17SOL     OW  949   5.260   6.619   4.156
   17SOL    HW1  950   5.217   6.701   4.118
   17SOL    HW2  951   5.191   6.550   4.174
   18SOL     OW  952   1.749   1.882   5.787
   18SOL    HW1  953   1.684   1.820   5.833
   18SOL    HW2  954   1.727   1.886   5.689
   19SOL     OW  955   0.548   0.082   2.280
   19SOL    HW1  956   0.534   0.041   2.370
   19SOL    HW2  957   0.552   0.182   2.289
   20SOL     OW  958   3.671   1.794   3.977
   20SOL    HW1  959   3.575   1.768   3.977
   20SOL    HW2  960   3.704   1.802   3.883
   21SOL     OW  961   2.955   1.940   1.413
   21SOL    HW1  962   2.927   1.871   1.347
   21SOL    HW2  963   2.910   1.923   1.501
   22SOL     OW  964   1.807   6.451   5.638
   22SOL    HW1  965   1.805   6.366   5.690
   22SOL    HW2  966   1.898   6.464   5.598
   23SOL     OW  967   4.341   6.319   4.497
   23SOL    HW1  968   4.304   6.244   4.551
   23SOL    HW2  969   4.382   6.387   4.558
   24SOL     OW  970   5.225   1.470   5.162
   24SOL    HW1  971   5.203   1.396   5.098
   24SOL    HW2  972   5.304   1.443   5.218
   25SOL     OW  973   3.959   5.673   0.754
   25SOL    HW1  974   3.994   5.616   0.680
   25SOL    HW2  975   3.879   5.628   0.796
   26SOL     OW  976   6.473   1.211   2.167
   26SOL    HW1  977   6.537   1.148   2.211
   26SOL    HW2  978   6.502   1.227   2.073
   27SOL     OW  979   6.254   0.124   2.777
   27SOL    HW1  980   6.254   0.182   2.696
   27SOL    HW2  981   6.258   0.028   2.750
   28SOL     OW  982   3.982   0.768   0.039
   28SOL    HW1  983   3.965   0.773   6.965
   28SOL    HW2  984   3.911   0.819   0.088
   29SOL     OW  985   4.483   2.478   1.266
   29SOL    HW1  986   4.457   2.565   1.223
   29SOL    HW2  987   4.495   2.492   1.364
   30SOL     OW  988   3.228   1.147   4.889
   30SOL    HW1  989   3.171   1.194   4.822
   30SOL    HW2  990   3.324   1.149   4.859
   31SOL     OW  991   0.775   1.107   5.088
   31SOL    HW1  992   0.871   1.132   5.074
   31SOL    HW2  993   0.732   1.172   5.150
   32SOL     OW  994   0.309   2.184   1.597
   32SOL    HW1  995   0.369   2.262   1.616
   32SOL    HW2  996   0.281   2.188   1.501
   33SOL     OW  997   1.722   2.791   6.282
   33SOL    HW1  998   1.691   2.840   6.363
   33SOL    HW2  999   1.755   2.856   6.214
   34SOL     OW 1000   1.732   0.244   4.543
   34SOL    HW1 1001   1.646   0.201   4.569
   34SOL    HW2 1002   1.803   0.218   4.609
   35SOL     OW 1003   5.330   1.469   6.935
   35SOL    HW1 1004   5.386   1.520   6.870
   35SOL    HW2 1005   5.257   1.528   6.970
   36SOL     OW 1006   1.808   1.614   5.278
   36SOL    HW1 1007   1.797   1.713   5.290
   36SOL    HW2 1008   1.866   1.578   5.351
   37SOL     OW 1009   3.427   6.677   1.451
   37SOL    HW1 1010   3.447   6.703   1.356
   37SOL    HW2 1011   3.484   6.730   1.513
   38SOL     OW 1012   0.052   6.381   3.095
   38SOL    HW1 1013   0.012   6.448   3.157
   38SOL    HW2 1014   0.150   6.374   3.111
   39SOL     OW 1015   6.790   3.236   5.136
   39SOL    HW1 1016   6.797   3.301   5.211
   39SOL    HW2 1017   6.698   3.239   5.096
   40SOL     OW 1018   6.493   0.810   2.348
   40SOL    HW1 1019   6.425   0.777   2.283
   40SOL    HW2 1020   6.449   0.867   2.417
   41SOL     OW 1021   1.237   6.546   5.319
   41SOL    HW1 1022   1.147   6.581   5.295
   41SOL    HW2 1023   1.273   6.598   5.397
   42SOL     OW 1024   3.538   0.308   0.178
   42SOL    HW1 1025   3.527   0.209   0.177
   42SOL    HW2 1026   3.455   0.351   0.214
   43SOL     OW 1027   5.500   6.501   5.421
   43SOL    HW1 1028   5.510   6.432   5.349
   43SOL    HW2 1029   5.589   6.543   5.440
   44SOL     OW 1030   0.824   2.736   6.287
   44SOL    HW1 1031   0.727   2.747   6.306
   44SOL    HW2 1032   0.872   2.714   6.371
   45SOL     OW 1033   2.430   0.791   1.756
   45SOL    HW1 1034   2.514   0.835   1.724
   45SOL    HW2 1035   2.380   0.854   1.815
   46SOL     OW 1036   1.624   4.268   4.490
   46SOL    HW1 1037   1.652   4.180   4.528
   46SOL    HW2 1038   1.676   4.341   4.536
   47SOL     OW 1039   6.968   4.376   3.628
   47SOL    HW1 1040   6.893   4.310   3.634
   47SOL    HW2 1041   0.018   4.347   3.689
   48SOL     OW 1042   0.358   1.911   5.161
   48SOL    HW1 1043   0.341   1.814   5.143
   48SOL    HW2 1044   0.447   1.922   5.205
   49SOL     OW 1045   4.565   2.697   0.773
   49SOL    HW1 1046   4.594   2.748   0.854
   49SOL    HW2 1047   4.499   2.626   0.800
   50SOL     OW 1048   6.512   4.025   4.415
   50SOL    HW1 1049   6.515   3.948   4.352
   50SOL    HW2 1050   6.522   3.992   4.509
   51SOL     OW 1051   3.572   4.887   2.807
   51SOL    HW1 1052   3.574   4.790   2.785
   51SOL    HW2 1053   3.541   4.939   2.728
   52SOL     OW 1054   2.328   1.647   2.181
   52SOL    HW1 1055   2.321   1.738   2.222
   52SOL    HW2 1056   2.256   1.635   2.113
   53SOL     OW 1057   5.038   6.627   4.343
   53SOL    HW1 1058   5.057   6.544   4.291
   53SOL    HW2 1059   4.967   6.680   4.297
   54SOL     OW 1060   3.743   4.990   5.594
   54SOL    HW1 1061   3.679   4.952   5.661
   54SOL    HW2 1062   3.794   4.915   5.551
   55SOL     OW 1063   4.029   2.316   6.247
   55SOL    HW1 1064   3.948   2.330   6.303
   55SOL    HW2 1065   4.106   2.289   6.305
   56SOL     OW 1066   0.822   0.127   2.495
   56SOL    HW1 1067   0.904   0.179   2.469
   56SOL    HW2 1068   0.799   0.062   2.422
   57SOL     OW 1069   5.439   1.069   0.221
   57SOL    HW1 1070   5.364   1.125   0.256
   57SOL    HW2 1071   5.521   1.125   0.213
   58SOL     OW 1072   0.394   6.023   6.896
   58SOL    HW1 1073   0.369   5.986   6.986
   58SOL    HW2 1074   0.469   5.970   6.857
   59SOL     OW 1075   1.405   0.485   6.140
   59SOL    HW1 1076   1.462   0.556   6.097
   59SOL    HW2 1077   1.319   0.477   6.090
   60SOL     OW 1078   4.215   0.324   5.314
   60SOL    HW1 1079   4.200   0.405   5.370
   60SOL    HW2 1080   4.212   0.242   5.372
   61SOL     OW 1081   4.797   0.391   4.137
   61SOL    HW1 1082   4.823   0.487   4.144
   61SOL    HW2 1083   4.736   0.378   4.058
   62SOL     OW 1084   1.830   0.441   4.161
   62SOL    HW1 1085   1.925   0.435   4.129
   62SOL    HW2 1086   1.808   0.359   4.214
   63SOL     OW 1087   6.927   2.646   3.245
   63SOL    HW1 1088   6.916   2.629   3.343
   63SOL    HW2 1089   7.012   2.604   3.213
   64SOL     OW 1090   6.245   3.971   6.630
   64SOL    HW1 1091   6.234   3.980   6.729
   64SOL    HW2 1092   6.339   3.945   6.609
   65SOL     OW 1093   6.665   4.813   5.099
   65SOL    HW1 1094   6.626   4.887   5.043
   65SOL    HW2 1095   6.644   4.725   5.056
   66SOL     OW 1096   3.024   0.562   6.962
   66SOL    HW1 1097   2.966   0.481   6.975
   66SOL    HW2 1098   2.968   0.636   6.925
   67SOL     OW 1099   5.266   5.802   4.784
   67SOL    HW1 1100   5.255   5.813   4.883
   67SOL    HW2 1101   5.268   5.892   4.741
   68SOL     OW 1102   6.063   2.228   5.919
   68SOL    HW1 1103   6.104   2.236   5.828
   68SOL    HW2 1104   6.021   2.315   5.945
   69SOL     OW 1105   2.896   4.099   6.221
   69SOL    HW1 1106   2.864   4.068   6.311
   69SOL    HW2 1107   2.836   4.172   6.188
   70SOL     OW 1108   0.090   5.377   3.032
   70SOL    HW1 1109   0.087   5.419   3.123
   70SOL    HW2 1110   0.087   5.278   3.040
   71SOL     OW 1111   1.839   3.170   3.546
   71SOL    HW1 1112   1.748   3.130   3.549
   71SOL    HW2 1113   1.884   3.146   3.460
   72SOL     OW 1114   2.671   5.659   3.926
   72SOL    HW1 1115   2.597   5.644   3.992
   72SOL    HW2 1116   2.633   5.669   3.835
   73SOL     OW 1117   3.966   2.009   0.342
   73SOL    HW1 1118   3.921   2.096   0.361
   73SOL    HW2 1119   3.898   1.943   0.309
   74SOL     OW 1120   5.230   6.427   6.508
   74SOL    HW1 1121   5.272   6.336   6.508
   74SOL    HW2 1122   5.259   6.477   6.427
   75SOL     OW 1123   3.835   5.704   5.727
   75SOL    HW1 1124   3.873   5.616   5.700
   75SOL    HW2 1125   3.873   5.776   5.669
   76SOL     OW 1126   2.480   2.547   1.394
   76SOL    HW1 1127   2.552   2.614   1.377
   76SOL    HW2 1128   2.465   2.493   1.312
   77SOL     OW 1129   5.732   4.877   5.222
   77SOL    HW1 1130   5.757   4.974   5.226
   77SOL    HW2 1131   5.815   4.822   5.210
   78SOL     OW 1132   6.541   6.424   5.250
   78SOL    HW1 1133   6.495   6.475   5.177
   78SOL    HW2 1134   6.472   6.388   5.313
   79SOL     OW 1135   3.618   6.916   0.668
   79SOL    HW1 1136   3.540   6.854   0.658
   79SOL    HW2 1137   3.654   6.910   0.761
   80SOL     OW 1138   0.178   1.658   4.394
   80SOL    HW1 1139   0.230   1.594   4.451
   80SOL    HW2 1140   0.230   1.742   4.381
   81SOL     OW 1141   1.917   1.091   2.741
   81SOL    HW1 1142   1.911   1.076   2.840
   81SOL    HW2 1143   1.992   1.037   2.703
   82SOL     OW 1144   6.612   4.845   6.272
   82SOL    HW1 1145   6.682   4.907   6.307
   82SOL    HW2 1146   6.533   4.847   6.332
   83SOL     OW 1147   0.355   6.604   0.279
   83SOL    HW1 1148   0.272   6.576   0.327
   83SOL    HW2 1149   0.335   6.612   0.181
   84SOL     OW 1150   5.360   3.772   1.660
   84SOL    HW1 1151   5.362   3.703   1.733
   84SOL    HW2 1152   5.323   3.857   1.697
   85SOL     OW 1153   0.985   1.916   5.613
   85SOL    HW1 1154   0.962   1.849   5.542
   85SOL    HW2 1155   0.910   1.982   5.622
   86SOL     OW 1156   0.940   0.493   5.865
   86SOL    HW1 1157   1.024   0.497   5.811
   86SOL    HW2 1158   0.864   0.531   5.813
   87SOL     OW 1159   4.491   2.071   0.727
   87SOL    HW1 1160   4.465   2.027   0.641
   87SOL    HW2 1161   4.410   2.115   0.768
   88SOL     OW 1162   5.587   1.230   0.522
   88SOL    HW1 1163   5.538   1.149   0.552
   88SOL    HW2 1164   5.588   1.298   0.595
   89SOL     OW 1165   1.721   2.941   6.540
   89SOL    HW1 1166   1.634   2.933   6.587
   89SOL    HW2 1167   1.793   2.894   6.591
   90SOL     OW 1168   5.239   5.946   4.088
   90SOL    HW1 1169   5.258   5.921   4.184
   90SOL    HW2 1170   5.323   5.934   4.034
   91SOL     OW 1171   4.923   4.876   5.257
   91SOL    HW1 1172   4.880   4.850   5.171
   91SOL    HW2 1173   4.935   4.794   5.314
   92SOL     OW 1174   3.309   4.410   1.179
   92SOL    HW1 1175   3.217   4.442   1.201
   92SOL    HW2 1176   3.348   4.364   1.259
   93SOL     OW 1177   3.657   5.135   5.985
   93SOL    HW1 1178   3.612   5.068   5.926
   93SOL    HW2 1179   3.675   5.218   5.932
   94SOL     OW 1180   2.971   5.598   0.211
   94SOL    HW1 1181   2.973   5.503   0.180
   94SOL    HW2 1182   3.065   5.633   0.217
   95SOL     OW 1183   0.215   0.260   4.062
   95SOL    HW1 1184   0.120   0.248   4.031
   95SOL    HW2 1185   0.260   0.171   4.066
   96SOL     OW 1186   2.202   0.291   5.291
   96SOL    HW1 1187   2.204   0.249   5.381
   96SOL    HW2 1188   2.109   0.323   5.271
   97SOL     OW 1189   6.060   3.325   3.977
   97SOL    HW1 1190   5.969   3.323   3.936
   97SOL    HW2 1191   6.071   3.249   4.041
   98SOL     OW 1192   5.201   2.204   6.019
   98SOL    HW1 1193   5.249   2.184   5.934
   98SOL    HW2 1194   5.260   2.258   6.079
   99SOL     OW 1195   4.419   2.487   0.855
   99SOL    HW1 1196   4.345   2.525   0.911
   99SOL    HW2 1197   4.384   2.409   0.802
  100SOL     OW 1198   0.876   6.130   6.495
  100SOL    HW1 1199   0.965   6.086   6.509
  100SOL    HW2 1200   0.849   6.119   6.399
  101SOL     OW 1201   1.429   5.900   4.421
  101SOL    HW1 1202   1.404   5.893   4.324
  101SOL    HW2 1203   1.519   5.943   4.429
  102SOL     OW 1204   3.460   0.582   3.294
  102SOL    HW1 1205   3.547   0.576   3.244
  102SOL    HW2 1206   3.387   0.610   3.232
  103SOL     OW 1207   4.223   2.334   1.476
  103SOL    HW1 1208   4.175   2.363   1.394
  103SOL    HW2 1209   4.163   2.346   1.556
  104SOL     OW 1210   6.959   5.854   2.246
  104SOL    HW1 1211   6.966   5.943   2.201
  104SOL    HW2 1212   7.019   5.853   2.326
  105SOL     OW 1213   5.912   0.722   6.575
  105SOL    HW1 1214   5.837   0.658   6.595
  105SOL    HW2 1215   5.947   0.759   6.660
  106SOL     OW 1216   3.082   6.661   6.698
  106SOL    HW1 1217   3.062   6.758   6.686
  106SOL    HW2 1218   3.143   6.631   6.625
  107SOL     OW 1219   1.954   2.662   0.890
  107SOL    HW1 1220   1.878   2.603   0.861
  107SOL    HW2 1221   1.957   2.743   0.831
  108SOL     OW 1222   4.799   4.519   6.082
  108SOL    HW1 1223   4.867   4.571   6.030
  108SOL    HW2 1224   4.761   4.446   6.024
  109SOL     OW 1225   0.162   0.429   0.335
  109SOL    HW1 1226   0.173   0.528   0.342
  109SOL    HW2 1227   0.203   0.385   0.415
  110SOL     OW 1228   3.561   5.913   5.515
  110SOL    HW1 1229   3.560   5.832   5.574
  110SOL    HW2 1230   3.474   5.918   5.465
  111SOL     OW 1231   4.117   0.875   3.151
  111SOL    HW1 1232   4.039   0.812   3.146
  111SOL    HW2 1233   4.177   0.846   3.226
  112SOL     OW 1234   6.504   6.107   5.609
  112SOL    HW1 1235   6.436   6.078   5.676
  112SOL    HW2 1236   6.564   6.031   5.587
  113SOL     OW 1237   0.109   4.285   3.850
  113SOL    HW1 1238   0.023   4.321   3.887
  113SOL    HW2 1239   0.183   4.304   3.913
  114SOL     OW 1240   0.824   6.747   0.247
  114SOL    HW1 1241   0.767   6.669   0.273
  114SOL    HW2 1242   0.793   6.828   0.295
  115SOL     OW 1243   5.050   1.588   4.150
  115SOL    HW1 1244   4.992   1.637   4.214
  115SOL    HW2 1245   5.145   1.616   4.164
  116SOL     OW 1246   6.275   4.651   1.889
  116SOL    HW1 1247   6.192   4.644   1.945
  116SOL    HW2 1248   6.266   4.728   1.826
  117SOL     OW 1249   1.378   0.251   6.342
  117SOL    HW1 1250   1.319   0.324   6.306
  117SOL    HW2 1251   1.431   0.287   6.419
  118SOL     OW 1252   0.244   0.725   1.975
  118SOL    HW1 1253   0.195   0.795   2.028
  118SOL    HW2 1254   0.274   0.652   2.036
  119SOL     OW 1255   6.793   2.531   5.892
  119SOL    HW1 1256   6.819   2.539   5.796
  119SOL    HW2 1257   6.725   2.459   5.903
  120SOL     OW 1258   5.960   6.483   1.087
  120SOL    HW1 1259   5.873   6.529   1.067
  120SOL    HW2 1260   5.945   6.411   1.155
  121SOL     OW 1261   2.268   3.301   6.273
  121SOL    HW1 1262   2.239   3.366   6.202
  121SOL    HW2 1263   2.229   3.211   6.254
  122SOL     OW 1264   0.511   3.658   4.681
  122SOL    HW1 1265   0.600   3.647   4.637
  122SOL    HW2 1266   0.480   3.570   4.718
  123SOL     OW 1267   0.208   1.605   1.230
  123SOL    HW1 1268   0.134   1.549   1.268
  123SOL    HW2 1269   0.254   1.654   1.304
  124SOL     OW 1270   4.880   3.291   0.434
  124SOL    HW1 1271   4.930   3.366   0.477
  124SOL    HW2 1272   4.903   3.205   0.481
  125SOL     OW 1273   1.703   2.506   2.270
  125SOL    HW1 1274   1.789   2.472   2.235
  125SOL    HW2 1275   1.718   2.592   2.319
  126SOL     OW 1276   2.704   4.598   0.981
  126SOL    HW1 1277   2.680   4.592   1.078
  126SOL    HW2 1278   2.731   4.692   0.960
  127SOL     OW 1279   6.995   5.479   5.966
  127SOL    HW1 1280   0.062   5.515   5.989
  127SOL    HW2 1281   6.937   5.553   5.933
  128SOL     OW 1282   4.594   2.618   1.588
  128SOL    HW1 1283   4.614   2.705   1.632
  128SOL    HW2 1284   4.510   2.580   1.627
  129SOL     OW 1285   3.320   3.728   6.639
  129SOL    HW1 1286   3.420   3.720   6.637
  129SOL    HW2 1287   3.281   3.667   6.570
  130SOL     OW 1288   0.809   1.296   4.096
  130SOL    HW1 1289   0.905   1.275   4.114
  130SOL    HW2 1290   0.760   1.212   4.073
  131SOL     OW 1291   4.678   1.430   2.967
  131SOL    HW1 1292   4.608   1.495   2.936
  131SOL    HW2 1293   4.769   1.465   2.945
  132SOL     OW 1294   1.009   2.771   1.707
  132SOL    HW1 1295   1.072   2.700   1.738
  132SOL    HW2 1296   0.973   2.746   1.617
  133SOL     OW 1297   6.467   6.125   2.533
  133SOL    HW1 1298   6.508   6.044   2.491
  133SOL    HW2 1299   6.481   6.205   2.474
  134SOL     OW 1300   0.258   3.601   2.831
  134SOL    HW1 1301   0.295   3.564   2.746
  134SOL    HW2 1302   0.160   3.616   2.822
  135SOL     OW 1303   5.356   1.835   3.994
  135SOL    HW1 1304   5.309   1.827   3.906
  135SOL    HW2 1305   5.325   1.762   4.055
  136SOL     OW 1306   5.017   4.126   5.346
  136SOL    HW1 1307   5.026   4.104   5.249
  136SOL    HW2 1308   5.031   4.224   5.360
  137SOL     OW 1309   4.838   6.860   6.009
  137SOL    HW1 1310   4.779   6.893   5.935
  137SOL    HW2 1311   4.895   6.935   6.043
  138SOL     OW 1312   6.609   5.264   4.701
  138SOL    HW1 1313   6.665   5.343   4.675
  138SOL    HW2 1314   6.603   5.201   4.624
  139SOL     OW 1315   3.051   4.824   5.070
  139SOL    HW1 1316   3.044   4.844   5.167
  139SOL    HW2 1317   3.004   4.737   5.051
  140SOL     OW 1318   5.486   5.109   4.263
  140SOL    HW1 1319   5.494   5.013   4.236
  140SOL    HW2 1320   5.490   5.116   4.362
  141SOL     OW 1321   1.119   1.881   4.775
  141SOL    HW1 1322   1.060   1.953   4.811
  141SOL    HW2 1323   1.150   1.822   4.850
  142SOL     OW 1324   1.680   6.233   1.394
  142SOL    HW1 1325   1.660   6.330   1.384
  142SOL    HW2 1326   1.724   6.217   1.482
  143SOL     OW 1327   5.186   4.770   2.552
  143SOL    HW1 1328   5.090   4.745   2.542
  143SOL    HW2 1329   5.212   4.767   2.648
  144SOL     OW 1330   1.900   6.573   6.820
  144SOL    HW1 1331   1.866   6.638   6.888
  144SOL    HW2 1332   1.966   6.619   6.761
  145SOL     OW 1333   0.460   5.471   0.902
  145SOL    HW1 1334   0.395   5.413   0.854
  145SOL    HW2 1335   0.529   5.504   0.837
  146SOL     OW 1336   5.388   6.358   1.285
  146SOL    HW1 1337   5.328   6.384   1.210
  146SOL    HW2 1338   5.349   6.280   1.334
  147SOL     OW 1339   6.945   2.296   0.696
  147SOL    HW1 1340   7.000   2.215   0.676
  147SOL    HW2 1341   6.994   2.378   0.667
  148SOL     OW 1342   1.096   5.428   5.784
  148SOL    HW1 1343   1.008   5.445   5.830
  148SOL    HW2 1344   1.081   5.370   5.704
  149SOL     OW 1345   2.987   1.427   4.466
  149SOL    HW1 1346   2.967   1.523   4.486
  149SOL    HW2 1347   3.025   1.383   4.548
  150SOL     OW 1348   6.777   5.036   6.992
  150SOL    HW1 1349   6.796   5.130   6.963
  150SOL    HW2 1350   6.756   4.980   6.912
  151SOL     OW 1351   4.096   1.564   1.523
  151SOL    HW1 1352   4.148   1.643   1.555
  151SOL    HW2 1353   4.132   1.534   1.434
  152SOL     OW 1354   2.749   0.934   4.375
  152SOL    HW1 1355   2.658   0.910   4.341
  152SOL    HW2 1356   2.760   1.034   4.372
  153SOL     OW 1357   2.054   1.293   2.973
  153SOL    HW1 1358   1.997   1.330   2.900
  153SOL    HW2 1359   2.002   1.225   3.024
  154SOL     OW 1360   0.043   1.918   2.111
  154SOL    HW1 1361   6.980   1.873   2.129
  154SOL    HW2 1362   0.055   1.994   2.175
  155SOL     OW 1363   7.006   0.857   2.704
  155SOL    HW1 1364   0.060   0.844   2.764
  155SOL    HW2 1365   0.002   0.818   2.614
  156SOL     OW 1366   6.463   1.752   1.231
  156SOL    HW1 1367   6.467   1.666   1.179
  156SOL    HW2 1368   6.552   1.796   1.230
  157SOL     OW 1369   6.058   3.402   2.798
  157SOL    HW1 1370   6.036   3.316   2.752
  157SOL    HW2 1371   6.117   3.384   2.877
  158SOL     OW 1372   2.374   1.003   3.074
  158SOL    HW1 1373   2.330   1.064   3.008
  158SOL    HW2 1374   2.318   0.998   3.157
  159SOL     OW 1375   4.770   4.154   1.849
  159SOL    HW1 1376   4.682   4.167   1.896
  159SOL    HW2 1377   4.792   4.237   1.798
  160SOL     OW 1378   6.529   4.125   5.623
  160SOL    HW1 1379   6.537   4.035   5.580
  160SOL    HW2 1380   6.599   4.186   5.584
  161SOL     OW 1381   2.282   5.016   5.139
  161SOL    HW1 1382   2.307   4.945   5.206
  161SOL    HW2 1383   2.353   5.021   5.068
  162SOL     OW 1384   4.794   5.838   1.114
  162SOL    HW1 1385   4.721   5.897   1.081
  162SOL    HW2 1386   4.883   5.877   1.088
  163SOL     OW 1387   4.481   0.032   2.119
  163SOL    HW1 1388   4.420   0.020   2.040
  163SOL    HW2 1389   4.527   6.970   2.139
  164SOL     OW 1390   6.520   3.735   0.781
  164SOL    HW1 1391   6.551   3.666   0.716
  164SOL    HW2 1392   6.519   3.824   0.737
  165SOL     OW 1393   5.015   3.313   6.624
  165SOL    HW1 1394   5.017   3.310   6.524
  165SOL    HW2 1395   4.993   3.406   6.654
  166SOL     OW 1396   0.076   6.938   2.352
  166SOL    HW1 1397   0.019   6.875   2.298
  166SOL    HW2 1398   0.166   6.946   2.310
  167SOL     OW 1399   6.264   2.578   0.154
  167SOL    HW1 1400   6.227   2.521   0.081
  167SOL    HW2 1401   6.359   2.552   0.173
  168SOL     OW 1402   2.212   5.342   0.954
  168SOL    HW1 1403   2.307   5.335   0.925
  168SOL    HW2 1404   2.188   5.439   0.966
  169SOL     OW 1405   2.184   0.336   2.302
  169SOL    HW1 1406   2.264   0.276   2.293
  169SOL    HW2 1407   2.197   0.417   2.244
  170SOL     OW 1408   0.045   1.751   3.369
  170SOL    HW1 1409   0.092   1.838   3.358
  170SOL    HW2 1410   6.970   1.766   3.365
  171SOL     OW 1411   3.963   3.666   0.294
  171SOL    HW1 1412   3.957   3.723   0.212
  171SOL    HW2 1413   3.894   3.695   0.360
  172SOL     OW 1414   6.583   2.273   5.605
  172SOL    HW1 1415   6.516   2.241   5.537
  172SOL    HW2 1416   6.652   2.328   5.560
  173SOL     OW 1417   6.990   6.612   4.722
  173SOL    HW1 1418   6.939   6.623   4.808
  173SOL    HW2 1419   0.005   6.700   4.696
  174SOL     OW 1420   2.362   5.190   3.380
  174SOL    HW1 1421   2.278   5.137   3.391
  174SOL    HW2 1422   2.424   5.142   3.318
  175SOL     OW 1423   2.028   6.002   2.004
  175SOL    HW1 1424   2.017   6.052   1.919
  175SOL    HW2 1425   2.116   5.953   2.003
  176SOL     OW 1426   2.113   4.148   1.277
  176SOL    HW1 1427   2.042   4.218   1.290
  176SOL    HW2 1428   2.116   4.089   1.357
  177SOL     OW 1429   4.893   2.337   2.644
  177SOL    HW1 1430   4.819   2.310   2.583
  177SOL    HW2 1431   4.930   2.425   2.614
  178SOL     OW 1432   5.102   4.846   6.879
  178SOL    HW1 1433   5.055   4.894   6.805
  178SOL    HW2 1434   5.180   4.900   6.910
  179SOL     OW 1435   3.149   0.399   0.692
  179SOL    HW1 1436   3.065   0.436   0.732
  179SOL    HW2 1437   3.214   0.473   0.677
  180SOL     OW 1438   0.939   1.238   6.523
  180SOL    HW1 1439   0.962   1.335   6.511
  180SOL    HW2 1440   0.925   1.219   6.621
  181SOL     OW 1441   3.415   2.633   5.782
  181SOL    HW1 1442   3.452   2.597   5.868
  181SOL    HW2 1443   3.320   2.661   5.796
  182SOL     OW 1444   4.037   2.074   4.902
  182SOL    HW1 1445   4.061   2.054   4.807
  182SOL    HW2 1446   3.956   2.020   4.927
  183SOL     OW 1447   4.936   1.239   1.931
  183SOL    HW1 1448   5.009   1.253   1.865
  183SOL    HW2 1449   4.961   1.165   1.993
  184SOL     OW 1450   1.026   4.821   3.241
  184SOL    HW1 1451   0.969   4.856   3.316
  184SOL    HW2 1452   1.021   4.721   3.240
  185SOL     OW 1453   1.398   3.815   6.565
  185SOL    HW1 1454   1.450   3.893   6.531
  185SOL    HW2 1455   1.372   3.756   6.489
  186SOL     OW 1456   5.671   0.114   3.433
  186SOL    HW1 1457   5.620   0.199   3.424
  186SOL    HW2 1458   5.760   0.132   3.476
  187SOL     OW 1459   5.346   0.848   3.872
  187SOL    HW1 1460   5.398   0.921   3.915
  187SOL    HW2 1461   5.334   0.773   3.938
  188SOL     OW 1462   5.650   2.284   3.207
  188SOL    HW1 1463   5.664   2.382   3.221
  188SOL    HW2 1464   5.651   2.237   3.295
  189SOL     OW 1465   2.232   4.871   2.503
  189SOL    HW1 1466   2.145   4.919   2.508
  189SOL    HW2 1467   2.273   4.866   2.594
  190SOL     OW 1468   4.022   1.032   5.139
  190SOL    HW1 1469   3.971   0.997   5.061
  190SOL    HW2 1470   4.001   1.128   5.152
  191SOL     OW 1471   5.901   5.869   6.535
  191SOL    HW1 1472   5.909   5.949   6.475
  191SOL    HW2 1473   5.974   5.804   6.513
  192SOL     OW 1474   6.755   0.362   1.741
  192SOL    HW1 1475   6.707   0.339   1.825
  192SOL    HW2 1476   6.852   0.346   1.752
  193SOL     OW 1477   5.034   3.625   0.215
  193SOL    HW1 1478   5.087   3.708   0.200
  193SOL    HW2 1479   4.937   3.647   0.220
  194SOL     OW 1480   3.276   0.999   3.396
  194SOL    HW1 1481   3.254   0.986   3.300
  194SOL    HW2 1482   3.244   1.089   3.426
  195SOL     OW 1483   1.619   5.406   3.535
  195SOL    HW1 1484   1.670   5.325   3.563
  195SOL    HW2 1485   1.521   5.388   3.536
  196SOL     OW 1486   1.611   1.838   0.047
  196SOL    HW1 1487   1.607   1.924   7.020
  196SOL    HW2 1488   1.584   1.763   7.010
  197SOL     OW 1489   1.680   0.734   1.176
  197SOL    HW1 1490   1.586   0.707   1.195
  197SOL    HW2 1491   1.680   0.823   1.131
  198SOL     OW 1492   3.893   1.761   3.040
  198SOL    HW1 1493   3.795   1.760   3.061
  198SOL    HW2 1494   3.907   1.797   2.948
  199SOL     OW 1495   0.836   2.244   3.733
  199SOL    HW1 1496   0.861   2.149   3.754
  199SOL    HW2 1497   0.782   2.281   3.809
  200SOL     OW 1498   6.912   2.508   0.314
  200SOL    HW1 1499   6.915   2.604   0.285
  200SOL    HW2 1500   6.833   2.494   0.373
  201SOL     OW 1501   0.763   0.632   6.096
  201SOL    HW1 1502   0.826   0.590   6.031
  201SOL    HW2 1503   0.743   0.567   6.170
  202SOL     OW 1504   4.786   0.227   6.488
  202SOL    HW1 1505   4.721   0.289   6.444
  202SOL    HW2 1506   4.844   0.185   6.419
  203SOL     OW 1507   5.409   2.770   5.422
  203SOL    HW1 1508   5.457   2.845   5.466
  203SOL    HW2 1509   5.369   2.801   5.336
  204SOL     OW 1510   6.681   0.733   5.920
  204SOL    HW1 1511   6.737   0.801   5.966
  204SOL    HW2 1512   6.631   0.775   5.845
  205SOL     OW 1513   0.912   2.864   2.080
  205SOL    HW1 1514   0.909   2.858   2.180
  205SOL    HW2 1515   0.999   2.905   2.052
  206SOL     OW 1516   0.473   3.023   0.575
  206SOL    HW1 1517   0.549   3.086   0.592
  206SOL    HW2 1518   0.389   3.060   0.614
  207SOL     OW 1519   5.046   2.143   3.964
  207SOL    HW1 1520   5.109   2.117   3.891
  207SOL    HW2 1521   4.967   2.191   3.925
  208SOL     OW 1522   0.958   3.859   4.630
  208SOL    HW1 1523   1.058   3.850   4.637
  208SOL    HW2 1524   0.917   3.838   4.719
  209SOL     OW 1525   6.651   4.179   2.642
  209SOL    HW1 1526   6.733   4.214   2.689
  209SOL    HW2 1527   6.613   4.249   2.583
  210SOL     OW 1528   4.994   2.044   6.913
  210SOL    HW1 1529   5.048   1.972   6.868
  210SOL    HW2 1530   4.897   2.025   6.900
  211SOL     OW 1531   0.299   0.645   3.191
  211SOL    HW1 1532   0.204   0.613   3.186
  211SOL    HW2 1533   0.309   0.706   3.269
  212SOL     OW 1534   1.905   4.036   3.573
  212SOL    HW1 1535   1.973   4.109   3.576
  212SOL    HW2 1536   1.822   4.069   3.528
  213SOL     OW 1537   1.919   4.885   1.111
  213SOL    HW1 1538   1.910   4.984   1.118
  213SOL    HW2 1539   1.894   4.855   1.019
  214SOL     OW 1540   4.284   6.037   2.365
  214SOL    HW1 1541   4.374   6.072   2.341
  214SOL    HW2 1542   4.259   6.068   2.457
  215SOL     OW 1543   2.255   4.463   2.018
  215SOL    HW1 1544   2.198   4.534   1.976
  215SOL    HW2 1545   2.352   4.490   2.012
  216SOL     OW 1546   1.340   6.643   2.332
  216SOL    HW1 1547   1.258   6.601   2.293
  216SOL    HW2 1548   1.421   6.603   2.288
  217SOL     OW 1549   1.527   3.947   6.830
  217SOL    HW1 1550   1.454   4.012   6.850
  217SOL    HW2 1551   1.516   3.865   6.885
  218SOL     OW 1552   0.649   2.275   5.067
  218SOL    HW1 1553   0.593   2.231   5.138
  218SOL    HW2 1554   0.604   2.360   5.038
  219SOL     OW 1555   3.846   1.335   0.727
  219SOL    HW1 1556   3.913   1.261   0.722
  219SOL    HW2 1557   3.779   1.315   0.799
  220SOL     OW 1558   3.229   6.803   0.703
  220SOL    HW1 1559   3.289   6.808   0.623
  220SOL    HW2 1560   3.238   6.713   0.745
  221SOL     OW 1561   5.219   5.511   1.437
  221SOL    HW1 1562   5.244   5.594   1.488
  221SOL    HW2 1563   5.214   5.532   1.340
  222SOL     OW 1564   2.015   4.516   6.106
  222SOL    HW1 1565   2.050   4.463   6.028
  222SOL    HW2 1566   1.917   4.502   6.115
  223SOL     OW 1567   6.482   2.173   5.323
  223SOL    HW1 1568   6.578   2.164   5.295
  223SOL    HW2 1569   6.435   2.235   5.260
  224SOL     OW 1570   1.991   1.980   6.361
  224SOL    HW1 1571   2.072   1.921   6.370
  224SOL    HW2 1572   2.015   2.061   6.308
  225SOL     OW 1573   4.433   4.814   6.419
  225SOL    HW1 1574   4.510   4.869   6.388
  225SOL    HW2 1575   4.376   4.788   6.341
  226SOL     OW 1576   1.033   2.078   6.580
  226SOL    HW1 1577   1.044   2.108   6.674
  226SOL    HW2 1578   1.096   2.002   6.561
  227SOL     OW 1579   1.823   3.782   1.983
  227SOL    HW1 1580   1.792   3.733   1.901
  227SOL    HW2 1581   1.777   3.870   1.988
  228SOL     OW 1582   1.615   0.079   2.747
  228SOL    HW1 1583   1.654   0.090   2.655
  228SOL    HW2 1584   1.520   0.049   2.739
  229SOL     OW 1585   5.026   5.060   6.456
  229SOL    HW1 1586   5.107   5.112   6.483
  229SOL    HW2 1587   5.025   5.048   6.357
  230SOL     OW 1588   4.696   6.095   5.042
  230SOL    HW1 1589   4.702   6.194   5.028
  230SOL    HW2 1590   4.618   6.059   4.990
  231SOL     OW 1591   5.551   1.217   6.826
  231SOL    HW1 1592   5.619   1.157   6.868
  231SOL    HW2 1593   5.528   1.290   6.890
  232SOL     OW 1594   1.511   2.597   6.010
  232SOL    HW1 1595   1.416   2.569   6.019
  232SOL    HW2 1596   1.522   2.690   6.045
  233SOL     OW 1597   2.480   1.236   3.219
  233SOL    HW1 1598   2.578   1.236   3.240
  233SOL    HW2 1599   2.451   1.144   3.192
  234SOL     OW 1600   4.755   1.448   6.471
  234SOL    HW1 1601   4.757   1.494   6.559
  234SOL    HW2 1602   4.691   1.496   6.410
  235SOL     OW 1603   4.776   2.589   2.387
  235SOL    HW1 1604   4.837   2.638   2.449
  235SOL    HW2 1605   4.713   2.532   2.440
  236SOL     OW 1606   4.195   4.208   6.310
  236SOL    HW1 1607   4.271   4.261   6.273
  236SOL    HW2 1608   4.125   4.271   6.343
  237SOL     OW 1609   6.300   3.673   2.711
  237SOL    HW1 1610   6.256   3.723   2.636
  237SOL    HW2 1611   6.373   3.729   2.750
  238SOL     OW 1612   6.476   1.511   0.280
  238SOL    HW1 1613   6.386   1.552   0.296
  238SOL    HW2 1614   6.544   1.558   0.336
  239SOL     OW 1615   0.923   3.432   0.381
  239SOL    HW1 1616   0.983   3.511   0.391
  239SOL    HW2 1617   0.928   3.375   0.464
  240SOL     OW 1618   6.157   3.042   3.349
  240SOL    HW1 1619   6.235   3.003   3.398
  240SOL    HW2 1620   6.095   2.968   3.322
  241SOL     OW 1621   2.634   1.471   3.815
  241SOL    HW1 1622   2.666   1.490   3.722
  241SOL    HW2 1623   2.709   1.484   3.880
  242SOL     OW 1624   3.846   4.050   3.733
  242SOL    HW1 1625   3.758   4.016   3.699
  242SOL    HW2 1626   3.843   4.150   3.739
  243SOL     OW 1627   4.887   2.633   6.242
  243SOL    HW1 1628   4.957   2.691   6.282
  243SOL    HW2 1629   4.799   2.680   6.245
  244SOL     OW 1630   6.220   3.783   5.850
  244SOL    HW1 1631   6.136   3.732   5.870
  244SOL    HW2 1632   6.212   3.875   5.887
  245SOL     OW 1633   3.512   1.589   2.541
  245SOL    HW1 1634   3.439   1.530   2.506
  245SOL    HW2 1635   3.600   1.548   2.518
  246SOL     OW 1636   5.896   1.702   3.606
  246SOL    HW1 1637   5.957   1.631   3.571
  246SOL    HW2 1638   5.949   1.783   3.630
  247SOL     OW 1639   2.126   1.237   0.928
  247SOL    HW1 1640   2.126   1.187   0.842
  247SOL    HW2 1641   2.067   1.317   0.920
  248SOL     OW 1642   1.793   1.248   2.021
  248SOL    HW1 1643   1.706   1.297   2.025
  248SOL    HW2 1644   1.842   1.259   2.108
  249SOL     OW 1645   5.826   6.751   4.880
  249SOL    HW1 1646   5.735   6.717   4.903
  249SOL    HW2 1647   5.879   6.763   4.964
  250SOL     OW 1648   3.200   2.784   0.735
  250SOL    HW1 1649   3.175   2.693   0.702
  250SOL    HW2 1650   3.163   2.796   0.828
  251SOL     OW 1651   4.170   3.745   5.723
  251SOL    HW1 1652   4.132   3.695   5.801
  251SOL    HW2 1653   4.098   3.758   5.654
  252SOL     OW 1654   6.092   6.313   5.451
  252SOL    HW1 1655   6.061   6.311   5.547
  252SOL    HW2 1656   6.032   6.255   5.396
  253SOL     OW 1657   4.380   5.415   6.047
  253SOL    HW1 1658   4.435   5.335   6.022
  253SOL    HW2 1659   4.441   5.491   6.071
  254SOL     OW 1660   5.905   2.902   4.473
  254SOL    HW1 1661   5.875   2.813   4.504
  254SOL    HW2 1662   5.897   2.968   4.548
  255SOL     OW 1663   1.834   4.714   5.771
  255SOL    HW1 1664   1.742   4.729   5.734
  255SOL    HW2 1665   1.846   4.769   5.853
  256SOL     OW 1666   4.787   3.203   5.693
  256SOL    HW1 1667   4.792   3.119   5.639
  256SOL    HW2 1668   4.776   3.281   5.631
  257SOL     OW 1669   4.818   5.925   2.844
  257SOL    HW1 1670   4.866   5.884   2.921
  257SOL    HW2 1671   4.828   6.025   2.848
  258SOL     OW 1672   2.439   3.846   6.248
  258SOL    HW1 1673   2.491   3.761   6.260
  258SOL    HW2 1674   2.416   3.856   6.151
  259SOL     OW 1675   3.812   0.175   3.049
  259SOL    HW1 1676   3.841   0.124   2.967
  259SOL    HW2 1677   3.784   0.267   3.022
  260SOL     OW 1678   4.050   5.486   3.307
  260SOL    HW1 1679   4.091   5.483   3.398
  260SOL    HW2 1680   4.102   5.428   3.244
  261SOL     OW 1681   4.530   4.864   0.776
  261SOL    HW1 1682   4.564   4.931   0.843
  261SOL    HW2 1683   4.607   4.817   0.734
  262SOL     OW 1684   1.892   4.351   0.405
  262SOL    HW1 1685   1.935   4.288   0.340
  262SOL    HW2 1686   1.962   4.407   0.448
  263SOL     OW 1687   1.074   6.517   4.075
  263SOL    HW1 1688   1.100   6.426   4.108
  263SOL    HW2 1689   1.156   6.568   4.048
  264SOL     OW 1690   6.949   3.035   6.846
  264SOL    HW1 1691   6.877   3.007   6.908
  264SOL    HW2 1692   0.014   3.006   6.882
  265SOL     OW 1693   5.793   0.113   4.220
  265SOL    HW1 1694   5.773   0.138   4.315
  265SOL    HW2 1695   5.845   0.187   4.176
  266SOL     OW 1696   4.300   1.814   5.641
  266SOL    HW1 1697   4.290   1.903   5.596
  266SOL    HW2 1698   4.222   1.755   5.616
  267SOL     OW 1699   1.235   0.543   5.277
  267SOL    HW1 1700   1.233   0.562   5.179
  267SOL    HW2 1701   1.325   0.509   5.303
  268SOL     OW 1702   3.872   1.173   1.167
  268SOL    HW1 1703   3.916   1.102   1.112
  268SOL    HW2 1704   3.781   1.142   1.195
  269SOL     OW 1705   3.875   1.964   0.010
  269SOL    HW1 1706   3.828   2.048   7.008
  269SOL    HW2 1707   3.966   1.986   0.046
  270SOL     OW 1708   6.885   6.776   0.165
  270SOL    HW1 1709   6.842   6.857   0.126
  270SOL    HW2 1710   6.943   6.732   0.096
  271SOL     OW 1711   0.195   2.475   6.146
  271SOL    HW1 1712   0.193   2.432   6.056
  271SOL    HW2 1713   0.157   2.567   6.140
  272SOL     OW 1714   3.213   6.333   3.646
  272SOL    HW1 1715   3.227   6.243   3.604
  272SOL    HW2 1716   3.128   6.331   3.699
  273SOL     OW 1717   2.097   5.240   5.140
  273SOL    HW1 1718   2.131   5.148   5.158
  273SOL    HW2 1719   2.158   5.307   5.181
  274SOL     OW 1720   4.268   0.586   4.036
  274SOL    HW1 1721   4.194   0.570   4.102
  274SOL    HW2 1722   4.279   0.684   4.021
  275SOL     OW 1723   6.924   6.538   2.659
  275SOL    HW1 1724   6.946   6.632   2.634
  275SOL    HW2 1725   6.902   6.534   2.757
  276SOL     OW 1726   0.077   0.606   4.571
  276SOL    HW1 1727   0.123   0.629   4.485
  276SOL    HW2 1728   0.102   0.673   4.641
  277SOL     OW 1729   1.851   3.074   0.487
  277SOL    HW1 1730   1.919   3.056   0.416
  277SOL    HW2 1731   1.773   3.013   0.475
  278SOL     OW 1732   0.755   2.781   2.291
  278SOL    HW1 1733   0.800   2.694   2.269
  278SOL    HW2 1734   0.657   2.773   2.276
  279SOL     OW 1735   5.793   2.856   4.226
  279SOL    HW1 1736   5.838   2.892   4.307
  279SOL    HW2 1737   5.846   2.880   4.145
  280SOL     OW 1738   2.100   4.568   2.469
  280SOL    HW1 1739   2.119   4.665   2.453
  280SOL    HW2 1740   2.187   4.518   2.476
  281SOL     OW 1741   2.192   3.720   0.741
  281SOL    HW1 1742   2.283   3.717   0.783
  281SOL    HW2 1743   2.196   3.680   0.650
  282SOL     OW 1744   3.293   1.557   6.100
  282SOL    HW1 1745   3.331   1.553   6.007
  282SOL    HW2 1746   3.251   1.646   6.115
  283SOL     OW 1747   5.026   2.777   6.442
  283SOL    HW1 1748   5.077   2.812   6.521
  283SOL    HW2 1749   4.998   2.854   6.384
  284SOL     OW 1750   0.780   3.520   3.924
  284SOL    HW1 1751   0.706   3.581   3.953
  284SOL    HW2 1752   0.765   3.429   3.961
  285SOL     OW 1753   5.701   4.327   3.833
  285SOL    HW1 1754   5.624   4.375   3.875
  285SOL    HW2 1755   5.703   4.232   3.866
  286SOL     OW 1756   3.638   3.682   6.973
  286SOL    HW1 1757   3.551   3.650   6.938
  286SOL    HW2 1758   3.624   3.763   0.007
  287SOL     OW 1759   2.014   3.556   0.888
  287SOL    HW1 1760   2.076   3.590   0.817
  287SOL    HW2 1761   2.000   3.627   0.957
  288SOL     OW 1762   4.943   1.691   7.016
  288SOL    HW1 1763   4.968   1.625   6.945
  288SOL    HW2 1764   5.021   1.752   0.009
  289SOL     OW 1765   2.808   4.846   6.168
  289SOL    HW1 1766   2.732   4.828   6.106
  289SOL    HW2 1767   2.791   4.802   6.256
  290SOL     OW 1768   0.053   2.004   5.726
  290SOL    HW1 1769   0.144   1.968   5.703
  290SOL    HW2 1770   7.013   1.928   5.733
  291SOL     OW 1771   6.435   2.151   2.560
  291SOL    HW1 1772   6.534   2.141   2.566
  291SOL    HW2 1773   6.391   2.065   2.587
  292SOL     OW 1774   1.585   0.597   3.154
  292SOL    HW1 1775   1.671   0.648   3.162
  292SOL    HW2 1776   1.559   0.561   3.243
  293SOL     OW 1777   3.818   5.297   4.031
  293SOL    HW1 1778   3.815   5.379   3.974
  293SOL    HW2 1779   3.801   5.216   3.974
  294SOL     OW 1780   4.893   6.115   6.885
  294SOL    HW1 1781   4.952   6.153   6.956
  294SOL    HW2 1782   4.855   6.189   6.829
  295SOL     OW 1783   5.077   0.711   4.331
  295SOL    HW1 1784   5.107   0.616   4.343
  295SOL    HW2 1785   5.096   0.763   4.414
  296SOL     OW 1786   2.982   2.271   3.800
  296SOL    HW1 1787   2.912   2.309   3.740
  296SOL    HW2 1788   2.957   2.178   3.826
  297SOL     OW 1789   1.310   4.310   2.972
  297SOL    HW1 1790   1.220   4.355   2.972
  297SOL    HW2 1791   1.332   4.279   3.065
  298SOL     OW 1792   6.515   5.065   1.083
  298SOL    HW1 1793   6.598   5.016   1.057
  298SOL    HW2 1794   6.495   5.136   1.015
  299SOL     OW 1795   6.652   2.429   4.415
  299SOL    HW1 1796   6.741   2.457   4.380
  299SOL    HW2 1797   6.653   2.331   4.435
  300SOL     OW 1798   6.426   0.280   3.006
  300SOL    HW1 1799   6.374   0.365   3.014
  300SOL    HW2 1800   6.378   0.217   2.945
  301SOL     OW 1801   5.563   3.753   6.216
  301SOL    HW1 1802   5.473   3.787   6.186
  301SOL    HW2 1803   5.598   3.689   6.149
  302SOL     OW 1804   0.647   6.990   3.457
  302SOL    HW1 1805   0.580   0.004   3.521
  302SOL    HW2 1806   0.649   6.890   3.465
  303SOL     OW 1807   5.138   0.999   3.766
  303SOL    HW1 1808   5.134   1.083   3.821
  303SOL    HW2 1809   5.207   0.938   3.804
  304SOL     OW 1810   2.472   6.848   3.487
  304SOL    HW1 1811   2.391   6.838   3.546
  304SOL    HW2 1812   2.497   6.945   3.483
  305SOL     OW 1813   1.662   3.576   1.212
  305SOL    HW1 1814   1.599   3.514   1.258
  305SOL    HW2 1815   1.689   3.536   1.124
  306SOL     OW 1816   1.840   0.929   3.706
  306SOL    HW1 1817   1.838   0.995   3.781
  306SOL    HW2 1818   1.749   0.922   3.665
  307SOL     OW 1819   3.816   0.143   1.231
  307SOL    HW1 1820   3.892   0.086   1.263
  307SOL    HW2 1821   3.759   0.169   1.309
  308SOL     OW 1822   0.716   5.451   4.092
  308SOL    HW1 1823   0.620   5.424   4.093
  308SOL    HW2 1824   0.751   5.447   3.998
  309SOL     OW 1825   3.658   5.312   5.003
  309SOL    HW1 1826   3.745   5.331   4.958
  309SOL    HW2 1827   3.587   5.370   4.964
  310SOL     OW 1828   0.460   6.616   5.961
  310SOL    HW1 1829   0.555   6.645   5.956
  310SOL    HW2 1830   0.401   6.690   5.931
  311SOL     OW 1831   0.416   0.203   1.006
  311SOL    HW1 1832   0.506   0.209   1.048
  311SOL    HW2 1833   0.352   0.157   1.069
  312SOL     OW 1834   4.468   1.956   4.909
  312SOL    HW1 1835   4.473   1.898   4.827
  312SOL    HW2 1836   4.391   1.929   4.965
  313SOL     OW 1837   1.450   4.167   1.625
  313SOL    HW1 1838   1.492   4.077   1.622
  313SOL    HW2 1839   1.376   4.167   1.692
  314SOL     OW 1840   4.250   6.572   0.856
  314SOL    HW1 1841   4.246   6.650   0.795
  314SOL    HW2 1842   4.160   6.529   0.861
  315SOL     OW 1843   0.607   2.573   3.060
  315SOL    HW1 1844   0.560   2.629   2.992
  315SOL    HW2 1845   0.595   2.615   3.151
  316SOL     OW 1846   2.877   2.285   4.142
  316SOL    HW1 1847   2.972   2.270   4.116
  316SOL    HW2 1848   2.869   2.292   4.241
  317SOL     OW 1849   0.070   1.581   6.640
  317SOL    HW1 1850   0.094   1.544   6.550
  317SOL    HW2 1851   0.048   1.678   6.631
  318SOL     OW 1852   2.236   4.785   0.465
  318SOL    HW1 1853   2.317   4.727   0.458
  318SOL    HW2 1854   2.172   4.764   0.390
  319SOL     OW 1855   1.540   6.219   0.624
  319SOL    HW1 1856   1.509   6.306   0.587
  319SOL    HW2 1857   1.461   6.160   0.641
  320SOL     OW 1858   5.694   3.537   0.523
  320SOL    HW1 1859   5.652   3.453   0.491
  320SOL    HW2 1860   5.793   3.523   0.532
  321SOL     OW 1861   1.922   2.062   1.034
  321SOL    HW1 1862   1.951   2.154   1.057
  321SOL    HW2 1863   1.998   2.011   0.994
  322SOL     OW 1864   3.652   2.937   4.697
  322SOL    HW1 1865   3.683   2.925   4.603
  322SOL    HW2 1866   3.724   2.908   4.760
  323SOL     OW 1867   0.553   4.427   1.778
  323SOL    HW1 1868   0.517   4.349   1.726
  323SOL    HW2 1869   0.560   4.507   1.718
  324SOL     OW 1870   0.613   2.914   4.750
  324SOL    HW1 1871   0.666   2.986   4.794
  324SOL    HW2 1872   0.649   2.898   4.658
  325SOL     OW 1873   2.424   2.524   2.322
  325SOL    HW1 1874   2.361   2.568   2.258
  325SOL    HW2 1875   2.498   2.479   2.270
  326SOL     OW 1876   1.655   5.205   6.151
  326SOL    HW1 1877   1.752   5.195   6.128
  326SOL    HW2 1878   1.614   5.114   6.162
  327SOL     OW 1879   6.259   5.240   5.253
  327SOL    HW1 1880   6.338   5.277   5.204
  327SOL    HW2 1881   6.279   5.146   5.281
  328SOL     OW 1882   3.338   5.685   2.426
  328SOL    HW1 1883   3.421   5.663   2.375
  328SOL    HW2 1884   3.300   5.601   2.465
  329SOL     OW 1885   3.563   3.639   3.057
  329SOL    HW1 1886   3.625   3.684   2.992
  329SOL    HW2 1887   3.560   3.541   3.037
  330SOL     OW 1888   3.463   0.739   1.876
  330SOL    HW1 1889   3.472   0.647   1.914
  330SOL    HW2 1890   3.493   0.806   1.944
  331SOL     OW 1891   5.068   5.095   5.919
  331SOL    HW1 1892   5.027   5.007   5.893
  331SOL    HW2 1893   5.136   5.121   5.851
  332SOL     OW 1894   3.714   1.861   2.734
  332SOL    HW1 1895   3.643   1.797   2.762
  332SOL    HW2 1896   3.680   1.955   2.744
  333SOL     OW 1897   3.797   6.212   6.507
  333SOL    HW1 1898   3.749   6.159   6.436
  333SOL    HW2 1899   3.895   6.210   6.490
  334SOL     OW 1900   4.193   0.150   2.561
  334SOL    HW1 1901   4.253   0.121   2.487
  334SOL    HW2 1902   4.118   0.084   2.572
  335SOL     OW 1903   2.941   0.010   3.374
  335SOL    HW1 1904   2.992   0.069   3.437
  335SOL    HW2 1905   2.973   0.026   3.281
  336SOL     OW 1906   2.945   0.891   3.951
  336SOL    HW1 1907   3.011   0.919   4.022
  336SOL    HW2 1908   2.856   0.932   3.971
  337SOL     OW 1909   6.547   3.946   1.349
  337SOL    HW1 1910   6.463   3.898   1.374
  337SOL    HW2 1911   6.538   4.043   1.372
  338SOL     OW 1912   3.271   2.775   1.373
  338SOL    HW1 1913   3.227   2.823   1.449
  338SOL    HW2 1914   3.358   2.737   1.403
  339SOL     OW 1915   4.315   6.659   3.232
  339SOL    HW1 1916   4.239   6.724   3.240
  339SOL    HW2 1917   4.366   6.679   3.148
  340SOL     OW 1918   4.715   4.177   4.263
  340SOL    HW1 1919   4.750   4.106   4.203
  340SOL    HW2 1920   4.757   4.168   4.354
  341SOL     OW 1921   5.159   5.350   4.612
  341SOL    HW1 1922   5.218   5.393   4.680
  341SOL    HW2 1923   5.090   5.294   4.658
  342SOL     OW 1924   6.256   4.295   0.704
  342SOL    HW1 1925   6.261   4.387   0.744
  342SOL    HW2 1926   6.233   4.229   0.775
  343SOL     OW 1927   3.097   0.488   2.631
  343SOL    HW1 1928   3.149   0.411   2.593
  343SOL    HW2 1929   3.079   0.555   2.559
  344SOL     OW 1930   3.202   5.488   0.474
  344SOL    HW1 1931   3.161   5.558   0.417
  344SOL    HW2 1932   3.190   5.398   0.430
  345SOL     OW 1933   0.711   6.747   5.256
  345SOL    HW1 1934   0.802   6.764   5.294
  345SOL    HW2 1935   0.707   6.782   5.163
  346SOL     OW 1936   1.091   6.989   2.932
  346SOL    HW1 1937   1.038   6.957   3.011
  346SOL    HW2 1938   1.185   6.956   2.938
  347SOL     OW 1939   4.952   6.395   6.501
  347SOL    HW1 1940   5.048   6.373   6.483
  347SOL    HW2 1941   4.935   6.393   6.600
  348SOL     OW 1942   3.442   5.698   1.990
  348SOL    HW1 1943   3.492   5.665   1.910
  348SOL    HW2 1944   3.346   5.669   1.984
  349SOL     OW 1945   1.577   5.029   2.156
  349SOL    HW1 1946   1.518   5.009   2.078
  349SOL    HW2 1947   1.662   5.070   2.125
  350SOL     OW 1948   4.674   2.868   1.169
  350SOL    HW1 1949   4.676   2.956   1.217
  350SOL    HW2 1950   4.716   2.798   1.226
  351SOL     OW 1951   3.662   2.098   0.435
  351SOL    HW1 1952   3.669   2.181   0.490
  351SOL    HW2 1953   3.719   2.107   0.353
  352SOL     OW 1954   3.039   0.705   6.354
  352SOL    HW1 1955   3.071   0.658   6.436
  352SOL    HW2 1956   3.014   0.638   6.284
  353SOL     OW 1957   2.458   6.384   1.585
  353SOL    HW1 1958   2.536   6.406   1.644
  353SOL    HW2 1959   2.423   6.468   1.544
  354SOL     OW 1960   4.701   1.292   1.784
  354SOL    HW1 1961   4.786   1.292   1.836
  354SOL    HW2 1962   4.696   1.375   1.728
  355SOL     OW 1963   0.640   2.356   2.051
  355SOL    HW1 1964   0.593   2.280   2.005
  355SOL    HW2 1965   0.591   2.441   2.031
  356SOL     OW 1966   4.405   5.584   3.778
  356SOL    HW1 1967   4.439   5.546   3.865
  356SOL    HW2 1968   4.481   5.621   3.726
  357SOL     OW 1969   0.544   5.372   5.375
  357SOL    HW1 1970   0.491   5.341   5.297
  357SOL    HW2 1971   0.620   5.309   5.390
  358SOL     OW 1972   5.511   0.718   1.685
  358SOL    HW1 1973   5.467   0.765   1.608
  358SOL    HW2 1974   5.610   0.736   1.682
  359SOL     OW 1975   0.961   1.362   1.779
  359SOL    HW1 1976   1.024   1.436   1.799
  359SOL    HW2 1977   0.961   1.296   1.855
  360SOL     OW 1978   4.233   6.774   0.645
  360SOL    HW1 1979   4.310   6.818   0.599
  360SOL    HW2 1980   4.154   6.834   0.642
  361SOL     OW 1981   4.460   0.413   2.596
  361SOL    HW1 1982   4.365   0.430   2.571
  361SOL    HW2 1983   4.515   0.404   2.513
  362SOL     OW 1984   2.701   3.289   0.704
  362SOL    HW1 1985   2.658   3.379   0.700
  362SOL    HW2 1986   2.796   3.296   0.671
  363SOL     OW 1987   4.447   5.094   4.146
  363SOL    HW1 1988   4.374   5.121   4.083
  363SOL    HW2 1989   4.530   5.145   4.125
  364SOL     OW 1990   1.582   5.468   5.841
  364SOL    HW1 1991   1.578   5.484   5.742
  364SOL    HW2 1992   1.555   5.374   5.860
  365SOL     OW 1993   4.533   6.154   2.733
  365SOL    HW1 1994   4.548   6.152   2.634
  365SOL    HW2 1995   4.621   6.149   2.780
  366SOL     OW 1996   5.997   0.177   6.966
  366SOL    HW1 1997   6.014   0.230   0.025
  366SOL    HW2 1998   5.941   0.097   6.988
  367SOL     OW 1999   5.117   2.553   1.085
  367SOL    HW1 2000   5.193   2.618   1.096
  367SOL    HW2 2001   5.033   2.603   1.063
  368SOL     OW 2002   0.730   4.870   5.320
  368SOL    HW1 2003   0.822   4.853   5.355
  368SOL    HW2 2004   0.733   4.941   5.250
  369SOL     OW 2005   1.028   3.955   1.999
  369SOL    HW1 2006   1.046   3.945   1.902
  369SOL    HW2 2007   1.113   3.945   2.051
  370SOL     OW 2008   3.532   1.159   6.345
  370SOL    HW1 2009   3.622   1.186   6.378
  370SOL    HW2 2010   3.531   1.061   6.326
  371SOL     OW 2011   4.386   3.014   6.416
  371SOL    HW1 2012   4.449   3.091   6.417
  371SOL    HW2 2013   4.436   2.929   6.436
  372SOL     OW 2014   1.375   6.127   5.834
  372SOL    HW1 2015   1.306   6.128   5.907
  372SOL    HW2 2016   1.379   6.216   5.790
  373SOL     OW 2017   7.008   6.816   0.418
  373SOL    HW1 2018   6.965   6.800   0.329
  373SOL    HW2 2019   7.002   6.733   0.474
  374SOL     OW 2020   3.533   0.821   1.610
  374SOL    HW1 2021   3.513   0.809   1.707
  374SOL    HW2 2022   3.471   0.889   1.571
  375SOL     OW 2023   6.987   4.771   2.788
  375SOL    HW1 2024   0.036   4.792   2.723
  375SOL    HW2 2025   6.950   4.856   2.825
  376SOL     OW 2026   2.021   2.589   4.056
  376SOL    HW1 2027   2.087   2.531   4.008
  376SOL    HW2 2028   1.948   2.616   3.993
  377SOL     OW 2029   4.749   1.993   3.791
  377SOL    HW1 2030   4.712   1.907   3.756
  377SOL    HW2 2031   4.843   1.977   3.824
  378SOL     OW 2032   4.955   2.918   4.732
  378SOL    HW1 2033   4.996   2.827   4.729
  378SOL    HW2 2034   5.026   2.988   4.720
  379SOL     OW 2035   6.463   3.368   1.017
  379SOL    HW1 2036   6.436   3.360   0.921
  379SOL    HW2 2037   6.479   3.464   1.039
  380SOL     OW 2038   0.939   2.216   0.340
  380SOL    HW1 2039   1.033   2.223   0.373
  380SOL    HW2 2040   0.897   2.134   0.378
  381SOL     OW 2041   3.402   3.797   0.412
  381SOL    HW1 2042   3.335   3.737   0.369
  381SOL    HW2 2043   3.380   3.809   0.508
  382SOL     OW 2044   2.671   5.831   0.554
  382SOL    HW1 2045   2.724   5.764   0.502
  382SOL    HW2 2046   2.732   5.900   0.593
  383SOL     OW 2047   6.181   2.811   0.004
  383SOL    HW1 2048   6.212   2.723   0.039
  383SOL    HW2 2049   6.260   2.871   7.014
  384SOL     OW 2050   1.837   5.652   5.057
  384SOL    HW1 2051   1.915   5.626   5.000
  384SOL    HW2 2052   1.797   5.571   5.098
  385SOL     OW 2053   5.002   5.375   0.946
  385SOL    HW1 2054   4.953   5.462   0.942
  385SOL    HW2 2055   5.037   5.361   1.039
  386SOL     OW 2056   3.427   6.463   5.215
  386SOL    HW1 2057   3.443   6.521   5.294
  386SOL    HW2 2058   3.454   6.510   5.132
  387SOL     OW 2059   0.194   0.522   5.548
  387SOL    HW1 2060   0.273   0.489   5.497
  387SOL    HW2 2061   0.119   0.543   5.484
  388SOL     OW 2062   0.289   2.070   4.920
  388SOL    HW1 2063   0.252   2.024   4.840
  388SOL    HW2 2064   0.328   2.003   4.983
  389SOL     OW 2065   4.083   4.468   1.607
  389SOL    HW1 2066   4.161   4.476   1.670
  389SOL    HW2 2067   3.998   4.476   1.658
  390SOL     OW 2068   3.880   2.257   0.352
  390SOL    HW1 2069   3.812   2.315   0.307
  390SOL    HW2 2070   3.965   2.309   0.365
  391SOL     OW 2071   3.562   4.101   4.814
  391SOL    HW1 2072   3.658   4.124   4.827
  391SOL    HW2 2073   3.535   4.029   4.878
  392SOL     OW 2074   1.544   3.874   1.647
  392SOL    HW1 2075   1.540   3.886   1.746
  392SOL    HW2 2076   1.638   3.852   1.619
  393SOL     OW 2077   1.305   4.539   1.497
  393SOL    HW1 2078   1.389   4.486   1.493
  393SOL    HW2 2079   1.324   4.630   1.534
  394SOL     OW 2080   6.503   1.069   6.517
  394SOL    HW1 2081   6.540   0.976   6.515
  394SOL    HW2 2082   6.412   1.070   6.476
  395SOL     OW 2083   5.645   5.014   0.913
  395SOL    HW1 2084   5.600   4.939   0.864
  395SOL    HW2 2085   5.688   4.980   0.996
  396SOL     OW 2086   1.678   0.308   1.412
  396SOL    HW1 2087   1.599   0.350   1.456
  396SOL    HW2 2088   1.709   0.365   1.336
  397SOL     OW 2089   4.093   2.189   5.520
  397SOL    HW1 2090   4.063   2.232   5.435
  397SOL    HW2 2091   4.027   2.208   5.593
  398SOL     OW 2092   1.325   1.394   4.083
  398SOL    HW1 2093   1.408   1.344   4.061
  398SOL    HW2 2094   1.347   1.473   4.140
  399SOL     OW 2095   5.534   6.219   3.944
  399SOL    HW1 2096   5.470   6.223   4.021
  399SOL    HW2 2097   5.628   6.217   3.978
  400SOL     OW 2098   5.813   0.536   4.137
  400SOL    HW1 2099   5.858   0.483   4.065
  400SOL    HW2 2100   5.882   0.571   4.200
  401SOL     OW 2101   0.551   5.335   5.971
  401SOL    HW1 2102   0.545   5.427   6.011
  401SOL    HW2 2103   0.492   5.331   5.890
  402SOL     OW 2104   6.107   1.546   3.486
  402SOL    HW1 2105   6.191   1.547   3.431
  402SOL    HW2 2106   6.029   1.569   3.427
  403SOL     OW 2107   2.894   1.228   5.289
  403SOL    HW1 2108   2.804   1.205   5.325
  403SOL    HW2 2109   2.960   1.157   5.314
  404SOL     OW 2110   3.597   5.380   3.583
  404SOL    HW1 2111   3.587   5.406   3.486
  404SOL    HW2 2112   3.523   5.318   3.608
  405SOL     OW 2113   1.999   4.897   4.197
  405SOL    HW1 2114   2.031   4.949   4.276
  405SOL    HW2 2115   1.978   4.960   4.122
  406SOL     OW 2116   0.247   6.504   5.653
  406SOL    HW1 2117   0.286   6.447   5.580
  406SOL    HW2 2118   0.283   6.473   5.742
  407SOL     OW 2119   2.186   2.931   4.370
  407SOL    HW1 2120   2.218   2.952   4.278
  407SOL    HW2 2121   2.118   2.999   4.399
  408SOL     OW 2122   2.074   1.593   3.485
  408SOL    HW1 2123   2.045   1.505   3.447
  408SOL    HW2 2124   2.155   1.580   3.541
  409SOL     OW 2125   0.409   3.801   2.595
  409SOL    HW1 2126   0.432   3.814   2.499
  409SOL    HW2 2127   0.473   3.737   2.637
  410SOL     OW 2128   1.560   1.551   1.175
  410SOL    HW1 2129   1.500   1.509   1.107
  410SOL    HW2 2130   1.545   1.650   1.177
  411SOL     OW 2131   0.006   2.752   1.385
  411SOL    HW1 2132   0.091   2.797   1.360
  411SOL    HW2 2133   0.025   2.664   1.429
  412SOL     OW 2134   1.305   4.880   2.509
  412SOL    HW1 2135   1.288   4.784   2.534
  412SOL    HW2 2136   1.265   4.898   2.419
  413SOL     OW 2137   6.081   5.973   2.362
  413SOL    HW1 2138   6.019   5.898   2.385
  413SOL    HW2 2139   6.093   6.032   2.442
  414SOL     OW 2140   1.708   6.792   2.847
  414SOL    HW1 2141   1.648   6.816   2.771
  414SOL    HW2 2142   1.801   6.779   2.814
  415SOL     OW 2143   6.016   0.979   0.398
  415SOL    HW1 2144   5.991   0.899   0.344
  415SOL    HW2 2145   6.066   1.044   0.341
  416SOL     OW 2146   5.661   3.778   5.609
  416SOL    HW1 2147   5.640   3.875   5.625
  416SOL    HW2 2148   5.700   3.767   5.518
  417SOL     OW 2149   1.981   2.084   6.627
  417SOL    HW1 2150   1.912   2.014   6.648
  417SOL    HW2 2151   2.045   2.049   6.559
  418SOL     OW 2152   3.491   0.126   4.477
  418SOL    HW1 2153   3.505   0.124   4.378
  418SOL    HW2 2154   3.533   0.209   4.515
  419SOL     OW 2155   0.039   0.209   0.475
  419SOL    HW1 2156   0.040   0.286   0.410
  419SOL    HW2 2157   0.063   0.125   0.426
  420SOL     OW 2158   3.986   0.514   6.881
  420SOL    HW1 2159   3.981   0.568   6.965
  420SOL    HW2 2160   4.069   0.540   6.830
  421SOL     OW 2161   4.745   4.186   2.166
  421SOL    HW1 2162   4.714   4.227   2.081
  421SOL    HW2 2163   4.820   4.123   2.148
  422SOL     OW 2164   5.354   2.820   1.581
  422SOL    HW1 2165   5.350   2.760   1.661
  422SOL    HW2 2166   5.264   2.861   1.567
  423SOL     OW 2167   3.568   0.565   6.158
  423SOL    HW1 2168   3.485   0.617   6.176
  423SOL    HW2 2169   3.642   0.601   6.215
  424SOL     OW 2170   0.996   3.727   3.994
  424SOL    HW1 2171   0.915   3.767   3.951
  424SOL    HW2 2172   0.991   3.627   3.987
  425SOL     OW 2173   2.991   0.881   6.671
  425SOL    HW1 2174   3.090   0.898   6.674
  425SOL    HW2 2175   2.954   0.880   6.764
  426SOL     OW 2176   2.475   2.107   4.244
  426SOL    HW1 2177   2.493   2.204   4.259
  426SOL    HW2 2178   2.497   2.084   4.149
  427SOL     OW 2179   4.223   2.301   3.101
  427SOL    HW1 2180   4.131   2.272   3.129
  427SOL    HW2 2181   4.251   2.248   3.021
  428SOL     OW 2182   2.674   2.288   6.171
  428SOL    HW1 2183   2.664   2.194   6.139
  428SOL    HW2 2184   2.588   2.337   6.159
  429SOL     OW 2185   6.686   5.400   4.055
  429SOL    HW1 2186   6.633   5.466   4.003
  429SOL    HW2 2187   6.625   5.338   4.104
  430SOL     OW 2188   1.554   0.070   3.894
  430SOL    HW1 2189   1.522   7.001   3.908
  430SOL    HW2 2190   1.653   0.074   3.908
  431SOL     OW 2191   2.237   1.787   1.731
  431SOL    HW1 2192   2.311   1.846   1.763
  431SOL    HW2 2193   2.158   1.843   1.706
  432SOL     OW 2194   4.906   2.072   1.068
  432SOL    HW1 2195   4.912   2.138   1.142
  432SOL    HW2 2196   4.905   1.979   1.105
  433SOL     OW 2197   1.790   4.789   0.852
  433SOL    HW1 2198   1.826   4.776   0.759
  433SOL    HW2 2199   1.781   4.700   0.897
  434SOL     OW 2200   5.261   5.211   3.382
  434SOL    HW1 2201   5.274   5.286   3.316
  434SOL    HW2 2202   5.174   5.224   3.429
  435SOL     OW 2203   3.506   2.288   5.597
  435SOL    HW1 2204   3.514   2.287   5.697
  435SOL    HW2 2205   3.484   2.196   5.564
  436SOL     OW 2206   4.660   6.942   2.961
  436SOL    HW1 2207   4.686   6.912   3.053
  436SOL    HW2 2208   4.689   0.012   2.947
  437SOL     OW 2209   6.154   0.703   5.020
  437SOL    HW1 2210   6.208   0.722   4.939
  437SOL    HW2 2211   6.205   0.730   5.102
  438SOL     OW 2212   0.455   4.901   2.390
  438SOL    HW1 2213   0.395   4.823   2.372
  438SOL    HW2 2214   0.411   4.985   2.357
  439SOL     OW 2215   0.082   0.832   4.782
  439SOL    HW1 2216   0.040   0.887   4.854
  439SOL    HW2 2217   0.038   0.851   4.695
  440SOL     OW 2218   4.199   1.412   0.579
  440SOL    HW1 2219   4.188   1.351   0.501
  440SOL    HW2 2220   4.144   1.495   0.565
  441SOL     OW 2221   0.516   4.496   2.496
  441SOL    HW1 2222   0.522   4.540   2.586
  441SOL    HW2 2223   0.545   4.560   2.425
  442SOL     OW 2224   5.235   2.693   5.698
  442SOL    HW1 2225   5.262   2.604   5.660
  442SOL    HW2 2226   5.300   2.763   5.669
  443SOL     OW 2227   5.259   2.910   1.959
  443SOL    HW1 2228   5.274   2.907   2.058
  443SOL    HW2 2229   5.343   2.884   1.912
  444SOL     OW 2230   4.584   1.580   1.860
  444SOL    HW1 2231   4.648   1.525   1.806
  444SOL    HW2 2232   4.543   1.650   1.801
  445SOL     OW 2233   1.456   5.146   2.515
  445SOL    HW1 2234   1.418   5.056   2.492
  445SOL    HW2 2235   1.443   5.208   2.437
  446SOL     OW 2236   5.693   0.204   1.503
  446SOL    HW1 2237   5.670   0.296   1.472
  446SOL    HW2 2238   5.648   0.137   1.445
  447SOL     OW 2239   5.856   4.674   0.922
  447SOL    HW1 2240   5.939   4.684   0.977
  447SOL    HW2 2241   5.875   4.700   0.827
  448SOL     OW 2242   3.225   6.942   3.769
  448SOL    HW1 2243   3.303   6.913   3.714
  448SOL    HW2 2244   3.149   6.880   3.754
  449SOL     OW 2245   1.484   3.563   4.815
  449SOL    HW1 2246   1.468   3.470   4.782
  449SOL    HW2 2247   1.400   3.617   4.806
  450SOL     OW 2248   0.140   4.704   3.321
  450SOL    HW1 2249   0.129   4.605   3.335
  450SOL    HW2 2250   0.083   4.753   3.388
  451SOL     OW 2251   0.968   2.006   1.073
  451SOL    HW1 2252   0.888   1.961   1.033
  451SOL    HW2 2253   0.949   2.029   1.168
  452SOL     OW 2254   5.095   5.546   2.625
  452SOL    HW1 2255   5.057   5.493   2.701
  452SOL    HW2 2256   5.030   5.544   2.549
  453SOL     OW 2257   3.316   0.842   6.683
  453SOL    HW1 2258   3.329   0.833   6.585
  453SOL    HW2 2259   3.304   0.752   6.724
  454SOL     OW 2260   6.555   3.622   6.444
  454SOL    HW1 2261   6.493   3.629   6.366
  454SOL    HW2 2262   6.525   3.684   6.517
  455SOL     OW 2263   5.160   4.694   5.766
  455SOL    HW1 2264   5.088   4.745   5.719
  455SOL    HW2 2265   5.225   4.658   5.699
  456SOL     OW 2266   2.604   1.057   2.607
  456SOL    HW1 2267   2.690   1.049   2.557
  456SOL    HW2 2268   2.551   0.973   2.596
  457SOL     OW 2269   2.389   6.471   0.232
  457SOL    HW1 2270   2.301   6.475   0.279
  457SOL    HW2 2271   2.436   6.559   0.240
  458SOL     OW 2272   3.120   1.136   3.121
  458SOL    HW1 2273   3.027   1.101   3.115
  458SOL    HW2 2274   3.184   1.060   3.108
  459SOL     OW 2275   3.247   0.292   3.413
  459SOL    HW1 2276   3.332   0.342   3.429
  459SOL    HW2 2277   3.215   0.310   3.320
  460SOL     OW 2278   0.842   1.978   6.433
  460SOL    HW1 2279   0.773   2.002   6.501
  460SOL    HW2 2280   0.933   2.005   6.467
  461SOL     OW 2281   1.208   4.939   5.670
  461SOL    HW1 2282   1.251   4.849   5.669
  461SOL    HW2 2283   1.173   4.960   5.579
  462SOL     OW 2284   3.809   4.190   4.887
  462SOL    HW1 2285   3.857   4.130   4.823
  462SOL    HW2 2286   3.871   4.261   4.919
  463SOL     OW 2287   5.236   6.268   4.024
  463SOL    HW1 2288   5.249   6.327   3.943
  463SOL    HW2 2289   5.252   6.173   3.998
  464SOL     OW 2290   3.698   5.028   6.654
  464SOL    HW1 2291   3.625   5.002   6.591
  464SOL    HW2 2292   3.766   5.084   6.606
  465SOL     OW 2293   0.658   4.233   0.991
  465SOL    HW1 2294   0.573   4.239   1.044
  465SOL    HW2 2295   0.684   4.325   0.959
  466SOL     OW 2296   3.799   5.509   4.603
  466SOL    HW1 2297   3.817   5.429   4.661
  466SOL    HW2 2298   3.808   5.484   4.507
  467SOL     OW 2299   6.146   0.315   2.274
  467SOL    HW1 2300   6.216   0.386   2.270
  467SOL    HW2 2301   6.083   0.324   2.197
  468SOL     OW 2302   3.030   6.275   6.575
  468SOL    HW1 2303   2.966   6.308   6.644
  468SOL    HW2 2304   3.025   6.333   6.494
  469SOL     OW 2305   3.135   4.938   4.788
  469SOL    HW1 2306   3.136   4.858   4.849
  469SOL    HW2 2307   3.044   4.950   4.751
  470SOL     OW 2308   2.456   4.579   2.670
  470SOL    HW1 2309   2.419   4.498   2.714
  470SOL    HW2 2310   2.443   4.658   2.730
  471SOL     OW 2311   1.384   2.427   4.204
  471SOL    HW1 2312   1.456   2.428   4.273
  471SOL    HW2 2313   1.380   2.337   4.161
  472SOL     OW 2314   5.283   3.572   6.525
  472SOL    HW1 2315   5.241   3.654   6.563
  472SOL    HW2 2316   5.213   3.512   6.487
  473SOL     OW 2317   6.197   2.920   2.052
  473SOL    HW1 2318   6.116   2.960   2.095
  473SOL    HW2 2319   6.192   2.821   2.056
  474SOL     OW 2320   4.997   6.017   4.384
  474SOL    HW1 2321   4.942   6.017   4.468
  474SOL    HW2 2322   5.057   5.937   4.383
  475SOL     OW 2323   5.650   2.007   0.614
  475SOL    HW1 2324   5.608   2.073   0.677
  475SOL    HW2 2325   5.725   1.960   0.661
  476SOL     OW 2326   1.199   3.972   0.389
  476SOL    HW1 2327   1.122   4.028   0.360
  476SOL    HW2 2328   1.167   3.904   0.456
  477SOL     OW 2329   1.740   4.759   3.850
  477SOL    HW1 2330   1.718   4.722   3.941
  477SOL    HW2 2331   1.774   4.852   3.860
  478SOL     OW 2332   5.202   6.070   2.377
  478SOL    HW1 2333   5.187   6.051   2.474
  478SOL    HW2 2334   5.274   6.011   2.341
  479SOL     OW 2335   3.603   4.111   3.340
  479SOL    HW1 2336   3.647   4.094   3.429
  479SOL    HW2 2337   3.531   4.043   3.326
  480SOL     OW 2338   0.854   0.897   2.403
  480SOL    HW1 2339   0.863   0.845   2.488
  480SOL    HW2 2340   0.763   0.939   2.399
  481SOL     OW 2341   0.019   0.304   0.738
  481SOL    HW1 2342   0.022   0.270   0.644
  481SOL    HW2 2343   0.099   0.272   0.788
  482SOL     OW 2344   4.085   4.853   2.207
  482SOL    HW1 2345   3.990   4.870   2.181
  482SOL    HW2 2346   4.095   4.862   2.306
  483SOL     OW 2347   5.750   2.376   4.147
  483SOL    HW1 2348   5.753   2.468   4.108
  483SOL    HW2 2349   5.787   2.311   4.081
  484SOL     OW 2350   2.557   4.554   3.759
  484SOL    HW1 2351   2.483   4.501   3.717
  484SOL    HW2 2352   2.590   4.506   3.840
  485SOL     OW 2353   5.580   2.699   1.508
  485SOL    HW1 2354   5.502   2.758   1.527
  485SOL    HW2 2355   5.637   2.691   1.590
  486SOL     OW 2356   5.667   6.114   6.202
  486SOL    HW1 2357   5.621   6.174   6.267
  486SOL    HW2 2358   5.600   6.056   6.157
  487SOL     OW 2359   0.328   6.848   5.907
  487SOL    HW1 2360   0.240   6.854   5.860
  487SOL    HW2 2361   0.381   6.931   5.888
  488SOL     OW 2362   2.302   5.458   3.380
  488SOL    HW1 2363   2.313   5.359   3.377
  488SOL    HW2 2364   2.307   5.489   3.475
  489SOL     OW 2365   2.176   5.629   5.750
  489SOL    HW1 2366   2.147   5.557   5.687
  489SOL    HW2 2367   2.275   5.624   5.762
  490SOL     OW 2368   0.496   4.304   4.698
  490SOL    HW1 2369   0.451   4.291   4.609
  490SOL    HW2 2370   0.463   4.235   4.762
  491SOL     OW 2371   0.211   2.769   0.666
  491SOL    HW1 2372   0.284   2.728   0.610
  491SOL    HW2 2373   0.207   2.867   0.650
  492SOL     OW 2374   1.380   2.964   5.646
  492SOL    HW1 2375   1.380   2.902   5.724
  492SOL    HW2 2376   1.415   3.053   5.675
  493SOL     OW 2377   2.004   5.228   4.883
  493SOL    HW1 2378   2.068   5.157   4.852
  493SOL    HW2 2379   2.016   5.243   4.981
  494SOL     OW 2380   2.676   6.753   4.442
  494SOL    HW1 2381   2.590   6.706   4.459
  494SOL    HW2 2382   2.722   6.772   4.528
  495SOL     OW 2383   3.872   3.969   6.803
  495SOL    HW1 2384   3.819   4.031   6.860
  495SOL    HW2 2385   3.815   3.934   6.729
  496SOL     OW 2386   4.951   1.748   3.525
  496SOL    HW1 2387   4.997   1.660   3.517
  496SOL    HW2 2388   4.968   1.803   3.443
  497SOL     OW 2389   4.867   1.273   0.346
  497SOL    HW1 2390   4.862   1.175   0.326
  497SOL    HW2 2391   4.945   1.313   0.299
  498SOL     OW 2392   0.054   6.854   1.254
  498SOL    HW1 2393   0.139   6.804   1.233
  498SOL    HW2 2394   0.074   6.952   1.259
  499SOL     OW 2395   2.727   5.763   0.162
  499SOL    HW1 2396   2.793   5.689   0.151
  499SOL    HW2 2397   2.640   5.725   0.195
  500SOL     OW 2398   5.703   2.034   6.825
  500SOL    HW1 2399   5.635   1.960   6.830
  500SOL    HW2 2400   5.658   2.117   6.792
  501SOL     OW 2401   1.357   1.162   4.759
  501SOL    HW1 2402   1.340   1.082   4.701
  501SOL    HW2 2403   1.379   1.240   4.701
  502SOL     OW 2404   2.457   4.321   6.987
  502SOL    HW1 2405   2.555   4.325   7.006
  502SOL    HW2 2406   2.408   4.378   0.029
  503SOL     OW 2407   3.988   5.658   1.164
  503SOL    HW1 2408   3.985   5.718   1.084
  503SOL    HW2 2409   4.028   5.570   1.137
  504SOL     OW 2410   6.870   5.697   1.544
  504SOL    HW1 2411   6.921   5.781   1.566
  504SOL    HW2 2412   6.803   5.679   1.616
  505SOL     OW 2413   5.093   5.710   5.292
  505SOL    HW1 2414   5.030   5.765   5.346
  505SOL    HW2 2415   5.118   5.628   5.344
  506SOL     OW 2416   3.710   5.070   2.962
  506SOL    HW1 2417   3.642   5.047   2.892
  506SOL    HW2 2418   3.683   5.029   3.049
  507SOL     OW 2419   3.102   0.897   1.523
  507SOL    HW1 2420   3.150   0.891   1.611
  507SOL    HW2 2421   3.118   0.987   1.483
  508SOL     OW 2422   0.389   4.575   3.206
  508SOL    HW1 2423   0.333   4.508   3.157
  508SOL    HW2 2424   0.330   4.640   3.254
  509SOL     OW 2425   4.451   6.819   6.058
  509SOL    HW1 2426   4.420   6.724   6.057
  509SOL    HW2 2427   4.486   6.843   5.967
  510SOL     OW 2428   6.418   3.919   0.054
  510SOL    HW1 2429   6.327   3.922   0.014
  510SOL    HW2 2430   6.424   3.987   0.127
  511SOL     OW 2431   0.660   1.680   0.350
  511SOL    HW1 2432   0.585   1.616   0.333
  511SOL    HW2 2433   0.692   1.668   0.444
  512SOL     OW 2434   0.710   2.294   3.973
  512SOL    HW1 2435   0.780   2.251   4.031
  512SOL    HW2 2436   0.628   2.237   3.973
  513SOL     OW 2437   4.931   0.707   3.503
  513SOL    HW1 2438   4.980   0.628   3.466
  513SOL    HW2 2439   4.838   0.708   3.466
  514SOL     OW 2440   5.296   0.730   4.997
  514SOL    HW1 2441   5.333   0.822   5.012
  514SOL    HW2 2442   5.358   0.679   4.938
  515SOL     OW 2443   4.046   0.140   6.165
  515SOL    HW1 2444   4.024   0.106   6.074
  515SOL    HW2 2445   4.130   0.096   6.198
  516SOL     OW 2446   1.957   6.014   2.270
  516SOL    HW1 2447   1.992   6.005   2.177
  516SOL    HW2 2448   2.031   6.002   2.335
  517SOL     OW 2449   2.935   5.852   1.334
  517SOL    HW1 2450   2.934   5.758   1.368
  517SOL    HW2 2451   2.844   5.874   1.297
  518SOL     OW 2452   1.653   4.177   4.216
  518SOL    HW1 2453   1.645   4.078   4.222
  518SOL    HW2 2454   1.621   4.219   4.301
  519SOL     OW 2455   0.143   0.429   2.223
  519SOL    HW1 2456   0.074   0.496   2.251
  519SOL    HW2 2457   0.209   0.417   2.298
  520SOL     OW 2458   2.133   3.997   0.837
  520SOL    HW1 2459   2.135   3.907   0.794
  520SOL    HW2 2460   2.163   3.989   0.932
  521SOL     OW 2461   6.459   6.066   4.572
  521SOL    HW1 2462   6.477   5.983   4.625
  521SOL    HW2 2463   6.430   6.040   4.479
  522SOL     OW 2464   3.775   4.107   0.806
  522SOL    HW1 2465   3.754   4.009   0.813
  522SOL    HW2 2466   3.725   4.156   0.877
  523SOL     OW 2467   0.846   0.117   0.275
  523SOL    HW1 2468   0.752   0.085   0.288
  523SOL    HW2 2469   0.855   0.158   0.184
  524SOL     OW 2470   6.804   1.578   1.041
  524SOL    HW1 2471   6.848   1.598   0.953
  524SOL    HW2 2472   6.713   1.541   1.024
  525SOL     OW 2473   0.550   3.368   4.256
  525SOL    HW1 2474   0.484   3.321   4.315
  525SOL    HW2 2475   0.604   3.301   4.207
  526SOL     OW 2476   3.567   0.474   3.832
  526SOL    HW1 2477   3.500   0.450   3.902
  526SOL    HW2 2478   3.535   0.440   3.743
  527SOL     OW 2479   0.402   1.309   0.785
  527SOL    HW1 2480   0.354   1.332   0.701
  527SOL    HW2 2481   0.454   1.388   0.817
  528SOL     OW 2482   6.711   2.856   4.715
  528SOL    HW1 2483   6.710   2.946   4.759
  528SOL    HW2 2484   6.682   2.866   4.620
  529SOL     OW 2485   2.029   6.974   6.995
  529SOL    HW1 2486   1.972   0.032   6.991
  529SOL    HW2 2487   1.981   6.902   0.021
  530SOL     OW 2488   3.542   4.899   1.081
  530SOL    HW1 2489   3.489   4.976   1.117
  530SOL    HW2 2490   3.639   4.923   1.077
  531SOL     OW 2491   1.793   0.132   0.572
  531SOL    HW1 2492   1.873   0.072   0.568
  531SOL    HW2 2493   1.709   0.077   0.565
  532SOL     OW 2494   1.782   2.202   5.898
  532SOL    HW1 2495   1.806   2.109   5.871
  532SOL    HW2 2496   1.839   2.230   5.976
  533SOL     OW 2497   3.919   0.478   3.926
  533SOL    HW1 2498   3.831   0.515   3.955
  533SOL    HW2 2499   3.968   0.443   4.006
  534SOL     OW 2500   1.923   4.027   2.265
  534SOL    HW1 2501   1.980   3.944   2.270
  534SOL    HW2 2502   1.912   4.053   2.170
  535SOL     OW 2503   4.918   3.257   4.097
  535SOL    HW1 2504   4.984   3.185   4.119
  535SOL    HW2 2505   4.826   3.223   4.113
  536SOL     OW 2506   6.251   6.745   1.672
  536SOL    HW1 2507   6.267   6.655   1.631
  536SOL    HW2 2508   6.232   6.811   1.599
  537SOL     OW 2509   2.877   1.794   3.456
  537SOL    HW1 2510   2.881   1.759   3.363
  537SOL    HW2 2511   2.940   1.871   3.466
  538SOL     OW 2512   3.337   4.911   5.109
  538SOL    HW1 2513   3.244   4.938   5.085
  538SOL    HW2 2514   3.336   4.819   5.147
  539SOL     OW 2515   0.817   0.209   7.014
  539SOL    HW1 2516   0.820   0.304   6.981
  539SOL    HW2 2517   0.750   0.158   6.962
  540SOL     OW 2518   1.529   0.498   4.683
  540SOL    HW1 2519   1.435   0.515   4.653
  540SOL    HW2 2520   1.570   0.428   4.625
  541SOL     OW 2521   4.988   6.144   3.714
  541SOL    HW1 2522   4.971   6.095   3.799
  541SOL    HW2 2523   5.067   6.205   3.725
  542SOL     OW 2524   3.537   0.131   5.241
  542SOL    HW1 2525   3.571   0.059   5.181
  542SOL    HW2 2526   3.561   0.111   5.336
  543SOL     OW 2527   6.464   2.091   3.851
  543SOL    HW1 2528   6.394   2.023   3.871
  543SOL    HW2 2529   6.527   2.098   3.929
  544SOL     OW 2530   1.465   3.568   1.799
  544SOL    HW1 2531   1.425   3.510   1.728
  544SOL    HW2 2532   1.397   3.634   1.831
  545SOL     OW 2533   6.142   6.831   1.216
  545SOL    HW1 2534   6.201   6.907   1.188
  545SOL    HW2 2535   6.196   6.747   1.220
  546SOL     OW 2536   0.259   4.527   2.361
  546SOL    HW1 2537   0.326   4.547   2.432
  546SOL    HW2 2538   0.264   4.430   2.336
  547SOL     OW 2539   5.344   0.698   6.250
  547SOL    HW1 2540   5.290   0.726   6.329
  547SOL    HW2 2541   5.329   0.601   6.231
  548SOL     OW 2542   4.302   2.192   0.296
  548SOL    HW1 2543   4.290   2.237   0.384
  548SOL    HW2 2544   4.281   2.095   0.305
  549SOL     OW 2545   5.462   1.226   1.641
  549SOL    HW1 2546   5.393   1.163   1.676
  549SOL    HW2 2547   5.478   1.299   1.708
  550SOL     OW 2548   0.285   6.241   3.487
  550SOL    HW1 2549   0.334   6.171   3.434
  550SOL    HW2 2550   0.332   6.257   3.573
  551SOL     OW 2551   6.456   0.524   0.397
  551SOL    HW1 2552   6.510   0.518   0.313
  551SOL    HW2 2553   6.359   0.521   0.374
  552SOL     OW 2554   0.297   6.346   5.437
  552SOL    HW1 2555   0.354   6.266   5.453
  552SOL    HW2 2556   0.208   6.317   5.400
  553SOL     OW 2557   3.146   1.135   6.942
  553SOL    HW1 2558   3.095   1.115   6.859
  553SOL    HW2 2559   3.197   1.220   6.931
  554SOL     OW 2560   5.665   6.415   1.352
  554SOL    HW1 2561   5.572   6.395   1.321
  554SOL    HW2 2562   5.731   6.380   1.286
  555SOL     OW 2563   1.707   3.991   5.675
  555SOL    HW1 2564   1.719   3.925   5.749
  555SOL    HW2 2565   1.755   4.076   5.698
  556SOL     OW 2566   5.805   0.554   3.783
  556SOL    HW1 2567   5.851   0.626   3.732
  556SOL    HW2 2568   5.787   0.585   3.876
  557SOL     OW 2569   6.664   4.297   6.558
  557SOL    HW1 2570   6.692   4.212   6.601
  557SOL    HW2 2571   6.679   4.373   6.620
  558SOL     OW 2572   3.150   4.014   2.394
  558SOL    HW1 2573   3.100   4.009   2.480
  558SOL    HW2 2574   3.244   3.985   2.409
  559SOL     OW 2575   6.190   6.690   5.094
  559SOL    HW1 2576   6.132   6.651   5.023
  559SOL    HW2 2577   6.286   6.678   5.068
  560SOL     OW 2578   6.894   3.248   4.219
  560SOL    HW1 2579   6.907   3.211   4.311
  560SOL    HW2 2580   6.899   3.348   4.222
  561SOL     OW 2581   0.691   2.836   0.330
  561SOL    HW1 2582   0.610   2.863   0.277
  561SOL    HW2 2583   0.755   2.913   0.333
  562SOL     OW 2584   3.983   0.190   5.015
  562SOL    HW1 2585   3.976   0.287   5.035
  562SOL    HW2 2586   3.902   0.160   4.965
  563SOL     OW 2587   1.304   0.457   3.861
  563SOL    HW1 2588   1.334   0.552   3.875
  563SOL    HW2 2589   1.215   0.444   3.905
  564SOL     OW 2590   6.686   1.806   6.336
  564SOL    HW1 2591   6.636   1.876   6.385
  564SOL    HW2 2592   6.717   1.735   6.400
  565SOL     OW 2593   3.359   3.628   3.451
  565SOL    HW1 2594   3.331   3.537   3.482
  565SOL    HW2 2595   3.399   3.678   3.528
  566SOL     OW 2596   3.018   0.669   3.814
  566SOL    HW1 2597   3.114   0.689   3.795
  566SOL    HW2 2598   2.982   0.739   3.876
  567SOL     OW 2599   2.475   2.796   5.630
  567SOL    HW1 2600   2.477   2.698   5.650
  567SOL    HW2 2601   2.565   2.823   5.594
  568SOL     OW 2602   0.939   6.514   6.840
  568SOL    HW1 2603   0.905   6.608   6.850
  568SOL    HW2 2604   0.960   6.496   6.744
  569SOL     OW 2605   5.933   3.435   0.180
  569SOL    HW1 2606   5.880   3.503   0.129
  569SOL    HW2 2607   5.984   3.481   0.252
  570SOL     OW 2608   2.422   0.548   6.012
  570SOL    HW1 2609   2.485   0.567   6.088
  570SOL    HW2 2610   2.465   0.484   5.949
  571SOL     OW 2611   2.232   4.699   1.088
  571SOL    HW1 2612   2.183   4.705   1.174
  571SOL    HW2 2613   2.171   4.662   1.017
  572SOL     OW 2614   2.907   0.174   4.466
  572SOL    HW1 2615   2.865   0.170   4.376
  572SOL    HW2 2616   3.004   0.151   4.459
  573SOL     OW 2617   0.394   0.781   5.506
  573SOL    HW1 2618   0.464   0.735   5.451
  573SOL    HW2 2619   0.399   0.748   5.600
  574SOL     OW 2620   2.316   1.821   5.459
  574SOL    HW1 2621   2.218   1.814   5.439
  574SOL    HW2 2622   2.357   1.891   5.401
  575SOL     OW 2623   4.046   3.226   0.279
  575SOL    HW1 2624   4.010   3.264   0.194
  575SOL    HW2 2625   4.048   3.297   0.349
  576SOL     OW 2626   2.074   2.493   2.333
  576SOL    HW1 2627   2.152   2.445   2.293
  576SOL    HW2 2628   2.005   2.508   2.263
  577SOL     OW 2629   0.415   0.788   1.327
  577SOL    HW1 2630   0.371   0.830   1.406
  577SOL    HW2 2631   0.352   0.789   1.249
  578SOL     OW 2632   3.284   6.605   6.523
  578SOL    HW1 2633   3.309   6.687   6.573
  578SOL    HW2 2634   3.360   6.540   6.526
  579SOL     OW 2635   2.083   3.713   1.898
  579SOL    HW1 2636   1.987   3.724   1.924
  579SOL    HW2 2637   2.120   3.631   1.942
  580SOL     OW 2638   4.895   5.720   5.028
  580SOL    HW1 2639   4.837   5.769   4.962
  580SOL    HW2 2640   4.912   5.779   5.107
  581SOL     OW 2641   1.885   2.758   4.699
  581SOL    HW1 2642   1.831   2.821   4.755
  581SOL    HW2 2643   1.918   2.683   4.756
  582SOL     OW 2644   4.784   5.224   3.818
  582SOL    HW1 2645   4.868   5.274   3.794
  582SOL    HW2 2646   4.801   5.126   3.811
  583SOL     OW 2647   4.232   6.197   5.812
  583SOL    HW1 2648   4.179   6.129   5.862
  583SOL    HW2 2649   4.328   6.193   5.840
  584SOL     OW 2650   4.671   0.731   5.173
  584SOL    HW1 2651   4.712   0.806   5.225
  584SOL    HW2 2652   4.573   0.728   5.191
  585SOL     OW 2653   3.069   0.653   1.902
  585SOL    HW1 2654   3.112   0.742   1.894
  585SOL    HW2 2655   3.114   0.588   1.840
  586SOL     OW 2656   3.774   0.826   0.903
  586SOL    HW1 2657   3.817   0.737   0.889
  586SOL    HW2 2658   3.713   0.822   0.982
  587SOL     OW 2659   4.866   2.048   1.566
  587SOL    HW1 2660   4.940   2.014   1.624
  587SOL    HW2 2661   4.789   2.077   1.623
  588SOL     OW 2662   1.639   5.372   3.044
  588SOL    HW1 2663   1.541   5.354   3.036
  588SOL    HW2 2664   1.657   5.422   3.129
  589SOL     OW 2665   3.105   5.417   0.842
  589SOL    HW1 2666   3.023   5.433   0.788
  589SOL    HW2 2667   3.173   5.368   0.786
  590SOL     OW 2668   4.198   1.924   0.742
  590SOL    HW1 2669   4.226   1.957   0.832
  590SOL    HW2 2670   4.237   1.833   0.726
  591SOL     OW 2671   3.198   6.110   4.091
  591SOL    HW1 2672   3.278   6.078   4.040
  591SOL    HW2 2673   3.221   6.193   4.141
  592SOL     OW 2674   3.805   2.179   4.399
  592SOL    HW1 2675   3.724   2.237   4.396
  592SOL    HW2 2676   3.788   2.096   4.346
  593SOL     OW 2677   2.932   2.037   6.763
  593SOL    HW1 2678   2.976   2.033   6.852
  593SOL    HW2 2679   2.862   1.966   6.756
  594SOL     OW 2680   5.010   1.041   2.125
  594SOL    HW1 2681   5.031   0.946   2.144
  594SOL    HW2 2682   5.049   1.100   2.195
  595SOL     OW 2683   5.708   5.622   2.378
  595SOL    HW1 2684   5.758   5.542   2.343
  595SOL    HW2 2685   5.674   5.676   2.301
  596SOL     OW 2686   6.237   4.696   4.365
  596SOL    HW1 2687   6.198   4.658   4.450
  596SOL    HW2 2688   6.169   4.691   4.292
  597SOL     OW 2689   2.642   0.285   6.344
  597SOL    HW1 2690   2.741   0.279   6.363
  597SOL    HW2 2691   2.627   0.286   6.246
  598SOL     OW 2692   3.222   4.017   4.180
  598SOL    HW1 2693   3.191   4.052   4.268
  598SOL    HW2 2694   3.214   3.917   4.179
  599SOL     OW 2695   1.151   4.957   1.433
  599SOL    HW1 2696   1.209   4.899   1.491
  599SOL    HW2 2697   1.149   5.050   1.470
  600SOL     OW 2698   6.297   3.696   5.110
  600SOL    HW1 2699   6.392   3.719   5.085
  600SOL    HW2 2700   6.282   3.718   5.207
  601SOL     OW 2701   1.381   6.422   5.627
  601SOL    HW1 2702   1.441   6.442   5.704
  601SOL    HW2 2703   1.424   6.354   5.568
  602SOL     OW 2704   2.058   0.205   3.384
  602SOL    HW1 2705   2.041   0.203   3.285
  602SOL    HW2 2706   2.104   0.120   3.411
  603SOL     OW 2707   1.441   1.381   4.622
  603SOL    HW1 2708   1.513   1.450   4.628
  603SOL    HW2 2709   1.364   1.417   4.569
  604SOL     OW 2710   6.451   2.270   1.656
  604SOL    HW1 2711   6.361   2.261   1.698
  604SOL    HW2 2712   6.515   2.309   1.722
  605SOL     OW 2713   6.765   6.481   1.418
  605SOL    HW1 2714   6.733   6.386   1.414
  605SOL    HW2 2715   6.825   6.493   1.497
  606SOL     OW 2716   3.599   7.020   4.244
  606SOL    HW1 2717   3.653   7.002   4.162
  606SOL    HW2 2718   3.511   6.973   4.237
  607SOL     OW 2719   1.632   3.744   6.078
  607SOL    HW1 2720   1.556   3.694   6.121
  607SOL    HW2 2721   1.667   3.813   6.142
  608SOL     OW 2722   3.339   1.241   5.667
  608SOL    HW1 2723   3.333   1.142   5.657
  608SOL    HW2 2724   3.248   1.278   5.685
  609SOL     OW 2725   3.075   2.858   1.828
  609SOL    HW1 2726   3.167   2.852   1.865
  609SOL    HW2 2727   3.037   2.767   1.815
  610SOL     OW 2728   4.689   3.369   1.631
  610SOL    HW1 2729   4.737   3.396   1.549
  610SOL    HW2 2730   4.750   3.319   1.692
  611SOL     OW 2731   3.226   0.663   3.129
  611SOL    HW1 2732   3.215   0.566   3.152
  611SOL    HW2 2733   3.142   0.697   3.086
  612SOL     OW 2734   4.156   5.016   4.549
  612SOL    HW1 2735   4.179   4.922   4.571
  612SOL    HW2 2736   4.188   5.038   4.457
  613SOL     OW 2737   4.257   4.756   5.338
  613SOL    HW1 2738   4.239   4.699   5.418
  613SOL    HW2 2739   4.301   4.841   5.368
  614SOL     OW 2740   3.325   5.542   6.069
  614SOL    HW1 2741   3.401   5.565   6.009
  614SOL    HW2 2742   3.266   5.475   6.025
  615SOL     OW 2743   0.546   5.221   2.249
  615SOL    HW1 2744   0.565   5.234   2.152
  615SOL    HW2 2745   0.627   5.245   2.302
  616SOL     OW 2746   6.032   3.392   3.649
  616SOL    HW1 2747   5.982   3.339   3.717
  616SOL    HW2 2748   6.123   3.352   3.636
  617SOL     OW 2749   3.132   6.378   6.098
  617SOL    HW1 2750   3.155   6.281   6.092
  617SOL    HW2 2751   3.213   6.431   6.122
  618SOL     OW 2752   1.481   1.044   2.481
  618SOL    HW1 2753   1.460   1.115   2.414
  618SOL    HW2 2754   1.570   1.062   2.523
  619SOL     OW 2755   0.422   1.406   6.807
  619SOL    HW1 2756   0.433   1.310   6.780
  619SOL    HW2 2757   0.487   1.428   6.880
  620SOL     OW 2758   4.356   3.464   1.424
  620SOL    HW1 2759   4.403   3.519   1.492
  620SOL    HW2 2760   4.266   3.504   1.406
  621SOL     OW 2761   0.714   4.872   1.185
  621SOL    HW1 2762   0.806   4.834   1.174
  621SOL    HW2 2763   0.716   4.944   1.255
  622SOL     OW 2764   1.361   0.521   6.668
  622SOL    HW1 2765   1.414   0.564   6.595
  622SOL    HW2 2766   1.397   0.429   6.686
  623SOL     OW 2767   0.391   4.659   6.152
  623SOL    HW1 2768   0.388   4.605   6.068
  623SOL    HW2 2769   0.332   4.618   6.220
  624SOL     OW 2770   1.076   2.163   1.874
  624SOL    HW1 2771   1.075   2.248   1.820
  624SOL    HW2 2772   1.165   2.119   1.865
  625SOL     OW 2773   1.654   1.233   1.545
  625SOL    HW1 2774   1.707   1.196   1.622
  625SOL    HW2 2775   1.658   1.168   1.469
  626SOL     OW 2776   3.329   6.953   4.246
  626SOL    HW1 2777   3.328   6.857   4.275
  626SOL    HW2 2778   3.242   6.975   4.202
  627SOL     OW 2779   4.687   0.722   6.838
  627SOL    HW1 2780   4.641   0.645   6.880
  627SOL    HW2 2781   4.725   0.782   6.909
  628SOL     OW 2782   5.515   3.963   3.432
  628SOL    HW1 2783   5.593   3.938   3.490
  628SOL    HW2 2784   5.513   3.903   3.352
  629SOL     OW 2785   1.850   6.316   0.230
  629SOL    HW1 2786   1.884   6.375   0.157
  629SOL    HW2 2787   1.887   6.224   0.220
  630SOL     OW 2788   3.584   1.687   1.278
  630SOL    HW1 2789   3.517   1.704   1.350
  630SOL    HW2 2790   3.543   1.707   1.189
  631SOL     OW 2791   2.342   6.838   4.692
  631SOL    HW1 2792   2.368   6.899   4.617
  631SOL    HW2 2793   2.371   6.878   4.779
  632SOL     OW 2794   2.438   1.166   1.194
  632SOL    HW1 2795   2.346   1.206   1.198
  632SOL    HW2 2796   2.501   1.234   1.156
  633SOL     OW 2797   2.392   6.705   5.817
  633SOL    HW1 2798   2.340   6.658   5.889
  633SOL    HW2 2799   2.471   6.751   5.858
  634SOL     OW 2800   3.431   6.259   0.719
  634SOL    HW1 2801   3.505   6.196   0.696
  634SOL    HW2 2802   3.401   6.243   0.814
  635SOL     OW 2803   2.669   0.630   2.972
  635SOL    HW1 2804   2.697   0.663   3.062
  635SOL    HW2 2805   2.570   0.641   2.962
  636SOL     OW 2806   5.110   5.658   0.238
  636SOL    HW1 2807   5.010   5.649   0.246
  636SOL    HW2 2808   5.131   5.742   0.188
  637SOL     OW 2809   5.491   4.769   0.833
  637SOL    HW1 2810   5.452   4.781   0.924
  637SOL    HW2 2811   5.500   4.672   0.813
  638SOL     OW 2812   5.431   1.398   2.735
  638SOL    HW1 2813   5.362   1.327   2.727
  638SOL    HW2 2814   5.519   1.362   2.704
  639SOL     OW 2815   4.557   4.531   2.523
  639SOL    HW1 2816   4.596   4.458   2.468
  639SOL    HW2 2817   4.631   4.579   2.572
  640SOL     OW 2818   2.931   4.195   5.814
  640SOL    HW1 2819   3.021   4.191   5.772
  640SOL    HW2 2820   2.863   4.155   5.752
  641SOL     OW 2821   6.923   6.022   5.071
  641SOL    HW1 2822   6.939   6.055   4.978
  641SOL    HW2 2823   6.871   5.937   5.067
  642SOL     OW 2824   1.656   4.534   6.013
  642SOL    HW1 2825   1.582   4.564   6.074
  642SOL    HW2 2826   1.718   4.610   5.996
  643SOL     OW 2827   5.505   6.006   4.615
  643SOL    HW1 2828   5.488   5.976   4.521
  643SOL    HW2 2829   5.422   6.049   4.652
  644SOL     OW 2830   2.021   6.117   1.755
  644SOL    HW1 2831   1.948   6.162   1.704
  644SOL    HW2 2832   2.102   6.176   1.757
  645SOL     OW 2833   5.835   3.293   3.819
  645SOL    HW1 2834   5.762   3.235   3.784
  645SOL    HW2 2835   5.814   3.320   3.913
  646SOL     OW 2836   1.287   1.504   4.439
  646SOL    HW1 2837   1.221   1.573   4.470
  646SOL    HW2 2838   1.341   1.542   4.364
  647SOL     OW 2839   4.990   3.033   0.512
  647SOL    HW1 2840   5.028   3.053   0.602
  647SOL    HW2 2841   5.065   3.008   0.450
  648SOL     OW 2842   5.391   2.213   3.163
  648SOL    HW1 2843   5.486   2.241   3.156
  648SOL    HW2 2844   5.375   2.172   3.253
  649SOL     OW 2845   4.307   4.642   2.189
  649SOL    HW1 2846   4.227   4.694   2.159
  649SOL    HW2 2847   4.279   4.550   2.215
  650SOL     OW 2848   4.216   3.623   1.077
  650SOL    HW1 2849   4.189   3.604   1.171
  650SOL    HW2 2850   4.274   3.550   1.042
  651SOL     OW 2851   1.371   5.561   6.115
  651SOL    HW1 2852   1.456   5.526   6.154
  651SOL    HW2 2853   1.294   5.529   6.171
  652SOL     OW 2854   4.211   1.416   2.331
  652SOL    HW1 2855   4.271   1.377   2.261
  652SOL    HW2 2856   4.232   1.514   2.340
  653SOL     OW 2857   3.974   5.106   3.512
  653SOL    HW1 2858   3.965   5.069   3.419
  653SOL    HW2 2859   3.925   5.193   3.518
  654SOL     OW 2860   6.336   5.035   0.427
  654SOL    HW1 2861   6.345   5.093   0.346
  654SOL    HW2 2862   6.379   5.080   0.505
  655SOL     OW 2863   0.452   0.717   6.870
  655SOL    HW1 2864   0.448   0.618   6.885
  655SOL    HW2 2865   0.543   0.751   6.895
  656SOL     OW 2866   2.809   6.217   2.139
  656SOL    HW1 2867   2.821   6.273   2.221
  656SOL    HW2 2868   2.735   6.255   2.083
  657SOL     OW 2869   4.160   1.264   6.862
  657SOL    HW1 2870   4.210   1.335   6.911
  657SOL    HW2 2871   4.222   1.215   6.801
  658SOL     OW 2872   3.576   5.186   6.301
  658SOL    HW1 2873   3.555   5.282   6.321
  658SOL    HW2 2874   3.611   5.179   6.208
  659SOL     OW 2875   2.704   0.152   6.794
  659SOL    HW1 2876   2.643   0.103   6.732
  659SOL    HW2 2877   2.772   0.203   6.741
  660SOL     OW 2878   3.919   5.388   3.018
  660SOL    HW1 2879   3.957   5.296   3.032
  660SOL    HW2 2880   3.964   5.431   2.940
  661SOL     OW 2881   5.675   5.782   2.838
  661SOL    HW1 2882   5.724   5.720   2.899
  661SOL    HW2 2883   5.642   5.731   2.759
  662SOL     OW 2884   3.719   1.230   0.429
  662SOL    HW1 2885   3.807   1.215   0.384
  662SOL    HW2 2886   3.726   1.310   0.490
  663SOL     OW 2887   2.338   4.746   4.883
  663SOL    HW1 2888   2.365   4.813   4.952
  663SOL    HW2 2889   2.382   4.658   4.903
  664SOL     OW 2890   6.325   1.183   7.023
  664SOL    HW1 2891   6.403   1.243   0.021
  664SOL    HW2 2892   6.356   1.110   6.963
  665SOL     OW 2893   2.005   5.155   2.448
  665SOL    HW1 2894   1.917   5.174   2.492
  665SOL    HW2 2895   1.992   5.090   2.373
  666SOL     OW 2896   3.885   0.930   1.511
  666SOL    HW1 2897   3.833   0.891   1.587
  666SOL    HW2 2898   3.901   1.027   1.528
  667SOL     OW 2899   1.125   6.253   2.348
  667SOL    HW1 2900   1.093   6.164   2.315
  667SOL    HW2 2901   1.096   6.267   2.442
  668SOL     OW 2902   5.564   3.766   0.505
  668SOL    HW1 2903   5.645   3.820   0.484
  668SOL    HW2 2904   5.590   3.670   0.518
  669SOL     OW 2905   4.876   1.337   2.551
  669SOL    HW1 2906   4.813   1.413   2.535
  669SOL    HW2 2907   4.832   1.251   2.525
  670SOL     OW 2908   3.101   2.095   3.186
  670SOL    HW1 2909   3.102   2.031   3.110
  670SOL    HW2 2910   3.013   2.089   3.234
  671SOL     OW 2911   3.160   6.716   1.404
  671SOL    HW1 2912   3.255   6.712   1.435
  671SOL    HW2 2913   3.157   6.705   1.305
  672SOL     OW 2914   1.404   6.630   1.913
  672SOL    HW1 2915   1.465   6.667   1.982
  672SOL    HW2 2916   1.368   6.542   1.945
  673SOL     OW 2917   5.862   6.447   0.790
  673SOL    HW1 2918   5.767   6.447   0.821
  673SOL    HW2 2919   5.898   6.354   0.795
  674SOL     OW 2920   6.347   1.324   4.320
  674SOL    HW1 2921   6.431   1.296   4.367
  674SOL    HW2 2922   6.365   1.404   4.263
  675SOL     OW 2923   0.432   3.065   3.148
  675SOL    HW1 2924   0.376   3.136   3.191
  675SOL    HW2 2925   0.411   3.060   3.051
  676SOL     OW 2926   2.766   6.262   6.032
  676SOL    HW1 2927   2.802   6.278   6.124
  676SOL    HW2 2928   2.828   6.301   5.964
  677SOL     OW 2929   5.100   1.610   1.034
  677SOL    HW1 2930   5.099   1.697   1.084
  677SOL    HW2 2931   5.011   1.596   0.990
  678SOL     OW 2932   1.724   4.818   4.379
  678SOL    HW1 2933   1.778   4.736   4.400
  678SOL    HW2 2934   1.765   4.897   4.425
  679SOL     OW 2935   4.885   2.131   5.239
  679SOL    HW1 2936   4.979   2.161   5.251
  679SOL    HW2 2937   4.858   2.142   5.143
  680SOL     OW 2938   5.352   6.630   4.443
  680SOL    HW1 2939   5.270   6.651   4.390
  680SOL    HW2 2940   5.342   6.540   4.487
  681SOL     OW 2941   4.499   5.163   2.562
  681SOL    HW1 2942   4.446   5.176   2.478
  681SOL    HW2 2943   4.550   5.078   2.557
  682SOL     OW 2944   0.497   1.026   3.190
  682SOL    HW1 2945   0.524   0.947   3.136
  682SOL    HW2 2946   0.473   1.102   3.128
  683SOL     OW 2947   3.851   3.624   1.367
  683SOL    HW1 2948   3.778   3.558   1.348
  683SOL    HW2 2949   3.813   3.703   1.416
  684SOL     OW 2950   6.492   0.785   6.455
  684SOL    HW1 2951   6.392   0.776   6.456
  684SOL    HW2 2952   6.525   0.773   6.362
  685SOL     OW 2953   3.229   0.392   3.141
  685SOL    HW1 2954   3.172   0.342   3.076
  685SOL    HW2 2955   3.325   0.368   3.127
  686SOL     OW 2956   4.358   0.422   4.645
  686SOL    HW1 2957   4.384   0.503   4.592
  686SOL    HW2 2958   4.426   0.405   4.715
  687SOL     OW 2959   0.532   1.859   3.707
  687SOL    HW1 2960   0.600   1.800   3.662
  687SOL    HW2 2961   0.440   1.830   3.681
  688SOL     OW 2962   6.663   1.135   6.877
  688SOL    HW1 2963   6.611   1.187   6.809
  688SOL    HW2 2964   6.756   1.173   6.883
  689SOL     OW 2965   1.568   5.557   5.576
  689SOL    HW1 2966   1.522   5.514   5.498
  689SOL    HW2 2967   1.574   5.656   5.560
  690SOL     OW 2968   5.264   3.391   2.686
  690SOL    HW1 2969   5.279   3.300   2.726
  690SOL    HW2 2970   5.166   3.403   2.667
  691SOL     OW 2971   5.345   1.279   1.160
  691SOL    HW1 2972   5.315   1.342   1.089
  691SOL    HW2 2973   5.266   1.225   1.192
  692SOL     OW 2974   1.802   0.522   4.547
  692SOL    HW1 2975   1.780   0.426   4.532
  692SOL    HW2 2976   1.740   0.579   4.492
  693SOL     OW 2977   5.609   6.206   3.462
  693SOL    HW1 2978   5.533   6.191   3.399
  693SOL    HW2 2979   5.679   6.136   3.447
  694SOL     OW 2980   4.537   6.485   5.463
  694SOL    HW1 2981   4.537   6.405   5.522
  694SOL    HW2 2982   4.475   6.554   5.500
  695SOL     OW 2983   3.906   0.204   3.854
  695SOL    HW1 2984   3.917   0.159   3.943
  695SOL    HW2 2985   3.914   0.303   3.867
  696SOL     OW 2986   5.656   4.182   3.233
  696SOL    HW1 2987   5.740   4.159   3.282
  696SOL    HW2 2988   5.585   4.210   3.298
  697SOL     OW 2989   1.112   6.100   1.876
  697SOL    HW1 2990   1.206   6.133   1.873
  697SOL    HW2 2991   1.056   6.151   1.810
  698SOL     OW 2992   5.712   6.695   0.096
  698SOL    HW1 2993   5.764   6.614   0.121
  698SOL    HW2 2994   5.731   6.769   0.162
  699SOL     OW 2995   2.720   2.697   1.245
  699SOL    HW1 2996   2.652   2.659   1.183
  699SOL    HW2 2997   2.796   2.735   1.192
  700SOL     OW 2998   3.427   0.377   4.042
  700SOL    HW1 2999   3.351   0.398   4.104
  700SOL    HW2 3000   3.404   0.297   3.987
  701SOL     OW 3001   5.189   5.267   1.533
  701SOL    HW1 3002   5.249   5.347   1.526
  701SOL    HW2 3003   5.123   5.267   1.458
  702SOL     OW 3004   3.124   1.222   4.011
  702SOL    HW1 3005   3.121   1.238   4.110
  702SOL    HW2 3006   3.032   1.230   3.973
  703SOL     OW 3007   3.115   1.881   6.445
  703SOL    HW1 3008   3.194   1.911   6.498
  703SOL    HW2 3009   3.071   1.804   6.491
  704SOL     OW 3010   1.750   2.702   5.502
  704SOL    HW1 3011   1.728   2.742   5.591
  704SOL    HW2 3012   1.832   2.746   5.465
  705SOL     OW 3013   0.284   6.632   5.133
  705SOL    HW1 3014   0.231   6.640   5.218
  705SOL    HW2 3015   0.328   6.720   5.113
  706SOL     OW 3016   4.481   1.346   5.344
  706SOL    HW1 3017   4.508   1.438   5.316
  706SOL    HW2 3018   4.473   1.288   5.264
  707SOL     OW 3019   3.214   5.270   4.409
  707SOL    HW1 3020   3.259   5.278   4.320
  707SOL    HW2 3021   3.280   5.293   4.482
  708SOL     OW 3022   4.237   6.219   3.856
  708SOL    HW1 3023   4.188   6.178   3.779
  708SOL    HW2 3024   4.325   6.174   3.867
  709SOL     OW 3025   2.978   0.172   1.156
  709SOL    HW1 3026   3.051   0.144   1.218
  709SOL    HW2 3027   2.902   0.209   1.209
  710SOL     OW 3028   4.722   2.867   1.704
  710SOL    HW1 3029   4.650   2.923   1.745
  710SOL    HW2 3030   4.795   2.852   1.771
  711SOL     OW 3031   6.845   2.459   6.611
  711SOL    HW1 3032   6.870   2.402   6.532
  711SOL    HW2 3033   6.774   2.413   6.663
  712SOL     OW 3034   5.275   4.327   0.651
  712SOL    HW1 3035   5.207   4.400   0.642
  712SOL    HW2 3036   5.239   4.243   0.610
  713SOL     OW 3037   3.979   2.796   5.425
  713SOL    HW1 3038   3.956   2.893   5.416
  713SOL    HW2 3039   4.047   2.771   5.357
  714SOL     OW 3040   5.274   5.845   3.013
  714SOL    HW1 3041   5.191   5.899   3.026
  714SOL    HW2 3042   5.253   5.765   2.957
  715SOL     OW 3043   6.437   5.489   5.501
  715SOL    HW1 3044   6.470   5.412   5.446
  715SOL    HW2 3045   6.390   5.554   5.441
  716SOL     OW 3046   1.861   2.053   2.926
  716SOL    HW1 3047   1.854   2.138   2.873
  716SOL    HW2 3048   1.940   2.059   2.987
  717SOL     OW 3049   5.209   4.457   3.810
  717SOL    HW1 3050   5.173   4.374   3.853
  717SOL    HW2 3051   5.159   4.536   3.845
  718SOL     OW 3052   5.879   1.654   5.277
  718SOL    HW1 3053   5.965   1.664   5.329
  718SOL    HW2 3054   5.859   1.741   5.231
  719SOL     OW 3055   5.177   0.353   3.480
  719SOL    HW1 3056   5.132   0.395   3.401
  719SOL    HW2 3057   5.207   0.261   3.456
  720SOL     OW 3058   2.948   1.583   0.726
  720SOL    HW1 3059   2.855   1.592   0.761
  720SOL    HW2 3060   2.972   1.487   0.719
  721SOL     OW 3061   6.912   1.785   2.750
  721SOL    HW1 3062   6.957   1.703   2.785
  721SOL    HW2 3063   6.937   1.863   2.807
  722SOL     OW 3064   4.910   6.527   0.956
  722SOL    HW1 3065   4.847   6.449   0.955
  722SOL    HW2 3066   5.004   6.493   0.947
  723SOL     OW 3067   2.450   5.531   4.045
  723SOL    HW1 3068   2.366   5.585   4.049
  723SOL    HW2 3069   2.428   5.434   4.037
  724SOL     OW 3070   1.020   1.557   4.079
  724SOL    HW1 3071   1.013   1.545   3.980
  724SOL    HW2 3072   1.048   1.470   4.121
  725SOL     OW 3073   1.563   4.082   2.901
  725SOL    HW1 3074   1.502   4.065   2.979
  725SOL    HW2 3075   1.544   4.173   2.865
  726SOL     OW 3076   1.434   3.987   0.906
  726SOL    HW1 3077   1.513   3.934   0.938
  726SOL    HW2 3078   1.436   3.992   0.806
  727SOL     OW 3079   4.005   5.901   5.343
  727SOL    HW1 3080   4.080   5.837   5.331
  727SOL    HW2 3081   3.920   5.861   5.309
  728SOL     OW 3082   6.626   3.518   3.815
  728SOL    HW1 3083   6.715   3.482   3.842
  728SOL    HW2 3084   6.566   3.442   3.790
  729SOL     OW 3085   0.290   4.294   0.924
  729SOL    HW1 3086   0.286   4.394   0.914
  729SOL    HW2 3087   0.198   4.258   0.938
  730SOL     OW 3088   4.339   0.643   3.330
  730SOL    HW1 3089   4.375   0.680   3.244
  730SOL    HW2 3090   4.300   0.553   3.314
  731SOL     OW 3091   4.415   4.946   5.660
  731SOL    HW1 3092   4.385   5.016   5.724
  731SOL    HW2 3093   4.433   4.987   5.571
  732SOL     OW 3094   4.192   1.606   5.127
  732SOL    HW1 3095   4.252   1.545   5.180
  732SOL    HW2 3096   4.109   1.626   5.179
  733SOL     OW 3097   6.029   5.812   2.931
  733SOL    HW1 3098   6.054   5.716   2.945
  733SOL    HW2 3099   6.056   5.841   2.839
  734SOL     OW 3100   6.136   6.587   2.238
  734SOL    HW1 3101   6.140   6.682   2.268
  734SOL    HW2 3102   6.074   6.580   2.159
  735SOL     OW 3103   4.526   0.587   2.147
  735SOL    HW1 3104   4.595   0.657   2.163
  735SOL    HW2 3105   4.527   0.561   2.050
  736SOL     OW 3106   1.788   1.374   3.951
  736SOL    HW1 3107   1.743   1.313   3.885
  736SOL    HW2 3108   1.849   1.436   3.902
  737SOL     OW 3109   4.030   1.042   6.204
  737SOL    HW1 3110   4.031   1.079   6.111
  737SOL    HW2 3111   4.123   1.017   6.230
  738SOL     OW 3112   1.738   4.561   0.643
  738SOL    HW1 3113   1.714   4.476   0.691
  738SOL    HW2 3114   1.838   4.572   0.645
  739SOL     OW 3115   3.064   6.975   4.203
  739SOL    HW1 3116   3.007   6.900   4.239
  739SOL    HW2 3117   3.014   0.037   4.211
  740SOL     OW 3118   5.020   3.476   2.588
  740SOL    HW1 3119   4.985   3.411   2.521
  740SOL    HW2 3120   5.015   3.569   2.551
  741SOL     OW 3121   2.129   1.109   3.283
  741SOL    HW1 3122   2.189   1.065   3.349
  741SOL    HW2 3123   2.074   1.180   3.328
  742SOL     OW 3124   2.382   6.734   1.884
  742SOL    HW1 3125   2.471   6.755   1.843
  742SOL    HW2 3126   2.310   6.775   1.828
  743SOL     OW 3127   0.676   6.436   3.214
  743SOL    HW1 3128   0.762   6.396   3.183
  743SOL    HW2 3129   0.600   6.393   3.165
  744SOL     OW 3130   4.991   1.899   0.445
  744SOL    HW1 3131   5.070   1.946   0.484
  744SOL    HW2 3132   4.948   1.957   0.375
  745SOL     OW 3133   2.668   6.982   4.839
  745SOL    HW1 3134   2.669   0.044   4.789
  745SOL    HW2 3135   2.721   6.992   4.924
  746SOL     OW 3136   6.701   4.958   5.794
  746SOL    HW1 3137   6.745   5.034   5.746
  746SOL    HW2 3138   6.769   4.905   5.844
  747SOL     OW 3139   5.019   5.905   3.078
  747SOL    HW1 3140   4.968   5.985   3.110
  747SOL    HW2 3141   5.033   5.842   3.154
  748SOL     OW 3142   5.299   5.055   1.930
  748SOL    HW1 3143   5.350   4.973   1.957
  748SOL    HW2 3144   5.326   5.131   1.989
  749SOL     OW 3145   4.825   3.865   4.062
  749SOL    HW1 3146   4.899   3.877   4.128
  749SOL    HW2 3147   4.803   3.767   4.053
  750SOL     OW 3148   2.395   1.984   2.193
  750SOL    HW1 3149   2.493   1.969   2.205
  750SOL    HW2 3150   2.380   2.066   2.138
  751SOL     OW 3151   3.865   0.574   0.852
  751SOL    HW1 3152   3.812   0.521   0.786
  751SOL    HW2 3153   3.867   0.526   0.939
  752SOL     OW 3154   3.413   2.305   5.325
  752SOL    HW1 3155   3.393   2.208   5.344
  752SOL    HW2 3156   3.349   2.340   5.257
  753SOL     OW 3157   3.744   3.840   4.896
  753SOL    HW1 3158   3.761   3.804   4.988
  753SOL    HW2 3159   3.830   3.871   4.856
  754SOL     OW 3160   6.066   0.383   0.155
  754SOL    HW1 3161   6.082   0.444   0.077
  754SOL    HW2 3162   6.133   0.403   0.226
  755SOL     OW 3163   4.068   4.322   5.295
  755SOL    HW1 3164   4.108   4.394   5.238
  755SOL    HW2 3165   3.980   4.294   5.257
  756SOL     OW 3166   2.303   5.583   6.087
  756SOL    HW1 3167   2.205   5.587   6.069
  756SOL    HW2 3168   2.319   5.544   6.177
  757SOL     OW 3169   2.633   6.180   2.617
  757SOL    HW1 3170   2.564   6.127   2.568
  757SOL    HW2 3171   2.722   6.165   2.574
  758SOL     OW 3172   4.024   0.960   4.273
  758SOL    HW1 3173   4.096   1.009   4.223
  758SOL    HW2 3174   4.066   0.895   4.337
  759SOL     OW 3175   0.447   3.012   4.048
  759SOL    HW1 3176   0.516   2.941   4.057
  759SOL    HW2 3177   0.443   3.043   3.953
  760SOL     OW 3178   6.196   5.605   3.006
  760SOL    HW1 3179   6.233   5.608   3.099
  760SOL    HW2 3180   6.266   5.635   2.941
  761SOL     OW 3181   4.178   3.753   6.287
  761SOL    HW1 3182   4.112   3.827   6.297
  761SOL    HW2 3183   4.189   3.706   6.375
  762SOL     OW 3184   3.187   5.647   4.089
  762SOL    HW1 3185   3.089   5.631   4.080
  762SOL    HW2 3186   3.203   5.738   4.128
  763SOL     OW 3187   5.698   0.414   6.913
  763SOL    HW1 3188   5.743   0.361   6.842
  763SOL    HW2 3189   5.600   0.393   6.915
  764SOL     OW 3190   5.843   0.231   6.007
  764SOL    HW1 3191   5.848   0.231   5.907
  764SOL    HW2 3192   5.849   0.324   6.041
  765SOL     OW 3193   6.993   6.626   0.718
  765SOL    HW1 3194   6.916   6.620   0.781
  765SOL    HW2 3195   6.975   6.571   0.637
  766SOL     OW 3196   2.324   2.294   5.251
  766SOL    HW1 3197   2.239   2.306   5.199
  766SOL    HW2 3198   2.340   2.373   5.309
  767SOL     OW 3199   5.957   5.629   4.381
  767SOL    HW1 3200   5.893   5.695   4.421
  767SOL    HW2 3201   6.051   5.657   4.403
  768SOL     OW 3202   2.281   5.253   2.572
  768SOL    HW1 3203   2.327   5.178   2.619
  768SOL    HW2 3204   2.222   5.216   2.500
  769SOL     OW 3205   2.879   1.965   4.816
  769SOL    HW1 3206   2.799   2.023   4.829
  769SOL    HW2 3207   2.850   1.871   4.801
  770SOL     OW 3208   1.582   4.762   5.531
  770SOL    HW1 3209   1.620   4.695   5.468
  770SOL    HW2 3210   1.496   4.729   5.568
  771SOL     OW 3211   1.201   5.369   2.543
  771SOL    HW1 3212   1.297   5.392   2.552
  771SOL    HW2 3213   1.182   5.281   2.588
  772SOL     OW 3214   5.664   4.535   0.424
  772SOL    HW1 3215   5.657   4.486   0.511
  772SOL    HW2 3216   5.684   4.631   0.442
  773SOL     OW 3217   0.737   3.848   3.511
  773SOL    HW1 3218   0.731   3.820   3.415
  773SOL    HW2 3219   0.768   3.942   3.517
  774SOL     OW 3220   2.378   0.370   3.752
  774SOL    HW1 3221   2.324   0.448   3.782
  774SOL    HW2 3222   2.448   0.401   3.687
  775SOL     OW 3223   1.668   4.340   2.388
  775SOL    HW1 3224   1.735   4.403   2.351
  775SOL    HW2 3225   1.713   4.255   2.416
  776SOL     OW 3226   2.766   5.355   6.424
  776SOL    HW1 3227   2.730   5.406   6.502
  776SOL    HW2 3228   2.824   5.280   6.456
  777SOL     OW 3229   1.984   4.195   0.218
  777SOL    HW1 3230   1.962   4.099   0.232
  777SOL    HW2 3231   2.023   4.207   0.126
  778SOL     OW 3232   2.827   6.219   0.122
  778SOL    HW1 3233   2.833   6.301   0.179
  778SOL    HW2 3234   2.760   6.156   0.161
  779SOL     OW 3235   0.114   2.366   3.541
  779SOL    HW1 3236   0.180   2.348   3.613
  779SOL    HW2 3237   0.048   2.435   3.572
  780SOL     OW 3238   0.517   2.113   3.870
  780SOL    HW1 3239   0.549   2.024   3.903
  780SOL    HW2 3240   0.532   2.118   3.771
  781SOL     OW 3241   0.811   4.498   0.067
  781SOL    HW1 3242   0.752   4.475   0.144
  781SOL    HW2 3243   0.860   4.416   0.036
  782SOL     OW 3244   1.689   3.264   4.963
  782SOL    HW1 3245   1.734   3.344   5.003
  782SOL    HW2 3246   1.676   3.194   5.034
  783SOL     OW 3247   6.387   4.675   6.877
  783SOL    HW1 3248   6.402   4.606   6.807
  783SOL    HW2 3249   6.296   4.665   6.916
  784SOL     OW 3250   2.478   5.778   0.868
  784SOL    HW1 3251   2.557   5.829   0.835
  784SOL    HW2 3252   2.394   5.824   0.839
  785SOL     OW 3253   1.247   0.269   4.751
  785SOL    HW1 3254   1.165   0.261   4.695
  785SOL    HW2 3255   1.328   0.253   4.694
  786SOL     OW 3256   6.130   1.452   4.162
  786SOL    HW1 3257   6.212   1.500   4.194
  786SOL    HW2 3258   6.114   1.475   4.066
  787SOL     OW 3259   2.350   7.022   0.716
  787SOL    HW1 3260   2.439   7.018   0.761
  787SOL    HW2 3261   2.280   0.028   0.780
  788SOL     OW 3262   1.922   2.338   1.550
  788SOL    HW1 3263   1.963   2.422   1.513
  788SOL    HW2 3264   1.823   2.343   1.545
  789SOL     OW 3265   4.436   4.922   2.265
  789SOL    HW1 3266   4.473   4.843   2.216
  789SOL    HW2 3267   4.510   4.969   2.313
  790SOL     OW 3268   1.040   2.100   2.533
  790SOL    HW1 3269   1.119   2.125   2.590
  790SOL    HW2 3270   1.038   2.001   2.520
  791SOL     OW 3271   2.894   5.787   4.308
  791SOL    HW1 3272   2.803   5.782   4.349
  791SOL    HW2 3273   2.962   5.805   4.379
  792SOL     OW 3274   1.819   0.752   0.271
  792SOL    HW1 3275   1.828   0.762   0.172
  792SOL    HW2 3276   1.909   0.739   0.312
  793SOL     OW 3277   2.939   6.047   4.209
  793SOL    HW1 3278   2.927   5.949   4.197
  793SOL    HW2 3279   2.997   6.083   4.135
  794SOL     OW 3280   3.645   3.192   2.735
  794SOL    HW1 3281   3.595   3.117   2.777
  794SOL    HW2 3282   3.681   3.163   2.646
  795SOL     OW 3283   3.925   0.403   6.199
  795SOL    HW1 3284   3.905   0.438   6.108
  795SOL    HW2 3285   3.956   0.308   6.192
  796SOL     OW 3286   0.808   2.811   0.591
  796SOL    HW1 3287   0.751   2.822   0.509
  796SOL    HW2 3288   0.854   2.898   0.612
  797SOL     OW 3289   4.615   0.255   0.391
  797SOL    HW1 3290   4.708   0.293   0.396
  797SOL    HW2 3291   4.594   0.206   0.475
  798SOL     OW 3292   4.524   6.668   0.819
  798SOL    HW1 3293   4.609   6.678   0.768
  798SOL    HW2 3294   4.473   6.588   0.785
  799SOL     OW 3295   2.108   2.267   5.934
  799SOL    HW1 3296   2.123   2.254   6.032
  799SOL    HW2 3297   2.150   2.192   5.883
  800SOL     OW 3298   6.254   3.425   2.563
  800SOL    HW1 3299   6.223   3.340   2.606
  800SOL    HW2 3300   6.238   3.502   2.625
  801SOL     OW 3301   2.563   5.837   5.791
  801SOL    HW1 3302   2.654   5.798   5.776
  801SOL    HW2 3303   2.570   5.921   5.843
  802SOL     OW 3304   5.244   2.319   6.586
  802SOL    HW1 3305   5.188   2.397   6.557
  802SOL    HW2 3306   5.286   2.277   6.506
  803SOL     OW 3307   2.691   1.456   4.868
  803SOL    HW1 3308   2.780   1.431   4.907
  803SOL    HW2 3309   2.620   1.446   4.938
  804SOL     OW 3310   5.611   0.703   2.947
  804SOL    HW1 3311   5.563   0.697   2.859
  804SOL    HW2 3312   5.610   0.798   2.978
  805SOL     OW 3313   3.769   1.155   3.420
  805SOL    HW1 3314   3.866   1.137   3.404
  805SOL    HW2 3315   3.726   1.075   3.460
  806SOL     OW 3316   2.476   6.273   5.466
  806SOL    HW1 3317   2.454   6.360   5.510
  806SOL    HW2 3318   2.571   6.249   5.483
  807SOL     OW 3319   1.185   6.193   6.004
  807SOL    HW1 3320   1.193   6.127   6.080
  807SOL    HW2 3321   1.157   6.282   6.040
  808SOL     OW 3322   5.620   2.664   6.335
  808SOL    HW1 3323   5.540   2.631   6.284
  808SOL    HW2 3324   5.589   2.717   6.414
  809SOL     OW 3325   2.354   4.946   0.191
  809SOL    HW1 3326   2.289   5.013   0.228
  809SOL    HW2 3327   2.319   4.854   0.209
  810SOL     OW 3328   3.645   3.318   6.988
  810SOL    HW1 3329   3.548   3.343   6.993
  810SOL    HW2 3330   3.680   3.337   6.896
  811SOL     OW 3331   6.317   4.846   4.642
  811SOL    HW1 3332   6.226   4.805   4.634
  811SOL    HW2 3333   6.379   4.804   4.577
  812SOL     OW 3334   0.490   2.996   2.010
  812SOL    HW1 3335   0.566   3.034   2.062
  812SOL    HW2 3336   0.479   3.047   1.925
  813SOL     OW 3337   1.421   1.873   4.868
  813SOL    HW1 3338   1.404   1.776   4.850
  813SOL    HW2 3339   1.488   1.907   4.802
  814SOL     OW 3340   0.883   5.309   3.164
  814SOL    HW1 3341   0.870   5.215   3.134
  814SOL    HW2 3342   0.837   5.371   3.101
  815SOL     OW 3343   4.872   1.928   4.974
  815SOL    HW1 3344   4.790   1.937   5.030
  815SOL    HW2 3345   4.888   1.831   4.955
  816SOL     OW 3346   5.571   4.957   6.386
  816SOL    HW1 3347   5.650   4.998   6.341
  816SOL    HW2 3348   5.489   5.010   6.365
  817SOL     OW 3349   0.428   4.633   6.762
  817SOL    HW1 3350   0.484   4.639   6.844
  817SOL    HW2 3351   0.338   4.595   6.786
  818SOL     OW 3352   6.611   2.200   4.975
  818SOL    HW1 3353   6.525   2.250   4.957
  818SOL    HW2 3354   6.687   2.264   4.971
  819SOL     OW 3355   5.050   2.773   1.388
  819SOL    HW1 3356   5.071   2.812   1.477
  819SOL    HW2 3357   4.964   2.723   1.392
  820SOL     OW 3358   2.277   1.964   5.049
  820SOL    HW1 3359   2.332   1.888   5.085
  820SOL    HW2 3360   2.197   1.978   5.108
  821SOL     OW 3361   4.900   3.461   6.195
  821SOL    HW1 3362   4.940   3.525   6.261
  821SOL    HW2 3363   4.805   3.487   6.177
  822SOL     OW 3364   0.611   5.060   3.314
  822SOL    HW1 3365   0.637   4.967   3.289
  822SOL    HW2 3366   0.513   5.064   3.334
  823SOL     OW 3367   0.984   3.101   5.036
  823SOL    HW1 3368   1.061   3.163   5.042
  823SOL    HW2 3369   0.979   3.045   5.119
  824SOL     OW 3370   5.408   1.064   6.652
  824SOL    HW1 3371   5.445   1.138   6.708
  824SOL    HW2 3372   5.389   0.985   6.710
  825SOL     OW 3373   5.716   5.517   0.936
  825SOL    HW1 3374   5.718   5.419   0.921
  825SOL    HW2 3375   5.806   5.548   0.968
  826SOL     OW 3376   3.929   2.463   6.809
  826SOL    HW1 3377   4.001   2.406   6.768
  826SOL    HW2 3378   3.963   2.557   6.819
  827SOL     OW 3379   4.145   3.976   5.477
  827SOL    HW1 3380   4.175   4.069   5.498
  827SOL    HW2 3381   4.048   3.966   5.502
  828SOL     OW 3382   6.524   6.158   6.100
  828SOL    HW1 3383   6.586   6.083   6.121
  828SOL    HW2 3384   6.538   6.187   6.005
  829SOL     OW 3385   3.211   3.740   2.844
  829SOL    HW1 3386   3.241   3.834   2.854
  829SOL    HW2 3387   3.234   3.707   2.752
  830SOL     OW 3388   6.434   4.433   0.170
  830SOL    HW1 3389   6.500   4.408   0.241
  830SOL    HW2 3390   6.342   4.416   0.204
  831SOL     OW 3391   4.894   0.104   1.694
  831SOL    HW1 3392   4.967   0.061   1.748
  831SOL    HW2 3393   4.926   0.192   1.659
  832SOL     OW 3394   2.935   1.683   4.517
  832SOL    HW1 3395   2.877   1.692   4.436
  832SOL    HW2 3396   3.029   1.704   4.492
  833SOL     OW 3397   3.387   2.430   0.224
  833SOL    HW1 3398   3.386   2.480   0.137
  833SOL    HW2 3399   3.295   2.433   0.264
  834SOL     OW 3400   5.923   2.978   0.456
  834SOL    HW1 3401   5.966   2.957   0.368
  834SOL    HW2 3402   5.895   2.893   0.500
  835SOL     OW 3403   0.406   0.040   4.044
  835SOL    HW1 3404   0.328   7.004   4.060
  835SOL    HW2 3405   0.474   7.016   3.989
  836SOL     OW 3406   4.756   0.901   4.418
  836SOL    HW1 3407   4.840   0.885   4.471
  836SOL    HW2 3408   4.677   0.875   4.474
  837SOL     OW 3409   1.619   1.030   0.578
  837SOL    HW1 3410   1.554   1.009   0.651
  837SOL    HW2 3411   1.705   0.982   0.596
  838SOL     OW 3412   1.423   5.307   3.744
  838SOL    HW1 3413   1.514   5.267   3.750
  838SOL    HW2 3414   1.417   5.386   3.806
  839SOL     OW 3415   1.692   1.850   0.559
  839SOL    HW1 3416   1.628   1.836   0.484
  839SOL    HW2 3417   1.757   1.922   0.535
  840SOL     OW 3418   4.985   5.202   6.932
  840SOL    HW1 3419   4.959   5.129   6.869
  840SOL    HW2 3420   5.064   5.251   6.896
  841SOL     OW 3421   3.256   4.929   0.179
  841SOL    HW1 3422   3.312   4.958   0.102
  841SOL    HW2 3423   3.243   4.830   0.176
  842SOL     OW 3424   4.148   5.843   0.644
  842SOL    HW1 3425   4.155   5.920   0.707
  842SOL    HW2 3426   4.096   5.770   0.687
  843SOL     OW 3427   1.035   1.065   2.228
  843SOL    HW1 3428   1.093   0.988   2.200
  843SOL    HW2 3429   0.962   1.031   2.288
  844SOL     OW 3430   6.770   0.741   1.194
  844SOL    HW1 3431   6.837   0.682   1.240
  844SOL    HW2 3432   6.791   0.836   1.215
  845SOL     OW 3433   3.612   0.918   2.322
  845SOL    HW1 3434   3.574   1.011   2.327
  845SOL    HW2 3435   3.710   0.923   2.307
  846SOL     OW 3436   3.023   1.258   0.974
  846SOL    HW1 3437   2.994   1.270   0.879
  846SOL    HW2 3438   3.084   1.333   0.999
  847SOL     OW 3439   2.802   4.096   1.726
  847SOL    HW1 3440   2.762   4.011   1.692
  847SOL    HW2 3441   2.889   4.076   1.772
  848SOL     OW 3442   0.133   5.768   0.297
  848SOL    HW1 3443   0.083   5.721   0.370
  848SOL    HW2 3444   0.166   5.856   0.330
  849SOL     OW 3445   6.009   3.629   6.668
  849SOL    HW1 3446   5.971   3.562   6.604
  849SOL    HW2 3447   6.071   3.691   6.619
  850SOL     OW 3448   1.027   0.382   4.947
  850SOL    HW1 3449   1.089   0.339   4.881
  850SOL    HW2 3450   1.065   0.373   5.039
  851SOL     OW 3451   6.025   3.567   6.146
  851SOL    HW1 3452   5.967   3.596   6.070
  851SOL    HW2 3453   6.100   3.511   6.113
  852SOL     OW 3454   0.377   3.831   2.313
  852SOL    HW1 3455   0.292   3.846   2.262
  852SOL    HW2 3456   0.449   3.890   2.277
  853SOL     OW 3457   2.833   2.410   0.201
  853SOL    HW1 3458   2.791   2.498   0.176
  853SOL    HW2 3459   2.924   2.427   0.239
  854SOL     OW 3460   5.547   6.295   6.359
  854SOL    HW1 3461   5.512   6.383   6.393
  854SOL    HW2 3462   5.507   6.221   6.413
  855SOL     OW 3463   5.341   1.464   0.439
  855SOL    HW1 3464   5.341   1.364   0.431
  855SOL    HW2 3465   5.264   1.501   0.387
  856SOL     OW 3466   2.224   5.097   1.367
  856SOL    HW1 3467   2.223   5.083   1.466
  856SOL    HW2 3468   2.198   5.191   1.346
  857SOL     OW 3469   6.558   5.848   5.446
  857SOL    HW1 3470   6.651   5.883   5.459
  857SOL    HW2 3471   6.555   5.791   5.364
  858SOL     OW 3472   4.726   3.324   0.211
  858SOL    HW1 3473   4.767   3.308   0.301
  858SOL    HW2 3474   4.797   3.315   0.141
  859SOL     OW 3475   4.837   6.698   5.338
  859SOL    HW1 3476   4.930   6.732   5.347
  859SOL    HW2 3477   4.826   6.653   5.249
  860SOL     OW 3478   5.220   3.189   6.024
  860SOL    HW1 3479   5.127   3.211   5.995
  860SOL    HW2 3480   5.221   3.097   6.064
  861SOL     OW 3481   1.956   5.737   1.726
  861SOL    HW1 3482   1.939   5.646   1.688
  861SOL    HW2 3483   1.994   5.796   1.656
  862SOL     OW 3484   0.358   3.848   3.355
  862SOL    HW1 3485   0.368   3.924   3.291
  862SOL    HW2 3486   0.263   3.815   3.353
  863SOL     OW 3487   6.512   0.306   0.572
  863SOL    HW1 3488   6.488   0.388   0.520
  863SOL    HW2 3489   6.499   0.322   0.669
  864SOL     OW 3490   5.657   6.684   4.633
  864SOL    HW1 3491   5.717   6.764   4.635
  864SOL    HW2 3492   5.574   6.706   4.583
  865SOL     OW 3493   1.905   6.368   4.874
  865SOL    HW1 3494   1.838   6.427   4.919
  865SOL    HW2 3495   1.875   6.272   4.881
  866SOL     OW 3496   3.754   6.838   2.089
  866SOL    HW1 3497   3.708   6.921   2.058
  866SOL    HW2 3498   3.694   6.786   2.148
  867SOL     OW 3499   5.910   2.688   6.441
  867SOL    HW1 3500   5.821   2.647   6.460
  867SOL    HW2 3501   5.942   2.737   6.522
  868SOL     OW 3502   6.706   2.132   2.592
  868SOL    HW1 3503   6.803   2.151   2.574
  868SOL    HW2 3504   6.681   2.171   2.681
  869SOL     OW 3505   6.829   3.842   3.840
  869SOL    HW1 3506   6.762   3.806   3.775
  869SOL    HW2 3507   6.890   3.906   3.793
  870SOL     OW 3508   3.317   5.411   2.101
  870SOL    HW1 3509   3.345   5.333   2.045
  870SOL    HW2 3510   3.397   5.452   2.143
  871SOL     OW 3511   4.527   1.629   3.281
  871SOL    HW1 3512   4.477   1.713   3.262
  871SOL    HW2 3513   4.605   1.622   3.219
  872SOL     OW 3514   6.874   2.659   4.948
  872SOL    HW1 3515   6.779   2.638   4.923
  872SOL    HW2 3516   6.922   2.694   4.867
  873SOL     OW 3517   4.815   6.641   6.196
  873SOL    HW1 3518   4.825   6.730   6.152
  873SOL    HW2 3519   4.828   6.569   6.127
  874SOL     OW 3520   4.692   4.145   0.891
  874SOL    HW1 3521   4.630   4.140   0.813
  874SOL    HW2 3522   4.700   4.055   0.934
  875SOL     OW 3523   5.424   5.457   1.065
  875SOL    HW1 3524   5.518   5.493   1.059
  875SOL    HW2 3525   5.420   5.368   1.021
  876SOL     OW 3526   6.844   6.725   1.242
  876SOL    HW1 3527   6.937   6.759   1.258
  876SOL    HW2 3528   6.833   6.636   1.287
  877SOL     OW 3529   2.370   2.768   6.576
  877SOL    HW1 3530   2.310   2.693   6.548
  877SOL    HW2 3531   2.319   2.854   6.571
  878SOL     OW 3532   4.206   6.472   3.980
  878SOL    HW1 3533   4.215   6.469   4.079
  878SOL    HW2 3534   4.230   6.383   3.941
  879SOL     OW 3535   5.830   0.320   0.265
  879SOL    HW1 3536   5.888   0.344   0.187
  879SOL    HW2 3537   5.881   0.261   0.328
  880SOL     OW 3538   2.896   3.618   3.037
  880SOL    HW1 3539   2.966   3.559   2.996
  880SOL    HW2 3540   2.939   3.703   3.070
  881SOL     OW 3541   4.199   1.682   0.193
  881SOL    HW1 3542   4.118   1.679   0.134
  881SOL    HW2 3543   4.275   1.636   0.147
  882SOL     OW 3544   1.092   3.863   4.208
  882SOL    HW1 3545   1.023   3.856   4.280
  882SOL    HW2 3546   1.067   3.804   4.131
  883SOL     OW 3547   2.654   0.424   2.774
  883SOL    HW1 3548   2.683   0.467   2.859
  883SOL    HW2 3549   2.705   0.464   2.697
  884SOL     OW 3550   4.482   3.230   5.518
  884SOL    HW1 3551   4.385   3.246   5.498
  884SOL    HW2 3552   4.533   3.315   5.506
  885SOL     OW 3553   3.576   2.617   6.012
  885SOL    HW1 3554   3.634   2.690   6.050
  885SOL    HW2 3555   3.582   2.536   6.070
  886SOL     OW 3556   3.571   0.016   6.557
  886SOL    HW1 3557   3.523   0.100   6.532
  886SOL    HW2 3558   3.506   6.973   6.592
  887SOL     OW 3559   4.682   2.029   4.232
  887SOL    HW1 3560   4.644   2.080   4.154
  887SOL    HW2 3561   4.707   1.937   4.202
  888SOL     OW 3562   6.936   0.075   3.164
  888SOL    HW1 3563   6.955   0.173   3.149
  888SOL    HW2 3564   6.924   0.059   3.262
  889SOL     OW 3565   0.423   3.525   6.717
  889SOL    HW1 3566   0.361   3.465   6.768
  889SOL    HW2 3567   0.516   3.490   6.722
  890SOL     OW 3568   2.851   5.287   4.277
  890SOL    HW1 3569   2.867   5.364   4.338
  890SOL    HW2 3570   2.759   5.294   4.238
  891SOL     OW 3571   5.635   5.677   1.311
  891SOL    HW1 3572   5.726   5.655   1.277
  891SOL    HW2 3573   5.585   5.729   1.242
  892SOL     OW 3574   2.963   4.582   7.010
  892SOL    HW1 3575   2.913   4.542   6.933
  892SOL    HW2 3576   2.898   4.619   0.053
  893SOL     OW 3577   2.223   6.461   2.681
  893SOL    HW1 3578   2.228   6.528   2.755
  893SOL    HW2 3579   2.196   6.372   2.717
  894SOL     OW 3580   1.203   3.800   1.155
  894SOL    HW1 3581   1.153   3.840   1.232
  894SOL    HW2 3582   1.181   3.703   1.148
  895SOL     OW 3583   0.531   5.944   4.276
  895SOL    HW1 3584   0.520   5.986   4.187
  895SOL    HW2 3585   0.603   5.875   4.271
  896SOL     OW 3586   6.811   6.587   4.943
  896SOL    HW1 3587   6.815   6.636   5.030
  896SOL    HW2 3588   6.752   6.506   4.952
  897SOL     OW 3589   5.495   0.823   6.794
  897SOL    HW1 3590   5.570   0.889   6.795
  897SOL    HW2 3591   5.498   0.770   6.879
  898SOL     OW 3592   4.009   6.140   3.315
  898SOL    HW1 3593   4.056   6.200   3.380
  898SOL    HW2 3594   4.040   6.160   3.223
  899SOL     OW 3595   0.060   4.816   0.078
  899SOL    HW1 3596   7.005   4.826   0.139
  899SOL    HW2 3597   0.039   4.858   7.014
  900SOL     OW 3598   4.943   5.810   0.588
  900SOL    HW1 3599   4.887   5.790   0.668
  900SOL    HW2 3600   5.040   5.799   0.611
  901SOL     OW 3601   1.785   1.002   2.213
  901SOL    HW1 3602   1.739   1.041   2.133
  901SOL    HW2 3603   1.854   1.067   2.246
  902SOL     OW 3604   6.614   4.251   1.897
  902SOL    HW1 3605   6.602   4.269   1.995
  902SOL    HW2 3606   6.712   4.242   1.877
  903SOL     OW 3607   0.030   2.533   0.695
  903SOL    HW1 3608   6.966   2.573   0.667
  903SOL    HW2 3609   0.101   2.603   0.690
  904SOL     OW 3610   2.832   1.387   2.186
  904SOL    HW1 3611   2.817   1.456   2.257
  904SOL    HW2 3612   2.771   1.405   2.109
  905SOL     OW 3613   6.251   2.747   6.527
  905SOL    HW1 3614   6.229   2.670   6.587
  905SOL    HW2 3615   6.348   2.768   6.535
  906SOL     OW 3616   6.230   3.525   6.793
  906SOL    HW1 3617   6.142   3.560   6.758
  906SOL    HW2 3618   6.213   3.468   6.874
  907SOL     OW 3619   5.100   3.751   6.686
  907SOL    HW1 3620   5.013   3.797   6.669
  907SOL    HW2 3621   5.171   3.819   6.702
  908SOL     OW 3622   2.125   4.469   2.810
  908SOL    HW1 3623   2.041   4.434   2.767
  908SOL    HW2 3624   2.104   4.553   2.859
  909SOL     OW 3625   5.249   5.206   6.549
  909SOL    HW1 3626   5.297   5.201   6.461
  909SOL    HW2 3627   5.303   5.160   6.619
  910SOL     OW 3628   2.304   3.459   1.438
  910SOL    HW1 3629   2.343   3.517   1.510
  910SOL    HW2 3630   2.210   3.487   1.420
  911SOL     OW 3631   1.215   5.401   6.306
  911SOL    HW1 3632   1.153   5.438   6.375
  911SOL    HW2 3633   1.165   5.339   6.245
  912SOL     OW 3634   4.881   2.194   2.922
  912SOL    HW1 3635   4.871   2.095   2.927
  912SOL    HW2 3636   4.858   2.226   2.830
  913SOL     OW 3637   4.823   6.915   3.491
  913SOL    HW1 3638   4.792   6.999   3.446
  913SOL    HW2 3639   4.746   6.853   3.503
  914SOL     OW 3640   2.734   6.668   0.150
  914SOL    HW1 3641   2.729   6.642   0.054
  914SOL    HW2 3642   2.712   6.765   0.160
  915SOL     OW 3643   6.305   5.658   0.765
  915SOL    HW1 3644   6.336   5.603   0.687
  915SOL    HW2 3645   6.307   5.755   0.740
  916SOL     OW 3646   1.058   2.152   2.262
  916SOL    HW1 3647   1.122   2.112   2.197
  916SOL    HW2 3648   1.084   2.126   2.355
  917SOL     OW 3649   6.546   6.695   0.742
  917SOL    HW1 3650   6.502   6.648   0.819
  917SOL    HW2 3651   6.574   6.787   0.770
  918SOL     OW 3652   1.907   5.651   0.067
  918SOL    HW1 3653   1.894   5.724   7.024
  918SOL    HW2 3654   1.840   5.661   0.141
  919SOL     OW 3655   5.714   2.272   4.831
  919SOL    HW1 3656   5.780   2.319   4.890
  919SOL    HW2 3657   5.752   2.264   4.739
  920SOL     OW 3658   2.972   4.772   2.179
  920SOL    HW1 3659   2.981   4.730   2.089
  920SOL    HW2 3660   2.992   4.704   2.250
  921SOL     OW 3661   4.922   5.287   4.823
  921SOL    HW1 3662   4.994   5.239   4.872
  921SOL    HW2 3663   4.900   5.238   4.738
  922SOL     OW 3664   3.504   2.853   3.883
  922SOL    HW1 3665   3.495   2.925   3.814
  922SOL    HW2 3666   3.601   2.836   3.900
  923SOL     OW 3667   2.268   3.547   5.235
  923SOL    HW1 3668   2.190   3.535   5.297
  923SOL    HW2 3669   2.340   3.482   5.258
  924SOL     OW 3670   0.125   3.988   2.907
  924SOL    HW1 3671   0.110   4.050   2.830
  924SOL    HW2 3672   0.223   3.973   2.919
  925SOL     OW 3673   6.804   1.691   0.218
  925SOL    HW1 3674   6.756   1.718   0.302
  925SOL    HW2 3675   6.881   1.754   0.203
  926SOL     OW 3676   0.964   1.517   2.091
  926SOL    HW1 3677   0.899   1.584   2.055
  926SOL    HW2 3678   1.044   1.512   2.031
  927SOL     OW 3679   5.896   3.710   3.505
  927SOL    HW1 3680   5.915   3.689   3.601
  927SOL    HW2 3681   5.895   3.624   3.452
  928SOL     OW 3682   2.689   4.770   6.404
  928SOL    HW1 3683   2.593   4.794   6.388
  928SOL    HW2 3684   2.724   4.823   6.481
  929SOL     OW 3685   6.936   1.278   5.259
  929SOL    HW1 3686   6.879   1.316   5.332
  929SOL    HW2 3687   7.004   1.345   5.231
  930SOL     OW 3688   5.566   4.815   5.985
  930SOL    HW1 3689   5.470   4.820   5.959
  930SOL    HW2 3690   5.575   4.758   6.067
  931SOL     OW 3691   6.602   2.293   3.139
  931SOL    HW1 3692   6.633   2.242   3.219
  931SOL    HW2 3693   6.510   2.262   3.113
  932SOL     OW 3694   3.989   0.179   3.274
  932SOL    HW1 3695   3.925   0.162   3.200
  932SOL    HW2 3696   3.940   0.219   3.352
  933SOL     OW 3697   1.249   5.218   1.634
  933SOL    HW1 3698   1.273   5.201   1.730
  933SOL    HW2 3699   1.331   5.205   1.578
  934SOL     OW 3700   1.647   4.007   0.137
  934SOL    HW1 3701   1.652   4.070   0.215
  934SOL    HW2 3702   1.554   4.006   0.101
  935SOL     OW 3703   5.738   3.328   4.073
  935SOL    HW1 3704   5.768   3.347   4.166
  935SOL    HW2 3705   5.702   3.411   4.031
  936SOL     OW 3706   1.657   6.941   6.106
  936SOL    HW1 3707   1.572   6.915   6.061
  936SOL    HW2 3708   1.696   6.862   6.153
  937SOL     OW 3709   4.353   1.740   5.903
  937SOL    HW1 3710   4.261   1.728   5.941
  937SOL    HW2 3711   4.347   1.786   5.815
  938SOL     OW 3712   5.448   5.594   4.119
  938SOL    HW1 3713   5.500   5.509   4.130
  938SOL    HW2 3714   5.500   5.670   4.158
  939SOL     OW 3715   0.317   6.783   5.595
  939SOL    HW1 3716   0.270   6.777   5.507
  939SOL    HW2 3717   0.296   6.701   5.649
  940SOL     OW 3718   2.038   5.049   0.255
  940SOL    HW1 3719   1.959   5.110   0.264
  940SOL    HW2 3720   2.016   4.976   0.190
  941SOL     OW 3721   3.597   0.392   6.687
  941SOL    HW1 3722   3.554   0.417   6.774
  941SOL    HW2 3723   3.697   0.391   6.698
  942SOL     OW 3724   0.335   5.261   0.422
  942SOL    HW1 3725   0.289   5.200   0.486
  942SOL    HW2 3726   0.370   5.209   0.344
  943SOL     OW 3727   3.191   5.566   2.752
  943SOL    HW1 3728   3.233   5.655   2.766
  943SOL    HW2 3729   3.091   5.575   2.755
  944SOL     OW 3730   6.519   6.711   4.277
  944SOL    HW1 3731   6.616   6.726   4.298
  944SOL    HW2 3732   6.479   6.796   4.242
  945SOL     OW 3733   0.982   5.599   0.117
  945SOL    HW1 3734   0.983   5.547   0.032
  945SOL    HW2 3735   0.887   5.609   0.149
  946SOL     OW 3736   4.800   3.022   3.888
  946SOL    HW1 3737   4.737   2.944   3.891
  946SOL    HW2 3738   4.844   3.024   3.798
  947SOL     OW 3739   3.721   4.171   4.187
  947SOL    HW1 3740   3.723   4.073   4.165
  947SOL    HW2 3741   3.631   4.196   4.221
  948SOL     OW 3742   3.899   0.840   2.828
  948SOL    HW1 3743   3.925   0.762   2.885
  948SOL    HW2 3744   3.848   0.807   2.749
  949SOL     OW 3745   2.763   6.679   6.239
  949SOL    HW1 3746   2.785   6.637   6.327
  949SOL    HW2 3747   2.847   6.694   6.187
  950SOL     OW 3748   0.019   0.379   1.978
  950SOL    HW1 3749   0.086   0.409   2.046
  950SOL    HW2 3750   0.039   0.422   1.891
  951SOL     OW 3751   2.021   6.551   3.166
  951SOL    HW1 3752   2.098   6.498   3.200
  951SOL    HW2 3753   2.000   6.625   3.230
  952SOL     OW 3754   3.030   1.045   2.179
  952SOL    HW1 3755   2.988   1.135   2.177
  952SOL    HW2 3756   2.962   0.977   2.208
  953SOL     OW 3757   6.279   4.592   5.832
  953SOL    HW1 3758   6.286   4.658   5.907
  953SOL    HW2 3759   6.198   4.612   5.777
  954SOL     OW 3760   4.157   5.929   2.628
  954SOL    HW1 3761   4.113   5.877   2.701
  954SOL    HW2 3762   4.252   5.897   2.617
  955SOL     OW 3763   1.561   5.049   6.801
  955SOL    HW1 3764   1.496   4.997   6.857
  955SOL    HW2 3765   1.582   4.998   6.718
  956SOL     OW 3766   5.597   0.494   1.451
  956SOL    HW1 3767   5.505   0.486   1.491
  956SOL    HW2 3768   5.590   0.533   1.359
  957SOL     OW 3769   5.937   0.932   3.423
  957SOL    HW1 3770   6.004   0.996   3.460
  957SOL    HW2 3771   5.848   0.948   3.466
  958SOL     OW 3772   5.084   0.070   1.884
  958SOL    HW1 3773   5.099   0.169   1.882
  958SOL    HW2 3774   5.124   0.032   1.968
  959SOL     OW 3775   3.880   7.003   4.704
  959SOL    HW1 3776   3.933   0.035   4.641
  959SOL    HW2 3777   3.815   6.947   4.653
  960SOL     OW 3778   1.462   0.228   6.672
  960SOL    HW1 3779   1.560   0.228   6.693
  960SOL    HW2 3780   1.437   0.139   6.632
  961SOL     OW 3781   3.277   0.018   3.051
  961SOL    HW1 3782   3.185   0.026   3.012
  961SOL    HW2 3783   3.276   6.972   3.123
  962SOL     OW 3784   5.953   0.941   5.028
  962SOL    HW1 3785   6.014   0.862   5.020
  962SOL    HW2 3786   6.004   1.025   5.010
  963SOL     OW 3787   5.332   3.148   1.079
  963SOL    HW1 3788   5.343   3.248   1.071
  963SOL    HW2 3789   5.235   3.126   1.088
  964SOL     OW 3790   4.707   4.724   5.452
  964SOL    HW1 3791   4.794   4.676   5.464
  964SOL    HW2 3792   4.678   4.763   5.540
  965SOL     OW 3793   5.988   2.643   3.596
  965SOL    HW1 3794   5.904   2.593   3.616
  965SOL    HW2 3795   5.974   2.740   3.616
  966SOL     OW 3796   4.906   1.647   4.988
  966SOL    HW1 3797   4.911   1.602   4.899
  966SOL    HW2 3798   4.865   1.585   5.055
  967SOL     OW 3799   5.082   3.733   5.859
  967SOL    HW1 3800   5.179   3.719   5.841
  967SOL    HW2 3801   5.035   3.644   5.857
  968SOL     OW 3802   3.982   0.350   1.765
  968SOL    HW1 3803   3.906   0.361   1.828
  968SOL    HW2 3804   3.959   0.282   1.696
  969SOL     OW 3805   3.432   3.936   6.500
  969SOL    HW1 3806   3.359   3.870   6.516
  969SOL    HW2 3807   3.458   3.933   6.403
  970SOL     OW 3808   5.940   0.014   6.190
  970SOL    HW1 3809   5.899   0.080   6.128
  970SOL    HW2 3810   6.008   0.060   6.248
  971SOL     OW 3811   5.839   3.994   3.089
  971SOL    HW1 3812   5.878   3.937   3.161
  971SOL    HW2 3813   5.786   4.068   3.130
  972SOL     OW 3814   0.199   3.050   0.642
  972SOL    HW1 3815   0.203   3.125   0.707
  972SOL    HW2 3816   0.186   3.086   0.550
  973SOL     OW 3817   0.045   3.243   6.218
  973SOL    HW1 3818   0.101   3.240   6.135
  973SOL    HW2 3819   0.059   3.332   6.263
  974SOL     OW 3820   6.760   4.881   3.369
  974SOL    HW1 3821   6.848   4.909   3.330
  974SOL    HW2 3822   6.758   4.781   3.376
  975SOL     OW 3823   2.623   0.725   2.210
  975SOL    HW1 3824   2.561   0.804   2.213
  975SOL    HW2 3825   2.599   0.662   2.283
  976SOL     OW 3826   6.924   3.122   3.105
  976SOL    HW1 3827   6.947   3.026   3.085
  976SOL    HW2 3828   6.826   3.136   3.094
  977SOL     OW 3829   6.794   0.738   2.449
  977SOL    HW1 3830   6.703   0.721   2.413
  977SOL    HW2 3831   6.806   0.835   2.468
  978SOL     OW 3832   5.494   3.072   1.683
  978SOL    HW1 3833   5.408   3.114   1.655
  978SOL    HW2 3834   5.476   3.000   1.750
  979SOL     OW 3835   0.675   4.170   6.883
  979SOL    HW1 3836   0.655   4.259   6.842
  979SOL    HW2 3837   0.609   4.103   6.849
  980SOL     OW 3838   3.332   1.205   4.397
  980SOL    HW1 3839   3.416   1.253   4.422
  980SOL    HW2 3840   3.278   1.261   4.334
  981SOL     OW 3841   6.771   6.729   5.163
  981SOL    HW1 3842   6.820   6.712   5.249
  981SOL    HW2 3843   6.691   6.787   5.181
  982SOL     OW 3844   6.179   1.132   5.496
  982SOL    HW1 3845   6.103   1.197   5.498
  982SOL    HW2 3846   6.222   1.128   5.586
  983SOL     OW 3847   0.340   4.690   4.349
  983SOL    HW1 3848   0.263   4.713   4.290
  983SOL    HW2 3849   0.397   4.771   4.362
  984SOL     OW 3850   0.536   3.248   3.539
  984SOL    HW1 3851   0.437   3.263   3.531
  984SOL    HW2 3852   0.583   3.299   3.467
  985SOL     OW 3853   6.730   4.809   5.540
  985SOL    HW1 3854   6.769   4.734   5.594
  985SOL    HW2 3855   6.694   4.879   5.601
  986SOL     OW 3856   5.475   5.026   1.254
  986SOL    HW1 3857   5.464   5.126   1.252
  986SOL    HW2 3858   5.468   4.994   1.348
  987SOL     OW 3859   4.789   4.669   4.161
  987SOL    HW1 3860   4.827   4.685   4.252
  987SOL    HW2 3861   4.764   4.572   4.152
  988SOL     OW 3862   2.548   4.248   1.649
  988SOL    HW1 3863   2.592   4.247   1.559
  988SOL    HW2 3864   2.617   4.227   1.720
  989SOL     OW 3865   1.032   1.377   0.849
  989SOL    HW1 3866   1.026   1.469   0.888
  989SOL    HW2 3867   0.956   1.321   0.882
  990SOL     OW 3868   3.939   6.813   3.868
  990SOL    HW1 3869   3.876   6.876   3.914
  990SOL    HW2 3870   4.019   6.864   3.836
  991SOL     OW 3871   0.089   5.484   3.301
  991SOL    HW1 3872   0.125   5.472   3.393
  991SOL    HW2 3873   7.013   5.479   3.304
  992SOL     OW 3874   0.103   2.083   0.628
  992SOL    HW1 3875   0.038   2.032   0.572
  992SOL    HW2 3876   0.169   2.130   0.569
  993SOL     OW 3877   1.351   5.254   6.891
  993SOL    HW1 3878   1.438   5.268   6.844
  993SOL    HW2 3879   1.368   5.234   6.987
  994SOL     OW 3880   3.150   6.403   0.175
  994SOL    HW1 3881   3.189   6.461   0.247
  994SOL    HW2 3882   3.050   6.405   0.182
  995SOL     OW 3883   6.078   4.136   5.795
  995SOL    HW1 3884   6.178   4.130   5.802
  995SOL    HW2 3885   6.049   4.229   5.814
  996SOL     OW 3886   3.407   6.159   5.288
  996SOL    HW1 3887   3.496   6.205   5.297
  996SOL    HW2 3888   3.360   6.193   5.207
  997SOL     OW 3889   1.648   6.046   3.031
  997SOL    HW1 3890   1.729   6.011   3.078
  997SOL    HW2 3891   1.599   6.110   3.090
  998SOL     OW 3892   6.092   0.686   6.159
  998SOL    HW1 3893   6.129   0.596   6.182
  998SOL    HW2 3894   5.993   0.685   6.170
  999SOL     OW 3895   4.870   4.255   2.637
  999SOL    HW1 3896   4.774   4.262   2.664
  999SOL    HW2 3897   4.906   4.166   2.664
 1000SOL     OW 3898   4.769   2.430   1.211
 1000SOL    HW1 3899   4.681   2.418   1.256
 1000SOL    HW2 3900   4.832   2.359   1.242
 1001SOL     OW 3901   2.975   6.682   2.699
 1001SOL    HW1 3902   3.013   6.618   2.766
 1001SOL    HW2 3903   2.943   6.631   2.619
 1002SOL     OW 3904   5.307   2.605   0.595
 1002SOL    HW1 3905   5.284   2.684   0.650
 1002SOL    HW2 3906   5.365   2.543   0.648
 1003SOL     OW 3907   0.678   0.634   2.958
 1003SOL    HW1 3908   0.774   0.656   2.974
 1003SOL    HW2 3909   0.670   0.536   2.939
 1004SOL     OW 3910   5.557   1.849   3.703
 1004SOL    HW1 3911   5.582   1.864   3.607
 1004SOL    HW2 3912   5.458   1.859   3.714
 1005SOL     OW 3913   1.163   4.596   2.180
 1005SOL    HW1 3914   1.175   4.681   2.128
 1005SOL    HW2 3915   1.251   4.566   2.215
 1006SOL     OW 3916   2.658   3.618   0.821
 1006SOL    HW1 3917   2.627   3.548   0.886
 1006SOL    HW2 3918   2.752   3.597   0.792
 1007SOL     OW 3919   4.964   0.909   6.619
 1007SOL    HW1 3920   4.986   0.985   6.558
 1007SOL    HW2 3921   4.989   0.823   6.574
 1008SOL     OW 3922   0.277   4.845   5.444
 1008SOL    HW1 3923   0.364   4.878   5.480
 1008SOL    HW2 3924   0.202   4.885   5.496
 1009SOL     OW 3925   7.008   5.310   6.276
 1009SOL    HW1 3926   6.915   5.302   6.240
 1009SOL    HW2 3927   0.046   5.256   6.220
 1010SOL     OW 3928   2.805   2.846   0.882
 1010SOL    HW1 3929   2.902   2.828   0.899
 1010SOL    HW2 3930   2.751   2.766   0.906
 1011SOL     OW 3931   6.917   5.592   2.363
 1011SOL    HW1 3932   6.908   5.515   2.299
 1011SOL    HW2 3933   6.921   5.677   2.312
 1012SOL     OW 3934   4.515   6.945   3.441
 1012SOL    HW1 3935   4.494   7.013   3.371
 1012SOL    HW2 3936   4.544   6.992   3.525
 1013SOL     OW 3937   0.250   6.153   6.415
 1013SOL    HW1 3938   0.288   6.182   6.503
 1013SOL    HW2 3939   0.294   6.204   6.342
 1014SOL     OW 3940   0.990   4.551   5.401
 1014SOL    HW1 3941   0.984   4.504   5.313
 1014SOL    HW2 3942   0.911   4.526   5.457
 1015SOL     OW 3943   3.041   6.388   6.935
 1015SOL    HW1 3944   2.948   6.365   6.905
 1015SOL    HW2 3945   3.056   6.353   0.003
 1016SOL     OW 3946   6.227   4.386   1.763
 1016SOL    HW1 3947   6.264   4.478   1.779
 1016SOL    HW2 3948   6.289   4.318   1.801
 1017SOL     OW 3949   2.116   1.661   1.972
 1017SOL    HW1 3950   2.042   1.599   1.945
 1017SOL    HW2 3951   2.133   1.726   1.899
 1018SOL     OW 3952   6.201   6.052   3.949
 1018SOL    HW1 3953   6.257   6.114   4.004
 1018SOL    HW2 3954   6.136   6.005   4.009
 1019SOL     OW 3955   6.233   4.568   0.799
 1019SOL    HW1 3956   6.212   4.614   0.885
 1019SOL    HW2 3957   6.162   4.589   0.732
 1020SOL     OW 3958   5.800   1.136   1.079
 1020SOL    HW1 3959   5.802   1.151   0.980
 1020SOL    HW2 3960   5.709   1.160   1.114
 1021SOL     OW 3961   0.269   6.436   1.042
 1021SOL    HW1 3962   0.225   6.455   0.954
 1021SOL    HW2 3963   0.309   6.344   1.040
 1022SOL     OW 3964   2.600   5.693   6.865
 1022SOL    HW1 3965   2.525   5.751   6.835
 1022SOL    HW2 3966   2.662   5.746   6.923
 1023SOL     OW 3967   0.805   1.064   3.277
 1023SOL    HW1 3968   0.810   1.119   3.193
 1023SOL    HW2 3969   0.733   1.101   3.336
 1024SOL     OW 3970   1.617   1.622   4.624
 1024SOL    HW1 3971   1.640   1.627   4.526
 1024SOL    HW2 3972   1.668   1.693   4.673
 1025SOL     OW 3973   4.455   3.704   0.123
 1025SOL    HW1 3974   4.492   3.632   0.183
 1025SOL    HW2 3975   4.409   3.662   0.046
 1026SOL     OW 3976   3.092   2.527   1.003
 1026SOL    HW1 3977   3.085   2.450   1.068
 1026SOL    HW2 3978   3.164   2.508   0.937
 1027SOL     OW 3979   0.575   7.006   0.738
 1027SOL    HW1 3980   0.594   7.000   0.836
 1027SOL    HW2 3981   0.477   7.017   0.723
 1028SOL     OW 3982   1.458   6.030   2.102
 1028SOL    HW1 3983   1.517   6.105   2.133
 1028SOL    HW2 3984   1.382   6.018   2.165
 1029SOL     OW 3985   0.665   1.062   6.166
 1029SOL    HW1 3986   0.752   1.067   6.117
 1029SOL    HW2 3987   0.608   1.141   6.141
 1030SOL     OW 3988   3.307   3.150   1.502
 1030SOL    HW1 3989   3.366   3.104   1.569
 1030SOL    HW2 3990   3.340   3.243   1.488
 1031SOL     OW 3991   3.574   3.249   0.995
 1031SOL    HW1 3992   3.478   3.269   1.013
 1031SOL    HW2 3993   3.588   3.150   0.993
 1032SOL     OW 3994   2.365   1.699   6.596
 1032SOL    HW1 3995   2.311   1.712   6.678
 1032SOL    HW2 3996   2.381   1.787   6.551
 1033SOL     OW 3997   0.562   6.076   1.800
 1033SOL    HW1 3998   0.635   6.114   1.858
 1033SOL    HW2 3999   0.603   6.021   1.728
 1034SOL     OW 4000   3.185   0.508   4.204
 1034SOL    HW1 4001   3.112   0.567   4.239
 1034SOL    HW2 4002   3.148   0.448   4.133
 1035SOL     OW 4003   1.313   1.914   6.194
 1035SOL    HW1 4004   1.233   1.892   6.250
 1035SOL    HW2 4005   1.284   1.962   6.111
 1036SOL     OW 4006   5.101   1.881   1.202
 1036SOL    HW1 4007   5.117   1.941   1.280
 1036SOL    HW2 4008   5.014   1.834   1.214
 1037SOL     OW 4009   1.328   2.875   2.060
 1037SOL    HW1 4010   1.286   2.926   1.985
 1037SOL    HW2 4011   1.265   2.871   2.137
 1038SOL     OW 4012   2.797   6.285   6.897
 1038SOL    HW1 4013   2.802   6.269   6.995
 1038SOL    HW2 4014   2.728   6.224   6.857
 1039SOL     OW 4015   3.605   2.891   3.117
 1039SOL    HW1 4016   3.626   2.806   3.165
 1039SOL    HW2 4017   3.679   2.912   3.053
 1040SOL     OW 4018   3.416   1.448   3.222
 1040SOL    HW1 4019   3.439   1.453   3.125
 1040SOL    HW2 4020   3.455   1.364   3.260
 1041SOL     OW 4021   6.627   5.599   6.264
 1041SOL    HW1 4022   6.579   5.548   6.193
 1041SOL    HW2 4023   6.588   5.691   6.271
 1042SOL     OW 4024   5.386   5.021   2.786
 1042SOL    HW1 4025   5.477   4.979   2.794
 1042SOL    HW2 4026   5.317   4.958   2.820
 1043SOL     OW 4027   3.240   2.185   3.714
 1043SOL    HW1 4028   3.263   2.192   3.617
 1043SOL    HW2 4029   3.164   2.246   3.735
 1044SOL     OW 4030   5.480   4.650   1.640
 1044SOL    HW1 4031   5.478   4.561   1.594
 1044SOL    HW2 4032   5.553   4.649   1.709
 1045SOL     OW 4033   1.960   0.797   2.682
 1045SOL    HW1 4034   1.901   0.748   2.746
 1045SOL    HW2 4035   1.945   0.762   2.589
 1046SOL     OW 4036   3.359   1.181   0.853
 1046SOL    HW1 4037   3.375   1.231   0.938
 1046SOL    HW2 4038   3.405   1.092   0.858
 1047SOL     OW 4039   3.847   6.233   3.843
 1047SOL    HW1 4040   3.894   6.276   3.765
 1047SOL    HW2 4041   3.910   6.173   3.891
 1048SOL     OW 4042   1.509   5.953   2.491
 1048SOL    HW1 4043   1.444   5.916   2.557
 1048SOL    HW2 4044   1.599   5.962   2.533
 1049SOL     OW 4045   4.210   6.377   5.174
 1049SOL    HW1 4046   4.305   6.382   5.146
 1049SOL    HW2 4047   4.180   6.282   5.175
 1050SOL     OW 4048   3.421   5.554   2.987
 1050SOL    HW1 4049   3.484   5.478   2.974
 1050SOL    HW2 4050   3.328   5.519   3.002
 1051SOL     OW 4051   0.899   7.015   6.357
 1051SOL    HW1 4052   0.837   0.051   6.308
 1051SOL    HW2 4053   0.993   0.008   6.326
 1052SOL     OW 4054   3.246   0.890   0.058
 1052SOL    HW1 4055   3.214   0.966   0.001
 1052SOL    HW2 4056   3.345   0.881   0.048
 1053SOL     OW 4057   5.744   2.625   3.358
 1053SOL    HW1 4058   5.839   2.630   3.389
 1053SOL    HW2 4059   5.741   2.602   3.261
 1054SOL     OW 4060   3.146   4.795   6.107
 1054SOL    HW1 4061   3.225   4.838   6.150
 1054SOL    HW2 4062   3.137   4.828   6.013
 1055SOL     OW 4063   5.077   6.118   6.423
 1055SOL    HW1 4064   5.039   6.069   6.502
 1055SOL    HW2 4065   5.026   6.202   6.408
 1056SOL     OW 4066   3.143   3.895   6.826
 1056SOL    HW1 4067   3.206   3.840   6.771
 1056SOL    HW2 4068   3.169   3.991   6.822
 1057SOL     OW 4069   2.572   1.764   0.995
 1057SOL    HW1 4070   2.507   1.717   1.055
 1057SOL    HW2 4071   2.522   1.811   0.922
 1058SOL     OW 4072   2.851   2.247   2.502
 1058SOL    HW1 4073   2.767   2.297   2.521
 1058SOL    HW2 4074   2.901   2.233   2.587
 1059SOL     OW 4075   2.467   6.835   2.140
 1059SOL    HW1 4076   2.414   6.909   2.184
 1059SOL    HW2 4077   2.445   6.832   2.043
 1060SOL     OW 4078   5.833   6.387   4.928
 1060SOL    HW1 4079   5.833   6.400   5.027
 1060SOL    HW2 4080   5.757   6.327   4.902
 1061SOL     OW 4081   0.011   3.999   0.006
 1061SOL    HW1 4082   0.031   3.988   6.933
 1061SOL    HW2 4083   6.939   4.025   0.018
 1062SOL     OW 4084   3.752   6.950   4.940
 1062SOL    HW1 4085   3.799   6.958   4.852
 1062SOL    HW2 4086   3.797   6.880   4.995
 1063SOL     OW 4087   3.129   6.964   5.717
 1063SOL    HW1 4088   3.196   0.013   5.730
 1063SOL    HW2 4089   3.036   7.001   5.728
 1064SOL     OW 4090   1.939   3.775   0.476
 1064SOL    HW1 4091   1.852   3.727   0.484
 1064SOL    HW2 4092   2.013   3.708   0.471
 1065SOL     OW 4093   4.316   1.053   4.495
 1065SOL    HW1 4094   4.294   0.982   4.428
 1065SOL    HW2 4095   4.291   1.143   4.458
 1066SOL     OW 4096   5.227   6.810   1.956
 1066SOL    HW1 4097   5.283   6.755   2.018
 1066SOL    HW2 4098   5.167   6.869   2.010
 1067SOL     OW 4099   2.669   1.785   0.083
 1067SOL    HW1 4100   2.659   1.863   0.021
 1067SOL    HW2 4101   2.590   1.725   0.075
 1068SOL     OW 4102   6.765   3.214   1.564
 1068SOL    HW1 4103   6.733   3.119   1.574
 1068SOL    HW2 4104   6.687   3.276   1.572
 1069SOL     OW 4105   6.509   3.483   1.830
 1069SOL    HW1 4106   6.446   3.558   1.850
 1069SOL    HW2 4107   6.531   3.435   1.915
 1070SOL     OW 4108   1.080   6.687   1.999
 1070SOL    HW1 4109   1.169   6.727   1.976
 1070SOL    HW2 4110   1.094   6.602   2.050
 1071SOL     OW 4111   0.228   3.086   5.576
 1071SOL    HW1 4112   0.290   3.011   5.600
 1071SOL    HW2 4113   0.231   3.156   5.647
 1072SOL     OW 4114   2.070   1.479   2.183
 1072SOL    HW1 4115   2.023   1.484   2.271
 1072SOL    HW2 4116   2.007   1.506   2.110
 1073SOL     OW 4117   4.675   2.335   3.653
 1073SOL    HW1 4118   4.595   2.276   3.664
 1073SOL    HW2 4119   4.648   2.420   3.607
 1074SOL     OW 4120   2.707   4.630   1.734
 1074SOL    HW1 4121   2.776   4.599   1.800
 1074SOL    HW2 4122   2.715   4.729   1.723
 1075SOL     OW 4123   5.967   3.883   5.492
 1075SOL    HW1 4124   6.012   3.795   5.508
 1075SOL    HW2 4125   6.030   3.957   5.510
 1076SOL     OW 4126   2.316   4.329   4.865
 1076SOL    HW1 4127   2.393   4.385   4.894
 1076SOL    HW2 4128   2.320   4.239   4.909
 1077SOL     OW 4129   0.362   6.910   0.021
 1077SOL    HW1 4130   0.450   6.866   0.005
 1077SOL    HW2 4131   0.366   6.959   0.109
 1078SOL     OW 4132   6.301   6.559   4.182
 1078SOL    HW1 4133   6.281   6.512   4.268
 1078SOL    HW2 4134   6.373   6.627   4.196
 1079SOL     OW 4135   0.840   0.335   2.217
 1079SOL    HW1 4136   0.907   0.360   2.148
 1079SOL    HW2 4137   0.886   0.304   2.300
 1080SOL     OW 4138   3.285   5.960   6.532
 1080SOL    HW1 4139   3.255   5.897   6.604
 1080SOL    HW2 4140   3.213   5.970   6.464
 1081SOL     OW 4141   6.841   5.479   4.257
 1081SOL    HW1 4142   6.794   5.440   4.178
 1081SOL    HW2 4143   6.929   5.517   4.228
 1082SOL     OW 4144   4.458   6.433   6.345
 1082SOL    HW1 4145   4.526   6.362   6.362
 1082SOL    HW2 4146   4.501   6.523   6.351
 1083SOL     OW 4147   5.277   4.169   1.443
 1083SOL    HW1 4148   5.275   4.127   1.533
 1083SOL    HW2 4149   5.315   4.104   1.377
 1084SOL     OW 4150   6.526   0.523   5.476
 1084SOL    HW1 4151   6.518   0.430   5.441
 1084SOL    HW2 4152   6.459   0.536   5.550
 1085SOL     OW 4153   1.288   3.922   4.423
 1085SOL    HW1 4154   1.338   3.984   4.363
 1085SOL    HW2 4155   1.219   3.872   4.369
 1086SOL     OW 4156   5.834   5.353   0.678
 1086SOL    HW1 4157   5.917   5.407   0.689
 1086SOL    HW2 4158   5.814   5.305   0.764
 1087SOL     OW 4159   3.539   0.384   5.332
 1087SOL    HW1 4160   3.619   0.426   5.375
 1087SOL    HW2 4161   3.564   0.295   5.295
 1088SOL     OW 4162   0.033   5.003   3.288
 1088SOL    HW1 4163   0.112   4.949   3.320
 1088SOL    HW2 4164   6.999   5.026   3.366
 1089SOL     OW 4165   6.806   4.277   4.398
 1089SOL    HW1 4166   6.732   4.311   4.339
 1089SOL    HW2 4167   6.876   4.348   4.408
 1090SOL     OW 4168   5.495   1.953   5.174
 1090SOL    HW1 4169   5.525   1.897   5.251
 1090SOL    HW2 4170   5.402   1.987   5.191
 1091SOL     OW 4171   2.500   2.619   2.990
 1091SOL    HW1 4172   2.596   2.619   2.962
 1091SOL    HW2 4173   2.494   2.605   3.088
 1092SOL     OW 4174   0.545   5.633   1.273
 1092SOL    HW1 4175   0.604   5.589   1.340
 1092SOL    HW2 4176   0.543   5.579   1.189
 1093SOL     OW 4177   1.782   0.114   2.517
 1093SOL    HW1 4178   1.740   0.154   2.436
 1093SOL    HW2 4179   1.857   0.054   2.490
 1094SOL     OW 4180   0.627   0.355   2.918
 1094SOL    HW1 4181   0.627   0.351   3.017
 1094SOL    HW2 4182   0.720   0.345   2.884
 1095SOL     OW 4183   5.552   3.224   0.691
 1095SOL    HW1 4184   5.567   3.319   0.664
 1095SOL    HW2 4185   5.590   3.163   0.621
 1096SOL     OW 4186   2.919   5.997   1.592
 1096SOL    HW1 4187   2.928   5.944   1.507
 1096SOL    HW2 4188   2.982   6.074   1.590
 1097SOL     OW 4189   3.437   5.773   4.425
 1097SOL    HW1 4190   3.447   5.697   4.361
 1097SOL    HW2 4191   3.516   5.777   4.486
 1098SOL     OW 4192   6.120   4.968   0.775
 1098SOL    HW1 4193   6.077   5.014   0.853
 1098SOL    HW2 4194   6.220   4.973   0.785
 1099SOL     OW 4195   4.506   0.033   5.610
 1099SOL    HW1 4196   4.474   0.092   5.684
 1099SOL    HW2 4197   4.606   0.042   5.600
 1100SOL     OW 4198   3.361   1.898   4.211
 1100SOL    HW1 4199   3.266   1.869   4.198
 1100SOL    HW2 4200   3.405   1.837   4.277
 1101SOL     OW 4201   5.998   3.164   6.356
 1101SOL    HW1 4202   5.987   3.260   6.381
 1101SOL    HW2 4203   6.072   3.124   6.410
 1102SOL     OW 4204   2.522   1.372   3.506
 1102SOL    HW1 4205   2.487   1.279   3.510
 1102SOL    HW2 4206   2.526   1.403   3.411
 1103SOL     OW 4207   2.294   0.085   0.027
 1103SOL    HW1 4208   2.362   0.019   0.059
 1103SOL    HW2 4209   2.203   0.044   0.028
 1104SOL     OW 4210   0.701   3.194   4.118
 1104SOL    HW1 4211   0.673   3.121   4.056
 1104SOL    HW2 4212   0.797   3.182   4.144
 1105SOL     OW 4213   5.570   0.968   5.715
 1105SOL    HW1 4214   5.526   0.928   5.795
 1105SOL    HW2 4215   5.561   1.068   5.717
 1106SOL     OW 4216   0.032   1.757   0.622
 1106SOL    HW1 4217   0.120   1.735   0.580
 1106SOL    HW2 4218   6.996   1.798   0.554
 1107SOL     OW 4219   0.839   1.244   6.801
 1107SOL    HW1 4220   0.821   1.156   6.845
 1107SOL    HW2 4221   0.936   1.265   6.806
 1108SOL     OW 4222   2.669   6.699   3.312
 1108SOL    HW1 4223   2.640   6.790   3.285
 1108SOL    HW2 4224   2.618   6.671   3.394
 1109SOL     OW 4225   4.692   2.176   4.459
 1109SOL    HW1 4226   4.724   2.110   4.527
 1109SOL    HW2 4227   4.682   2.131   4.370
 1110SOL     OW 4228   2.901   0.792   2.244
 1110SOL    HW1 4229   2.806   0.773   2.216
 1110SOL    HW2 4230   2.901   0.859   2.318
 1111SOL     OW 4231   5.679   4.101   6.480
 1111SOL    HW1 4232   5.737   4.022   6.464
 1111SOL    HW2 4233   5.707   4.146   6.565
 1112SOL     OW 4234   5.106   7.000   2.387
 1112SOL    HW1 4235   5.200   0.006   2.403
 1112SOL    HW2 4236   5.070   6.956   2.470
 1113SOL     OW 4237   5.554   4.692   2.736
 1113SOL    HW1 4238   5.489   4.623   2.769
 1113SOL    HW2 4239   5.533   4.714   2.641
 1114SOL     OW 4240   3.678   3.569   5.319
 1114SOL    HW1 4241   3.597   3.611   5.361
 1114SOL    HW2 4242   3.747   3.552   5.389
 1115SOL     OW 4243   2.897   4.444   5.950
 1115SOL    HW1 4244   2.972   4.499   5.986
 1115SOL    HW2 4245   2.932   4.358   5.913
 1116SOL     OW 4246   4.457   6.945   6.577
 1116SOL    HW1 4247   4.394   6.869   6.558
 1116SOL    HW2 4248   4.511   6.963   6.495
 1117SOL     OW 4249   1.251   2.620   1.476
 1117SOL    HW1 4250   1.271   2.648   1.570
 1117SOL    HW2 4251   1.153   2.608   1.465
 1118SOL     OW 4252   3.601   4.978   0.579
 1118SOL    HW1 4253   3.538   4.966   0.503
 1118SOL    HW2 4254   3.554   5.026   0.654
 1119SOL     OW 4255   2.957   5.098   4.601
 1119SOL    HW1 4256   2.925   5.026   4.538
 1119SOL    HW2 4257   2.913   5.185   4.577
 1120SOL     OW 4258   6.676   4.453   0.810
 1120SOL    HW1 4259   6.720   4.392   0.875
 1120SOL    HW2 4260   6.693   4.421   0.717
 1121SOL     OW 4261   6.997   4.470   4.428
 1121SOL    HW1 4262   0.032   4.442   4.352
 1121SOL    HW2 4263   6.986   4.569   4.427
 1122SOL     OW 4264   5.759   2.599   1.926
 1122SOL    HW1 4265   5.752   2.544   1.843
 1122SOL    HW2 4266   5.725   2.546   2.004
 1123SOL     OW 4267   3.673   1.473   3.038
 1123SOL    HW1 4268   3.668   1.443   2.943
 1123SOL    HW2 4269   3.712   1.401   3.095
 1124SOL     OW 4270   2.303   2.721   4.596
 1124SOL    HW1 4271   2.355   2.780   4.658
 1124SOL    HW2 4272   2.294   2.766   4.507
 1125SOL     OW 4273   1.954   3.836   3.774
 1125SOL    HW1 4274   2.039   3.826   3.827
 1125SOL    HW2 4275   1.970   3.898   3.698
 1126SOL     OW 4276   3.426   5.503   4.868
 1126SOL    HW1 4277   3.461   5.575   4.927
 1126SOL    HW2 4278   3.344   5.464   4.909
 1127SOL     OW 4279   6.063   6.900   2.625
 1127SOL    HW1 4280   6.129   6.826   2.618
 1127SOL    HW2 4281   6.008   6.887   2.708
 1128SOL     OW 4282   5.337   1.612   3.783
 1128SOL    HW1 4283   5.308   1.520   3.759
 1128SOL    HW2 4284   5.393   1.609   3.866
 1129SOL     OW 4285   1.854   0.891   0.607
 1129SOL    HW1 4286   1.904   0.813   0.643
 1129SOL    HW2 4287   1.915   0.947   0.550
 1130SOL     OW 4288   2.182   4.567   1.745
 1130SOL    HW1 4289   2.276   4.569   1.710
 1130SOL    HW2 4290   2.125   4.627   1.689
 1131SOL     OW 4291   1.343   5.300   4.594
 1131SOL    HW1 4292   1.310   5.333   4.505
 1131SOL    HW2 4293   1.285   5.224   4.625
 1132SOL     OW 4294   2.606   1.417   2.335
 1132SOL    HW1 4295   2.516   1.388   2.303
 1132SOL    HW2 4296   2.673   1.347   2.313
 1133SOL     OW 4297   0.651   6.950   5.055
 1133SOL    HW1 4298   0.741   6.994   5.058
 1133SOL    HW2 4299   0.656   6.869   4.997
 1134SOL     OW 4300   3.658   6.856   1.568
 1134SOL    HW1 4301   3.680   6.885   1.662
 1134SOL    HW2 4302   3.619   6.934   1.519
 1135SOL     OW 4303   1.836   5.802   3.575
 1135SOL    HW1 4304   1.914   5.823   3.517
 1135SOL    HW2 4305   1.838   5.705   3.600
 1136SOL     OW 4306   1.884   5.525   1.549
 1136SOL    HW1 4307   1.897   5.444   1.491
 1136SOL    HW2 4308   1.808   5.579   1.514
 1137SOL     OW 4309   0.711   5.092   5.629
 1137SOL    HW1 4310   0.693   5.186   5.656
 1137SOL    HW2 4311   0.789   5.056   5.681
 1138SOL     OW 4312   1.687   2.905   4.526
 1138SOL    HW1 4313   1.772   2.863   4.558
 1138SOL    HW2 4314   1.609   2.850   4.558
 1139SOL     OW 4315   2.713   5.628   4.831
 1139SOL    HW1 4316   2.732   5.720   4.798
 1139SOL    HW2 4317   2.799   5.579   4.845
 1140SOL     OW 4318   1.389   1.531   0.640
 1140SOL    HW1 4319   1.342   1.450   0.676
 1140SOL    HW2 4320   1.425   1.510   0.549
 1141SOL     OW 4321   6.313   4.783   6.040
 1141SOL    HW1 4322   6.375   4.862   6.048
 1141SOL    HW2 4323   6.247   4.786   6.115
 1142SOL     OW 4324   2.239   6.186   2.741
 1142SOL    HW1 4325   2.156   6.181   2.797
 1142SOL    HW2 4326   2.277   6.095   2.729
 1143SOL     OW 4327   1.563   3.920   1.934
 1143SOL    HW1 4328   1.495   3.865   1.981
 1143SOL    HW2 4329   1.557   4.015   1.965
 1144SOL     OW 4330   5.560   4.598   1.173
 1144SOL    HW1 4331   5.475   4.608   1.121
 1144SOL    HW2 4332   5.627   4.548   1.117
 1145SOL     OW 4333   6.486   0.805   0.852
 1145SOL    HW1 4334   6.486   0.819   0.951
 1145SOL    HW2 4335   6.460   0.891   0.806
 1146SOL     OW 4336   0.696   0.937   1.284
 1146SOL    HW1 4337   0.665   0.880   1.208
 1146SOL    HW2 4338   0.617   0.982   1.326
 1147SOL     OW 4339   3.020   6.549   1.892
 1147SOL    HW1 4340   3.075   6.540   1.810
 1147SOL    HW2 4341   2.932   6.590   1.869
 1148SOL     OW 4342   4.868   5.480   3.319
 1148SOL    HW1 4343   4.789   5.513   3.267
 1148SOL    HW2 4344   4.843   5.476   3.416
 1149SOL     OW 4345   4.520   3.164   1.573
 1149SOL    HW1 4346   4.482   3.132   1.660
 1149SOL    HW2 4347   4.586   3.237   1.591
 1150SOL     OW 4348   1.655   4.220   0.305
 1150SOL    HW1 4349   1.740   4.268   0.322
 1150SOL    HW2 4350   1.636   4.157   0.380
 1151SOL     OW 4351   6.080   5.877   4.142
 1151SOL    HW1 4352   6.053   5.846   4.051
 1151SOL    HW2 4353   6.169   5.837   4.166
 1152SOL     OW 4354   4.077   6.268   6.850
 1152SOL    HW1 4355   4.130   6.225   6.923
 1152SOL    HW2 4356   4.044   6.197   6.787
 1153SOL     OW 4357   5.949   0.108   1.196
 1153SOL    HW1 4358   5.873   0.172   1.207
 1153SOL    HW2 4359   5.914   0.022   1.159
 1154SOL     OW 4360   2.004   2.526   1.359
 1154SOL    HW1 4361   1.982   2.447   1.302
 1154SOL    HW2 4362   1.962   2.608   1.320
 1155SOL     OW 4363   3.054   6.772   4.779
 1155SOL    HW1 4364   3.088   6.718   4.702
 1155SOL    HW2 4365   3.100   6.743   4.863
 1156SOL     OW 4366   2.468   1.783   3.848
 1156SOL    HW1 4367   2.494   1.785   3.751
 1156SOL    HW2 4368   2.404   1.857   3.867
 1157SOL     OW 4369   3.637   0.848   6.443
 1157SOL    HW1 4370   3.682   0.763   6.472
 1157SOL    HW2 4371   3.705   0.921   6.436
 1158SOL     OW 4372   6.158   5.333   2.829
 1158SOL    HW1 4373   6.242   5.284   2.851
 1158SOL    HW2 4374   6.150   5.415   2.887
 1159SOL     OW 4375   6.422   5.645   1.349
 1159SOL    HW1 4376   6.446   5.565   1.294
 1159SOL    HW2 4377   6.499   5.709   1.352
 1160SOL     OW 4378   5.465   1.575   0.673
 1160SOL    HW1 4379   5.412   1.530   0.602
 1160SOL    HW2 4380   5.458   1.674   0.662
 1161SOL     OW 4381   0.897   5.038   0.886
 1161SOL    HW1 4382   0.965   4.993   0.944
 1161SOL    HW2 4383   0.822   4.975   0.867
 1162SOL     OW 4384   2.703   2.346   4.542
 1162SOL    HW1 4385   2.708   2.391   4.631
 1162SOL    HW2 4386   2.618   2.372   4.496
 1163SOL     OW 4387   5.815   3.354   1.801
 1163SOL    HW1 4388   5.805   3.279   1.736
 1163SOL    HW2 4389   5.910   3.356   1.835
 1164SOL     OW 4390   4.763   1.871   5.270
 1164SOL    HW1 4391   4.670   1.898   5.292
 1164SOL    HW2 4392   4.823   1.952   5.273
 1165SOL     OW 4393   4.328   6.407   3.627
 1165SOL    HW1 4394   4.281   6.358   3.701
 1165SOL    HW2 4395   4.271   6.483   3.596
 1166SOL     OW 4396   2.743   4.809   6.728
 1166SOL    HW1 4397   2.747   4.868   6.808
 1166SOL    HW2 4398   2.650   4.810   6.690
 1167SOL     OW 4399   5.621   4.652   2.351
 1167SOL    HW1 4400   5.710   4.684   2.385
 1167SOL    HW2 4401   5.550   4.717   2.379
 1168SOL     OW 4402   6.484   1.313   3.644
 1168SOL    HW1 4403   6.484   1.412   3.638
 1168SOL    HW2 4404   6.391   1.279   3.631
 1169SOL     OW 4405   5.519   1.001   5.423
 1169SOL    HW1 4406   5.532   0.957   5.512
 1169SOL    HW2 4407   5.603   1.049   5.398
 1170SOL     OW 4408   5.072   6.410   4.186
 1170SOL    HW1 4409   4.974   6.404   4.164
 1170SOL    HW2 4410   5.123   6.348   4.127
 1171SOL     OW 4411   0.848   0.271   1.040
 1171SOL    HW1 4412   0.758   0.264   1.084
 1171SOL    HW2 4413   0.872   0.183   1.000
 1172SOL     OW 4414   6.797   3.189   6.372
 1172SOL    HW1 4415   6.888   3.229   6.362
 1172SOL    HW2 4416   6.792   3.138   6.458
 1173SOL     OW 4417   3.579   1.496   0.358
 1173SOL    HW1 4418   3.564   1.564   0.286
 1173SOL    HW2 4419   3.650   1.529   0.421
 1174SOL     OW 4420   2.964   3.303   0.625
 1174SOL    HW1 4421   3.021   3.254   0.559
 1174SOL    HW2 4422   2.983   3.268   0.717
 1175SOL     OW 4423   3.020   3.175   4.083
 1175SOL    HW1 4424   3.070   3.102   4.036
 1175SOL    HW2 4425   3.080   3.219   4.149
 1176SOL     OW 4426   5.665   3.757   6.673
 1176SOL    HW1 4427   5.637   3.683   6.612
 1176SOL    HW2 4428   5.592   3.776   6.738
 1177SOL     OW 4429   6.798   2.088   4.814
 1177SOL    HW1 4430   6.718   2.120   4.864
 1177SOL    HW2 4431   6.773   2.008   4.759
 1178SOL     OW 4432   3.330   5.306   0.732
 1178SOL    HW1 4433   3.360   5.214   0.759
 1178SOL    HW2 4434   3.358   5.323   0.638
 1179SOL     OW 4435   2.425   5.775   0.252
 1179SOL    HW1 4436   2.326   5.762   0.239
 1179SOL    HW2 4437   2.441   5.864   0.293
 1180SOL     OW 4438   3.662   5.658   0.782
 1180SOL    HW1 4439   3.591   5.598   0.819
 1180SOL    HW2 4440   3.652   5.664   0.683
 1181SOL     OW 4441   0.650   5.710   0.885
 1181SOL    HW1 4442   0.743   5.677   0.870
 1181SOL    HW2 4443   0.622   5.766   0.808
 1182SOL     OW 4444   4.471   5.044   3.042
 1182SOL    HW1 4445   4.372   5.042   3.033
 1182SOL    HW2 4446   4.503   4.958   3.081
 1183SOL     OW 4447   2.123   3.245   6.020
 1183SOL    HW1 4448   2.176   3.235   5.935
 1183SOL    HW2 4449   2.050   3.311   6.005
 1184SOL     OW 4450   1.011   6.742   5.532
 1184SOL    HW1 4451   0.958   6.685   5.595
 1184SOL    HW2 4452   1.003   6.838   5.559
 1185SOL     OW 4453   0.074   1.358   6.458
 1185SOL    HW1 4454   0.101   1.262   6.451
 1185SOL    HW2 4455   7.007   1.365   6.501
 1186SOL     OW 4456   5.331   6.095   4.985
 1186SOL    HW1 4457   5.262   6.103   5.057
 1186SOL    HW2 4458   5.414   6.053   5.022
 1187SOL     OW 4459   5.822   0.569   5.808
 1187SOL    HW1 4460   5.891   0.613   5.751
 1187SOL    HW2 4461   5.764   0.511   5.751
 1188SOL     OW 4462   2.723   6.589   5.874
 1188SOL    HW1 4463   2.782   6.510   5.858
 1188SOL    HW2 4464   2.647   6.563   5.934
 1189SOL     OW 4465   5.887   3.232   3.265
 1189SOL    HW1 4466   5.833   3.151   3.244
 1189SOL    HW2 4467   5.916   3.276   3.180
 1190SOL     OW 4468   1.787   5.987   2.498
 1190SOL    HW1 4469   1.805   6.085   2.487
 1190SOL    HW2 4470   1.843   5.936   2.433
 1191SOL     OW 4471   4.291   5.599   2.461
 1191SOL    HW1 4472   4.313   5.549   2.378
 1191SOL    HW2 4473   4.341   5.685   2.463
 1192SOL     OW 4474   5.217   6.329   3.770
 1192SOL    HW1 4475   5.189   6.421   3.743
 1192SOL    HW2 4476   5.292   6.298   3.711
 1193SOL     OW 4477   6.539   5.657   4.007
 1193SOL    HW1 4478   6.530   5.700   4.097
 1193SOL    HW2 4479   6.448   5.628   3.975
 1194SOL     OW 4480   4.284   0.822   1.189
 1194SOL    HW1 4481   4.188   0.850   1.188
 1194SOL    HW2 4482   4.303   0.775   1.275
 1195SOL     OW 4483   5.752   2.144   2.998
 1195SOL    HW1 4484   5.713   2.203   3.068
 1195SOL    HW2 4485   5.703   2.057   2.996
 1196SOL     OW 4486   6.404   6.353   4.462
 1196SOL    HW1 4487   6.413   6.402   4.549
 1196SOL    HW2 4488   6.357   6.266   4.478
 1197SOL     OW 4489   2.703   6.435   0.550
 1197SOL    HW1 4490   2.617   6.441   0.601
 1197SOL    HW2 4491   2.740   6.343   0.559
 1198SOL     OW 4492   1.200   2.326   0.439
 1198SOL    HW1 4493   1.258   2.401   0.469
 1198SOL    HW2 4494   1.209   2.250   0.503
 1199SOL     OW 4495   5.014   4.160   2.337
 1199SOL    HW1 4496   5.031   4.258   2.349
 1199SOL    HW2 4497   4.992   4.142   2.241
 1200SOL     OW 4498   3.160   3.499   2.074
 1200SOL    HW1 4499   3.218   3.580   2.061
 1200SOL    HW2 4500   3.071   3.514   2.033
 1201SOL     OW 4501   1.597   1.948   4.664
 1201SOL    HW1 4502   1.588   1.911   4.571
 1201SOL    HW2 4503   1.650   2.033   4.661
 1202SOL     OW 4504   0.029   5.252   6.537
 1202SOL    HW1 4505   0.107   5.305   6.571
 1202SOL    HW2 4506   0.014   5.273   6.441
 1203SOL     OW 4507   4.704   5.975   5.701
 1203SOL    HW1 4508   4.697   5.947   5.797
 1203SOL    HW2 4509   4.724   5.895   5.644
 1204SOL     OW 4510   1.726   0.219   2.265
 1204SOL    HW1 4511   1.640   0.268   2.285
 1204SOL    HW2 4512   1.774   0.265   2.191
 1205SOL     OW 4513   5.242   4.030   1.702
 1205SOL    HW1 4514   5.254   4.122   1.738
 1205SOL    HW2 4515   5.155   3.992   1.735
 1206SOL     OW 4516   3.181   3.299   5.347
 1206SOL    HW1 4517   3.179   3.239   5.267
 1206SOL    HW2 4518   3.240   3.259   5.418
 1207SOL     OW 4519   1.785   6.484   2.003
 1207SOL    HW1 4520   1.762   6.408   1.942
 1207SOL    HW2 4521   1.873   6.465   2.048
 1208SOL     OW 4522   3.081   3.824   6.355
 1208SOL    HW1 4523   3.147   3.873   6.298
 1208SOL    HW2 4524   3.048   3.885   6.426
 1209SOL     OW 4525   3.883   6.825   5.636
 1209SOL    HW1 4526   3.970   6.849   5.680
 1209SOL    HW2 4527   3.899   6.797   5.542
 1210SOL     OW 4528   3.253   1.308   2.969
 1210SOL    HW1 4529   3.220   1.261   3.051
 1210SOL    HW2 4530   3.197   1.282   2.891
 1211SOL     OW 4531   1.134   3.760   0.556
 1211SOL    HW1 4532   1.034   3.765   0.556
 1211SOL    HW2 4533   1.164   3.701   0.631
 1212SOL     OW 4534   1.066   6.220   6.731
 1212SOL    HW1 4535   1.003   6.165   6.675
 1212SOL    HW2 4536   1.045   6.206   6.828
 1213SOL     OW 4537   5.365   2.669   1.120
 1213SOL    HW1 4538   5.416   2.607   1.180
 1213SOL    HW2 4539   5.414   2.680   1.033
 1214SOL     OW 4540   0.493   2.447   1.633
 1214SOL    HW1 4541   0.566   2.410   1.690
 1214SOL    HW2 4542   0.457   2.530   1.674
 1215SOL     OW 4543   0.918   5.360   4.575
 1215SOL    HW1 4544   0.923   5.392   4.481
 1215SOL    HW2 4545   0.937   5.262   4.578
 1216SOL     OW 4546   4.146   6.810   6.844
 1216SOL    HW1 4547   4.177   6.783   6.935
 1216SOL    HW2 4548   4.062   6.864   6.852
 1217SOL     OW 4549   2.763   4.630   0.169
 1217SOL    HW1 4550   2.758   4.695   0.244
 1217SOL    HW2 4551   2.765   4.536   0.205
 1218SOL     OW 4552   1.898   3.982   4.005
 1218SOL    HW1 4553   1.913   3.934   3.918
 1218SOL    HW2 4554   1.855   3.920   4.070
 1219SOL     OW 4555   4.287   6.304   2.639
 1219SOL    HW1 4556   4.360   6.295   2.707
 1219SOL    HW2 4557   4.218   6.234   2.655
 1220SOL     OW 4558   1.243   4.830   2.810
 1220SOL    HW1 4559   1.232   4.868   2.718
 1220SOL    HW2 4560   1.244   4.730   2.804
 1221SOL     OW 4561   5.991   3.855   6.287
 1221SOL    HW1 4562   6.008   3.770   6.238
 1221SOL    HW2 4563   5.900   3.852   6.328
 1222SOL     OW 4564   6.974   6.123   6.974
 1222SOL    HW1 4565   6.991   6.038   6.924
 1222SOL    HW2 4566   6.928   6.102   0.036
 1223SOL     OW 4567   3.825   6.133   0.793
 1223SOL    HW1 4568   3.884   6.154   0.715
 1223SOL    HW2 4569   3.744   6.085   0.761
 1224SOL     OW 4570   2.992   6.979   1.952
 1224SOL    HW1 4571   3.003   6.893   2.000
 1224SOL    HW2 4572   2.905   7.021   1.978
 1225SOL     OW 4573   2.613   4.249   6.691
 1225SOL    HW1 4574   2.636   4.154   6.709
 1225SOL    HW2 4575   2.516   4.256   6.667
 1226SOL     OW 4576   2.080   4.511   0.938
 1226SOL    HW1 4577   1.995   4.544   0.980
 1226SOL    HW2 4578   2.068   4.508   0.839
 1227SOL     OW 4579   0.062   3.393   6.450
 1227SOL    HW1 4580   6.999   3.438   6.427
 1227SOL    HW2 4581   0.054   3.348   6.539
 1228SOL     OW 4582   4.067   1.824   5.994
 1228SOL    HW1 4583   4.003   1.747   5.989
 1228SOL    HW2 4584   4.053   1.883   5.914
 1229SOL     OW 4585   3.504   4.281   6.207
 1229SOL    HW1 4586   3.498   4.266   6.108
 1229SOL    HW2 4587   3.459   4.367   6.231
 1230SOL     OW 4588   4.725   6.461   3.289
 1230SOL    HW1 4589   4.755   6.397   3.360
 1230SOL    HW2 4590   4.683   6.541   3.332
 1231SOL     OW 4591   1.657   3.889   4.208
 1231SOL    HW1 4592   1.579   3.836   4.173
 1231SOL    HW2 4593   1.738   3.831   4.213
 1232SOL     OW 4594   2.012   2.262   4.593
 1232SOL    HW1 4595   2.062   2.211   4.663
 1232SOL    HW2 4596   1.956   2.332   4.637
 1233SOL     OW 4597   0.717   3.490   4.467
 1233SOL    HW1 4598   0.713   3.417   4.536
 1233SOL    HW2 4599   0.660   3.464   4.389
 1234SOL     OW 4600   6.608   4.409   4.213
 1234SOL    HW1 4601   6.652   4.443   4.131
 1234SOL    HW2 4602   6.554   4.482   4.256
 1235SOL     OW 4603   6.639   5.893   4.199
 1235SOL    HW1 4604   6.649   5.934   4.108
 1235SOL    HW2 4605   6.686   5.950   4.267
 1236SOL     OW 4606   5.213   0.355   0.107
 1236SOL    HW1 4607   5.141   0.423   0.091
 1236SOL    HW2 4608   5.293   0.378   0.052
 1237SOL     OW 4609   3.353   4.885   6.731
 1237SOL    HW1 4610   3.290   4.808   6.720
 1237SOL    HW2 4611   3.405   4.899   6.647
 1238SOL     OW 4612   1.600   1.845   1.209
 1238SOL    HW1 4613   1.579   1.943   1.203
 1238SOL    HW2 4614   1.697   1.831   1.190
 1239SOL     OW 4615   0.066   6.319   6.779
 1239SOL    HW1 4616   0.116   6.375   6.845
 1239SOL    HW2 4617   0.023   6.242   6.826
 1240SOL     OW 4618   5.149   5.980   1.799
 1240SOL    HW1 4619   5.111   6.066   1.834
 1240SOL    HW2 4620   5.129   5.972   1.702
 1241SOL     OW 4621   6.418   3.338   3.819
 1241SOL    HW1 4622   6.355   3.323   3.743
 1241SOL    HW2 4623   6.431   3.253   3.869
 1242SOL     OW 4624   2.085   3.628   0.185
 1242SOL    HW1 4625   1.998   3.583   0.208
 1242SOL    HW2 4626   2.071   3.727   0.181
 1243SOL     OW 4627   2.705   5.177   5.389
 1243SOL    HW1 4628   2.634   5.195   5.321
 1243SOL    HW2 4629   2.794   5.200   5.350
 1244SOL     OW 4630   0.764   0.845   3.702
 1244SOL    HW1 4631   0.714   0.838   3.788
 1244SOL    HW2 4632   0.714   0.796   3.631
 1245SOL     OW 4633   2.981   3.617   6.711
 1245SOL    HW1 4634   3.061   3.564   6.740
 1245SOL    HW2 4635   2.957   3.683   6.781
 1246SOL     OW 4636   1.401   6.260   2.451
 1246SOL    HW1 4637   1.325   6.280   2.390
 1246SOL    HW2 4638   1.427   6.164   2.442
 1247SOL     OW 4639   2.068   6.335   6.213
 1247SOL    HW1 4640   2.060   6.409   6.146
 1247SOL    HW2 4641   2.060   6.247   6.167
 1248SOL     OW 4642   1.935   5.533   3.528
 1248SOL    HW1 4643   1.979   5.556   3.441
 1248SOL    HW2 4644   1.880   5.450   3.517
 1249SOL     OW 4645   6.462   3.244   3.327
 1249SOL    HW1 4646   6.482   3.338   3.299
 1249SOL    HW2 4647   6.364   3.227   3.321
 1250SOL     OW 4648   0.827   5.057   4.925
 1250SOL    HW1 4649   0.842   4.966   4.966
 1250SOL    HW2 4650   0.744   5.097   4.964
 1251SOL     OW 4651   3.550   0.422   4.869
 1251SOL    HW1 4652   3.558   0.338   4.923
 1251SOL    HW2 4653   3.633   0.436   4.816
 1252SOL     OW 4654   3.542   3.875   6.240
 1252SOL    HW1 4655   3.597   3.839   6.315
 1252SOL    HW2 4656   3.602   3.920   6.173
 1253SOL     OW 4657   4.111   5.501   2.848
 1253SOL    HW1 4658   4.081   5.595   2.833
 1253SOL    HW2 4659   4.203   5.501   2.888
 1254SOL     OW 4660   6.398   2.125   3.000
 1254SOL    HW1 4661   6.422   2.172   2.915
 1254SOL    HW2 4662   6.347   2.187   3.059
 1255SOL     OW 4663   6.404   6.702   6.630
 1255SOL    HW1 4664   6.445   6.624   6.582
 1255SOL    HW2 4665   6.448   6.787   6.601
 1256SOL     OW 4666   4.392   1.051   3.514
 1256SOL    HW1 4667   4.402   1.150   3.508
 1256SOL    HW2 4668   4.473   1.012   3.557
 1257SOL     OW 4669   6.000   1.501   3.928
 1257SOL    HW1 4670   6.026   1.559   3.850
 1257SOL    HW2 4671   5.912   1.457   3.908
 1258SOL     OW 4672   0.033   6.837   3.228
 1258SOL    HW1 4673   0.026   6.925   3.181
 1258SOL    HW2 4674   0.124   6.797   3.211
 1259SOL     OW 4675   4.560   2.234   4.899
 1259SOL    HW1 4676   4.476   2.272   4.937
 1259SOL    HW2 4677   4.550   2.135   4.887
 1260SOL     OW 4678   1.520   0.961   6.539
 1260SOL    HW1 4679   1.554   1.043   6.494
 1260SOL    HW2 4680   1.513   0.978   6.638
 1261SOL     OW 4681   6.409   4.406   1.027
 1261SOL    HW1 4682   6.457   4.342   0.968
 1261SOL    HW2 4683   6.315   4.419   0.995
 1262SOL     OW 4684   5.497   6.255   1.854
 1262SOL    HW1 4685   5.597   6.244   1.854
 1262SOL    HW2 4686   5.464   6.257   1.949
 1263SOL     OW 4687   1.035   2.021   3.152
 1263SOL    HW1 4688   1.088   2.090   3.201
 1263SOL    HW2 4689   0.941   2.053   3.140
 1264SOL     OW 4690   0.854   2.418   5.426
 1264SOL    HW1 4691   0.850   2.386   5.332
 1264SOL    HW2 4692   0.915   2.498   5.431
 1265SOL     OW 4693   5.741   6.130   4.760
 1265SOL    HW1 4694   5.835   6.134   4.725
 1265SOL    HW2 4695   5.681   6.088   4.692
 1266SOL     OW 4696   1.904   0.998   4.638
 1266SOL    HW1 4697   1.959   1.057   4.697
 1266SOL    HW2 4698   1.903   0.905   4.676
 1267SOL     OW 4699   3.584   0.129   3.454
 1267SOL    HW1 4700   3.575   0.108   3.357
 1267SOL    HW2 4701   3.588   0.045   3.507
 1268SOL     OW 4702   4.268   2.597   5.758
 1268SOL    HW1 4703   4.295   2.534   5.831
 1268SOL    HW2 4704   4.329   2.676   5.757
 1269SOL     OW 4705   6.208   2.188   4.098
 1269SOL    HW1 4706   6.228   2.220   4.190
 1269SOL    HW2 4707   6.247   2.252   4.031
 1270SOL     OW 4708   6.670   5.803   2.631
 1270SOL    HW1 4709   6.733   5.730   2.604
 1270SOL    HW2 4710   6.628   5.842   2.550
 1271SOL     OW 4711   1.766   1.610   0.935
 1271SOL    HW1 4712   1.795   1.684   0.995
 1271SOL    HW2 4713   1.666   1.610   0.927
 1272SOL     OW 4714   6.284   4.013   6.279
 1272SOL    HW1 4715   6.188   4.027   6.303
 1272SOL    HW2 4716   6.292   4.011   6.179
 1273SOL     OW 4717   1.045   4.801   5.084
 1273SOL    HW1 4718   0.975   4.731   5.099
 1273SOL    HW2 4719   1.125   4.782   5.141
 1274SOL     OW 4720   0.032   5.685   3.098
 1274SOL    HW1 4721   7.002   5.630   3.161
 1274SOL    HW2 4722   0.115   5.636   3.074
 1275SOL     OW 4723   2.248   1.600   2.993
 1275SOL    HW1 4724   2.266   1.531   3.063
 1275SOL    HW2 4725   2.270   1.562   2.903
 1276SOL     OW 4726   5.470   4.833   4.193
 1276SOL    HW1 4727   5.375   4.832   4.161
 1276SOL    HW2 4728   5.528   4.784   4.129
 1277SOL     OW 4729   0.762   6.248   0.325
 1277SOL    HW1 4730   0.703   6.276   0.402
 1277SOL    HW2 4731   0.705   6.213   0.251
 1278SOL     OW 4732   1.009   5.807   2.948
 1278SOL    HW1 4733   1.091   5.840   2.995
 1278SOL    HW2 4734   1.007   5.842   2.855
 1279SOL     OW 4735   2.740   2.761   1.513
 1279SOL    HW1 4736   2.821   2.713   1.546
 1279SOL    HW2 4737   2.723   2.736   1.418
 1280SOL     OW 4738   2.063   2.237   3.836
 1280SOL    HW1 4739   2.151   2.191   3.828
 1280SOL    HW2 4740   2.047   2.292   3.754
 1281SOL     OW 4741   4.566   6.302   4.789
 1281SOL    HW1 4742   4.627   6.317   4.711
 1281SOL    HW2 4743   4.614   6.327   4.873
 1282SOL     OW 4744   6.789   2.284   0.923
 1282SOL    HW1 4745   6.828   2.325   0.840
 1282SOL    HW2 4746   6.863   2.253   0.983
 1283SOL     OW 4747   6.987   2.790   4.721
 1283SOL    HW1 4748   0.022   2.865   4.752
 1283SOL    HW2 4749   6.899   2.826   4.691
 1284SOL     OW 4750   4.189   2.074   1.948
 1284SOL    HW1 4751   4.278   2.108   1.918
 1284SOL    HW2 4752   4.188   1.974   1.942
 1285SOL     OW 4753   4.428   1.180   5.120
 1285SOL    HW1 4754   4.390   1.098   5.077
 1285SOL    HW2 4755   4.405   1.260   5.065
 1286SOL     OW 4756   5.361   2.241   1.430
 1286SOL    HW1 4757   5.311   2.265   1.513
 1286SOL    HW2 4758   5.388   2.145   1.434
 1287SOL     OW 4759   6.501   4.620   4.329
 1287SOL    HW1 4760   6.553   4.696   4.367
 1287SOL    HW2 4761   6.403   4.640   4.336
 1288SOL     OW 4762   4.504   4.156   0.011
 1288SOL    HW1 4763   4.419   4.130   0.056
 1288SOL    HW2 4764   4.495   4.247   6.995
 1289SOL     OW 4765   0.018   0.252   1.604
 1289SOL    HW1 4766   0.055   0.345   1.604
 1289SOL    HW2 4767   0.092   0.187   1.618
 1290SOL     OW 4768   1.895   6.855   5.955
 1290SOL    HW1 4769   1.972   6.917   5.967
 1290SOL    HW2 4770   1.811   6.897   5.989
 1291SOL     OW 4771   6.591   4.925   3.153
 1291SOL    HW1 4772   6.639   4.895   3.069
 1291SOL    HW2 4773   6.635   4.882   3.232
 1292SOL     OW 4774   0.991   6.630   1.700
 1292SOL    HW1 4775   0.924   6.666   1.635
 1292SOL    HW2 4776   1.082   6.663   1.676
 1293SOL     OW 4777   4.085   1.378   0.127
 1293SOL    HW1 4778   4.065   1.466   0.084
 1293SOL    HW2 4779   4.093   1.307   0.056
 1294SOL     OW 4780   1.942   3.899   5.208
 1294SOL    HW1 4781   2.037   3.888   5.236
 1294SOL    HW2 4782   1.888   3.934   5.284
 1295SOL     OW 4783   6.044   4.581   0.596
 1295SOL    HW1 4784   5.992   4.664   0.615
 1295SOL    HW2 4785   6.079   4.584   0.502
 1296SOL     OW 4786   5.458   0.066   5.517
 1296SOL    HW1 4787   5.372   0.033   5.557
 1296SOL    HW2 4788   5.443   0.156   5.476
 1297SOL     OW 4789   0.597   0.575   2.244
 1297SOL    HW1 4790   0.524   0.564   2.176
 1297SOL    HW2 4791   0.665   0.640   2.209
 1298SOL     OW 4792   5.307   6.397   2.613
 1298SOL    HW1 4793   5.312   6.497   2.621
 1298SOL    HW2 4794   5.382   6.356   2.665
 1299SOL     OW 4795   0.841   3.810   4.871
 1299SOL    HW1 4796   0.790   3.895   4.887
 1299SOL    HW2 4797   0.785   3.732   4.896
 1300SOL     OW 4798   1.090   4.836   1.831
 1300SOL    HW1 4799   1.147   4.811   1.909
 1300SOL    HW2 4800   1.046   4.754   1.795
 1301SOL     OW 4801   0.552   0.243   0.492
 1301SOL    HW1 4802   0.586   0.152   0.470
 1301SOL    HW2 4803   0.628   0.308   0.489
 1302SOL     OW 4804   5.573   0.072   4.638
 1302SOL    HW1 4805   5.601   0.082   4.734
 1302SOL    HW2 4806   5.650   0.092   4.578
 1303SOL     OW 4807   4.015   6.175   2.111
 1303SOL    HW1 4808   4.087   6.237   2.080
 1303SOL    HW2 4809   3.983   6.119   2.035
 1304SOL     OW 4810   0.727   0.921   0.415
 1304SOL    HW1 4811   0.675   0.847   0.372
 1304SOL    HW2 4812   0.678   0.952   0.496
 1305SOL     OW 4813   5.038   3.256   6.326
 1305SOL    HW1 4814   4.982   3.319   6.272
 1305SOL    HW2 4815   5.134   3.285   6.321
 1306SOL     OW 4816   2.598   5.255   4.195
 1306SOL    HW1 4817   2.509   5.225   4.229
 1306SOL    HW2 4818   2.600   5.247   4.095
 1307SOL     OW 4819   2.636   1.890   3.614
 1307SOL    HW1 4820   2.683   1.824   3.555
 1307SOL    HW2 4821   2.642   1.981   3.573
 1308SOL     OW 4822   0.872   4.555   5.827
 1308SOL    HW1 4823   0.828   4.640   5.800
 1308SOL    HW2 4824   0.945   4.574   5.892
 1309SOL     OW 4825   5.778   4.452   6.833
 1309SOL    HW1 4826   5.729   4.539   6.834
 1309SOL    HW2 4827   5.736   4.389   6.898
 1310SOL     OW 4828   1.185   3.950   3.268
 1310SOL    HW1 4829   1.230   3.891   3.334
 1310SOL    HW2 4830   1.133   4.021   3.316
 1311SOL     OW 4831   6.689   5.814   0.790
 1311SOL    HW1 4832   6.625   5.747   0.830
 1311SOL    HW2 4833   6.654   5.843   0.702
 1312SOL     OW 4834   2.558   1.139   5.956
 1312SOL    HW1 4835   2.605   1.058   5.921
 1312SOL    HW2 4836   2.459   1.125   5.949
 1313SOL     OW 4837   6.290   6.253   2.090
 1313SOL    HW1 4838   6.315   6.305   2.171
 1313SOL    HW2 4839   6.372   6.210   2.051
 1314SOL     OW 4840   2.437   1.760   5.126
 1314SOL    HW1 4841   2.359   1.698   5.136
 1314SOL    HW2 4842   2.509   1.732   5.189
 1315SOL     OW 4843   6.292   1.512   3.268
 1315SOL    HW1 4844   6.305   1.543   3.174
 1315SOL    HW2 4845   6.353   1.435   3.287
 1316SOL     OW 4846   4.430   0.697   5.492
 1316SOL    HW1 4847   4.344   0.675   5.445
 1316SOL    HW2 4848   4.505   0.646   5.451
 1317SOL     OW 4849   2.891   3.629   6.214
 1317SOL    HW1 4850   2.922   3.715   6.254
 1317SOL    HW2 4851   2.897   3.556   6.282
 1318SOL     OW 4852   1.904   2.612   6.164
 1318SOL    HW1 4853   1.900   2.521   6.205
 1318SOL    HW2 4854   1.838   2.672   6.210
 1319SOL     OW 4855   6.827   6.643   0.940
 1319SOL    HW1 4856   6.754   6.709   0.924
 1319SOL    HW2 4857   6.868   6.659   1.029
 1320SOL     OW 4858   3.489   3.206   6.211
 1320SOL    HW1 4859   3.423   3.135   6.186
 1320SOL    HW2 4860   3.455   3.295   6.184
 1321SOL     OW 4861   5.763   2.753   0.447
 1321SOL    HW1 4862   5.703   2.682   0.486
 1321SOL    HW2 4863   5.743   2.763   0.350
 1322SOL     OW 4864   3.570   1.867   0.542
 1322SOL    HW1 4865   3.642   1.797   0.548
 1322SOL    HW2 4866   3.609   1.951   0.504
 1323SOL     OW 4867   3.814   0.071   0.684
 1323SOL    HW1 4868   3.739   0.008   0.661
 1323SOL    HW2 4869   3.900   0.034   0.650
 1324SOL     OW 4870   1.488   3.374   0.091
 1324SOL    HW1 4871   1.549   3.407   0.018
 1324SOL    HW2 4872   1.423   3.309   0.052
 1325SOL     OW 4873   3.067   5.325   5.655
 1325SOL    HW1 4874   2.986   5.334   5.713
 1325SOL    HW2 4875   3.041   5.342   5.560
 1326SOL     OW 4876   4.775   2.661   3.715
 1326SOL    HW1 4877   4.676   2.673   3.718
 1326SOL    HW2 4878   4.805   2.658   3.620
 1327SOL     OW 4879   5.631   5.360   1.848
 1327SOL    HW1 4880   5.659   5.264   1.850
 1327SOL    HW2 4881   5.610   5.392   1.940
 1328SOL     OW 4882   2.099   3.084   5.029
 1328SOL    HW1 4883   2.079   3.176   4.995
 1328SOL    HW2 4884   2.198   3.070   5.033
 1329SOL     OW 4885   1.035   3.067   3.579
 1329SOL    HW1 4886   1.022   3.084   3.482
 1329SOL    HW2 4887   0.966   3.118   3.631
 1330SOL     OW 4888   6.387   3.058   1.466
 1330SOL    HW1 4889   6.455   3.056   1.539
 1330SOL    HW2 4890   6.414   3.126   1.398
 1331SOL     OW 4891   4.513   2.056   3.534
 1331SOL    HW1 4892   4.433   1.996   3.536
 1331SOL    HW2 4893   4.588   2.014   3.585
 1332SOL     OW 4894   1.664   6.236   6.919
 1332SOL    HW1 4895   1.598   6.258   6.848
 1332SOL    HW2 4896   1.632   6.272   7.007
 1333SOL     OW 4897   3.920   3.937   3.231
 1333SOL    HW1 4898   3.845   3.901   3.286
 1333SOL    HW2 4899   3.884   3.981   3.149
 1334SOL     OW 4900   6.939   3.244   2.207
 1334SOL    HW1 4901   6.873   3.240   2.282
 1334SOL    HW2 4902   6.891   3.235   2.120
 1335SOL     OW 4903   1.226   3.522   2.433
 1335SOL    HW1 4904   1.152   3.578   2.469
 1335SOL    HW2 4905   1.247   3.551   2.339
 1336SOL     OW 4906   2.787   0.770   5.069
 1336SOL    HW1 4907   2.758   0.858   5.031
 1336SOL    HW2 4908   2.847   0.723   5.003
 1337SOL     OW 4909   6.740   1.249   3.726
 1337SOL    HW1 4910   6.791   1.335   3.732
 1337SOL    HW2 4911   6.653   1.266   3.680
 1338SOL     OW 4912   6.485   3.911   5.279
 1338SOL    HW1 4913   6.486   3.913   5.379
 1338SOL    HW2 4914   6.423   3.981   5.245
 1339SOL     OW 4915   0.314   0.238   6.891
 1339SOL    HW1 4916   0.251   0.192   6.828
 1339SOL    HW2 4917   0.261   0.284   6.962
 1340SOL     OW 4918   4.071   2.472   1.687
 1340SOL    HW1 4919   4.067   2.414   1.768
 1340SOL    HW2 4920   3.983   2.518   1.674
 1341SOL     OW 4921   4.867   6.635   0.180
 1341SOL    HW1 4922   4.844   6.692   0.258
 1341SOL    HW2 4923   4.813   6.663   0.101
 1342SOL     OW 4924   2.690   6.646   1.522
 1342SOL    HW1 4925   2.601   6.659   1.478
 1342SOL    HW2 4926   2.748   6.726   1.505
 1343SOL     OW 4927   5.831   5.942   3.107
 1343SOL    HW1 4928   5.888   5.990   3.174
 1343SOL    HW2 4929   5.889   5.889   3.045
 1344SOL     OW 4930   0.580   0.695   4.923
 1344SOL    HW1 4931   0.488   0.712   4.886
 1344SOL    HW2 4932   0.619   0.614   4.879
 1345SOL     OW 4933   0.238   5.995   0.388
 1345SOL    HW1 4934   0.232   6.080   0.337
 1345SOL    HW2 4935   0.209   6.011   0.483
 1346SOL     OW 4936   2.996   5.439   5.173
 1346SOL    HW1 4937   3.009   5.458   5.270
 1346SOL    HW2 4938   2.913   5.384   5.161
 1347SOL     OW 4939   1.172   0.016   6.382
 1347SOL    HW1 4940   1.198   0.046   6.474
 1347SOL    HW2 4941   1.248   0.030   6.319
 1348SOL     OW 4942   0.768   6.501   5.647
 1348SOL    HW1 4943   0.701   6.535   5.581
 1348SOL    HW2 4944   0.787   6.573   5.715
 1349SOL     OW 4945   4.829   2.973   4.146
 1349SOL    HW1 4946   4.796   2.878   4.149
 1349SOL    HW2 4947   4.802   3.015   4.059
 1350SOL     OW 4948   3.927   3.881   0.092
 1350SOL    HW1 4949   3.868   3.959   0.114
 1350SOL    HW2 4950   3.936   3.873   7.017
 1351SOL     OW 4951   6.765   2.430   5.473
 1351SOL    HW1 4952   6.715   2.511   5.444
 1351SOL    HW2 4953   6.852   2.457   5.513
 1352SOL     OW 4954   6.782   0.363   2.109
 1352SOL    HW1 4955   6.862   0.381   2.052
 1352SOL    HW2 4956   6.806   0.299   2.182
 1353SOL     OW 4957   0.578   1.064   6.921
 1353SOL    HW1 4958   0.554   1.087   7.015
 1353SOL    HW2 4959   0.639   0.985   6.922
 1354SOL     OW 4960   5.328   5.167   2.574
 1354SOL    HW1 4961   5.350   5.112   2.655
 1354SOL    HW2 4962   5.311   5.262   2.603
 1355SOL     OW 4963   6.239   3.412   6.054
 1355SOL    HW1 4964   6.277   3.320   6.069
 1355SOL    HW2 4965   6.313   3.478   6.043
 1356SOL     OW 4966   3.055   3.109   0.800
 1356SOL    HW1 4967   3.088   3.131   0.892
 1356SOL    HW2 4968   3.120   3.049   0.754
 1357SOL     OW 4969   0.332   3.569   5.117
 1357SOL    HW1 4970   0.306   3.514   5.196
 1357SOL    HW2 4971   0.279   3.540   5.037
 1358SOL     OW 4972   1.686   6.630   6.635
 1358SOL    HW1 4973   1.591   6.645   6.664
 1358SOL    HW2 4974   1.745   6.627   6.715
 1359SOL     OW 4975   0.019   4.121   1.427
 1359SOL    HW1 4976   6.952   4.082   1.417
 1359SOL    HW2 4977   0.014   4.200   1.489
 1360SOL     OW 4978   2.348   2.416   0.354
 1360SOL    HW1 4979   2.254   2.381   0.352
 1360SOL    HW2 4980   2.346   2.516   0.359
 1361SOL     OW 4981   0.173   5.380   5.059
 1361SOL    HW1 4982   0.122   5.411   5.138
 1361SOL    HW2 4983   0.128   5.412   4.975
 1362SOL     OW 4984   3.093   3.055   3.077
 1362SOL    HW1 4985   2.995   3.074   3.086
 1362SOL    HW2 4986   3.138   3.069   3.165
 1363SOL     OW 4987   1.326   5.675   4.609
 1363SOL    HW1 4988   1.309   5.738   4.533
 1363SOL    HW2 4989   1.353   5.585   4.572
 1364SOL     OW 4990   3.742   3.442   0.956
 1364SOL    HW1 4991   3.691   3.490   0.885
 1364SOL    HW2 4992   3.707   3.349   0.966
 1365SOL     OW 4993   0.280   3.385   6.950
 1365SOL    HW1 4994   0.278   3.298   6.901
 1365SOL    HW2 4995   0.188   3.425   6.950
 1366SOL     OW 4996   3.102   0.458   5.371
 1366SOL    HW1 4997   3.106   0.517   5.290
 1366SOL    HW2 4998   3.045   0.501   5.441
 1367SOL     OW 4999   2.301   1.210   2.884
 1367SOL    HW1 5000   2.218   1.231   2.936
 1367SOL    HW2 5001   2.329   1.290   2.831
 1368SOL     OW 5002   5.354   6.889   3.520
 1368SOL    HW1 5003   5.374   6.798   3.557
 1368SOL    HW2 5004   5.259   6.913   3.542
 1369SOL     OW 5005   1.011   0.894   3.275
 1369SOL    HW1 5006   1.008   0.858   3.182
 1369SOL    HW2 5007   0.926   0.943   3.294
 1370SOL     OW 5008   2.874   0.449   1.617
 1370SOL    HW1 5009   2.789   0.500   1.606
 1370SOL    HW2 5010   2.947   0.491   1.563
 1371SOL     OW 5011   4.371   0.467   6.653
 1371SOL    HW1 5012   4.309   0.527   6.705
 1371SOL    HW2 5013   4.400   0.391   6.711
 1372SOL     OW 5014   3.150   1.996   1.776
 1372SOL    HW1 5015   3.104   1.996   1.865
 1372SOL    HW2 5016   3.208   2.077   1.769
 1373SOL     OW 5017   1.253   5.923   0.958
 1373SOL    HW1 5018   1.189   5.866   0.905
 1373SOL    HW2 5019   1.336   5.939   0.905
 1374SOL     OW 5020   4.934   2.714   0.448
 1374SOL    HW1 5021   4.945   2.646   0.520
 1374SOL    HW2 5022   4.956   2.805   0.485
 1375SOL     OW 5023   0.238   4.008   5.270
 1375SOL    HW1 5024   0.162   4.034   5.329
 1375SOL    HW2 5025   0.309   4.079   5.275
 1376SOL     OW 5026   4.685   1.834   2.659
 1376SOL    HW1 5027   4.647   1.741   2.662
 1376SOL    HW2 5028   4.753   1.844   2.731
 1377SOL     OW 5029   0.464   5.701   4.884
 1377SOL    HW1 5030   0.394   5.772   4.881
 1377SOL    HW2 5031   0.525   5.717   4.961
 1378SOL     OW 5032   2.178   2.014   0.026
 1378SOL    HW1 5033   2.106   1.978   6.991
 1378SOL    HW2 5034   2.262   2.027   6.996
 1379SOL     OW 5035   3.789   5.859   1.312
 1379SOL    HW1 5036   3.710   5.798   1.312
 1379SOL    HW2 5037   3.857   5.826   1.247
 1380SOL     OW 5038   6.504   6.702   2.623
 1380SOL    HW1 5039   6.558   6.686   2.540
 1380SOL    HW2 5040   6.521   6.629   2.689
 1381SOL     OW 5041   6.117   0.398   1.197
 1381SOL    HW1 5042   6.147   0.326   1.135
 1381SOL    HW2 5043   6.034   0.440   1.161
 1382SOL     OW 5044   6.881   4.960   6.315
 1382SOL    HW1 5045   6.944   4.883   6.330
 1382SOL    HW2 5046   6.873   5.013   6.399
 1383SOL     OW 5047   2.580   0.006   0.849
 1383SOL    HW1 5048   2.564   0.026   0.946
 1383SOL    HW2 5049   2.672   0.033   0.824
 1384SOL     OW 5050   3.026   1.652   2.066
 1384SOL    HW1 5051   2.935   1.661   2.106
 1384SOL    HW2 5052   3.022   1.591   1.987
 1385SOL     OW 5053   5.753   2.850   2.932
 1385SOL    HW1 5054   5.666   2.862   2.883
 1385SOL    HW2 5055   5.829   2.862   2.868
 1386SOL     OW 5056   2.142   2.596   4.286
 1386SOL    HW1 5057   2.083   2.632   4.358
 1386SOL    HW2 5058   2.106   2.624   4.197
 1387SOL     OW 5059   2.384   0.467   4.940
 1387SOL    HW1 5060   2.397   0.445   4.844
 1387SOL    HW2 5061   2.469   0.502   4.979
 1388SOL     OW 5062   6.365   1.256   5.075
 1388SOL    HW1 5063   6.363   1.322   5.150
 1388SOL    HW2 5064   6.400   1.168   5.108
 1389SOL     OW 5065   6.620   1.321   4.434
 1389SOL    HW1 5066   6.604   1.272   4.520
 1389SOL    HW2 5067   6.635   1.418   4.454
 1390SOL     OW 5068   4.568   2.625   2.146
 1390SOL    HW1 5069   4.485   2.611   2.200
 1390SOL    HW2 5070   4.648   2.615   2.204
 1391SOL     OW 5071   5.559   1.507   4.714
 1391SOL    HW1 5072   5.593   1.580   4.773
 1391SOL    HW2 5073   5.622   1.430   4.716
 1392SOL     OW 5074   4.427   5.964   5.867
 1392SOL    HW1 5075   4.386   5.891   5.811
 1392SOL    HW2 5076   4.480   5.922   5.941
 1393SOL     OW 5077   5.488   0.393   6.561
 1393SOL    HW1 5078   5.440   0.477   6.586
 1393SOL    HW2 5079   5.487   0.382   6.462
 1394SOL     OW 5080   4.378   0.102   3.914
 1394SOL    HW1 5081   4.355   0.196   3.889
 1394SOL    HW2 5082   4.431   0.060   3.840
 1395SOL     OW 5083   1.501   5.293   2.281
 1395SOL    HW1 5084   1.536   5.200   2.275
 1395SOL    HW2 5085   1.547   5.351   2.213
 1396SOL     OW 5086   1.768   1.668   3.671
 1396SOL    HW1 5087   1.832   1.594   3.692
 1396SOL    HW2 5088   1.760   1.679   3.572
 1397SOL     OW 5089   0.595   5.441   4.893
 1397SOL    HW1 5090   0.534   5.520   4.904
 1397SOL    HW2 5091   0.643   5.424   4.979
 1398SOL     OW 5092   1.773   6.759   6.969
 1398SOL    HW1 5093   1.679   6.785   6.991
 1398SOL    HW2 5094   1.825   6.750   0.030
 1399SOL     OW 5095   4.010   0.354   0.395
 1399SOL    HW1 5096   3.915   0.324   0.403
 1399SOL    HW2 5097   4.017   0.425   0.326
 1400SOL     OW 5098   0.575   0.935   5.024
 1400SOL    HW1 5099   0.660   0.987   5.020
 1400SOL    HW2 5100   0.591   0.842   4.990
 1401SOL     OW 5101   5.300   0.309   2.558
 1401SOL    HW1 5102   5.222   0.370   2.540
 1401SOL    HW2 5103   5.318   0.308   2.656
 1402SOL     OW 5104   6.836   4.552   2.722
 1402SOL    HW1 5105   6.861   4.458   2.748
 1402SOL    HW2 5106   6.893   4.617   2.771
 1403SOL     OW 5107   3.175   3.368   6.325
 1403SOL    HW1 5108   3.095   3.345   6.269
 1403SOL    HW2 5109   3.179   3.308   6.404
 1404SOL     OW 5110   4.209   6.303   0.634
 1404SOL    HW1 5111   4.287   6.298   0.571
 1404SOL    HW2 5112   4.243   6.313   0.728
 1405SOL     OW 5113   0.475   3.777   0.730
 1405SOL    HW1 5114   0.564   3.752   0.769
 1405SOL    HW2 5115   0.410   3.795   0.803
 1406SOL     OW 5116   1.753   3.295   0.153
 1406SOL    HW1 5117   1.659   3.307   0.187
 1406SOL    HW2 5118   1.786   3.205   0.179
 1407SOL     OW 5119   0.324   3.346   1.504
 1407SOL    HW1 5120   0.407   3.354   1.448
 1407SOL    HW2 5121   0.289   3.437   1.524
 1408SOL     OW 5122   5.684   6.646   1.096
 1408SOL    HW1 5123   5.597   6.655   1.145
 1408SOL    HW2 5124   5.666   6.634   0.998
 1409SOL     OW 5125   6.222   1.324   5.936
 1409SOL    HW1 5126   6.207   1.257   6.008
 1409SOL    HW2 5127   6.265   1.406   5.975
 1410SOL     OW 5128   3.431   0.230   6.487
 1410SOL    HW1 5129   3.461   0.253   6.394
 1410SOL    HW2 5130   3.470   0.294   6.552
 1411SOL     OW 5131   3.682   4.787   0.117
 1411SOL    HW1 5132   3.729   4.864   0.159
 1411SOL    HW2 5133   3.664   4.808   0.020
 1412SOL     OW 5134   2.651   2.249   0.110
 1412SOL    HW1 5135   2.613   2.200   0.189
 1412SOL    HW2 5136   2.704   2.327   0.141
 1413SOL     OW 5137   2.025   1.898   5.186
 1413SOL    HW1 5138   2.059   1.884   5.278
 1413SOL    HW2 5139   1.937   1.946   5.190
 1414SOL     OW 5140   0.421   4.708   2.684
 1414SOL    HW1 5141   0.435   4.697   2.782
 1414SOL    HW2 5142   0.483   4.778   2.649
 1415SOL     OW 5143   2.860   1.678   4.792
 1415SOL    HW1 5144   2.899   1.698   4.702
 1415SOL    HW2 5145   2.789   1.608   4.783
 1416SOL     OW 5146   4.611   0.438   4.880
 1416SOL    HW1 5147   4.644   0.420   4.973
 1416SOL    HW2 5148   4.687   0.429   4.816
 1417SOL     OW 5149   3.732   3.376   5.109
 1417SOL    HW1 5150   3.804   3.405   5.172
 1417SOL    HW2 5151   3.643   3.400   5.147
 1418SOL     OW 5152   3.720   4.003   6.030
 1418SOL    HW1 5153   3.774   4.038   5.953
 1418SOL    HW2 5154   3.705   4.076   6.096
 1419SOL     OW 5155   1.842   5.819   1.962
 1419SOL    HW1 5156   1.846   5.789   1.866
 1419SOL    HW2 5157   1.907   5.893   1.976
 1420SOL     OW 5158   2.700   6.428   2.660
 1420SOL    HW1 5159   2.799   6.419   2.672
 1420SOL    HW2 5160   2.659   6.336   2.655
 1421SOL     OW 5161   1.240   4.950   6.042
 1421SOL    HW1 5162   1.265   4.958   6.138
 1421SOL    HW2 5163   1.194   5.033   6.012
 1422SOL     OW 5164   2.045   2.907   6.758
 1422SOL    HW1 5165   2.068   2.986   6.701
 1422SOL    HW2 5166   2.096   2.913   6.844
 1423SOL     OW 5167   4.318   0.965   4.948
 1423SOL    HW1 5168   4.325   1.011   4.860
 1423SOL    HW2 5169   4.223   0.937   4.963
 1424SOL     OW 5170   6.535   2.993   0.876
 1424SOL    HW1 5171   6.478   3.000   0.959
 1424SOL    HW2 5172   6.613   2.932   0.895
 1425SOL     OW 5173   5.425   0.713   3.621
 1425SOL    HW1 5174   5.385   0.757   3.702
 1425SOL    HW2 5175   5.400   0.617   3.620
 1426SOL     OW 5176   3.929   1.135   0.004
 1426SOL    HW1 5177   4.004   1.070   7.013
 1426SOL    HW2 5178   3.854   1.114   6.965
 1427SOL     OW 5179   1.972   0.226   3.957
 1427SOL    HW1 5180   1.948   0.317   3.992
 1427SOL    HW2 5181   2.027   0.178   4.026
 1428SOL     OW 5182   1.447   3.248   4.194
 1428SOL    HW1 5183   1.440   3.270   4.097
 1428SOL    HW2 5184   1.544   3.242   4.219
 1429SOL     OW 5185   6.198   0.526   1.999
 1429SOL    HW1 5186   6.270   0.513   2.068
 1429SOL    HW2 5187   6.240   0.528   1.908
 1430SOL     OW 5188   1.863   3.477   4.856
 1430SOL    HW1 5189   1.894   3.493   4.762
 1430SOL    HW2 5190   1.855   3.564   4.904
 1431SOL     OW 5191   2.942   1.317   0.151
 1431SOL    HW1 5192   3.015   1.264   0.193
 1431SOL    HW2 5193   2.955   1.414   0.173
 1432SOL     OW 5194   3.612   0.304   2.134
 1432SOL    HW1 5195   3.644   0.285   2.227
 1432SOL    HW2 5196   3.545   0.377   2.136
 1433SOL     OW 5197   2.747   1.318   4.077
 1433SOL    HW1 5198   2.657   1.342   4.111
 1433SOL    HW2 5199   2.751   1.220   4.058
 1434SOL     OW 5200   5.539   4.054   0.152
 1434SOL    HW1 5201   5.515   4.081   0.245
 1434SOL    HW2 5202   5.489   3.971   0.128
 1435SOL     OW 5203   1.357   0.044   3.657
 1435SOL    HW1 5204   1.376   0.000   3.745
 1435SOL    HW2 5205   1.358   0.144   3.669
 1436SOL     OW 5206   5.641   1.245   0.261
 1436SOL    HW1 5207   5.674   1.339   0.264
 1436SOL    HW2 5208   5.616   1.216   0.354
 1437SOL     OW 5209   3.595   0.858   0.435
 1437SOL    HW1 5210   3.674   0.901   0.479
 1437SOL    HW2 5211   3.523   0.845   0.503
 1438SOL     OW 5212   2.414   0.742   2.920
 1438SOL    HW1 5213   2.369   0.758   2.833
 1438SOL    HW2 5214   2.404   0.823   2.978
 1439SOL     OW 5215   6.859   4.917   0.216
 1439SOL    HW1 5216   6.788   4.905   0.286
 1439SOL    HW2 5217   6.829   4.983   0.148
 1440SOL     OW 5218   3.383   3.004   3.032
 1440SOL    HW1 5219   3.463   2.952   3.064
 1440SOL    HW2 5220   3.301   2.947   3.041
 1441SOL     OW 5221   6.343   2.235   4.868
 1441SOL    HW1 5222   6.388   2.167   4.809
 1441SOL    HW2 5223   6.264   2.273   4.821
 1442SOL     OW 5224   5.444   0.038   0.230
 1442SOL    HW1 5225   5.354   0.018   0.269
 1442SOL    HW2 5226   5.449   0.003   0.137
 1443SOL     OW 5227   1.097   2.451   3.327
 1443SOL    HW1 5228   1.018   2.501   3.292
 1443SOL    HW2 5229   1.087   2.438   3.426
 1444SOL     OW 5230   5.445   0.344   5.349
 1444SOL    HW1 5231   5.529   0.398   5.357
 1444SOL    HW2 5232   5.366   0.405   5.350
 1445SOL     OW 5233   6.630   1.766   0.724
 1445SOL    HW1 5234   6.535   1.765   0.755
 1445SOL    HW2 5235   6.690   1.788   0.802
 1446SOL     OW 5236   4.030   6.885   0.913
 1446SOL    HW1 5237   4.010   6.831   0.831
 1446SOL    HW2 5238   4.041   6.981   0.886
 1447SOL     OW 5239   5.619   1.213   5.005
 1447SOL    HW1 5240   5.700   1.271   5.020
 1447SOL    HW2 5241   5.536   1.269   5.014
 1448SOL     OW 5242   5.287   0.481   6.853
 1448SOL    HW1 5243   5.358   0.431   6.902
 1448SOL    HW2 5244   5.275   0.571   6.896
 1449SOL     OW 5245   5.048   5.684   0.916
 1449SOL    HW1 5246   4.961   5.706   0.872
 1449SOL    HW2 5247   5.092   5.609   0.866
 1450SOL     OW 5248   5.789   2.415   3.551
 1450SOL    HW1 5249   5.764   2.487   3.486
 1450SOL    HW2 5250   5.713   2.397   3.613
 1451SOL     OW 5251   1.727   6.930   1.923
 1451SOL    HW1 5252   1.755   6.969   2.011
 1451SOL    HW2 5253   1.754   6.992   1.849
 1452SOL     OW 5254   4.354   0.483   4.984
 1452SOL    HW1 5255   4.365   0.413   5.054
 1452SOL    HW2 5256   4.441   0.496   4.937
 1453SOL     OW 5257   4.410   4.689   4.365
 1453SOL    HW1 5258   4.367   4.777   4.344
 1453SOL    HW2 5259   4.430   4.640   4.281
 1454SOL     OW 5260   4.966   4.553   1.125
 1454SOL    HW1 5261   5.043   4.584   1.181
 1454SOL    HW2 5262   4.968   4.453   1.118
 1455SOL     OW 5263   2.466   2.252   1.833
 1455SOL    HW1 5264   2.503   2.336   1.793
 1455SOL    HW2 5265   2.371   2.267   1.860
 1456SOL     OW 5266   6.029   5.550   3.931
 1456SOL    HW1 5267   5.979   5.528   4.015
 1456SOL    HW2 5268   6.011   5.645   3.905
 1457SOL     OW 5269   1.829   0.027   3.861
 1457SOL    HW1 5270   1.901   0.093   3.880
 1457SOL    HW2 5271   1.813   0.024   3.762
 1458SOL     OW 5272   0.312   5.816   0.071
 1458SOL    HW1 5273   0.343   5.742   0.011
 1458SOL    HW2 5274   0.235   5.785   0.126
 1459SOL     OW 5275   2.580   0.050   1.126
 1459SOL    HW1 5276   2.519   0.114   1.172
 1459SOL    HW2 5277   2.637   0.003   1.194
 1460SOL     OW 5278   1.132   6.803   0.274
 1460SOL    HW1 5279   1.038   6.773   0.255
 1460SOL    HW2 5280   1.148   6.893   0.232
 1461SOL     OW 5281   4.571   4.969   1.967
 1461SOL    HW1 5282   4.553   4.877   2.000
 1461SOL    HW2 5283   4.665   4.995   1.988
 1462SOL     OW 5284   5.166   0.448   5.599
 1462SOL    HW1 5285   5.069   0.474   5.598
 1462SOL    HW2 5286   5.206   0.464   5.508
 1463SOL     OW 5287   0.530   1.222   5.300
 1463SOL    HW1 5288   0.509   1.130   5.331
 1463SOL    HW2 5289   0.464   1.250   5.230
 1464SOL     OW 5290   0.045   0.536   1.585
 1464SOL    HW1 5291   0.092   0.553   1.499
 1464SOL    HW2 5292   0.107   0.555   1.661
 1465SOL     OW 5293   0.318   0.160   4.697
 1465SOL    HW1 5294   0.351   0.246   4.658
 1465SOL    HW2 5295   0.369   0.140   4.781
 1466SOL     OW 5296   5.177   5.070   4.344
 1466SOL    HW1 5297   5.219   5.023   4.266
 1466SOL    HW2 5298   5.179   5.169   4.327
 1467SOL     OW 5299   5.960   3.702   2.823
 1467SOL    HW1 5300   5.988   3.611   2.792
 1467SOL    HW2 5301   6.016   3.729   2.901
 1468SOL     OW 5302   5.663   6.681   2.713
 1468SOL    HW1 5303   5.576   6.732   2.715
 1468SOL    HW2 5304   5.666   6.624   2.631
 1469SOL     OW 5305   0.296   1.186   2.103
 1469SOL    HW1 5306   0.383   1.226   2.134
 1469SOL    HW2 5307   0.233   1.260   2.079
 1470SOL     OW 5308   6.811   0.895   3.205
 1470SOL    HW1 5309   6.895   0.866   3.250
 1470SOL    HW2 5310   6.818   0.877   3.107
 1471SOL     OW 5311   6.494   0.254   0.955
 1471SOL    HW1 5312   6.529   0.346   0.938
 1471SOL    HW2 5313   6.564   0.199   0.999
 1472SOL     OW 5314   4.243   5.726   5.314
 1472SOL    HW1 5315   4.280   5.659   5.250
 1472SOL    HW2 5316   4.210   5.680   5.396
 1473SOL     OW 5317   6.215   3.825   3.213
 1473SOL    HW1 5318   6.197   3.872   3.300
 1473SOL    HW2 5319   6.217   3.891   3.139
 1474SOL     OW 5320   4.324   5.132   3.893
 1474SOL    HW1 5321   4.378   5.074   3.831
 1474SOL    HW2 5322   4.231   5.142   3.858
 1475SOL     OW 5323   6.438   0.996   3.444
 1475SOL    HW1 5324   6.407   0.903   3.468
 1475SOL    HW2 5325   6.520   1.018   3.497
 1476SOL     OW 5326   6.542   2.085   1.480
 1476SOL    HW1 5327   6.499   2.132   1.557
 1476SOL    HW2 5328   6.502   1.994   1.469
 1477SOL     OW 5329   2.899   6.203   3.614
 1477SOL    HW1 5330   2.802   6.189   3.597
 1477SOL    HW2 5331   2.951   6.184   3.531
 1478SOL     OW 5332   7.016   4.673   1.622
 1478SOL    HW1 5333   0.052   4.750   1.643
 1478SOL    HW2 5334   0.018   4.594   1.678
 1479SOL     OW 5335   0.706   4.875   0.795
 1479SOL    HW1 5336   0.663   4.794   0.836
 1479SOL    HW2 5337   0.638   4.947   0.784
 1480SOL     OW 5338   3.158   0.659   0.161
 1480SOL    HW1 5339   3.195   0.745   0.126
 1480SOL    HW2 5340   3.118   0.607   0.085
 1481SOL     OW 5341   6.572   2.647   6.288
 1481SOL    HW1 5342   6.533   2.711   6.354
 1481SOL    HW2 5343   6.638   2.695   6.230
 1482SOL     OW 5344   5.437   1.389   6.642
 1482SOL    HW1 5345   5.463   1.331   6.720
 1482SOL    HW2 5346   5.505   1.461   6.630
 1483SOL     OW 5347   6.204   2.529   6.732
 1483SOL    HW1 5348   6.299   2.500   6.722
 1483SOL    HW2 5349   6.178   2.524   6.829
 1484SOL     OW 5350   6.972   6.784   2.540
 1484SOL    HW1 5351   0.001   6.848   2.484
 1484SOL    HW2 5352   6.910   6.836   2.599
 1485SOL     OW 5353   5.728   2.630   4.051
 1485SOL    HW1 5354   5.753   2.723   4.079
 1485SOL    HW2 5355   5.629   2.619   4.057
 1486SOL     OW 5356   5.354   2.627   1.787
 1486SOL    HW1 5357   5.261   2.623   1.823
 1486SOL    HW2 5358   5.381   2.536   1.755
 1487SOL     OW 5359   6.280   1.141   5.746
 1487SOL    HW1 5360   6.375   1.120   5.769
 1487SOL    HW2 5361   6.245   1.208   5.810
 1488SOL     OW 5362   4.649   1.909   3.077
 1488SOL    HW1 5363   4.550   1.904   3.095
 1488SOL    HW2 5364   4.689   1.978   3.137
 1489SOL     OW 5365   3.926   5.294   4.767
 1489SOL    HW1 5366   4.022   5.284   4.744
 1489SOL    HW2 5367   3.881   5.205   4.762
 1490SOL     OW 5368   2.448   2.409   1.178
 1490SOL    HW1 5369   2.370   2.379   1.123
 1490SOL    HW2 5370   2.499   2.329   1.210
 1491SOL     OW 5371   6.665   1.986   5.673
 1491SOL    HW1 5372   6.655   2.073   5.625
 1491SOL    HW2 5373   6.755   1.981   5.715
 1492SOL     OW 5374   5.949   2.931   1.656
 1492SOL    HW1 5375   5.938   2.849   1.600
 1492SOL    HW2 5376   5.989   3.004   1.602
 1493SOL     OW 5377   5.950   1.318   5.193
 1493SOL    HW1 5378   5.899   1.377   5.131
 1493SOL    HW2 5379   5.996   1.373   5.262
 1494SOL     OW 5380   5.787   2.406   4.409
 1494SOL    HW1 5381   5.790   2.378   4.313
 1494SOL    HW2 5382   5.698   2.381   4.447
 1495SOL     OW 5383   1.440   2.514   3.030
 1495SOL    HW1 5384   1.354   2.550   2.992
 1495SOL    HW2 5385   1.423   2.478   3.122
 1496SOL     OW 5386   0.975   0.670   3.464
 1496SOL    HW1 5387   0.894   0.684   3.406
 1496SOL    HW2 5388   1.029   0.754   3.466
 1497SOL     OW 5389   5.025   4.170   5.823
 1497SOL    HW1 5390   4.995   4.089   5.771
 1497SOL    HW2 5391   5.124   4.166   5.836
 1498SOL     OW 5392   2.290   5.714   6.956
 1498SOL    HW1 5393   2.263   5.707   0.028
 1498SOL    HW2 5394   2.209   5.706   6.898
 1499SOL     OW 5395   0.450   4.610   4.900
 1499SOL    HW1 5396   0.521   4.678   4.879
 1499SOL    HW2 5397   0.476   4.522   4.861
 1500SOL     OW 5398   4.406   6.881   5.423
 1500SOL    HW1 5399   4.339   6.922   5.360
 1500SOL    HW2 5400   4.422   6.944   5.499
 1501SOL     OW 5401   4.385   0.257   6.816
 1501SOL    HW1 5402   4.396   0.158   6.814
 1501SOL    HW2 5403   4.290   0.280   6.835
 1502SOL     OW 5404   0.454   6.279   6.987
 1502SOL    HW1 5405   0.406   6.207   6.937
 1502SOL    HW2 5406   0.545   6.292   6.947
 1503SOL     OW 5407   3.445   4.078   5.198
 1503SOL    HW1 5408   3.381   4.090   5.275
 1503SOL    HW2 5409   3.423   3.993   5.150
 1504SOL     OW 5410   2.872   6.439   4.429
 1504SOL    HW1 5411   2.872   6.477   4.522
 1504SOL    HW2 5412   2.955   6.466   4.382
 1505SOL     OW 5413   4.899   5.536   2.427
 1505SOL    HW1 5414   4.842   5.617   2.440
 1505SOL    HW2 5415   4.866   5.462   2.485
 1506SOL     OW 5416   0.915   6.127   2.805
 1506SOL    HW1 5417   0.924   6.223   2.833
 1506SOL    HW2 5418   0.839   6.117   2.742
 1507SOL     OW 5419   2.883   1.709   6.505
 1507SOL    HW1 5420   2.796   1.707   6.554
 1507SOL    HW2 5421   2.909   1.616   6.478
 1508SOL     OW 5422   4.192   0.445   0.594
 1508SOL    HW1 5423   4.122   0.424   0.526
 1508SOL    HW2 5424   4.282   0.427   0.555
 1509SOL     OW 5425   5.238   1.670   0.121
 1509SOL    HW1 5426   5.206   1.750   0.171
 1509SOL    HW2 5427   5.335   1.655   0.140
 1510SOL     OW 5428   0.239   1.990   3.069
 1510SOL    HW1 5429   0.315   2.050   3.046
 1510SOL    HW2 5430   0.227   1.987   3.168
 1511SOL     OW 5431   1.789   2.436   0.825
 1511SOL    HW1 5432   1.706   2.461   0.774
 1511SOL    HW2 5433   1.782   2.342   0.855
 1512SOL     OW 5434   6.146   0.874   2.383
 1512SOL    HW1 5435   6.213   0.862   2.310
 1512SOL    HW2 5436   6.091   0.791   2.392
 1513SOL     OW 5437   3.860   1.002   2.288
 1513SOL    HW1 5438   3.844   1.078   2.224
 1513SOL    HW2 5439   3.902   0.926   2.239
 1514SOL     OW 5440   5.169   0.770   6.463
 1514SOL    HW1 5441   5.195   0.865   6.483
 1514SOL    HW2 5442   5.082   0.769   6.414
 1515SOL     OW 5443   6.281   5.371   4.744
 1515SOL    HW1 5444   6.349   5.306   4.709
 1515SOL    HW2 5445   6.212   5.387   4.674
 1516SOL     OW 5446   0.643   0.756   0.982
 1516SOL    HW1 5447   0.675   0.673   1.026
 1516SOL    HW2 5448   0.720   0.807   0.944
 1517SOL     OW 5449   3.597   4.927   3.608
 1517SOL    HW1 5450   3.533   4.893   3.677
 1517SOL    HW2 5451   3.688   4.889   3.626
 1518SOL     OW 5452   1.037   4.806   0.965
 1518SOL    HW1 5453   1.088   4.822   0.881
 1518SOL    HW2 5454   1.096   4.825   1.044
 1519SOL     OW 5455   6.810   3.967   1.320
 1519SOL    HW1 5456   6.827   3.987   1.224
 1519SOL    HW2 5457   6.711   3.961   1.336
 1520SOL     OW 5458   1.631   2.900   2.780
 1520SOL    HW1 5459   1.647   2.998   2.779
 1520SOL    HW2 5460   1.711   2.853   2.816
 1521SOL     OW 5461   2.818   4.316   5.494
 1521SOL    HW1 5462   2.776   4.384   5.435
 1521SOL    HW2 5463   2.917   4.328   5.494
 1522SOL     OW 5464   1.178   2.870   6.392
 1522SOL    HW1 5465   1.094   2.836   6.433
 1522SOL    HW2 5466   1.167   2.876   6.293
 1523SOL     OW 5467   6.989   1.357   0.598
 1523SOL    HW1 5468   6.904   1.395   0.561
 1523SOL    HW2 5469   6.987   1.258   0.590
 1524SOL     OW 5470   6.118   1.088   3.226
 1524SOL    HW1 5471   6.149   1.075   3.320
 1524SOL    HW2 5472   6.083   1.182   3.216
 1525SOL     OW 5473   4.417   1.374   6.254
 1525SOL    HW1 5474   4.445   1.317   6.177
 1525SOL    HW2 5475   4.486   1.444   6.270
 1526SOL     OW 5476   6.775   1.475   0.019
 1526SOL    HW1 5477   6.794   1.546   0.087
 1526SOL    HW2 5478   6.790   1.511   6.951
 1527SOL     OW 5479   2.692   1.885   5.807
 1527SOL    HW1 5480   2.675   1.787   5.816
 1527SOL    HW2 5481   2.646   1.920   5.726
 1528SOL     OW 5482   4.774   5.667   4.169
 1528SOL    HW1 5483   4.781   5.760   4.134
 1528SOL    HW2 5484   4.691   5.623   4.134
 1529SOL     OW 5485   3.285   1.184   5.133
 1529SOL    HW1 5486   3.206   1.227   5.177
 1529SOL    HW2 5487   3.266   1.171   5.036
 1530SOL     OW 5488   3.386   6.943   2.164
 1530SOL    HW1 5489   3.384   6.881   2.243
 1530SOL    HW2 5490   3.364   6.892   2.081
 1531SOL     OW 5491   6.066   0.387   5.933
 1531SOL    HW1 5492   6.070   0.477   5.976
 1531SOL    HW2 5493   6.091   0.395   5.836
 1532SOL     OW 5494   3.218   2.435   5.477
 1532SOL    HW1 5495   3.231   2.436   5.378
 1532SOL    HW2 5496   3.285   2.374   5.519
 1533SOL     OW 5497   5.627   2.594   6.975
 1533SOL    HW1 5498   5.572   2.674   6.949
 1533SOL    HW2 5499   5.566   2.519   7.002
 1534SOL     OW 5500   6.949   6.934   1.557
 1534SOL    HW1 5501   6.856   6.953   1.587
 1534SOL    HW2 5502   6.958   6.952   1.459
 1535SOL     OW 5503   4.855   4.953   3.835
 1535SOL    HW1 5504   4.845   4.872   3.776
 1535SOL    HW2 5505   4.946   4.992   3.821
 1536SOL     OW 5506   2.973   5.579   3.229
 1536SOL    HW1 5507   3.012   5.624   3.310
 1536SOL    HW2 5508   2.959   5.482   3.249
 1537SOL     OW 5509   2.161   5.799   4.385
 1537SOL    HW1 5510   2.090   5.755   4.441
 1537SOL    HW2 5511   2.231   5.838   4.444
 1538SOL     OW 5512   3.456   5.276   6.915
 1538SOL    HW1 5513   3.506   5.296   7.000
 1538SOL    HW2 5514   3.474   5.348   6.848
 1539SOL     OW 5515   3.293   5.008   1.661
 1539SOL    HW1 5516   3.260   5.016   1.755
 1539SOL    HW2 5517   3.371   5.070   1.649
 1540SOL     OW 5518   6.085   0.140   5.635
 1540SOL    HW1 5519   6.169   0.102   5.674
 1540SOL    HW2 5520   6.073   0.105   5.542
 1541SOL     OW 5521   4.678   1.656   0.620
 1541SOL    HW1 5522   4.720   1.631   0.708
 1541SOL    HW2 5523   4.579   1.657   0.630
 1542SOL     OW 5524   0.993   6.308   0.694
 1542SOL    HW1 5525   0.995   6.258   0.780
 1542SOL    HW2 5526   1.086   6.317   0.658
 1543SOL     OW 5527   3.484   4.169   3.975
 1543SOL    HW1 5528   3.459   4.186   4.071
 1543SOL    HW2 5529   3.582   4.185   3.963
 1544SOL     OW 5530   3.490   3.820   2.735
 1544SOL    HW1 5531   3.450   3.785   2.820
 1544SOL    HW2 5532   3.534   3.908   2.753
 1545SOL     OW 5533   6.439   0.584   4.320
 1545SOL    HW1 5534   6.414   0.616   4.412
 1545SOL    HW2 5535   6.466   0.488   4.325
 1546SOL     OW 5536   7.015   6.481   6.265
 1546SOL    HW1 5537   0.050   6.465   6.186
 1546SOL    HW2 5538   0.046   6.515   6.341
 1547SOL     OW 5539   3.837   6.021   7.006
 1547SOL    HW1 5540   3.868   6.060   6.919
 1547SOL    HW2 5541   3.753   6.068   0.011
 1548SOL     OW 5542   5.983   4.197   3.973
 1548SOL    HW1 5543   6.017   4.280   3.927
 1548SOL    HW2 5544   5.928   4.224   4.052
 1549SOL     OW 5545   6.658   1.897   1.047
 1549SOL    HW1 5546   6.732   1.910   1.113
 1549SOL    HW2 5547   6.583   1.960   1.068
 1550SOL     OW 5548   2.228   5.730   2.597
 1550SOL    HW1 5549   2.231   5.643   2.645
 1550SOL    HW2 5550   2.256   5.717   2.502
 1551SOL     OW 5551   0.689   3.693   0.875
 1551SOL    HW1 5552   0.723   3.751   0.950
 1551SOL    HW2 5553   0.726   3.601   0.884
 1552SOL     OW 5554   0.980   6.811   1.129
 1552SOL    HW1 5555   0.994   6.730   1.071
 1552SOL    HW2 5556   1.061   6.824   1.186
 1553SOL     OW 5557   5.738   1.677   6.026
 1553SOL    HW1 5558   5.721   1.760   6.080
 1553SOL    HW2 5559   5.676   1.604   6.056
 1554SOL     OW 5560   2.487   1.930   1.431
 1554SOL    HW1 5561   2.422   2.002   1.458
 1554SOL    HW2 5562   2.522   1.885   1.512
 1555SOL     OW 5563   3.838   1.055   6.395
 1555SOL    HW1 5564   3.886   1.058   6.307
 1555SOL    HW2 5565   3.904   1.044   6.469
 1556SOL     OW 5566   4.130   2.086   0.071
 1556SOL    HW1 5567   4.130   2.181   0.039
 1556SOL    HW2 5568   4.145   2.085   0.170
 1557SOL     OW 5569   1.649   3.010   0.156
 1557SOL    HW1 5570   1.644   2.914   0.182
 1557SOL    HW2 5571   1.558   3.051   0.164
 1558SOL     OW 5572   5.392   3.070   6.553
 1558SOL    HW1 5573   5.420   3.012   6.476
 1558SOL    HW2 5574   5.351   3.154   6.518
 1559SOL     OW 5575   3.160   5.488   3.011
 1559SOL    HW1 5576   3.068   5.506   3.045
 1559SOL    HW2 5577   3.161   5.495   2.911
 1560SOL     OW 5578   3.842   2.277   1.159
 1560SOL    HW1 5579   3.760   2.242   1.203
 1560SOL    HW2 5580   3.878   2.209   1.096
 1561SOL     OW 5581   5.762   6.211   1.192
 1561SOL    HW1 5582   5.786   6.183   1.099
 1561SOL    HW2 5583   5.713   6.137   1.238
 1562SOL     OW 5584   3.251   0.367   2.429
 1562SOL    HW1 5585   3.218   0.388   2.337
 1562SOL    HW2 5586   3.284   0.273   2.432
 1563SOL     OW 5587   2.217   2.192   4.137
 1563SOL    HW1 5588   2.179   2.256   4.204
 1563SOL    HW2 5589   2.300   2.151   4.174
 1564SOL     OW 5590   0.428   1.000   2.810
 1564SOL    HW1 5591   0.343   0.948   2.799
 1564SOL    HW2 5592   0.489   0.950   2.872
 1565SOL     OW 5593   3.949   1.127   4.495
 1565SOL    HW1 5594   3.975   1.073   4.415
 1565SOL    HW2 5595   4.019   1.196   4.512
 1566SOL     OW 5596   5.867   4.153   3.614
 1566SOL    HW1 5597   5.807   4.221   3.655
 1566SOL    HW2 5598   5.919   4.106   3.685
 1567SOL     OW 5599   5.617   0.440   5.071
 1567SOL    HW1 5600   5.637   0.345   5.097
 1567SOL    HW2 5601   5.552   0.441   4.996
 1568SOL     OW 5602   3.050   4.489   1.355
 1568SOL    HW1 5603   3.022   4.517   1.263
 1568SOL    HW2 5604   2.985   4.526   1.422
 1569SOL     OW 5605   3.031   1.235   2.807
 1569SOL    HW1 5606   2.962   1.285   2.859
 1569SOL    HW2 5607   2.994   1.146   2.779
 1570SOL     OW 5608   3.049   6.040   6.418
 1570SOL    HW1 5609   3.038   6.120   6.477
 1570SOL    HW2 5610   2.977   6.039   6.349
 1571SOL     OW 5611   0.160   3.541   4.183
 1571SOL    HW1 5612   0.195   3.527   4.275
 1571SOL    HW2 5613   0.120   3.455   4.149
 1572SOL     OW 5614   2.914   5.580   2.851
 1572SOL    HW1 5615   2.863   5.511   2.901
 1572SOL    HW2 5616   2.858   5.662   2.841
 1573SOL     OW 5617   5.191   5.961   7.005
 1573SOL    HW1 5618   5.156   6.008   0.061
 1573SOL    HW2 5619   5.281   5.922   0.002
 1574SOL     OW 5620   0.877   4.476   3.135
 1574SOL    HW1 5621   0.867   4.378   3.152
 1574SOL    HW2 5622   0.958   4.510   3.185
 1575SOL     OW 5623   6.646   2.952   0.248
 1575SOL    HW1 5624   6.638   3.034   0.305
 1575SOL    HW2 5625   6.556   2.930   0.210
 1576SOL     OW 5626   1.774   6.349   1.109
 1576SOL    HW1 5627   1.766   6.380   1.203
 1576SOL    HW2 5628   1.719   6.266   1.096
 1577SOL     OW 5629   3.982   5.852   4.698
 1577SOL    HW1 5630   3.964   5.766   4.746
 1577SOL    HW2 5631   3.986   5.835   4.599
 1578SOL     OW 5632   5.146   1.276   1.753
 1578SOL    HW1 5633   5.150   1.248   1.657
 1578SOL    HW2 5634   5.235   1.310   1.781
 1579SOL     OW 5635   1.585   2.765   2.034
 1579SOL    HW1 5636   1.488   2.760   2.057
 1579SOL    HW2 5637   1.609   2.687   1.976
 1580SOL     OW 5638   2.960   3.803   2.766
 1580SOL    HW1 5639   3.019   3.742   2.818
 1580SOL    HW2 5640   2.865   3.771   2.772
 1581SOL     OW 5641   6.264   4.286   5.440
 1581SOL    HW1 5642   6.309   4.346   5.506
 1581SOL    HW2 5643   6.209   4.342   5.377
 1582SOL     OW 5644   4.615   6.135   5.328
 1582SOL    HW1 5645   4.561   6.052   5.309
 1582SOL    HW2 5646   4.678   6.151   5.251
 1583SOL     OW 5647   1.047   5.345   5.546
 1583SOL    HW1 5648   1.061   5.260   5.494
 1583SOL    HW2 5649   0.990   5.407   5.493
 1584SOL     OW 5650   6.864   4.052   0.296
 1584SOL    HW1 5651   6.814   4.038   0.381
 1584SOL    HW2 5652   6.803   4.036   0.218
 1585SOL     OW 5653   4.185   6.626   3.579
 1585SOL    HW1 5654   4.090   6.654   3.587
 1585SOL    HW2 5655   4.233   6.687   3.516
 1586SOL     OW 5656   3.737   6.006   3.382
 1586SOL    HW1 5657   3.803   6.080   3.369
 1586SOL    HW2 5658   3.750   5.965   3.472
 1587SOL     OW 5659   2.748   6.565   6.477
 1587SOL    HW1 5660   2.798   6.518   6.549
 1587SOL    HW2 5661   2.678   6.504   6.439
 1588SOL     OW 5662   6.652   1.560   3.797
 1588SOL    HW1 5663   6.658   1.603   3.887
 1588SOL    HW2 5664   6.743   1.551   3.757
 1589SOL     OW 5665   6.506   4.212   3.880
 1589SOL    HW1 5666   6.496   4.114   3.864
 1589SOL    HW2 5667   6.465   4.235   3.968
 1590SOL     OW 5668   6.940   2.377   3.759
 1590SOL    HW1 5669   6.916   2.280   3.765
 1590SOL    HW2 5670   7.006   2.401   3.830
 1591SOL     OW 5671   1.510   6.010   1.402
 1591SOL    HW1 5672   1.465   5.975   1.319
 1591SOL    HW2 5673   1.580   6.076   1.376
 1592SOL     OW 5674   6.953   3.726   6.145
 1592SOL    HW1 5675   6.986   3.777   6.224
 1592SOL    HW2 5676   0.005   3.708   6.083
 1593SOL     OW 5677   3.563   6.650   0.131
 1593SOL    HW1 5678   3.661   6.646   0.149
 1593SOL    HW2 5679   3.529   6.741   0.152
 1594SOL     OW 5680   5.934   0.648   2.515
 1594SOL    HW1 5681   5.962   0.668   2.609
 1594SOL    HW2 5682   5.934   0.549   2.500
 1595SOL     OW 5683   0.428   3.543   0.094
 1595SOL    HW1 5684   0.520   3.532   0.058
 1595SOL    HW2 5685   0.363   3.494   0.036
 1596SOL     OW 5686   4.708   4.988   3.344
 1596SOL    HW1 5687   4.617   4.979   3.304
 1596SOL    HW2 5688   4.701   4.986   3.444
 1597SOL     OW 5689   4.115   5.888   0.365
 1597SOL    HW1 5690   4.093   5.876   0.462
 1597SOL    HW2 5691   4.115   5.799   0.320
 1598SOL     OW 5692   1.290   4.955   6.306
 1598SOL    HW1 5693   1.291   4.911   6.396
 1598SOL    HW2 5694   1.330   5.046   6.313
 1599SOL     OW 5695   4.241   5.241   2.937
 1599SOL    HW1 5696   4.319   5.296   2.906
 1599SOL    HW2 5697   4.214   5.178   2.865
 1600SOL     OW 5698   3.800   0.400   1.962
 1600SOL    HW1 5699   3.744   0.354   2.031
 1600SOL    HW2 5700   3.822   0.493   1.994
 1601SOL     OW 5701   6.559   0.781   5.033
 1601SOL    HW1 5702   6.522   0.868   5.066
 1601SOL    HW2 5703   6.487   0.731   4.984
 1602SOL     OW 5704   4.085   6.094   4.089
 1602SOL    HW1 5705   4.033   6.162   4.140
 1602SOL    HW2 5706   4.129   6.138   4.010
 1603SOL     OW 5707   3.237   4.976   3.245
 1603SOL    HW1 5708   3.296   5.005   3.320
 1603SOL    HW2 5709   3.292   4.930   3.175
 1604SOL     OW 5710   4.343   5.260   2.354
 1604SOL    HW1 5711   4.392   5.332   2.305
 1604SOL    HW2 5712   4.276   5.302   2.415
 1605SOL     OW 5713   4.897   5.134   0.756
 1605SOL    HW1 5714   4.942   5.092   0.677
 1605SOL    HW2 5715   4.950   5.214   0.785
 1606SOL     OW 5716   3.214   5.937   4.416
 1606SOL    HW1 5717   3.297   5.884   4.431
 1606SOL    HW2 5718   3.220   5.984   4.328
 1607SOL     OW 5719   4.396   5.156   3.412
 1607SOL    HW1 5720   4.489   5.133   3.439
 1607SOL    HW2 5721   4.381   5.254   3.421
 1608SOL     OW 5722   5.028   1.920   3.716
 1608SOL    HW1 5723   5.025   2.007   3.666
 1608SOL    HW2 5724   5.009   1.845   3.653
 1609SOL     OW 5725   2.742   6.505   1.157
 1609SOL    HW1 5726   2.784   6.444   1.223
 1609SOL    HW2 5727   2.783   6.596   1.165
 1610SOL     OW 5728   5.711   0.134   0.966
 1610SOL    HW1 5729   5.656   0.066   1.014
 1610SOL    HW2 5730   5.742   0.203   1.032
 1611SOL     OW 5731   1.617   4.679   0.239
 1611SOL    HW1 5732   1.706   4.698   0.198
 1611SOL    HW2 5733   1.627   4.672   0.339
 1612SOL     OW 5734   4.629   0.402   2.365
 1612SOL    HW1 5735   4.599   0.445   2.280
 1612SOL    HW2 5736   4.699   0.458   2.408
 1613SOL     OW 5737   6.526   5.414   2.401
 1613SOL    HW1 5738   6.451   5.419   2.334
 1613SOL    HW2 5739   6.490   5.432   2.492
 1614SOL     OW 5740   6.226   1.318   6.417
 1614SOL    HW1 5741   6.229   1.218   6.419
 1614SOL    HW2 5742   6.318   1.354   6.403
 1615SOL     OW 5743   6.919   3.891   6.550
 1615SOL    HW1 5744   6.843   3.910   6.488
 1615SOL    HW2 5745   6.964   3.977   6.575
 1616SOL     OW 5746   0.966   0.764   4.045
 1616SOL    HW1 5747   1.026   0.770   3.965
 1616SOL    HW2 5748   1.022   0.755   4.127
 1617SOL     OW 5749   6.131   6.385   3.230
 1617SOL    HW1 5750   6.123   6.290   3.262
 1617SOL    HW2 5751   6.159   6.443   3.307
 1618SOL     OW 5752   3.575   5.446   3.328
 1618SOL    HW1 5753   3.490   5.485   3.292
 1618SOL    HW2 5754   3.604   5.370   3.270
 1619SOL     OW 5755   1.172   4.496   0.140
 1619SOL    HW1 5756   1.094   4.553   0.163
 1619SOL    HW2 5757   1.243   4.551   0.095
 1620SOL     OW 5758   3.563   5.872   4.880
 1620SOL    HW1 5759   3.607   5.936   4.942
 1620SOL    HW2 5760   3.589   5.894   4.786
 1621SOL     OW 5761   5.247   6.059   0.518
 1621SOL    HW1 5762   5.233   5.971   0.563
 1621SOL    HW2 5763   5.170   6.078   0.457
 1622SOL     OW 5764   6.714   4.190   4.656
 1622SOL    HW1 5765   6.772   4.184   4.737
 1622SOL    HW2 5766   6.765   4.232   4.581
 1623SOL     OW 5767   6.761   1.873   3.096
 1623SOL    HW1 5768   6.843   1.891   3.042
 1623SOL    HW2 5769   6.725   1.960   3.131
 1624SOL     OW 5770   3.605   2.977   0.960
 1624SOL    HW1 5771   3.555   2.916   0.898
 1624SOL    HW2 5772   3.643   2.924   1.036
 1625SOL     OW 5773   0.290   6.702   1.164
 1625SOL    HW1 5774   0.253   6.637   1.098
 1625SOL    HW2 5775   0.383   6.676   1.188
 1626SOL     OW 5776   2.452   1.948   1.819
 1626SOL    HW1 5777   2.534   1.917   1.771
 1626SOL    HW2 5778   2.450   2.048   1.822
 1627SOL     OW 5779   3.634   1.964   5.628
 1627SOL    HW1 5780   3.561   1.895   5.627
 1627SOL    HW2 5781   3.625   2.021   5.709
 1628SOL     OW 5782   5.428   6.710   1.184
 1628SOL    HW1 5783   5.348   6.708   1.124
 1628SOL    HW2 5784   5.399   6.698   1.279
 1629SOL     OW 5785   1.665   0.352   3.576
 1629SOL    HW1 5786   1.608   0.358   3.657
 1629SOL    HW2 5787   1.760   0.336   3.602
 1630SOL     OW 5788   0.311   3.772   6.335
 1630SOL    HW1 5789   0.395   3.818   6.362
 1630SOL    HW2 5790   0.291   3.697   6.399
 1631SOL     OW 5791   6.634   3.805   0.148
 1631SOL    HW1 5792   6.644   3.705   0.148
 1631SOL    HW2 5793   6.539   3.828   0.128
 1632SOL     OW 5794   6.606   5.904   2.386
 1632SOL    HW1 5795   6.597   5.868   2.294
 1632SOL    HW2 5796   6.663   5.987   2.384
 1633SOL     OW 5797   5.677   3.519   5.034
 1633SOL    HW1 5798   5.777   3.521   5.041
 1633SOL    HW2 5799   5.639   3.596   5.087
 1634SOL     OW 5800   6.740   1.887   5.284
 1634SOL    HW1 5801   6.736   1.973   5.335
 1634SOL    HW2 5802   6.714   1.905   5.189
 1635SOL     OW 5803   3.630   5.929   3.128
 1635SOL    HW1 5804   3.628   6.019   3.083
 1635SOL    HW2 5805   3.694   5.932   3.205
 1636SOL     OW 5806   6.249   6.172   1.271
 1636SOL    HW1 5807   6.256   6.099   1.203
 1636SOL    HW2 5808   6.333   6.176   1.325
 1637SOL     OW 5809   0.774   1.025   2.666
 1637SOL    HW1 5810   0.874   1.028   2.672
 1637SOL    HW2 5811   0.743   0.931   2.657
 1638SOL     OW 5812   6.038   2.535   1.931
 1638SOL    HW1 5813   6.053   2.442   1.898
 1638SOL    HW2 5814   5.947   2.567   1.904
 1639SOL     OW 5815   5.597   2.766   2.154
 1639SOL    HW1 5816   5.693   2.746   2.131
 1639SOL    HW2 5817   5.569   2.711   2.232
 1640SOL     OW 5818   6.634   0.104   6.707
 1640SOL    HW1 5819   6.549   0.096   6.758
 1640SOL    HW2 5820   6.642   0.197   6.670
 1641SOL     OW 5821   5.983   2.205   3.160
 1641SOL    HW1 5822   5.910   2.180   3.098
 1641SOL    HW2 5823   6.026   2.123   3.197
 1642SOL     OW 5824   0.009   2.740   6.164
 1642SOL    HW1 5825   6.942   2.709   6.141
 1642SOL    HW2 5826   0.026   2.724   6.262
 1643SOL     OW 5827   2.120   5.737   3.691
 1643SOL    HW1 5828   2.216   5.760   3.672
 1643SOL    HW2 5829   2.063   5.764   3.613
 1644SOL     OW 5830   6.195   2.772   1.731
 1644SOL    HW1 5831   6.111   2.762   1.679
 1644SOL    HW2 5832   6.181   2.839   1.805
 1645SOL     OW 5833   2.262   0.540   5.733
 1645SOL    HW1 5834   2.180   0.565   5.680
 1645SOL    HW2 5835   2.339   0.596   5.703
 1646SOL     OW 5836   1.280   4.779   0.471
 1646SOL    HW1 5837   1.244   4.692   0.440
 1646SOL    HW2 5838   1.218   4.820   0.538
 1647SOL     OW 5839   5.506   3.162   4.382
 1647SOL    HW1 5840   5.515   3.071   4.422
 1647SOL    HW2 5841   5.465   3.155   4.291
 1648SOL     OW 5842   5.593   6.002   1.285
 1648SOL    HW1 5843   5.509   6.048   1.313
 1648SOL    HW2 5844   5.573   5.934   1.215
 1649SOL     OW 5845   3.844   1.018   3.065
 1649SOL    HW1 5846   3.826   0.958   2.986
 1649SOL    HW2 5847   3.922   0.982   3.116
 1650SOL     OW 5848   2.793   4.340   6.182
 1650SOL    HW1 5849   2.822   4.391   6.101
 1650SOL    HW2 5850   2.766   4.404   6.254
 1651SOL     OW 5851   0.706   2.899   4.026
 1651SOL    HW1 5852   0.765   2.935   3.955
 1651SOL    HW2 5853   0.730   2.803   4.044
 1652SOL     OW 5854   0.511   3.093   1.739
 1652SOL    HW1 5855   0.523   3.185   1.777
 1652SOL    HW2 5856   0.599   3.047   1.734
 1653SOL     OW 5857   0.176   4.858   2.639
 1653SOL    HW1 5858   0.254   4.835   2.696
 1653SOL    HW2 5859   0.163   4.957   2.639
 1654SOL     OW 5860   0.194   2.832   2.249
 1654SOL    HW1 5861   0.286   2.794   2.248
 1654SOL    HW2 5862   0.172   2.866   2.340
 1655SOL     OW 5863   6.771   0.430   4.878
 1655SOL    HW1 5864   6.746   0.428   4.975
 1655SOL    HW2 5865   6.858   0.382   4.866
 1656SOL     OW 5866   1.871   4.455   3.077
 1656SOL    HW1 5867   1.938   4.528   3.087
 1656SOL    HW2 5868   1.912   4.368   3.104
 1657SOL     OW 5869   0.582   6.710   5.687
 1657SOL    HW1 5870   0.493   6.753   5.705
 1657SOL    HW2 5871   0.571   6.639   5.617
 1658SOL     OW 5872   5.680   6.768   5.953
 1658SOL    HW1 5873   5.621   6.710   5.895
 1658SOL    HW2 5874   5.721   6.840   5.897
 1659SOL     OW 5875   4.266   6.744   6.321
 1659SOL    HW1 5876   4.256   6.720   6.418
 1659SOL    HW2 5877   4.193   6.700   6.269
 1660SOL     OW 5878   2.179   1.007   2.108
 1660SOL    HW1 5879   2.136   1.061   2.181
 1660SOL    HW2 5880   2.113   0.939   2.075
 1661SOL     OW 5881   5.080   4.467   2.957
 1661SOL    HW1 5882   5.007   4.468   2.889
 1661SOL    HW2 5883   5.042   4.446   3.047
 1662SOL     OW 5884   0.303   1.706   3.741
 1662SOL    HW1 5885   0.265   1.752   3.821
 1662SOL    HW2 5886   0.277   1.609   3.742
 1663SOL     OW 5887   5.168   4.960   0.231
 1663SOL    HW1 5888   5.091   5.016   0.199
 1663SOL    HW2 5889   5.238   4.957   0.160
 1664SOL     OW 5890   1.210   6.952   5.854
 1664SOL    HW1 5891   1.268   0.005   5.881
 1664SOL    HW2 5892   1.173   6.968   5.763
 1665SOL     OW 5893   2.972   4.144   0.247
 1665SOL    HW1 5894   3.068   4.126   0.267
 1665SOL    HW2 5895   2.965   4.196   0.162
 1666SOL     OW 5896   5.319   6.712   5.926
 1666SOL    HW1 5897   5.338   6.804   5.891
 1666SOL    HW2 5898   5.240   6.715   5.987
 1667SOL     OW 5899   0.081   6.409   1.281
 1667SOL    HW1 5900   7.020   6.361   1.260
 1667SOL    HW2 5901   0.135   6.418   1.197
 1668SOL     OW 5902   5.878   3.941   2.703
 1668SOL    HW1 5903   5.907   3.850   2.730
 1668SOL    HW2 5904   5.855   3.941   2.605
 1669SOL     OW 5905   6.627   3.566   5.534
 1669SOL    HW1 5906   6.657   3.521   5.618
 1669SOL    HW2 5907   6.545   3.621   5.552
 1670SOL     OW 5908   2.234   4.591   6.237
 1670SOL    HW1 5909   2.259   4.496   6.256
 1670SOL    HW2 5910   2.137   4.595   6.210
 1671SOL     OW 5911   6.029   1.846   1.194
 1671SOL    HW1 5912   5.950   1.907   1.185
 1671SOL    HW2 5913   6.051   1.833   1.291
 1672SOL     OW 5914   0.582   2.849   0.765
 1672SOL    HW1 5915   0.680   2.834   0.751
 1672SOL    HW2 5916   0.541   2.880   0.680
 1673SOL     OW 5917   1.915   0.178   4.329
 1673SOL    HW1 5918   1.853   0.196   4.406
 1673SOL    HW2 5919   1.879   0.102   4.275
 1674SOL     OW 5920   4.632   1.997   2.416
 1674SOL    HW1 5921   4.550   2.053   2.430
 1674SOL    HW2 5922   4.665   1.963   2.505
 1675SOL     OW 5923   5.118   0.464   1.773
 1675SOL    HW1 5924   5.120   0.405   1.853
 1675SOL    HW2 5925   5.046   0.532   1.784
 1676SOL     OW 5926   1.226   2.529   2.654
 1676SOL    HW1 5927   1.228   2.433   2.683
 1676SOL    HW2 5928   1.227   2.588   2.735
 1677SOL     OW 5929   3.814   2.951   3.609
 1677SOL    HW1 5930   3.782   3.038   3.573
 1677SOL    HW2 5931   3.785   2.941   3.704
 1678SOL     OW 5932   1.543   0.189   1.022
 1678SOL    HW1 5933   1.568   0.283   0.997
 1678SOL    HW2 5934   1.544   0.131   0.940
 1679SOL     OW 5935   0.274   2.034   6.661
 1679SOL    HW1 5936   0.367   1.997   6.654
 1679SOL    HW2 5937   0.276   2.132   6.643
 1680SOL     OW 5938   5.462   2.626   3.469
 1680SOL    HW1 5939   5.560   2.624   3.448
 1680SOL    HW2 5940   5.446   2.584   3.558
 1681SOL     OW 5941   2.755   6.493   4.679
 1681SOL    HW1 5942   2.724   6.586   4.664
 1681SOL    HW2 5943   2.788   6.483   4.773
 1682SOL     OW 5944   3.645   0.106   3.895
 1682SOL    HW1 5945   3.724   0.154   3.856
 1682SOL    HW2 5946   3.594   0.168   3.954
 1683SOL     OW 5947   6.244   4.270   2.935
 1683SOL    HW1 5948   6.311   4.300   2.868
 1683SOL    HW2 5949   6.177   4.211   2.890
 1684SOL     OW 5950   2.501   4.548   1.950
 1684SOL    HW1 5951   2.488   4.584   1.858
 1684SOL    HW2 5952   2.593   4.570   1.982
 1685SOL     OW 5953   0.112   0.865   5.817
 1685SOL    HW1 5954   0.076   0.935   5.755
 1685SOL    HW2 5955   0.162   0.796   5.764
 1686SOL     OW 5956   4.510   5.346   2.788
 1686SOL    HW1 5957   4.565   5.303   2.860
 1686SOL    HW2 5958   4.512   5.288   2.707
 1687SOL     OW 5959   5.155   4.394   1.598
 1687SOL    HW1 5960   5.237   4.350   1.560
 1687SOL    HW2 5961   5.082   4.391   1.530
 1688SOL     OW 5962   1.425   0.877   2.304
 1688SOL    HW1 5963   1.445   0.939   2.379
 1688SOL    HW2 5964   1.437   0.926   2.217
 1689SOL     OW 5965   4.559   0.249   1.646
 1689SOL    HW1 5966   4.624   0.248   1.570
 1689SOL    HW2 5967   4.467   0.235   1.611
 1690SOL     OW 5968   0.443   5.492   3.786
 1690SOL    HW1 5969   0.443   5.514   3.688
 1690SOL    HW2 5970   0.465   5.573   3.839
 1691SOL     OW 5971   4.418   2.493   5.304
 1691SOL    HW1 5972   4.355   2.499   5.381
 1691SOL    HW2 5973   4.372   2.521   5.220
 1692SOL     OW 5974   4.984   4.754   1.702
 1692SOL    HW1 5975   4.992   4.820   1.777
 1692SOL    HW2 5976   5.074   4.738   1.662
 1693SOL     OW 5977   5.807   6.910   5.315
 1693SOL    HW1 5978   5.800   7.010   5.317
 1693SOL    HW2 5979   5.755   6.871   5.391
 1694SOL     OW 5980   4.620   1.753   5.990
 1694SOL    HW1 5981   4.629   1.722   6.084
 1694SOL    HW2 5982   4.524   1.766   5.968
 1695SOL     OW 5983   3.950   0.860   6.785
 1695SOL    HW1 5984   4.001   0.921   6.725
 1695SOL    HW2 5985   3.852   0.873   6.770
 1696SOL     OW 5986   5.316   6.383   0.640
 1696SOL    HW1 5987   5.330   6.374   0.541
 1696SOL    HW2 5988   5.227   6.345   0.664
 1697SOL     OW 5989   4.945   2.886   1.904
 1697SOL    HW1 5990   5.021   2.952   1.895
 1697SOL    HW2 5991   4.868   2.932   1.948
 1698SOL     OW 5992   4.674   0.725   1.513
 1698SOL    HW1 5993   4.641   0.684   1.598
 1698SOL    HW2 5994   4.601   0.780   1.472
 1699SOL     OW 5995   2.447   0.202   0.294
 1699SOL    HW1 5996   2.481   0.232   0.205
 1699SOL    HW2 5997   2.513   0.139   0.336
 1700SOL     OW 5998   5.475   2.847   2.824
 1700SOL    HW1 5999   5.472   2.751   2.850
 1700SOL    HW2 6000   5.492   2.854   2.725
 1701SOL     OW 6001   6.844   6.408   5.213
 1701SOL    HW1 6002   6.746   6.413   5.230
 1701SOL    HW2 6003   6.862   6.417   5.115
 1702SOL     OW 6004   2.297   2.096   6.792
 1702SOL    HW1 6005   2.225   2.163   6.780
 1702SOL    HW2 6006   2.364   2.130   6.857
 1703SOL     OW 6007   1.769   1.578   1.697
 1703SOL    HW1 6008   1.729   1.531   1.618
 1703SOL    HW2 6009   1.733   1.671   1.702
 1704SOL     OW 6010   3.222   1.838   1.053
 1704SOL    HW1 6011   3.222   1.931   1.016
 1704SOL    HW2 6012   3.128   1.808   1.069
 1705SOL     OW 6013   3.848   2.511   0.744
 1705SOL    HW1 6014   3.809   2.420   0.732
 1705SOL    HW2 6015   3.845   2.535   0.841
 1706SOL     OW 6016   5.878   2.338   6.473
 1706SOL    HW1 6017   5.819   2.406   6.516
 1706SOL    HW2 6018   5.974   2.358   6.495
 1707SOL     OW 6019   4.432   1.856   2.112
 1707SOL    HW1 6020   4.527   1.837   2.086
 1707SOL    HW2 6021   4.371   1.801   2.054
 1708SOL     OW 6022   3.366   5.038   2.267
 1708SOL    HW1 6023   3.397   5.114   2.324
 1708SOL    HW2 6024   3.429   5.026   2.190
 1709SOL     OW 6025   4.609   5.422   0.780
 1709SOL    HW1 6026   4.657   5.415   0.693
 1709SOL    HW2 6027   4.638   5.347   0.840
 1710SOL     OW 6028   4.932   4.835   2.878
 1710SOL    HW1 6029   4.874   4.769   2.831
 1710SOL    HW2 6030   4.895   4.854   2.969
 1711SOL     OW 6031   4.255   5.088   6.881
 1711SOL    HW1 6032   4.207   5.111   6.965
 1711SOL    HW2 6033   4.276   5.171   6.830
 1712SOL     OW 6034   0.813   1.730   1.995
 1712SOL    HW1 6035   0.804   1.737   1.895
 1712SOL    HW2 6036   0.727   1.699   2.034
 1713SOL     OW 6037   3.867   1.331   2.740
 1713SOL    HW1 6038   3.903   1.247   2.780
 1713SOL    HW2 6039   3.907   1.410   2.786
 1714SOL     OW 6040   3.199   3.651   0.296
 1714SOL    HW1 6041   3.113   3.693   0.323
 1714SOL    HW2 6042   3.198   3.631   0.198
 1715SOL     OW 6043   2.355   6.290   2.479
 1715SOL    HW1 6044   2.372   6.215   2.544
 1715SOL    HW2 6045   2.315   6.368   2.528
 1716SOL     OW 6046   4.435   1.329   3.532
 1716SOL    HW1 6047   4.383   1.373   3.459
 1716SOL    HW2 6048   4.526   1.371   3.538
 1717SOL     OW 6049   3.140   6.353   4.920
 1717SOL    HW1 6050   3.185   6.324   5.005
 1717SOL    HW2 6051   3.160   6.287   4.848
 1718SOL     OW 6052   1.210   2.973   1.594
 1718SOL    HW1 6053   1.305   2.954   1.617
 1718SOL    HW2 6054   1.159   2.888   1.590
 1719SOL     OW 6055   0.970   5.427   2.697
 1719SOL    HW1 6056   1.032   5.429   2.619
 1719SOL    HW2 6057   1.015   5.467   2.776
 1720SOL     OW 6058   0.719   3.468   5.767
 1720SOL    HW1 6059   0.694   3.374   5.742
 1720SOL    HW2 6060   0.779   3.466   5.847
 1721SOL     OW 6061   1.625   2.523   0.573
 1721SOL    HW1 6062   1.609   2.577   0.491
 1721SOL    HW2 6063   1.682   2.444   0.550
 1722SOL     OW 6064   2.633   2.477   3.960
 1722SOL    HW1 6065   2.716   2.519   3.995
 1722SOL    HW2 6066   2.555   2.504   4.018
 1723SOL     OW 6067   5.750   4.394   1.017
 1723SOL    HW1 6068   5.794   4.476   0.980
 1723SOL    HW2 6069   5.728   4.331   0.942
 1724SOL     OW 6070   6.113   2.859   1.288
 1724SOL    HW1 6071   6.036   2.794   1.287
 1724SOL    HW2 6072   6.181   2.831   1.220
 1725SOL     OW 6073   1.816   6.292   6.317
 1725SOL    HW1 6074   1.913   6.300   6.295
 1725SOL    HW2 6075   1.805   6.238   6.401
 1726SOL     OW 6076   5.500   4.250   2.829
 1726SOL    HW1 6077   5.440   4.207   2.761
 1726SOL    HW2 6078   5.595   4.235   2.803
 1727SOL     OW 6079   3.237   4.109   3.303
 1727SOL    HW1 6080   3.250   4.208   3.292
 1727SOL    HW2 6081   3.326   4.064   3.307
 1728SOL     OW 6082   5.321   2.517   4.337
 1728SOL    HW1 6083   5.292   2.446   4.272
 1728SOL    HW2 6084   5.348   2.599   4.287
 1729SOL     OW 6085   1.161   2.648   2.899
 1729SOL    HW1 6086   1.076   2.594   2.896
 1729SOL    HW2 6087   1.140   2.742   2.924
 1730SOL     OW 6088   1.982   5.445   4.150
 1730SOL    HW1 6089   2.070   5.493   4.140
 1730SOL    HW2 6090   1.986   5.383   4.229
 1731SOL     OW 6091   6.210   5.167   3.362
 1731SOL    HW1 6092   6.295   5.134   3.320
 1731SOL    HW2 6093   6.133   5.116   3.324
 1732SOL     OW 6094   2.429   3.509   5.598
 1732SOL    HW1 6095   2.444   3.483   5.503
 1732SOL    HW2 6096   2.403   3.428   5.650
 1733SOL     OW 6097   1.747   3.222   5.968
 1733SOL    HW1 6098   1.808   3.300   5.981
 1733SOL    HW2 6099   1.679   3.220   6.042
 1734SOL     OW 6100   6.673   3.026   0.643
 1734SOL    HW1 6101   6.622   2.980   0.571
 1734SOL    HW2 6102   6.624   3.017   0.730
 1735SOL     OW 6103   3.947   5.332   6.421
 1735SOL    HW1 6104   3.998   5.418   6.418
 1735SOL    HW2 6105   3.850   5.352   6.433
 1736SOL     OW 6106   5.088   2.291   0.274
 1736SOL    HW1 6107   5.051   2.380   0.247
 1736SOL    HW2 6108   5.035   2.255   0.351
 1737SOL     OW 6109   4.030   1.712   5.633
 1737SOL    HW1 6110   4.006   1.806   5.656
 1737SOL    HW2 6111   3.959   1.673   5.575
 1738SOL     OW 6112   2.216   3.232   4.288
 1738SOL    HW1 6113   2.256   3.298   4.352
 1738SOL    HW2 6114   2.134   3.192   4.330
 1739SOL     OW 6115   6.005   0.347   3.390
 1739SOL    HW1 6116   5.974   0.278   3.325
 1739SOL    HW2 6117   5.937   0.358   3.463
 1740SOL     OW 6118   6.074   3.316   4.846
 1740SOL    HW1 6119   6.014   3.239   4.822
 1740SOL    HW2 6120   6.101   3.364   4.763
 1741SOL     OW 6121   0.140   1.781   4.892
 1741SOL    HW1 6122   0.111   1.811   4.801
 1741SOL    HW2 6123   0.062   1.781   4.954
 1742SOL     OW 6124   6.413   6.401   6.568
 1742SOL    HW1 6125   6.510   6.412   6.593
 1742SOL    HW2 6126   6.405   6.386   6.470
 1743SOL     OW 6127   1.542   1.421   2.120
 1743SOL    HW1 6128   1.452   1.379   2.130
 1743SOL    HW2 6129   1.587   1.426   2.209
 1744SOL     OW 6130   3.742   1.994   4.948
 1744SOL    HW1 6131   3.704   2.001   4.856
 1744SOL    HW2 6132   3.738   2.083   4.993
 1745SOL     OW 6133   5.736   6.709   1.390
 1745SOL    HW1 6134   5.700   6.620   1.417
 1745SOL    HW2 6135   5.719   6.723   1.293
 1746SOL     OW 6136   2.766   4.706   3.294
 1746SOL    HW1 6137   2.840   4.770   3.273
 1746SOL    HW2 6138   2.714   4.688   3.210
 1747SOL     OW 6139   4.167   0.433   2.658
 1747SOL    HW1 6140   4.108   0.443   2.738
 1747SOL    HW2 6141   4.151   0.344   2.615
 1748SOL     OW 6142   6.649   2.610   4.798
 1748SOL    HW1 6143   6.574   2.575   4.742
 1748SOL    HW2 6144   6.668   2.704   4.773
 1749SOL     OW 6145   0.595   5.027   1.672
 1749SOL    HW1 6146   0.605   5.099   1.740
 1749SOL    HW2 6147   0.679   5.018   1.620
 1750SOL     OW 6148   3.589   6.856   6.874
 1750SOL    HW1 6149   3.581   6.945   6.919
 1750SOL    HW2 6150   3.685   6.827   6.875
 1751SOL     OW 6151   6.090   2.960   5.203
 1751SOL    HW1 6152   6.117   2.866   5.184
 1751SOL    HW2 6153   6.111   2.981   5.299
 1752SOL     OW 6154   6.750   1.075   2.025
 1752SOL    HW1 6155   6.729   1.008   1.954
 1752SOL    HW2 6156   6.705   1.049   2.111
 1753SOL     OW 6157   6.024   1.346   1.654
 1753SOL    HW1 6158   6.119   1.334   1.626
 1753SOL    HW2 6159   6.005   1.443   1.668
 1754SOL     OW 6160   2.937   5.738   3.795
 1754SOL    HW1 6161   2.987   5.652   3.802
 1754SOL    HW2 6162   2.841   5.722   3.821
 1755SOL     OW 6163   6.150   6.732   4.483
 1755SOL    HW1 6164   6.121   6.753   4.390
 1755SOL    HW2 6165   6.121   6.639   4.507
 1756SOL     OW 6166   5.077   6.094   0.187
 1756SOL    HW1 6167   5.004   6.075   0.252
 1756SOL    HW2 6168   5.121   6.181   0.211
 1757SOL     OW 6169   2.664   4.836   5.139
 1757SOL    HW1 6170   2.696   4.866   5.229
 1757SOL    HW2 6171   2.725   4.765   5.104
 1758SOL     OW 6172   1.734   5.861   4.384
 1758SOL    HW1 6173   1.720   5.772   4.428
 1758SOL    HW2 6174   1.736   5.932   4.454
 1759SOL     OW 6175   1.331   6.312   0.155
 1759SOL    HW1 6176   1.329   6.261   0.069
 1759SOL    HW2 6177   1.261   6.383   0.153
 1760SOL     OW 6178   6.919   1.215   4.814
 1760SOL    HW1 6179   6.900   1.145   4.882
 1760SOL    HW2 6180   6.997   1.270   4.843
 1761SOL     OW 6181   5.756   1.221   2.951
 1761SOL    HW1 6182   5.703   1.239   2.869
 1761SOL    HW2 6183   5.713   1.264   3.030
 1762SOL     OW 6184   1.012   1.346   5.647
 1762SOL    HW1 6185   1.004   1.300   5.558
 1762SOL    HW2 6186   1.061   1.432   5.636
 1763SOL     OW 6187   1.056   4.319   3.758
 1763SOL    HW1 6188   1.001   4.238   3.781
 1763SOL    HW2 6189   1.125   4.334   3.829
 1764SOL     OW 6190   1.439   5.769   3.538
 1764SOL    HW1 6191   1.497   5.694   3.507
 1764SOL    HW2 6192   1.414   5.755   3.634
 1765SOL     OW 6193   5.281   3.336   2.361
 1765SOL    HW1 6194   5.304   3.419   2.312
 1765SOL    HW2 6195   5.297   3.350   2.459
 1766SOL     OW 6196   4.141   4.794   3.817
 1766SOL    HW1 6197   4.115   4.745   3.734
 1766SOL    HW2 6198   4.131   4.893   3.802
 1767SOL     OW 6199   0.133   5.219   2.360
 1767SOL    HW1 6200   0.158   5.227   2.456
 1767SOL    HW2 6201   0.070   5.142   2.348
 1768SOL     OW 6202   5.473   4.562   2.056
 1768SOL    HW1 6203   5.427   4.513   2.130
 1768SOL    HW2 6204   5.535   4.630   2.095
 1769SOL     OW 6205   5.720   0.415   0.612
 1769SOL    HW1 6206   5.687   0.325   0.582
 1769SOL    HW2 6207   5.676   0.486   0.558
 1770SOL     OW 6208   1.630   5.060   0.459
 1770SOL    HW1 6209   1.629   5.050   0.559
 1770SOL    HW2 6210   1.554   5.008   0.420
 1771SOL     OW 6211   1.884   3.053   6.354
 1771SOL    HW1 6212   1.817   3.003   6.409
 1771SOL    HW2 6213   1.870   3.030   6.257
 1772SOL     OW 6214   2.241   4.128   2.637
 1772SOL    HW1 6215   2.209   4.033   2.642
 1772SOL    HW2 6216   2.238   4.158   2.542
 1773SOL     OW 6217   2.501   6.289   6.217
 1773SOL    HW1 6218   2.453   6.230   6.152
 1773SOL    HW2 6219   2.525   6.235   6.299
 1774SOL     OW 6220   5.329   5.878   0.882
 1774SOL    HW1 6221   5.397   5.807   0.865
 1774SOL    HW2 6222   5.364   5.966   0.850
 1775SOL     OW 6223   1.944   5.169   0.647
 1775SOL    HW1 6224   2.034   5.129   0.629
 1775SOL    HW2 6225   1.938   5.259   0.606
 1776SOL     OW 6226   4.701   2.467   5.973
 1776SOL    HW1 6227   4.656   2.443   5.887
 1776SOL    HW2 6228   4.654   2.543   6.016
 1777SOL     OW 6229   4.468   6.633   0.227
 1777SOL    HW1 6230   4.376   6.636   0.266
 1777SOL    HW2 6231   4.531   6.592   0.293
 1778SOL     OW 6232   6.053   6.993   4.199
 1778SOL    HW1 6233   6.062   6.898   4.228
 1778SOL    HW2 6234   5.956   7.017   4.193
 1779SOL     OW 6235   5.544   0.521   4.191
 1779SOL    HW1 6236   5.640   0.540   4.172
 1779SOL    HW2 6237   5.486   0.586   4.143
 1780SOL     OW 6238   2.562   4.924   5.463
 1780SOL    HW1 6239   2.597   5.013   5.436
 1780SOL    HW2 6240   2.462   4.924   5.456
 1781SOL     OW 6241   4.155   0.572   5.454
 1781SOL    HW1 6242   4.115   0.552   5.544
 1781SOL    HW2 6243   4.127   0.664   5.426
 1782SOL     OW 6244   5.888   1.932   2.327
 1782SOL    HW1 6245   5.840   1.897   2.408
 1782SOL    HW2 6246   5.979   1.964   2.353
 1783SOL     OW 6247   1.695   4.155   6.835
 1783SOL    HW1 6248   1.649   4.066   6.832
 1783SOL    HW2 6249   1.645   4.217   6.895
 1784SOL     OW 6250   2.969   6.744   2.116
 1784SOL    HW1 6251   2.871   6.739   2.132
 1784SOL    HW2 6252   2.993   6.682   2.041
 1785SOL     OW 6253   1.380   6.569   5.108
 1785SOL    HW1 6254   1.409   6.475   5.093
 1785SOL    HW2 6255   1.331   6.576   5.195
 1786SOL     OW 6256   0.944   6.539   1.030
 1786SOL    HW1 6257   0.856   6.492   1.025
 1786SOL    HW2 6258   0.982   6.551   0.938
 1787SOL     OW 6259   1.920   3.362   5.633
 1787SOL    HW1 6260   1.961   3.290   5.689
 1787SOL    HW2 6261   1.872   3.321   5.555
 1788SOL     OW 6262   4.553   3.506   0.859
 1788SOL    HW1 6263   4.604   3.591   0.873
 1788SOL    HW2 6264   4.510   3.508   0.768
 1789SOL     OW 6265   5.986   3.636   2.470
 1789SOL    HW1 6266   5.964   3.581   2.390
 1789SOL    HW2 6267   6.068   3.691   2.452
 1790SOL     OW 6268   1.678   2.052   4.912
 1790SOL    HW1 6269   1.689   1.959   4.875
 1790SOL    HW2 6270   1.758   2.075   4.968
 1791SOL     OW 6271   4.630   0.714   3.873
 1791SOL    HW1 6272   4.730   0.714   3.876
 1791SOL    HW2 6273   4.599   0.641   3.811
 1792SOL     OW 6274   0.354   2.329   6.607
 1792SOL    HW1 6275   0.344   2.364   6.514
 1792SOL    HW2 6276   0.450   2.336   6.635
 1793SOL     OW 6277   6.790   0.686   5.610
 1793SOL    HW1 6278   6.859   0.665   5.680
 1793SOL    HW2 6279   6.834   0.726   5.530
 1794SOL     OW 6280   0.580   0.528   6.328
 1794SOL    HW1 6281   0.524   0.610   6.335
 1794SOL    HW2 6282   0.527   0.455   6.284
 1795SOL     OW 6283   5.223   4.269   0.925
 1795SOL    HW1 6284   5.302   4.214   0.953
 1795SOL    HW2 6285   5.243   4.315   0.839
 1796SOL     OW 6286   0.108   0.011   0.308
 1796SOL    HW1 6287   0.070   6.956   0.356
 1796SOL    HW2 6288   0.063   0.021   0.219
 1797SOL     OW 6289   2.592   5.192   5.634
 1797SOL    HW1 6290   2.630   5.198   5.542
 1797SOL    HW2 6291   2.659   5.149   5.695
 1798SOL     OW 6292   2.209   3.825   5.241
 1798SOL    HW1 6293   2.230   3.743   5.188
 1798SOL    HW2 6294   2.274   3.897   5.218
 1799SOL     OW 6295   3.108   1.134   1.402
 1799SOL    HW1 6296   3.135   1.097   1.313
 1799SOL    HW2 6297   3.108   1.234   1.399
 1800SOL     OW 6298   5.792   2.977   5.215
 1800SOL    HW1 6299   5.890   2.993   5.218
 1800SOL    HW2 6300   5.745   3.042   5.275
 1801SOL     OW 6301   0.761   0.697   3.268
 1801SOL    HW1 6302   0.817   0.760   3.215
 1801SOL    HW2 6303   0.690   0.658   3.210
 1802SOL     OW 6304   6.871   5.217   4.036
 1802SOL    HW1 6305   6.797   5.284   4.039
 1802SOL    HW2 6306   6.899   5.201   3.942
 1803SOL     OW 6307   0.640   0.347   3.179
 1803SOL    HW1 6308   0.692   0.312   3.256
 1803SOL    HW2 6309   0.542   0.330   3.194
 1804SOL     OW 6310   2.357   3.033   6.444
 1804SOL    HW1 6311   2.375   3.044   6.347
 1804SOL    HW2 6312   2.331   3.121   6.484
 1805SOL     OW 6313   6.634   4.668   0.991
 1805SOL    HW1 6314   6.634   4.591   0.927
 1805SOL    HW2 6315   6.564   4.654   1.060
 1806SOL     OW 6316   0.029   1.159   0.815
 1806SOL    HW1 6317   0.055   1.248   0.852
 1806SOL    HW2 6318   0.100   1.092   0.836
 1807SOL     OW 6319   6.572   2.788   2.748
 1807SOL    HW1 6320   6.482   2.798   2.789
 1807SOL    HW2 6321   6.565   2.735   2.663
 1808SOL     OW 6322   5.164   1.452   6.597
 1808SOL    HW1 6323   5.187   1.549   6.585
 1808SOL    HW2 6324   5.245   1.403   6.630
 1809SOL     OW 6325   4.980   7.011   5.442
 1809SOL    HW1 6326   4.885   6.979   5.446
 1809SOL    HW2 6327   4.982   0.081   5.408
 1810SOL     OW 6328   1.058   0.337   3.950
 1810SOL    HW1 6329   1.039   0.249   3.994
 1810SOL    HW2 6330   1.043   0.411   4.017
 1811SOL     OW 6331   3.665   6.045   1.913
 1811SOL    HW1 6332   3.675   6.142   1.889
 1811SOL    HW2 6333   3.609   6.038   1.995
 1812SOL     OW 6334   4.553   6.146   6.695
 1812SOL    HW1 6335   4.571   6.136   6.597
 1812SOL    HW2 6336   4.590   6.233   6.727
 1813SOL     OW 6337   4.881   3.721   2.158
 1813SOL    HW1 6338   4.793   3.728   2.205
 1813SOL    HW2 6339   4.884   3.636   2.105
 1814SOL     OW 6340   6.465   6.107   0.456
 1814SOL    HW1 6341   6.475   6.074   0.362
 1814SOL    HW2 6342   6.516   6.047   0.518
 1815SOL     OW 6343   5.763   6.096   1.496
 1815SOL    HW1 6344   5.689   6.049   1.448
 1815SOL    HW2 6345   5.742   6.194   1.499
 1816SOL     OW 6346   4.287   4.945   5.053
 1816SOL    HW1 6347   4.347   5.018   5.021
 1816SOL    HW2 6348   4.206   4.940   4.995
 1817SOL     OW 6349   0.370   2.643   3.631
 1817SOL    HW1 6350   0.413   2.571   3.577
 1817SOL    HW2 6351   0.438   2.682   3.693
 1818SOL     OW 6352   2.684   1.129   0.645
 1818SOL    HW1 6353   2.614   1.063   0.615
 1818SOL    HW2 6354   2.738   1.159   0.567
 1819SOL     OW 6355   1.883   4.440   2.579
 1819SOL    HW1 6356   1.959   4.485   2.533
 1819SOL    HW2 6357   1.873   4.347   2.545
 1820SOL     OW 6358   3.111   0.477   4.881
 1820SOL    HW1 6359   3.045   0.522   4.820
 1820SOL    HW2 6360   3.190   0.446   4.828
 1821SOL     OW 6361   3.353   1.815   2.624
 1821SOL    HW1 6362   3.375   1.901   2.579
 1821SOL    HW2 6363   3.417   1.744   2.593
 1822SOL     OW 6364   0.428   3.908   2.883
 1822SOL    HW1 6365   0.449   3.835   2.947
 1822SOL    HW2 6366   0.387   3.869   2.800
 1823SOL     OW 6367   4.621   6.725   2.438
 1823SOL    HW1 6368   4.588   6.807   2.486
 1823SOL    HW2 6369   4.698   6.686   2.488
 1824SOL     OW 6370   4.326   3.097   1.799
 1824SOL    HW1 6371   4.411   3.065   1.840
 1824SOL    HW2 6372   4.326   3.197   1.796
 1825SOL     OW 6373   1.009   2.632   5.446
 1825SOL    HW1 6374   1.013   2.701   5.373
 1825SOL    HW2 6375   1.084   2.647   5.510
 1826SOL     OW 6376   3.172   2.289   1.428
 1826SOL    HW1 6377   3.082   2.327   1.446
 1826SOL    HW2 6378   3.240   2.336   1.484
 1827SOL     OW 6379   5.564   5.296   0.640
 1827SOL    HW1 6380   5.599   5.210   0.603
 1827SOL    HW2 6381   5.640   5.360   0.653
 1828SOL     OW 6382   1.750   3.985   5.385
 1828SOL    HW1 6383   1.666   4.020   5.344
 1828SOL    HW2 6384   1.736   3.970   5.483
 1829SOL     OW 6385   4.071   0.018   2.245
 1829SOL    HW1 6386   4.074   6.952   2.202
 1829SOL    HW2 6387   4.020   0.081   2.187
 1830SOL     OW 6388   4.690   1.171   6.508
 1830SOL    HW1 6389   4.723   1.254   6.464
 1830SOL    HW2 6390   4.732   1.162   6.598
 1831SOL     OW 6391   3.303   4.737   0.797
 1831SOL    HW1 6392   3.360   4.744   0.879
 1831SOL    HW2 6393   3.209   4.762   0.820
 1832SOL     OW 6394   2.596   3.324   6.756
 1832SOL    HW1 6395   2.517   3.352   6.810
 1832SOL    HW2 6396   2.568   3.255   6.689
 1833SOL     OW 6397   5.753   1.591   0.132
 1833SOL    HW1 6398   5.728   1.576   0.227
 1833SOL    HW2 6399   5.853   1.598   0.124
 1834SOL     OW 6400   0.624   2.956   5.556
 1834SOL    HW1 6401   0.602   2.970   5.460
 1834SOL    HW2 6402   0.595   2.865   5.584
 1835SOL     OW 6403   6.871   6.247   1.193
 1835SOL    HW1 6404   6.840   6.307   1.120
 1835SOL    HW2 6405   6.801   6.240   1.264
 1836SOL     OW 6406   5.365   2.130   2.690
 1836SOL    HW1 6407   5.265   2.139   2.682
 1836SOL    HW2 6408   5.391   2.035   2.673
 1837SOL     OW 6409   3.059   1.953   7.004
 1837SOL    HW1 6410   3.115   2.029   0.012
 1837SOL    HW2 6411   3.023   1.903   0.059
 1838SOL     OW 6412   4.744   1.015   1.161
 1838SOL    HW1 6413   4.763   0.981   1.069
 1838SOL    HW2 6414   4.648   0.999   1.183
 1839SOL     OW 6415   6.433   0.234   0.294
 1839SOL    HW1 6416   6.431   0.139   0.326
 1839SOL    HW2 6417   6.375   0.290   0.353
 1840SOL     OW 6418   4.310   6.502   4.228
 1840SOL    HW1 6419   4.299   6.425   4.290
 1840SOL    HW2 6420   4.328   6.585   4.281
 1841SOL     OW 6421   0.937   1.162   1.956
 1841SOL    HW1 6422   0.837   1.160   1.967
 1841SOL    HW2 6423   0.980   1.140   2.044
 1842SOL     OW 6424   0.814   5.038   1.479
 1842SOL    HW1 6425   0.815   5.113   1.545
 1842SOL    HW2 6426   0.807   5.074   1.386
 1843SOL     OW 6427   2.632   0.735   6.852
 1843SOL    HW1 6428   2.554   0.737   6.914
 1843SOL    HW2 6429   2.644   0.643   6.815
 1844SOL     OW 6430   5.794   2.942   6.373
 1844SOL    HW1 6431   5.853   3.022   6.382
 1844SOL    HW2 6432   5.843   2.860   6.402
 1845SOL     OW 6433   0.760   2.099   3.087
 1845SOL    HW1 6434   0.718   2.188   3.106
 1845SOL    HW2 6435   0.774   2.089   2.988
 1846SOL     OW 6436   2.616   1.790   1.630
 1846SOL    HW1 6437   2.712   1.812   1.646
 1846SOL    HW2 6438   2.607   1.691   1.619
 1847SOL     OW 6439   2.026   5.676   5.974
 1847SOL    HW1 6440   2.075   5.671   5.888
 1847SOL    HW2 6441   1.948   5.612   5.972
 1848SOL     OW 6442   3.490   6.670   3.283
 1848SOL    HW1 6443   3.550   6.606   3.332
 1848SOL    HW2 6444   3.531   6.693   3.195
 1849SOL     OW 6445   4.784   2.975   2.330
 1849SOL    HW1 6446   4.691   2.943   2.343
 1849SOL    HW2 6447   4.791   3.023   2.242
 1850SOL     OW 6448   4.077   2.124   0.594
 1850SOL    HW1 6449   4.121   2.037   0.614
 1850SOL    HW2 6450   4.146   2.197   0.596
 1851SOL     OW 6451   6.975   4.742   4.489
 1851SOL    HW1 6452   6.956   4.837   4.463
 1851SOL    HW2 6453   6.976   4.735   4.589
 1852SOL     OW 6454   1.027   0.500   2.568
 1852SOL    HW1 6455   1.022   0.599   2.558
 1852SOL    HW2 6456   1.072   0.477   2.654
 1853SOL     OW 6457   0.441   2.284   5.639
 1853SOL    HW1 6458   0.396   2.318   5.556
 1853SOL    HW2 6459   0.470   2.362   5.695
 1854SOL     OW 6460   0.653   7.006   3.189
 1854SOL    HW1 6461   0.592   0.033   3.129
 1854SOL    HW2 6462   0.611   6.996   3.279
 1855SOL     OW 6463   5.797   2.888   4.948
 1855SOL    HW1 6464   5.823   2.931   5.034
 1855SOL    HW2 6465   5.755   2.956   4.887
 1856SOL     OW 6466   4.155   3.482   7.020
 1856SOL    HW1 6467   4.144   3.581   0.006
 1856SOL    HW2 6468   4.066   3.438   7.020
 1857SOL     OW 6469   3.949   1.217   6.660
 1857SOL    HW1 6470   3.864   1.191   6.706
 1857SOL    HW2 6471   4.018   1.241   6.729
 1858SOL     OW 6472   5.298   2.283   4.615
 1858SOL    HW1 6473   5.252   2.309   4.700
 1858SOL    HW2 6474   5.242   2.215   4.567
 1859SOL     OW 6475   6.790   0.830   4.241
 1859SOL    HW1 6476   6.866   0.891   4.262
 1859SOL    HW2 6477   6.706   0.883   4.234
 1860SOL     OW 6478   2.475   1.343   6.351
 1860SOL    HW1 6479   2.421   1.355   6.268
 1860SOL    HW2 6480   2.483   1.245   6.372
 1861SOL     OW 6481   6.161   6.204   4.530
 1861SOL    HW1 6482   6.089   6.138   4.548
 1861SOL    HW2 6483   6.218   6.214   4.612
 1862SOL     OW 6484   3.023   5.481   5.422
 1862SOL    HW1 6485   2.946   5.532   5.459
 1862SOL    HW2 6486   3.109   5.525   5.450
 1863SOL     OW 6487   6.866   2.018   1.296
 1863SOL    HW1 6488   6.933   2.033   1.223
 1863SOL    HW2 6489   6.796   2.089   1.293
 1864SOL     OW 6490   2.982   5.598   1.680
 1864SOL    HW1 6491   2.956   5.654   1.758
 1864SOL    HW2 6492   2.979   5.501   1.706
 1865SOL     OW 6493   6.425   2.940   5.798
 1865SOL    HW1 6494   6.460   2.901   5.713
 1865SOL    HW2 6495   6.326   2.930   5.801
 1866SOL     OW 6496   0.985   5.757   3.503
 1866SOL    HW1 6497   1.054   5.697   3.463
 1866SOL    HW2 6498   0.982   5.843   3.453
 1867SOL     OW 6499   0.620   2.133   1.532
 1867SOL    HW1 6500   0.668   2.181   1.605
 1867SOL    HW2 6501   0.586   2.199   1.465
 1868SOL     OW 6502   5.874   3.540   6.910
 1868SOL    HW1 6503   5.918   3.513   6.824
 1868SOL    HW2 6504   5.791   3.486   6.922
 1869SOL     OW 6505   5.130   0.843   4.579
 1869SOL    HW1 6506   5.051   0.845   4.641
 1869SOL    HW2 6507   5.196   0.775   4.612
 1870SOL     OW 6508   6.273   6.808   5.611
 1870SOL    HW1 6509   6.277   6.837   5.515
 1870SOL    HW2 6510   6.294   6.885   5.671
 1871SOL     OW 6511   0.690   6.215   6.666
 1871SOL    HW1 6512   0.638   6.280   6.611
 1871SOL    HW2 6513   0.754   6.165   6.607
 1872SOL     OW 6514   2.950   3.160   1.472
 1872SOL    HW1 6515   2.956   3.100   1.552
 1872SOL    HW2 6516   2.854   3.174   1.448
 1873SOL     OW 6517   6.472   1.120   1.007
 1873SOL    HW1 6518   6.561   1.158   1.033
 1873SOL    HW2 6519   6.461   1.030   1.049
 1874SOL     OW 6520   0.809   5.321   0.153
 1874SOL    HW1 6521   0.722   5.321   0.102
 1874SOL    HW2 6522   0.875   5.380   0.106
 1875SOL     OW 6523   0.406   5.809   2.026
 1875SOL    HW1 6524   0.330   5.857   1.983
 1875SOL    HW2 6525   0.371   5.738   2.087
 1876SOL     OW 6526   0.437   4.770   0.938
 1876SOL    HW1 6527   0.351   4.739   0.978
 1876SOL    HW2 6528   0.450   4.867   0.957
 1877SOL     OW 6529   1.358   1.821   2.298
 1877SOL    HW1 6530   1.275   1.765   2.292
 1877SOL    HW2 6531   1.395   1.835   2.206
 1878SOL     OW 6532   5.428   3.808   3.961
 1878SOL    HW1 6533   5.431   3.889   3.902
 1878SOL    HW2 6534   5.511   3.754   3.949
 1879SOL     OW 6535   4.764   6.366   4.610
 1879SOL    HW1 6536   4.832   6.294   4.600
 1879SOL    HW2 6537   4.809   6.455   4.611
 1880SOL     OW 6538   0.142   1.241   4.419
 1880SOL    HW1 6539   0.155   1.319   4.479
 1880SOL    HW2 6540   0.046   1.212   4.421
 1881SOL     OW 6541   1.923   1.452   3.712
 1881SOL    HW1 6542   2.016   1.474   3.740
 1881SOL    HW2 6543   1.925   1.388   3.635
 1882SOL     OW 6544   2.035   5.389   0.099
 1882SOL    HW1 6545   2.054   5.347   0.188
 1882SOL    HW2 6546   1.997   5.480   0.112
 1883SOL     OW 6547   2.640   2.325   3.155
 1883SOL    HW1 6548   2.576   2.250   3.145
 1883SOL    HW2 6549   2.619   2.376   3.239
 1884SOL     OW 6550   4.355   1.060   0.609
 1884SOL    HW1 6551   4.446   1.035   0.642
 1884SOL    HW2 6552   4.353   1.157   0.586
 1885SOL     OW 6553   0.252   1.357   0.565
 1885SOL    HW1 6554   0.155   1.374   0.577
 1885SOL    HW2 6555   0.267   1.300   0.484
 1886SOL     OW 6556   3.465   2.786   6.301
 1886SOL    HW1 6557   3.470   2.842   6.218
 1886SOL    HW2 6558   3.434   2.694   6.276
 1887SOL     OW 6559   0.673   6.338   5.115
 1887SOL    HW1 6560   0.749   6.398   5.142
 1887SOL    HW2 6561   0.596   6.352   5.178
 1888SOL     OW 6562   2.005   1.851   5.505
 1888SOL    HW1 6563   2.021   1.878   5.600
 1888SOL    HW2 6564   1.911   1.876   5.478
 1889SOL     OW 6565   2.520   2.932   0.200
 1889SOL    HW1 6566   2.550   2.930   0.296
 1889SOL    HW2 6567   2.575   2.998   0.149
 1890SOL     OW 6568   6.399   6.126   6.957
 1890SOL    HW1 6569   6.497   6.119   6.940
 1890SOL    HW2 6570   6.349   6.108   6.873
 1891SOL     OW 6571   5.167   3.726   6.971
 1891SOL    HW1 6572   5.107   3.742   6.892
 1891SOL    HW2 6573   5.199   3.632   6.970
 1892SOL     OW 6574   4.321   0.111   2.316
 1892SOL    HW1 6575   4.404   0.069   2.279
 1892SOL    HW2 6576   4.241   0.056   2.288
 1893SOL     OW 6577   3.436   1.441   5.499
 1893SOL    HW1 6578   3.351   1.468   5.455
 1893SOL    HW2 6579   3.419   1.362   5.559
 1894SOL     OW 6580   4.990   3.797   1.432
 1894SOL    HW1 6581   4.955   3.804   1.338
 1894SOL    HW2 6582   4.985   3.887   1.476
 1895SOL     OW 6583   4.563   6.674   3.362
 1895SOL    HW1 6584   4.549   6.769   3.391
 1895SOL    HW2 6585   4.477   6.639   3.323
 1896SOL     OW 6586   6.427   1.522   5.647
 1896SOL    HW1 6587   6.479   1.456   5.593
 1896SOL    HW2 6588   6.462   1.614   5.630
 1897SOL     OW 6589   6.050   4.878   3.611
 1897SOL    HW1 6590   6.075   4.864   3.515
 1897SOL    HW2 6591   5.973   4.818   3.635
 1898SOL     OW 6592   5.773   6.615   6.788
 1898SOL    HW1 6593   5.730   6.536   6.832
 1898SOL    HW2 6594   5.864   6.629   6.827
 1899SOL     OW 6595   1.730   2.430   3.322
 1899SOL    HW1 6596   1.741   2.509   3.383
 1899SOL    HW2 6597   1.820   2.393   3.300
 1900SOL     OW 6598   2.840   6.381   2.374
 1900SOL    HW1 6599   2.894   6.382   2.458
 1900SOL    HW2 6600   2.805   6.473   2.357
 1901SOL     OW 6601   1.347   1.150   6.321
 1901SOL    HW1 6602   1.442   1.175   6.340
 1901SOL    HW2 6603   1.346   1.072   6.259
 1902SOL     OW 6604   1.390   2.658   5.474
 1902SOL    HW1 6605   1.397   2.727   5.402
 1902SOL    HW2 6606   1.479   2.616   5.489
 1903SOL     OW 6607   0.090   4.326   4.189
 1903SOL    HW1 6608   0.182   4.359   4.170
 1903SOL    HW2 6609   0.095   4.247   4.250
 1904SOL     OW 6610   0.476   0.355   4.393
 1904SOL    HW1 6611   0.395   0.382   4.341
 1904SOL    HW2 6612   0.480   0.409   4.477
 1905SOL     OW 6613   6.567   2.693   4.328
 1905SOL    HW1 6614   6.531   2.732   4.413
 1905SOL    HW2 6615   6.580   2.594   4.340
 1906SOL     OW 6616   2.845   5.963   6.682
 1906SOL    HW1 6617   2.931   5.983   6.729
 1906SOL    HW2 6618   2.779   6.035   6.702
 1907SOL     OW 6619   4.587   6.428   3.724
 1907SOL    HW1 6620   4.657   6.364   3.692
 1907SOL    HW2 6621   4.503   6.415   3.672
 1908SOL     OW 6622   4.971   6.901   6.943
 1908SOL    HW1 6623   4.880   6.943   6.946
 1908SOL    HW2 6624   5.040   6.973   6.948
 1909SOL     OW 6625   4.211   5.213   4.754
 1909SOL    HW1 6626   4.197   5.159   4.671
 1909SOL    HW2 6627   4.276   5.287   4.736
 1910SOL     OW 6628   5.193   3.485   4.794
 1910SOL    HW1 6629   5.205   3.569   4.847
 1910SOL    HW2 6630   5.096   3.460   4.795
 1911SOL     OW 6631   0.094   3.519   5.676
 1911SOL    HW1 6632   0.042   3.572   5.608
 1911SOL    HW2 6633   0.192   3.537   5.664
 1912SOL     OW 6634   2.725   5.731   3.214
 1912SOL    HW1 6635   2.672   5.724   3.298
 1912SOL    HW2 6636   2.820   5.709   3.232
 1913SOL     OW 6637   1.388   4.221   5.155
 1913SOL    HW1 6638   1.301   4.187   5.191
 1913SOL    HW2 6639   1.390   4.208   5.056
 1914SOL     OW 6640   4.510   1.265   6.028
 1914SOL    HW1 6641   4.416   1.238   6.003
 1914SOL    HW2 6642   4.559   1.294   5.945
 1915SOL     OW 6643   3.428   1.038   5.329
 1915SOL    HW1 6644   3.365   1.089   5.270
 1915SOL    HW2 6645   3.394   0.945   5.341
 1916SOL     OW 6646   4.210   6.432   2.407
 1916SOL    HW1 6647   4.291   6.454   2.353
 1916SOL    HW2 6648   4.239   6.397   2.497
 1917SOL     OW 6649   3.298   3.104   4.278
 1917SOL    HW1 6650   3.369   3.139   4.218
 1917SOL    HW2 6651   3.340   3.059   4.357
 1918SOL     OW 6652   6.377   6.048   4.936
 1918SOL    HW1 6653   6.414   6.089   5.020
 1918SOL    HW2 6654   6.445   5.985   4.897
 1919SOL     OW 6655   6.539   0.071   1.776
 1919SOL    HW1 6656   6.580   0.103   1.862
 1919SOL    HW2 6657   6.600   0.005   1.733
 1920SOL     OW 6658   6.396   5.975   4.303
 1920SOL    HW1 6659   6.343   5.903   4.258
 1920SOL    HW2 6660   6.493   5.964   4.281
 1921SOL     OW 6661   1.405   0.005   6.548
 1921SOL    HW1 6662   1.342   6.959   6.582
 1921SOL    HW2 6663   1.466   6.988   6.479
 1922SOL     OW 6664   3.658   4.225   1.019
 1922SOL    HW1 6665   3.560   4.204   1.024
 1922SOL    HW2 6666   3.671   4.323   1.036
 1923SOL     OW 6667   1.858   2.869   0.711
 1923SOL    HW1 6668   1.912   2.947   0.743
 1923SOL    HW2 6669   1.868   2.860   0.612
 1924SOL     OW 6670   1.057   3.796   1.707
 1924SOL    HW1 6671   0.982   3.750   1.661
 1924SOL    HW2 6672   1.125   3.825   1.640
 1925SOL     OW 6673   3.768   3.789   0.455
 1925SOL    HW1 6674   3.719   3.875   0.438
 1925SOL    HW2 6675   3.806   3.789   0.547
 1926SOL     OW 6676   0.997   0.493   3.190
 1926SOL    HW1 6677   1.048   0.551   3.126
 1926SOL    HW2 6678   0.936   0.549   3.246
 1927SOL     OW 6679   4.209   3.909   0.506
 1927SOL    HW1 6680   4.153   3.923   0.587
 1927SOL    HW2 6681   4.289   3.854   0.529
 1928SOL     OW 6682   0.282   5.311   5.521
 1928SOL    HW1 6683   0.373   5.334   5.488
 1928SOL    HW2 6684   0.214   5.362   5.469
 1929SOL     OW 6685   1.734   6.335   3.283
 1929SOL    HW1 6686   1.811   6.394   3.308
 1929SOL    HW2 6687   1.738   6.250   3.335
 1930SOL     OW 6688   6.552   4.987   0.132
 1930SOL    HW1 6689   6.548   4.911   0.196
 1930SOL    HW2 6690   6.622   4.969   0.063
 1931SOL     OW 6691   0.564   1.836   5.626
 1931SOL    HW1 6692   0.586   1.771   5.553
 1931SOL    HW2 6693   0.646   1.886   5.653
 1932SOL     OW 6694   5.742   2.686   2.603
 1932SOL    HW1 6695   5.696   2.770   2.574
 1932SOL    HW2 6696   5.835   2.706   2.633
 1933SOL     OW 6697   2.111   4.445   0.561
 1933SOL    HW1 6698   2.089   4.369   0.622
 1933SOL    HW2 6699   2.082   4.531   0.604
 1934SOL     OW 6700   7.010   5.948   4.457
 1934SOL    HW1 6701   7.001   5.848   4.451
 1934SOL    HW2 6702   0.051   5.971   4.529
 1935SOL     OW 6703   2.296   0.938   3.451
 1935SOL    HW1 6704   2.299   0.862   3.516
 1935SOL    HW2 6705   2.257   0.907   3.364
 1936SOL     OW 6706   6.890   6.282   5.653
 1936SOL    HW1 6707   6.830   6.286   5.573
 1936SOL    HW2 6708   6.980   6.248   5.626
 1937SOL     OW 6709   4.563   0.822   2.938
 1937SOL    HW1 6710   4.609   0.850   2.853
 1937SOL    HW2 6711   4.487   0.885   2.957
 1938SOL     OW 6712   4.895   0.662   4.137
 1938SOL    HW1 6713   4.887   0.746   4.083
 1938SOL    HW2 6714   4.953   0.678   4.217
 1939SOL     OW 6715   2.561   0.534   3.617
 1939SOL    HW1 6716   2.603   0.519   3.528
 1939SOL    HW2 6717   2.619   0.594   3.672
 1940SOL     OW 6718   6.413   5.376   6.360
 1940SOL    HW1 6719   6.384   5.283   6.339
 1940SOL    HW2 6720   6.436   5.383   6.458
 1941SOL     OW 6721   5.645   5.279   2.608
 1941SOL    HW1 6722   5.590   5.317   2.682
 1941SOL    HW2 6723   5.595   5.204   2.565
 1942SOL     OW 6724   6.620   4.584   2.961
 1942SOL    HW1 6725   6.650   4.556   3.052
 1942SOL    HW2 6726   6.637   4.682   2.949
 1943SOL     OW 6727   2.899   6.082   2.563
 1943SOL    HW1 6728   2.882   6.026   2.644
 1943SOL    HW2 6729   2.888   6.025   2.481
 1944SOL     OW 6730   6.877   6.859   1.991
 1944SOL    HW1 6731   6.869   6.958   1.980
 1944SOL    HW2 6732   6.874   6.836   2.088
 1945SOL     OW 6733   3.066   4.988   3.951
 1945SOL    HW1 6734   3.012   4.974   3.868
 1945SOL    HW2 6735   3.006   4.990   4.030
 1946SOL     OW 6736   2.012   0.129   0.312
 1946SOL    HW1 6737   2.078   0.194   0.348
 1946SOL    HW2 6738   2.027   0.039   0.354
 1947SOL     OW 6739   5.399   6.744   3.884
 1947SOL    HW1 6740   5.400   6.656   3.930
 1947SOL    HW2 6741   5.315   6.793   3.908
 1948SOL     OW 6742   6.793   3.822   5.686
 1948SOL    HW1 6743   6.866   3.844   5.751
 1948SOL    HW2 6744   6.832   3.782   5.604
 1949SOL     OW 6745   5.225   4.157   6.453
 1949SOL    HW1 6746   5.175   4.179   6.536
 1949SOL    HW2 6747   5.163   4.163   6.374
 1950SOL     OW 6748   2.788   4.843   0.941
 1950SOL    HW1 6749   2.707   4.877   0.894
 1950SOL    HW2 6750   2.802   4.893   1.026
 1951SOL     OW 6751   6.672   2.651   6.968
 1951SOL    HW1 6752   6.769   2.635   6.983
 1951SOL    HW2 6753   6.620   2.618   0.023
 1952SOL     OW 6754   3.591   2.925   5.477
 1952SOL    HW1 6755   3.495   2.943   5.500
 1952SOL    HW2 6756   3.621   2.988   5.405
 1953SOL     OW 6757   0.061   3.181   5.036
 1953SOL    HW1 6758   6.996   3.226   5.030
 1953SOL    HW2 6759   0.133   3.250   5.041
 1954SOL     OW 6760   2.578   2.211   3.820
 1954SOL    HW1 6761   2.609   2.137   3.879
 1954SOL    HW2 6762   2.575   2.296   3.873
 1955SOL     OW 6763   6.637   5.569   1.757
 1955SOL    HW1 6764   6.613   5.658   1.796
 1955SOL    HW2 6765   6.639   5.500   1.830
 1956SOL     OW 6766   5.663   6.556   2.489
 1956SOL    HW1 6767   5.735   6.487   2.476
 1956SOL    HW2 6768   5.601   6.554   2.410
 1957SOL     OW 6769   0.931   6.681   5.831
 1957SOL    HW1 6770   1.030   6.678   5.823
 1957SOL    HW2 6771   0.906   6.697   5.927
 1958SOL     OW 6772   4.801   2.915   6.033
 1958SOL    HW1 6773   4.832   2.891   6.125
 1958SOL    HW2 6774   4.839   2.850   5.967
 1959SOL     OW 6775   2.431   2.189   7.002
 1959SOL    HW1 6776   2.368   2.266   7.010
 1959SOL    HW2 6777   2.522   2.218   0.008
 1960SOL     OW 6778   5.038   6.697   2.311
 1960SOL    HW1 6779   5.028   6.752   2.395
 1960SOL    HW2 6780   4.995   6.608   2.324
 1961SOL     OW 6781   5.617   4.938   4.945
 1961SOL    HW1 6782   5.692   4.922   4.881
 1961SOL    HW2 6783   5.651   4.935   5.039
 1962SOL     OW 6784   6.952   6.586   3.256
 1962SOL    HW1 6785   6.856   6.598   3.280
 1962SOL    HW2 6786   7.000   6.673   3.265
 1963SOL     OW 6787   2.044   7.006   2.652
 1963SOL    HW1 6788   2.130   0.023   2.622
 1963SOL    HW2 6789   1.989   0.050   2.699
 1964SOL     OW 6790   5.696   4.228   2.247
 1964SOL    HW1 6791   5.760   4.293   2.288
 1964SOL    HW2 6792   5.694   4.242   2.148
 1965SOL     OW 6793   2.404   5.270   3.959
 1965SOL    HW1 6794   2.402   5.170   3.958
 1965SOL    HW2 6795   2.453   5.303   3.878
 1966SOL     OW 6796   6.417   6.365   6.284
 1966SOL    HW1 6797   6.454   6.295   6.223
 1966SOL    HW2 6798   6.367   6.433   6.230
 1967SOL     OW 6799   4.896   3.680   4.375
 1967SOL    HW1 6800   4.900   3.593   4.424
 1967SOL    HW2 6801   4.861   3.752   4.436
 1968SOL     OW 6802   3.861   5.234   5.596
 1968SOL    HW1 6803   3.837   5.137   5.597
 1968SOL    HW2 6804   3.885   5.261   5.503
 1969SOL     OW 6805   6.847   2.155   1.884
 1969SOL    HW1 6806   6.800   2.167   1.971
 1969SOL    HW2 6807   6.866   2.244   1.843
 1970SOL     OW 6808   1.584   6.401   3.684
 1970SOL    HW1 6809   1.642   6.463   3.736
 1970SOL    HW2 6810   1.638   6.324   3.649
 1971SOL     OW 6811   0.334   0.379   5.974
 1971SOL    HW1 6812   0.409   0.438   5.943
 1971SOL    HW2 6813   0.315   0.310   5.904
 1972SOL     OW 6814   1.353   5.172   4.048
 1972SOL    HW1 6815   1.439   5.189   4.096
 1972SOL    HW2 6816   1.331   5.250   3.990
 1973SOL     OW 6817   2.552   2.950   6.858
 1973SOL    HW1 6818   2.548   2.850   6.858
 1973SOL    HW2 6819   2.553   2.983   6.763
 1974SOL     OW 6820   5.588   0.339   4.382
 1974SOL    HW1 6821   5.513   0.273   4.378
 1974SOL    HW2 6822   5.575   0.408   4.311
 1975SOL     OW 6823   2.767   0.745   3.677
 1975SOL    HW1 6824   2.850   0.726   3.730
 1975SOL    HW2 6825   2.791   0.761   3.582
 1976SOL     OW 6826   6.680   4.811   0.374
 1976SOL    HW1 6827   6.588   4.803   0.412
 1976SOL    HW2 6828   6.738   4.740   0.412
 1977SOL     OW 6829   2.444   2.553   5.079
 1977SOL    HW1 6830   2.496   2.555   5.165
 1977SOL    HW2 6831   2.377   2.627   5.079
 1978SOL     OW 6832   6.991   1.660   5.100
 1978SOL    HW1 6833   6.892   1.665   5.086
 1978SOL    HW2 6834   7.019   1.565   5.110
 1979SOL     OW 6835   5.956   4.398   2.921
 1979SOL    HW1 6836   5.873   4.440   2.884
 1979SOL    HW2 6837   5.981   4.319   2.865
 1980SOL     OW 6838   4.192   0.412   1.368
 1980SOL    HW1 6839   4.129   0.480   1.330
 1980SOL    HW2 6840   4.205   0.338   1.302
 1981SOL     OW 6841   4.877   3.180   1.786
 1981SOL    HW1 6842   4.814   3.126   1.843
 1981SOL    HW2 6843   4.894   3.132   1.700
 1982SOL     OW 6844   6.019   0.176   5.171
 1982SOL    HW1 6845   5.933   0.156   5.218
 1982SOL    HW2 6846   6.018   0.136   5.079
 1983SOL     OW 6847   0.616   4.279   2.336
 1983SOL    HW1 6848   0.556   4.299   2.258
 1983SOL    HW2 6849   0.586   4.332   2.415
 1984SOL     OW 6850   4.254   1.209   5.949
 1984SOL    HW1 6851   4.191   1.283   5.972
 1984SOL    HW2 6852   4.202   1.128   5.921
 1985SOL     OW 6853   1.575   0.064   1.269
 1985SOL    HW1 6854   1.584   0.117   1.353
 1985SOL    HW2 6855   1.533   0.121   1.198
 1986SOL     OW 6856   0.999   2.371   6.515
 1986SOL    HW1 6857   1.015   2.276   6.488
 1986SOL    HW2 6858   1.085   2.420   6.519
 1987SOL     OW 6859   2.561   3.684   0.173
 1987SOL    HW1 6860   2.654   3.673   0.138
 1987SOL    HW2 6861   2.563   3.740   0.256
 1988SOL     OW 6862   4.588   3.028   0.296
 1988SOL    HW1 6863   4.599   3.078   0.382
 1988SOL    HW2 6864   4.606   3.089   0.220
 1989SOL     OW 6865   2.640   0.487   4.259
 1989SOL    HW1 6866   2.695   0.551   4.204
 1989SOL    HW2 6867   2.654   0.506   4.356
 1990SOL     OW 6868   2.313   1.495   2.742
 1990SOL    HW1 6869   2.268   1.557   2.678
 1990SOL    HW2 6870   2.381   1.441   2.694
 1991SOL     OW 6871   3.803   5.365   4.341
 1991SOL    HW1 6872   3.782   5.350   4.245
 1991SOL    HW2 6873   3.838   5.281   4.381
 1992SOL     OW 6874   2.488   6.512   5.628
 1992SOL    HW1 6875   2.586   6.532   5.630
 1992SOL    HW2 6876   2.439   6.581   5.681
 1993SOL     OW 6877   3.129   3.438   4.214
 1993SOL    HW1 6878   3.055   3.434   4.148
 1993SOL    HW2 6879   3.142   3.532   4.245
 1994SOL     OW 6880   5.863   2.693   2.224
 1994SOL    HW1 6881   5.953   2.710   2.185
 1994SOL    HW2 6882   5.866   2.608   2.277
 1995SOL     OW 6883   4.855   2.608   0.984
 1995SOL    HW1 6884   4.813   2.569   1.066
 1995SOL    HW2 6885   4.824   2.557   0.904
 1996SOL     OW 6886   2.949   3.943   5.997
 1996SOL    HW1 6887   2.950   3.964   6.095
 1996SOL    HW2 6888   2.948   4.028   5.945
 1997SOL     OW 6889   5.107   0.596   3.967
 1997SOL    HW1 6890   5.081   0.659   3.893
 1997SOL    HW2 6891   5.029   0.584   4.029
 1998SOL     OW 6892   2.896   5.043   4.981
 1998SOL    HW1 6893   2.932   5.068   5.071
 1998SOL    HW2 6894   2.876   4.945   4.979
 1999SOL     OW 6895   2.001   1.217   2.245
 1999SOL    HW1 6896   2.036   1.209   2.339
 1999SOL    HW2 6897   2.052   1.287   2.196
 2000SOL     OW 6898   4.297   2.006   4.627
 2000SOL    HW1 6899   4.368   1.995   4.557
 2000SOL    HW2 6900   4.253   2.095   4.617
 2001SOL     OW 6901   2.486   3.152   0.586
 2001SOL    HW1 6902   2.487   3.188   0.493
 2001SOL    HW2 6903   2.572   3.175   0.632
 2002SOL     OW 6904   2.192   5.015   4.857
 2002SOL    HW1 6905   2.224   5.035   4.950
 2002SOL    HW2 6906   2.174   4.917   4.848
 2003SOL     OW 6907   6.323   4.950   3.207
 2003SOL    HW1 6908   6.289   4.887   3.137
 2003SOL    HW2 6909   6.422   4.945   3.211
 2004SOL     OW 6910   3.249   0.264   6.137
 2004SOL    HW1 6911   3.238   0.344   6.078
 2004SOL    HW2 6912   3.346   0.251   6.158
 2005SOL     OW 6913   2.975   6.675   5.423
 2005SOL    HW1 6914   3.034   6.720   5.357
 2005SOL    HW2 6915   3.020   6.593   5.458
 2006SOL     OW 6916   4.141   5.521   3.574
 2006SOL    HW1 6917   4.241   5.522   3.566
 2006SOL    HW2 6918   4.113   5.571   3.656
 2007SOL     OW 6919   6.082   5.153   0.199
 2007SOL    HW1 6920   6.165   5.210   0.197
 2007SOL    HW2 6921   6.100   5.067   0.150
 2008SOL     OW 6922   0.037   6.554   4.232
 2008SOL    HW1 6923   7.009   6.549   4.318
 2008SOL    HW2 6924   0.094   6.472   4.224
 2009SOL     OW 6925   0.387   0.556   1.048
 2009SOL    HW1 6926   0.339   0.640   1.071
 2009SOL    HW2 6927   0.345   0.479   1.097
 2010SOL     OW 6928   1.274   6.992   0.802
 2010SOL    HW1 6929   1.234   0.012   0.882
 2010SOL    HW2 6930   1.350   0.023   0.768
 2011SOL     OW 6931   6.953   2.939   5.124
 2011SOL    HW1 6932   6.906   2.868   5.071
 2011SOL    HW2 6933   6.977   3.015   5.064
 2012SOL     OW 6934   0.539   3.888   1.171
 2012SOL    HW1 6935   0.630   3.920   1.143
 2012SOL    HW2 6936   0.545   3.851   1.264
 2013SOL     OW 6937   4.612   1.388   2.354
 2013SOL    HW1 6938   4.668   1.379   2.272
 2013SOL    HW2 6939   4.613   1.301   2.404
 2014SOL     OW 6940   2.671   5.439   3.248
 2014SOL    HW1 6941   2.678   5.537   3.231
 2014SOL    HW2 6942   2.574   5.411   3.247
 2015SOL     OW 6943   3.036   6.957   6.898
 2015SOL    HW1 6944   3.062   6.970   6.802
 2015SOL    HW2 6945   3.053   6.862   6.925
 2016SOL     OW 6946   6.618   5.303   3.694
 2016SOL    HW1 6947   6.611   5.205   3.711
 2016SOL    HW2 6948   6.614   5.321   3.596
 2017SOL     OW 6949   2.705   5.806   2.007
 2017SOL    HW1 6950   2.780   5.796   1.941
 2017SOL    HW2 6951   2.654   5.889   1.986
 2018SOL     OW 6952   0.263   4.945   6.163
 2018SOL    HW1 6953   0.170   4.921   6.136
 2018SOL    HW2 6954   0.318   4.861   6.173
 2019SOL     OW 6955   5.570   1.925   2.918
 2019SOL    HW1 6956   5.507   1.933   2.841
 2019SOL    HW2 6957   5.534   1.859   2.984
 2020SOL     OW 6958   2.274   5.664   3.038
 2020SOL    HW1 6959   2.219   5.680   2.956
 2020SOL    HW2 6960   2.335   5.586   3.022
 2021SOL     OW 6961   1.318   0.165   1.456
 2021SOL    HW1 6962   1.222   0.194   1.457
 2021SOL    HW2 6963   1.375   0.240   1.490
 2022SOL     OW 6964   2.540   4.223   1.021
 2022SOL    HW1 6965   2.590   4.277   1.089
 2022SOL    HW2 6966   2.454   4.269   0.999
 2023SOL     OW 6967   6.490   1.427   6.359
 2023SOL    HW1 6968   6.493   1.526   6.352
 2023SOL    HW2 6969   6.583   1.390   6.358
 2024SOL     OW 6970   6.105   0.600   3.437
 2024SOL    HW1 6971   6.037   0.532   3.411
 2024SOL    HW2 6972   6.146   0.640   3.355
 2025SOL     OW 6973   0.157   0.840   0.508
 2025SOL    HW1 6974   0.130   0.936   0.499
 2025SOL    HW2 6975   0.084   0.788   0.552
 2026SOL     OW 6976   1.487   1.466   5.024
 2026SOL    HW1 6977   1.583   1.477   4.995
 2026SOL    HW2 6978   1.456   1.374   5.001
 2027SOL     OW 6979   0.059   1.671   2.318
 2027SOL    HW1 6980   7.013   1.721   2.266
 2027SOL    HW2 6981   0.081   1.722   2.401
 2028SOL     OW 6982   4.280   3.441   6.344
 2028SOL    HW1 6983   4.188   3.418   6.374
 2028SOL    HW2 6984   4.281   3.455   6.245
 2029SOL     OW 6985   1.696   0.576   0.510
 2029SOL    HW1 6986   1.679   0.661   0.459
 2029SOL    HW2 6987   1.751   0.515   0.453
 2030SOL     OW 6988   1.038   1.224   2.992
 2030SOL    HW1 6989   0.949   1.267   2.975
 2030SOL    HW2 6990   1.110   1.283   2.956
 2031SOL     OW 6991   4.830   0.062   2.800
 2031SOL    HW1 6992   4.859   0.051   2.895
 2031SOL    HW2 6993   4.837   0.158   2.774
 2032SOL     OW 6994   5.068   6.806   1.674
 2032SOL    HW1 6995   5.086   6.712   1.646
 2032SOL    HW2 6996   5.012   6.805   1.757
 2033SOL     OW 6997   6.631   4.883   6.750
 2033SOL    HW1 6998   6.617   4.808   6.815
 2033SOL    HW2 6999   6.673   4.848   6.667
 2034SOL     OW 7000   2.209   6.872   2.984
 2034SOL    HW1 7001   2.222   6.970   2.995
 2034SOL    HW2 7002   2.261   6.823   3.053
 2035SOL     OW 7003   1.205   3.274   1.953
 2035SOL    HW1 7004   1.283   3.273   1.891
 2035SOL    HW2 7005   1.233   3.240   2.043
 2036SOL     OW 7006   1.576   4.732   0.506
 2036SOL    HW1 7007   1.619   4.645   0.529
 2036SOL    HW2 7008   1.476   4.719   0.501
 2037SOL     OW 7009   0.078   1.025   6.233
 2037SOL    HW1 7010   0.123   1.053   6.317
 2037SOL    HW2 7011   0.124   0.945   6.195
 2038SOL     OW 7012   0.844   0.384   4.505
 2038SOL    HW1 7013   0.907   0.306   4.508
 2038SOL    HW2 7014   0.865   0.442   4.426
 2039SOL     OW 7015   0.986   5.440   2.055
 2039SOL    HW1 7016   0.964   5.535   2.033
 2039SOL    HW2 7017   1.084   5.432   2.075
 2040SOL     OW 7018   3.625   3.741   4.696
 2040SOL    HW1 7019   3.655   3.779   4.783
 2040SOL    HW2 7020   3.689   3.671   4.666
 2041SOL     OW 7021   6.003   4.212   6.239
 2041SOL    HW1 7022   6.044   4.180   6.324
 2041SOL    HW2 7023   5.907   4.238   6.256
 2042SOL     OW 7024   4.028   5.821   0.078
 2042SOL    HW1 7025   3.963   5.895   0.063
 2042SOL    HW2 7026   3.981   5.733   0.072
 2043SOL     OW 7027   4.720   4.344   2.387
 2043SOL    HW1 7028   4.744   4.269   2.326
 2043SOL    HW2 7029   4.799   4.370   2.443
 2044SOL     OW 7030   5.891   0.943   1.972
 2044SOL    HW1 7031   5.954   0.995   1.913
 2044SOL    HW2 7032   5.904   0.845   1.957
 2045SOL     OW 7033   1.820   5.498   5.975
 2045SOL    HW1 7034   1.730   5.489   5.933
 2045SOL    HW2 7035   1.872   5.414   5.959
 2046SOL     OW 7036   5.783   0.774   4.639
 2046SOL    HW1 7037   5.859   0.839   4.644
 2046SOL    HW2 7038   5.771   0.744   4.545
 2047SOL     OW 7039   5.636   2.517   0.557
 2047SOL    HW1 7040   5.581   2.501   0.639
 2047SOL    HW2 7041   5.697   2.439   0.543
 2048SOL     OW 7042   4.204   0.166   5.591
 2048SOL    HW1 7043   4.245   0.253   5.617
 2048SOL    HW2 7044   4.126   0.147   5.651
 2049SOL     OW 7045   4.911   6.485   0.561
 2049SOL    HW1 7046   4.979   6.509   0.491
 2049SOL    HW2 7047   4.943   6.405   0.612
 2050SOL     OW 7048   5.470   2.372   4.127
 2050SOL    HW1 7049   5.569   2.387   4.138
 2050SOL    HW2 7050   5.451   2.274   4.124
 2051SOL     OW 7051   1.818   5.202   0.301
 2051SOL    HW1 7052   1.738   5.166   0.348
 2051SOL    HW2 7053   1.790   5.248   0.217
 2052SOL     OW 7054   1.286   3.213   0.726
 2052SOL    HW1 7055   1.237   3.171   0.803
 2052SOL    HW2 7056   1.382   3.185   0.729
 2053SOL     OW 7057   5.193   0.289   0.365
 2053SOL    HW1 7058   5.189   0.315   0.269
 2053SOL    HW2 7059   5.195   0.371   0.422
 2054SOL     OW 7060   6.425   3.219   1.240
 2054SOL    HW1 7061   6.432   3.274   1.156
 2054SOL    HW2 7062   6.498   3.151   1.242
 2055SOL     OW 7063   6.466   2.637   3.987
 2055SOL    HW1 7064   6.475   2.601   3.894
 2055SOL    HW2 7065   6.545   2.695   4.008
 2056SOL     OW 7066   1.289   1.070   2.717
 2056SOL    HW1 7067   1.361   1.056   2.786
 2056SOL    HW2 7068   1.331   1.084   2.628
 2057SOL     OW 7069   0.144   2.187   4.027
 2057SOL    HW1 7070   0.202   2.244   4.086
 2057SOL    HW2 7071   0.048   2.205   4.049
 2058SOL     OW 7072   0.101   2.558   1.650
 2058SOL    HW1 7073   0.167   2.548   1.575
 2058SOL    HW2 7074   0.133   2.628   1.713
 2059SOL     OW 7075   1.777   1.607   6.720
 2059SOL    HW1 7076   1.767   1.564   6.630
 2059SOL    HW2 7077   1.840   1.554   6.776
 2060SOL     OW 7078   0.415   5.663   2.469
 2060SOL    HW1 7079   0.405   5.580   2.523
 2060SOL    HW2 7080   0.394   5.743   2.525
 2061SOL     OW 7081   6.788   1.545   1.603
 2061SOL    HW1 7082   6.759   1.537   1.699
 2061SOL    HW2 7083   6.887   1.555   1.599
 2062SOL     OW 7084   4.220   1.114   3.195
 2062SOL    HW1 7085   4.311   1.073   3.207
 2062SOL    HW2 7086   4.151   1.042   3.195
 2063SOL     OW 7087   2.503   2.183   0.343
 2063SOL    HW1 7088   2.427   2.121   0.324
 2063SOL    HW2 7089   2.469   2.277   0.347
 2064SOL     OW 7090   0.466   2.517   0.155
 2064SOL    HW1 7091   0.368   2.504   0.144
 2064SOL    HW2 7092   0.484   2.607   0.195
 2065SOL     OW 7093   6.402   2.596   2.095
 2065SOL    HW1 7094   6.401   2.592   1.995
 2065SOL    HW2 7095   6.477   2.654   2.125
 2066SOL     OW 7096   1.890   6.338   4.013
 2066SOL    HW1 7097   1.951   6.301   4.083
 2066SOL    HW2 7098   1.832   6.264   3.978
 2067SOL     OW 7099   6.863   6.993   1.057
 2067SOL    HW1 7100   6.922   6.936   1.114
 2067SOL    HW2 7101   6.866   6.960   0.962
 2068SOL     OW 7102   1.984   1.311   4.813
 2068SOL    HW1 7103   2.044   1.386   4.841
 2068SOL    HW2 7104   1.912   1.345   4.753
 2069SOL     OW 7105   0.309   1.802   1.910
 2069SOL    HW1 7106   0.222   1.845   1.932
 2069SOL    HW2 7107   0.345   1.839   1.825
 2070SOL     OW 7108   0.367   1.430   2.515
 2070SOL    HW1 7109   0.291   1.422   2.450
 2070SOL    HW2 7110   0.402   1.523   2.514
 2071SOL     OW 7111   1.193   6.452   4.501
 2071SOL    HW1 7112   1.195   6.357   4.470
 2071SOL    HW2 7113   1.250   6.461   4.583
 2072SOL     OW 7114   4.862   5.246   2.211
 2072SOL    HW1 7115   4.955   5.282   2.221
 2072SOL    HW2 7116   4.797   5.309   2.253
 2073SOL     OW 7117   2.884   0.005   5.841
 2073SOL    HW1 7118   2.798   7.009   5.796
 2073SOL    HW2 7119   2.923   6.946   5.880
 2074SOL     OW 7120   5.636   1.621   2.064
 2074SOL    HW1 7121   5.669   1.645   2.155
 2074SOL    HW2 7122   5.586   1.534   2.068
 2075SOL     OW 7123   4.586   3.348   5.920
 2075SOL    HW1 7124   4.574   3.249   5.929
 2075SOL    HW2 7125   4.627   3.383   6.004
 2076SOL     OW 7126   4.867   0.395   0.991
 2076SOL    HW1 7127   4.932   0.332   0.947
 2076SOL    HW2 7128   4.824   0.349   1.069
 2077SOL     OW 7129   5.511   1.290   3.603
 2077SOL    HW1 7130   5.557   1.378   3.617
 2077SOL    HW2 7131   5.572   1.216   3.631
 2078SOL     OW 7132   3.945   5.366   5.352
 2078SOL    HW1 7133   3.870   5.303   5.333
 2078SOL    HW2 7134   3.925   5.456   5.312
 2079SOL     OW 7135   5.763   1.479   4.165
 2079SOL    HW1 7136   5.847   1.532   4.158
 2079SOL    HW2 7137   5.733   1.475   4.261
 2080SOL     OW 7138   3.061   2.192   4.597
 2080SOL    HW1 7139   3.105   2.111   4.634
 2080SOL    HW2 7140   3.107   2.274   4.631
 2081SOL     OW 7141   0.440   6.450   5.242
 2081SOL    HW1 7142   0.381   6.422   5.317
 2081SOL    HW2 7143   0.394   6.519   5.187
 2082SOL     OW 7144   5.034   0.279   1.234
 2082SOL    HW1 7145   4.942   0.252   1.208
 2082SOL    HW2 7146   5.033   0.372   1.271
 2083SOL     OW 7147   3.647   5.407   5.464
 2083SOL    HW1 7148   3.581   5.334   5.477
 2083SOL    HW2 7149   3.600   5.491   5.438
 2084SOL     OW 7150   0.034   3.169   3.495
 2084SOL    HW1 7151   0.052   3.083   3.447
 2084SOL    HW2 7152   0.118   3.201   3.538
 2085SOL     OW 7153   5.767   6.743   6.544
 2085SOL    HW1 7154   5.753   6.699   6.632
 2085SOL    HW2 7155   5.752   6.841   6.552
 2086SOL     OW 7156   2.765   5.107   0.495
 2086SOL    HW1 7157   2.743   5.181   0.431
 2086SOL    HW2 7158   2.686   5.090   0.555
 2087SOL     OW 7159   5.393   6.627   3.577
 2087SOL    HW1 7160   5.357   6.610   3.669
 2087SOL    HW2 7161   5.468   6.563   3.558
 2088SOL     OW 7162   2.993   6.872   0.637
 2088SOL    HW1 7163   3.088   6.848   0.654
 2088SOL    HW2 7164   2.988   6.933   0.558
 2089SOL     OW 7165   3.082   6.956   6.616
 2089SOL    HW1 7166   3.118   0.015   6.574
 2089SOL    HW2 7167   2.999   6.928   6.569
 2090SOL     OW 7168   3.311   3.632   3.984
 2090SOL    HW1 7169   3.280   3.543   3.952
 2090SOL    HW2 7170   3.263   3.657   4.068
 2091SOL     OW 7171   2.178   5.084   0.509
 2091SOL    HW1 7172   2.239   5.005   0.520
 2091SOL    HW2 7173   2.125   5.073   0.425
 2092SOL     OW 7174   6.304   5.934   1.106
 2092SOL    HW1 7175   6.255   5.982   1.033
 2092SOL    HW2 7176   6.401   5.957   1.101
 2093SOL     OW 7177   1.170   2.220   1.332
 2093SOL    HW1 7178   1.151   2.123   1.341
 2093SOL    HW2 7179   1.228   2.237   1.253
 2094SOL     OW 7180   5.799   0.336   2.259
 2094SOL    HW1 7181   5.855   0.338   2.342
 2094SOL    HW2 7182   5.855   0.307   2.182
 2095SOL     OW 7183   6.908   4.760   4.754
 2095SOL    HW1 7184   6.901   4.860   4.759
 2095SOL    HW2 7185   6.816   4.721   4.748
 2096SOL     OW 7186   4.794   3.923   3.282
 2096SOL    HW1 7187   4.778   3.939   3.184
 2096SOL    HW2 7188   4.857   3.846   3.292
 2097SOL     OW 7189   6.919   2.582   0.004
 2097SOL    HW1 7190   6.928   2.490   0.042
 2097SOL    HW2 7191   6.973   2.646   0.059
 2098SOL     OW 7192   4.436   0.662   4.497
 2098SOL    HW1 7193   4.474   0.739   4.548
 2098SOL    HW2 7194   4.503   0.629   4.431
 2099SOL     OW 7195   3.203   1.537   4.005
 2099SOL    HW1 7196   3.114   1.544   4.051
 2099SOL    HW2 7197   3.199   1.465   3.936
 2100SOL     OW 7198   3.844   4.156   0.116
 2100SOL    HW1 7199   3.928   4.180   0.164
 2100SOL    HW2 7200   3.828   4.222   0.042
 2101SOL     OW 7201   0.334   0.359   3.252
 2101SOL    HW1 7202   0.369   0.435   3.197
 2101SOL    HW2 7203   0.239   0.376   3.277
 2102SOL     OW 7204   7.009   4.989   2.361
 2102SOL    HW1 7205   0.022   4.896   2.359
 2102SOL    HW2 7206   6.958   5.006   2.277
 2103SOL     OW 7207   2.864   3.980   6.514
 2103SOL    HW1 7208   2.860   3.968   6.613
 2103SOL    HW2 7209   2.773   3.964   6.475
 2104SOL     OW 7210   1.198   3.954   5.031
 2104SOL    HW1 7211   1.210   4.017   5.107
 2104SOL    HW2 7212   1.196   4.006   4.945
 2105SOL     OW 7213   6.063   5.601   1.536
 2105SOL    HW1 7214   6.131   5.652   1.483
 2105SOL    HW2 7215   6.077   5.616   1.633
 2106SOL     OW 7216   5.198   5.620   6.801
 2106SOL    HW1 7217   5.204   5.520   6.801
 2106SOL    HW2 7218   5.288   5.659   6.784
 2107SOL     OW 7219   3.804   4.255   6.865
 2107SOL    HW1 7220   3.737   4.249   6.791
 2107SOL    HW2 7221   3.845   4.346   6.866
 2108SOL     OW 7222   4.969   4.717   5.959
 2108SOL    HW1 7223   4.916   4.802   5.952
 2108SOL    HW2 7224   5.028   4.709   5.879
 2109SOL     OW 7225   5.815   0.332   3.026
 2109SOL    HW1 7226   5.865   0.416   3.048
 2109SOL    HW2 7227   5.878   0.266   2.984
 2110SOL     OW 7228   2.796   5.094   5.812
 2110SOL    HW1 7229   2.792   5.104   5.911
 2110SOL    HW2 7230   2.812   4.998   5.788
 2111SOL     OW 7231   1.645   2.652   0.327
 2111SOL    HW1 7232   1.730   2.702   0.344
 2111SOL    HW2 7233   1.568   2.704   0.363
 2112SOL     OW 7234   4.979   3.233   1.220
 2112SOL    HW1 7235   4.961   3.255   1.124
 2112SOL    HW2 7236   4.987   3.134   1.230
 2113SOL     OW 7237   6.742   1.191   3.165
 2113SOL    HW1 7238   6.770   1.107   3.213
 2113SOL    HW2 7239   6.806   1.210   3.091
 2114SOL     OW 7240   1.540   4.308   6.988
 2114SOL    HW1 7241   1.558   4.302   0.062
 2114SOL    HW2 7242   1.559   4.400   6.956
 2115SOL     OW 7243   2.758   4.705   2.440
 2115SOL    HW1 7244   2.805   4.722   2.527
 2115SOL    HW2 7245   2.700   4.783   2.418
 2116SOL     OW 7246   0.079   4.037   3.360
 2116SOL    HW1 7247   0.096   3.941   3.340
 2116SOL    HW2 7248   0.072   4.050   3.459
 2117SOL     OW 7249   6.919   4.732   1.097
 2117SOL    HW1 7250   6.844   4.712   1.034
 2117SOL    HW2 7251   6.887   4.726   1.191
 2118SOL     OW 7252   6.789   3.581   2.202
 2118SOL    HW1 7253   6.870   3.630   2.235
 2118SOL    HW2 7254   6.764   3.510   2.268
 2119SOL     OW 7255   2.691   5.924   1.236
 2119SOL    HW1 7256   2.697   6.024   1.232
 2119SOL    HW2 7257   2.621   5.897   1.302
 2120SOL     OW 7258   6.912   5.348   2.233
 2120SOL    HW1 7259   7.002   5.321   2.267
 2120SOL    HW2 7260   6.904   5.325   2.137
 2121SOL     OW 7261   0.649   4.763   4.749
 2121SOL    HW1 7262   0.612   4.713   4.671
 2121SOL    HW2 7263   0.680   4.853   4.719
 2122SOL     OW 7264   4.735   4.431   5.330
 2122SOL    HW1 7265   4.666   4.499   5.354
 2122SOL    HW2 7266   4.693   4.340   5.328
 2123SOL     OW 7267   6.061   4.806   3.064
 2123SOL    HW1 7268   6.084   4.709   3.055
 2123SOL    HW2 7269   5.962   4.818   3.058
 2124SOL     OW 7270   2.666   1.579   0.792
 2124SOL    HW1 7271   2.630   1.637   0.865
 2124SOL    HW2 7272   2.609   1.497   0.784
 2125SOL     OW 7273   3.162   6.716   1.124
 2125SOL    HW1 7274   3.127   6.638   1.073
 2125SOL    HW2 7275   3.104   6.796   1.106
 2126SOL     OW 7276   2.847   1.110   1.321
 2126SOL    HW1 7277   2.943   1.103   1.346
 2126SOL    HW2 7278   2.795   1.148   1.398
 2127SOL     OW 7279   5.098   3.258   5.674
 2127SOL    HW1 7280   5.092   3.313   5.591
 2127SOL    HW2 7281   5.017   3.199   5.681
 2128SOL     OW 7282   0.269   5.198   4.220
 2128SOL    HW1 7283   0.325   5.149   4.153
 2128SOL    HW2 7284   0.172   5.180   4.201
 2129SOL     OW 7285   3.811   1.627   6.003
 2129SOL    HW1 7286   3.775   1.656   6.091
 2129SOL    HW2 7287   3.761   1.673   5.929
 2130SOL     OW 7288   3.970   6.360   3.544
 2130SOL    HW1 7289   3.998   6.448   3.583
 2130SOL    HW2 7290   3.871   6.360   3.531
 2131SOL     OW 7291   6.181   2.386   6.982
 2131SOL    HW1 7292   6.093   2.360   7.023
 2131SOL    HW2 7293   6.234   2.304   6.962
 2132SOL     OW 7294   2.163   2.848   0.612
 2132SOL    HW1 7295   2.263   2.841   0.614
 2132SOL    HW2 7296   2.132   2.903   0.689
 2133SOL     OW 7297   2.925   3.309   5.873
 2133SOL    HW1 7298   3.004   3.370   5.861
 2133SOL    HW2 7299   2.844   3.363   5.895
 2134SOL     OW 7300   1.205   6.995   1.262
 2134SOL    HW1 7301   1.210   0.026   1.179
 2134SOL    HW2 7302   1.230   0.027   1.341
 2135SOL     OW 7303   0.286   3.851   4.292
 2135SOL    HW1 7304   0.340   3.864   4.375
 2135SOL    HW2 7305   0.229   3.770   4.301
 2136SOL     OW 7306   1.920   4.999   1.467
 2136SOL    HW1 7307   1.855   4.924   1.455
 2136SOL    HW2 7308   2.009   4.962   1.494
 2137SOL     OW 7309   2.151   5.692   4.113
 2137SOL    HW1 7310   2.098   5.764   4.069
 2137SOL    HW2 7311   2.179   5.722   4.204
 2138SOL     OW 7312   4.927   1.675   1.746
 2138SOL    HW1 7313   4.889   1.750   1.800
 2138SOL    HW2 7314   4.869   1.659   1.665
 2139SOL     OW 7315   2.634   1.028   5.322
 2139SOL    HW1 7316   2.565   1.033   5.249
 2139SOL    HW2 7317   2.661   0.932   5.334
 2140SOL     OW 7318   2.073   0.809   4.777
 2140SOL    HW1 7319   2.145   0.785   4.711
 2140SOL    HW2 7320   2.115   0.835   4.864
 2141SOL     OW 7321   6.444   3.935   2.785
 2141SOL    HW1 7322   6.511   3.922   2.858
 2141SOL    HW2 7323   6.490   3.971   2.703
 2142SOL     OW 7324   1.551   2.121   3.060
 2142SOL    HW1 7325   1.580   2.196   3.001
 2142SOL    HW2 7326   1.496   2.056   3.007
 2143SOL     OW 7327   1.377   4.656   0.075
 2143SOL    HW1 7328   1.451   4.659   0.143
 2143SOL    HW2 7329   1.326   4.742   0.076
 2144SOL     OW 7330   5.818   4.997   3.988
 2144SOL    HW1 7331   5.846   5.017   3.894
 2144SOL    HW2 7332   5.864   4.913   4.019
 2145SOL     OW 7333   4.175   0.125   3.480
 2145SOL    HW1 7334   4.097   0.122   3.417
 2145SOL    HW2 7335   4.171   0.209   3.534
 2146SOL     OW 7336   2.158   2.728   0.197
 2146SOL    HW1 7337   2.248   2.722   0.154
 2146SOL    HW2 7338   2.161   2.685   0.287
 2147SOL     OW 7339   5.505   0.853   4.397
 2147SOL    HW1 7340   5.509   0.780   4.466
 2147SOL    HW2 7341   5.597   0.881   4.372
 2148SOL     OW 7342   0.306   3.538   6.477
 2148SOL    HW1 7343   0.222   3.492   6.449
 2148SOL    HW2 7344   0.337   3.500   6.564
 2149SOL     OW 7345   0.644   0.468   0.265
 2149SOL    HW1 7346   0.724   0.488   0.209
 2149SOL    HW2 7347   0.594   0.391   0.225
 2150SOL     OW 7348   2.313   3.070   1.331
 2150SOL    HW1 7349   2.386   3.023   1.281
 2150SOL    HW2 7350   2.330   3.168   1.329
 2151SOL     OW 7351   1.494   5.881   0.345
 2151SOL    HW1 7352   1.430   5.872   0.268
 2151SOL    HW2 7353   1.499   5.977   0.372
 2152SOL     OW 7354   4.759   5.628   4.449
 2152SOL    HW1 7355   4.792   5.605   4.358
 2152SOL    HW2 7356   4.833   5.620   4.515
 2153SOL     OW 7357   4.630   1.624   3.514
 2153SOL    HW1 7358   4.677   1.536   3.519
 2153SOL    HW2 7359   4.581   1.632   3.428
 2154SOL     OW 7360   3.102   0.123   3.600
 2154SOL    HW1 7361   3.156   0.057   3.652
 2154SOL    HW2 7362   3.163   0.188   3.555
 2155SOL     OW 7363   4.524   0.271   0.777
 2155SOL    HW1 7364   4.537   0.250   0.874
 2155SOL    HW2 7365   4.548   0.367   0.760
 2156SOL     OW 7366   5.463   1.440   4.996
 2156SOL    HW1 7367   5.435   1.524   5.042
 2156SOL    HW2 7368   5.551   1.453   4.951
 2157SOL     OW 7369   3.039   6.043   3.889
 2157SOL    HW1 7370   3.103   6.076   3.959
 2157SOL    HW2 7371   3.089   5.987   3.822
 2158SOL     OW 7372   3.714   0.524   0.170
 2158SOL    HW1 7373   3.663   0.439   0.181
 2158SOL    HW2 7374   3.808   0.504   0.145
 2159SOL     OW 7375   0.733   0.952   5.679
 2159SOL    HW1 7376   0.708   0.942   5.583
 2159SOL    HW2 7377   0.768   1.044   5.696
 2160SOL     OW 7378   6.038   6.793   0.268
 2160SOL    HW1 7379   6.013   6.763   0.360
 2160SOL    HW2 7380   6.124   6.843   0.272
 2161SOL     OW 7381   1.310   2.719   1.722
 2161SOL    HW1 7382   1.313   2.643   1.786
 2161SOL    HW2 7383   1.372   2.791   1.752
 2162SOL     OW 7384   0.881   6.866   1.837
 2162SOL    HW1 7385   0.955   6.814   1.879
 2162SOL    HW2 7386   0.841   6.812   1.763
 2163SOL     OW 7387   2.161   3.145   2.671
 2163SOL    HW1 7388   2.232   3.075   2.674
 2163SOL    HW2 7389   2.079   3.108   2.628
 2164SOL     OW 7390   2.091   2.636   2.849
 2164SOL    HW1 7391   2.130   2.554   2.808
 2164SOL    HW2 7392   2.164   2.690   2.891
 2165SOL     OW 7393   6.883   1.782   3.678
 2165SOL    HW1 7394   6.833   1.826   3.603
 2165SOL    HW2 7395   6.902   1.687   3.654
 2166SOL     OW 7396   6.902   4.258   2.756
 2166SOL    HW1 7397   6.999   4.253   2.730
 2166SOL    HW2 7398   6.894   4.248   2.855
 2167SOL     OW 7399   2.574   2.022   3.302
 2167SOL    HW1 7400   2.580   2.046   3.398
 2167SOL    HW2 7401   2.508   2.082   3.257
 2168SOL     OW 7402   1.554   2.238   3.299
 2168SOL    HW1 7403   1.560   2.199   3.207
 2168SOL    HW2 7404   1.611   2.320   3.304
 2169SOL     OW 7405   0.634   6.836   1.316
 2169SOL    HW1 7406   0.673   6.748   1.289
 2169SOL    HW2 7407   0.701   6.908   1.302
 2170SOL     OW 7408   0.708   3.899   5.579
 2170SOL    HW1 7409   0.690   3.996   5.595
 2170SOL    HW2 7410   0.721   3.883   5.481
 2171SOL     OW 7411   0.382   5.392   1.715
 2171SOL    HW1 7412   0.345   5.364   1.804
 2171SOL    HW2 7413   0.370   5.490   1.704
 2172SOL     OW 7414   1.473   1.176   4.989
 2172SOL    HW1 7415   1.425   1.161   4.903
 2172SOL    HW2 7416   1.566   1.141   4.983
 2173SOL     OW 7417   6.268   0.468   5.248
 2173SOL    HW1 7418   6.170   0.455   5.241
 2173SOL    HW2 7419   6.289   0.565   5.254
 2174SOL     OW 7420   6.188   6.925   5.948
 2174SOL    HW1 7421   6.233   6.892   6.031
 2174SOL    HW2 7422   6.141   6.849   5.904
 2175SOL     OW 7423   2.583   3.841   5.311
 2175SOL    HW1 7424   2.510   3.891   5.265
 2175SOL    HW2 7425   2.586   3.867   5.408
 2176SOL     OW 7426   5.792   2.406   1.747
 2176SOL    HW1 7427   5.874   2.413   1.690
 2176SOL    HW2 7428   5.742   2.323   1.722
 2177SOL     OW 7429   0.232   0.445   4.267
 2177SOL    HW1 7430   0.217   0.381   4.192
 2177SOL    HW2 7431   0.224   0.539   4.233
 2178SOL     OW 7432   0.329   2.067   2.532
 2178SOL    HW1 7433   0.423   2.084   2.504
 2178SOL    HW2 7434   0.326   1.991   2.596
 2179SOL     OW 7435   1.161   4.110   6.174
 2179SOL    HW1 7436   1.158   4.076   6.080
 2179SOL    HW2 7437   1.087   4.177   6.187
 2180SOL     OW 7438   0.956   6.347   2.559
 2180SOL    HW1 7439   0.996   6.435   2.532
 2180SOL    HW2 7440   0.907   6.357   2.646
 2181SOL     OW 7441   3.502   4.976   4.485
 2181SOL    HW1 7442   3.450   4.906   4.436
 2181SOL    HW2 7443   3.516   5.055   4.426
 2182SOL     OW 7444   0.458   6.146   2.562
 2182SOL    HW1 7445   0.483   6.230   2.514
 2182SOL    HW2 7446   0.360   6.130   2.552
 2183SOL     OW 7447   3.154   2.775   6.460
 2183SOL    HW1 7448   3.085   2.716   6.419
 2183SOL    HW2 7449   3.242   2.760   6.415
 2184SOL     OW 7450   6.424   1.575   6.910
 2184SOL    HW1 7451   6.445   1.654   6.968
 2184SOL    HW2 7452   6.414   1.604   6.815
 2185SOL     OW 7453   0.942   0.012   6.621
 2185SOL    HW1 7454   1.012   0.080   6.643
 2185SOL    HW2 7455   0.928   0.010   6.522
 2186SOL     OW 7456   0.152   4.829   5.793
 2186SOL    HW1 7457   0.196   4.739   5.802
 2186SOL    HW2 7458   0.220   4.901   5.804
 2187SOL     OW 7459   0.495   5.842   2.883
 2187SOL    HW1 7460   0.503   5.745   2.905
 2187SOL    HW2 7461   0.586   5.883   2.882
 2188SOL     OW 7462   2.347   0.331   0.852
 2188SOL    HW1 7463   2.434   0.344   0.805
 2188SOL    HW2 7464   2.321   0.235   0.849
 2189SOL     OW 7465   2.095   1.400   1.719
 2189SOL    HW1 7466   2.041   1.420   1.801
 2189SOL    HW2 7467   2.042   1.425   1.638
 2190SOL     OW 7468   6.621   3.779   2.116
 2190SOL    HW1 7469   6.594   3.763   2.021
 2190SOL    HW2 7470   6.681   3.705   2.146
 2191SOL     OW 7471   2.861   0.262   0.196
 2191SOL    HW1 7472   2.788   0.315   0.240
 2191SOL    HW2 7473   2.822   0.208   0.121
 2192SOL     OW 7474   4.733   1.524   1.092
 2192SOL    HW1 7475   4.669   1.570   1.031
 2192SOL    HW2 7476   4.769   1.442   1.047
 2193SOL     OW 7477   1.778   6.743   6.227
 2193SOL    HW1 7478   1.778   6.676   6.301
 2193SOL    HW2 7479   1.871   6.753   6.192
 2194SOL     OW 7480   1.135   3.965   5.937
 2194SOL    HW1 7481   1.155   3.892   6.001
 2194SOL    HW2 7482   1.061   3.937   5.876
 2195SOL     OW 7483   0.361   3.560   5.631
 2195SOL    HW1 7484   0.344   3.573   5.534
 2195SOL    HW2 7485   0.427   3.629   5.662
 2196SOL     OW 7486   2.791   0.357   6.027
 2196SOL    HW1 7487   2.701   0.390   5.995
 2196SOL    HW2 7488   2.830   0.424   6.090
 2197SOL     OW 7489   3.236   5.126   5.657
 2197SOL    HW1 7490   3.185   5.043   5.636
 2197SOL    HW2 7491   3.173   5.203   5.662
 2198SOL     OW 7492   0.526   0.463   6.864
 2198SOL    HW1 7493   0.554   0.430   6.954
 2198SOL    HW2 7494   0.476   0.391   6.816
 2199SOL     OW 7495   3.855   6.638   4.879
 2199SOL    HW1 7496   3.899   6.562   4.926
 2199SOL    HW2 7497   3.918   6.715   4.874
 2200SOL     OW 7498   2.616   2.028   4.016
 2200SOL    HW1 7499   2.606   1.929   4.005
 2200SOL    HW2 7500   2.691   2.046   4.081
 2201SOL     OW 7501   6.464   4.176   4.194
 2201SOL    HW1 7502   6.468   4.128   4.281
 2201SOL    HW2 7503   6.536   4.246   4.191
 2202SOL     OW 7504   3.589   6.274   2.178
 2202SOL    HW1 7505   3.610   6.346   2.112
 2202SOL    HW2 7506   3.500   6.292   2.220
 2203SOL     OW 7507   1.773   3.524   0.743
 2203SOL    HW1 7508   1.783   3.428   0.717
 2203SOL    HW2 7509   1.852   3.552   0.798
 2204SOL     OW 7510   5.483   3.700   1.249
 2204SOL    HW1 7511   5.408   3.712   1.314
 2204SOL    HW2 7512   5.446   3.695   1.156
 2205SOL     OW 7513   0.600   5.041   0.467
 2205SOL    HW1 7514   0.700   5.037   0.470
 2205SOL    HW2 7515   0.568   5.111   0.531
 2206SOL     OW 7516   3.053   1.896   5.877
 2206SOL    HW1 7517   3.103   1.975   5.842
 2206SOL    HW2 7518   2.962   1.925   5.906
 2207SOL     OW 7519   4.964   6.376   1.252
 2207SOL    HW1 7520   4.988   6.363   1.348
 2207SOL    HW2 7521   4.868   6.352   1.238
 2208SOL     OW 7522   6.833   6.141   3.617
 2208SOL    HW1 7523   6.747   6.118   3.572
 2208SOL    HW2 7524   6.890   6.195   3.555
 2209SOL     OW 7525   2.909   5.597   4.099
 2209SOL    HW1 7526   2.876   5.658   4.171
 2209SOL    HW2 7527   2.839   5.587   4.028
 2210SOL     OW 7528   4.655   0.088   0.614
 2210SOL    HW1 7529   4.603   0.156   0.665
 2210SOL    HW2 7530   4.743   0.072   0.659
 2211SOL     OW 7531   0.085   1.781   1.055
 2211SOL    HW1 7532   0.108   1.844   1.130
 2211SOL    HW2 7533   0.145   1.702   1.058
 2212SOL     OW 7534   2.609   6.109   6.764
 2212SOL    HW1 7535   2.550   6.190   6.763
 2212SOL    HW2 7536   2.560   6.033   6.808
 2213SOL     OW 7537   3.598   1.698   4.664
 2213SOL    HW1 7538   3.672   1.765   4.655
 2213SOL    HW2 7539   3.535   1.728   4.735
 2214SOL     OW 7540   4.467   3.654   6.791
 2214SOL    HW1 7541   4.552   3.701   6.810
 2214SOL    HW2 7542   4.486   3.562   6.757
 2215SOL     OW 7543   4.361   7.002   6.815
 2215SOL    HW1 7544   4.288   6.936   6.832
 2215SOL    HW2 7545   4.405   6.981   6.728
 2216SOL     OW 7546   0.647   6.834   6.396
 2216SOL    HW1 7547   0.583   6.805   6.467
 2216SOL    HW2 7548   0.739   6.841   6.435
 2217SOL     OW 7549   3.814   0.491   3.673
 2217SOL    HW1 7550   3.722   0.501   3.711
 2217SOL    HW2 7551   3.882   0.509   3.745
 2218SOL     OW 7552   0.765   5.933   5.748
 2218SOL    HW1 7553   0.819   5.996   5.805
 2218SOL    HW2 7554   0.788   5.946   5.652
 2219SOL     OW 7555   5.875   1.163   0.536
 2219SOL    HW1 7556   5.777   1.172   0.521
 2219SOL    HW2 7557   5.912   1.094   0.474
 2220SOL     OW 7558   0.912   5.980   5.371
 2220SOL    HW1 7559   0.938   5.980   5.275
 2220SOL    HW2 7560   0.962   5.909   5.420
 2221SOL     OW 7561   6.573   1.353   3.979
 2221SOL    HW1 7562   6.513   1.428   3.952
 2221SOL    HW2 7563   6.633   1.330   3.903
 2222SOL     OW 7564   4.899   6.611   2.027
 2222SOL    HW1 7565   4.960   6.669   2.081
 2222SOL    HW2 7566   4.825   6.666   1.988
 2223SOL     OW 7567   0.087   6.053   5.556
 2223SOL    HW1 7568   0.089   6.146   5.520
 2223SOL    HW2 7569   0.181   6.023   5.574
 2224SOL     OW 7570   5.612   4.154   0.662
 2224SOL    HW1 7571   5.526   4.110   0.689
 2224SOL    HW2 7572   5.688   4.108   0.707
 2225SOL     OW 7573   0.308   6.808   2.878
 2225SOL    HW1 7574   0.356   6.890   2.910
 2225SOL    HW2 7575   0.266   6.760   2.955
 2226SOL     OW 7576   2.068   5.452   0.705
 2226SOL    HW1 7577   2.114   5.485   0.623
 2226SOL    HW2 7578   2.132   5.397   0.760
 2227SOL     OW 7579   3.722   1.977   1.823
 2227SOL    HW1 7580   3.645   1.980   1.759
 2227SOL    HW2 7581   3.701   2.035   1.902
 2228SOL     OW 7582   5.684   5.185   6.767
 2228SOL    HW1 7583   5.730   5.266   6.731
 2228SOL    HW2 7584   5.750   5.129   6.818
 2229SOL     OW 7585   3.663   3.256   3.828
 2229SOL    HW1 7586   3.579   3.310   3.831
 2229SOL    HW2 7587   3.730   3.301   3.770
 2230SOL     OW 7588   5.682   0.126   0.575
 2230SOL    HW1 7589   5.759   0.133   0.513
 2230SOL    HW2 7590   5.651   0.031   0.580
 2231SOL     OW 7591   1.425   0.292   6.949
 2231SOL    HW1 7592   1.448   0.390   6.947
 2231SOL    HW2 7593   1.474   0.246   6.874
 2232SOL     OW 7594   1.079   0.519   5.505
 2232SOL    HW1 7595   1.134   0.543   5.425
 2232SOL    HW2 7596   1.121   0.557   5.587
 2233SOL     OW 7597   2.859   4.073   0.763
 2233SOL    HW1 7598   2.915   4.112   0.837
 2233SOL    HW2 7599   2.786   4.137   0.739
 2234SOL     OW 7600   4.820   1.494   1.352
 2234SOL    HW1 7601   4.782   1.498   1.260
 2234SOL    HW2 7602   4.889   1.566   1.363
 2235SOL     OW 7603   1.417   1.605   3.118
 2235SOL    HW1 7604   1.472   1.662   3.056
 2235SOL    HW2 7605   1.366   1.664   3.181
 2236SOL     OW 7606   1.989   4.168   5.524
 2236SOL    HW1 7607   2.037   4.253   5.504
 2236SOL    HW2 7608   1.944   4.135   5.441
 2237SOL     OW 7609   6.751   5.559   5.650
 2237SOL    HW1 7610   6.675   5.498   5.673
 2237SOL    HW2 7611   6.795   5.592   5.733
 2238SOL     OW 7612   5.426   4.187   2.228
 2238SOL    HW1 7613   5.525   4.178   2.216
 2238SOL    HW2 7614   5.404   4.283   2.249
 2239SOL     OW 7615   3.939   6.861   3.196
 2239SOL    HW1 7616   3.914   6.862   3.293
 2239SOL    HW2 7617   3.893   6.784   3.151
 2240SOL     OW 7618   5.074   5.209   3.089
 2240SOL    HW1 7619   5.115   5.118   3.092
 2240SOL    HW2 7620   4.991   5.210   3.146
 2241SOL     OW 7621   0.498   0.646   1.693
 2241SOL    HW1 7622   0.497   0.724   1.756
 2241SOL    HW2 7623   0.517   0.678   1.600
 2242SOL     OW 7624   4.806   3.033   3.354
 2242SOL    HW1 7625   4.745   3.016   3.277
 2242SOL    HW2 7626   4.853   3.120   3.341
 2243SOL     OW 7627   1.509   5.980   0.917
 2243SOL    HW1 7628   1.532   5.887   0.889
 2243SOL    HW2 7629   1.533   5.994   1.013
 2244SOL     OW 7630   2.896   0.511   0.424
 2244SOL    HW1 7631   2.801   0.485   0.442
 2244SOL    HW2 7632   2.900   0.566   0.340
 2245SOL     OW 7633   0.582   0.095   6.905
 2245SOL    HW1 7634   0.642   0.041   6.847
 2245SOL    HW2 7635   0.496   0.114   6.857
 2246SOL     OW 7636   2.223   0.916   4.984
 2246SOL    HW1 7637   2.301   0.952   4.932
 2246SOL    HW2 7638   2.147   0.980   4.977
 2247SOL     OW 7639   3.147   3.996   2.762
 2247SOL    HW1 7640   3.146   4.016   2.859
 2247SOL    HW2 7641   3.065   3.945   2.737
 2248SOL     OW 7642   5.008   4.091   5.079
 2248SOL    HW1 7643   5.000   4.143   4.993
 2248SOL    HW2 7644   5.016   3.994   5.058
 2249SOL     OW 7645   1.870   6.475   3.565
 2249SOL    HW1 7646   1.824   6.563   3.552
 2249SOL    HW2 7647   1.957   6.489   3.613
 2250SOL     OW 7648   4.342   4.631   6.589
 2250SOL    HW1 7649   4.374   4.703   6.528
 2250SOL    HW2 7650   4.389   4.545   6.568
 2251SOL     OW 7651   5.640   6.893   5.530
 2251SOL    HW1 7652   5.583   6.975   5.539
 2251SOL    HW2 7653   5.684   6.874   5.617
 2252SOL     OW 7654   4.509   1.617   2.868
 2252SOL    HW1 7655   4.440   1.659   2.927
 2252SOL    HW2 7656   4.485   1.633   2.772
 2253SOL     OW 7657   0.301   3.533   0.921
 2253SOL    HW1 7658   0.254   3.485   0.995
 2253SOL    HW2 7659   0.296   3.632   0.937
 2254SOL     OW 7660   3.695   3.515   2.800
 2254SOL    HW1 7661   3.777   3.526   2.744
 2254SOL    HW2 7662   3.619   3.565   2.758
 2255SOL     OW 7663   3.309   3.685   6.092
 2255SOL    HW1 7664   3.231   3.710   6.035
 2255SOL    HW2 7665   3.310   3.744   6.174
 2256SOL     OW 7666   4.657   6.868   2.204
 2256SOL    HW1 7667   4.662   6.789   2.265
 2256SOL    HW2 7668   4.716   6.941   2.239
 2257SOL     OW 7669   0.641   1.135   4.792
 2257SOL    HW1 7670   0.661   1.038   4.803
 2257SOL    HW2 7671   0.656   1.183   4.879
 2258SOL     OW 7672   2.760   6.079   3.931
 2258SOL    HW1 7673   2.764   6.145   3.856
 2258SOL    HW2 7674   2.853   6.051   3.955
 2259SOL     OW 7675   6.109   2.285   4.494
 2259SOL    HW1 7676   6.192   2.255   4.447
 2259SOL    HW2 7677   6.044   2.321   4.426
 2260SOL     OW 7678   1.313   3.780   1.500
 2260SOL    HW1 7679   1.336   3.688   1.468
 2260SOL    HW2 7680   1.383   3.811   1.564
 2261SOL     OW 7681   5.737   3.853   6.411
 2261SOL    HW1 7682   5.679   3.804   6.346
 2261SOL    HW2 7683   5.694   3.852   6.501
 2262SOL     OW 7684   6.412   0.312   4.468
 2262SOL    HW1 7685   6.480   0.251   4.510
 2262SOL    HW2 7686   6.336   0.257   4.433
 2263SOL     OW 7687   1.290   4.887   6.580
 2263SOL    HW1 7688   1.316   4.821   6.651
 2263SOL    HW2 7689   1.262   4.973   6.623
 2264SOL     OW 7690   2.185   0.165   5.523
 2264SOL    HW1 7691   2.100   0.135   5.566
 2264SOL    HW2 7692   2.250   0.194   5.593
 2265SOL     OW 7693   0.577   6.195   4.392
 2265SOL    HW1 7694   0.567   6.109   4.344
 2265SOL    HW2 7695   0.519   6.194   4.474
 2266SOL     OW 7696   4.587   1.824   6.759
 2266SOL    HW1 7697   4.530   1.744   6.776
 2266SOL    HW2 7698   4.639   1.810   6.674
 2267SOL     OW 7699   4.816   3.014   4.430
 2267SOL    HW1 7700   4.786   3.027   4.336
 2267SOL    HW2 7701   4.824   2.916   4.449
 2268SOL     OW 7702   0.315   5.064   5.914
 2268SOL    HW1 7703   0.271   5.153   5.920
 2268SOL    HW2 7704   0.310   5.017   6.002
 2269SOL     OW 7705   2.061   2.645   5.194
 2269SOL    HW1 7706   2.012   2.696   5.265
 2269SOL    HW2 7707   2.150   2.688   5.178
 2270SOL     OW 7708   4.791   1.606   6.152
 2270SOL    HW1 7709   4.885   1.615   6.187
 2270SOL    HW2 7710   4.795   1.592   6.053
 2271SOL     OW 7711   5.286   4.864   5.969
 2271SOL    HW1 7712   5.241   4.856   6.058
 2271SOL    HW2 7713   5.236   4.808   5.902
 2272SOL     OW 7714   5.905   1.075   5.946
 2272SOL    HW1 7715   5.845   1.155   5.942
 2272SOL    HW2 7716   5.897   1.024   5.861
 2273SOL     OW 7717   1.798   2.843   2.182
 2273SOL    HW1 7718   1.724   2.809   2.123
 2273SOL    HW2 7719   1.837   2.926   2.142
 2274SOL     OW 7720   0.487   1.087   6.473
 2274SOL    HW1 7721   0.576   1.051   6.446
 2274SOL    HW2 7722   0.481   1.087   6.573
 2275SOL     OW 7723   5.880   4.736   2.440
 2275SOL    HW1 7724   5.949   4.715   2.510
 2275SOL    HW2 7725   5.848   4.830   2.452
 2276SOL     OW 7726   1.254   2.011   1.049
 2276SOL    HW1 7727   1.287   2.105   1.058
 2276SOL    HW2 7728   1.154   2.010   1.059
 2277SOL     OW 7729   3.693   3.709   3.337
 2277SOL    HW1 7730   3.739   3.623   3.361
 2277SOL    HW2 7731   3.639   3.695   3.254
 2278SOL     OW 7732   0.484   1.853   3.994
 2278SOL    HW1 7733   0.494   1.856   3.894
 2278SOL    HW2 7734   0.453   1.762   4.021
 2279SOL     OW 7735   0.762   6.186   5.489
 2279SOL    HW1 7736   0.810   6.115   5.439
 2279SOL    HW2 7737   0.819   6.268   5.494
 2280SOL     OW 7738   5.077   1.697   5.205
 2280SOL    HW1 7739   5.018   1.688   5.125
 2280SOL    HW2 7740   5.143   1.621   5.207
 2281SOL     OW 7741   5.262   6.923   2.701
 2281SOL    HW1 7742   5.292   6.850   2.761
 2281SOL    HW2 7743   5.312   6.918   2.614
 2282SOL     OW 7744   4.189   5.905   5.646
 2282SOL    HW1 7745   4.167   6.001   5.630
 2282SOL    HW2 7746   4.118   5.848   5.605
 2283SOL     OW 7747   0.724   0.511   3.857
 2283SOL    HW1 7748   0.688   0.604   3.868
 2283SOL    HW2 7749   0.814   0.515   3.814
 2284SOL     OW 7750   1.242   3.206   6.648
 2284SOL    HW1 7751   1.308   3.280   6.650
 2284SOL    HW2 7752   1.272   3.136   6.583
 2285SOL     OW 7753   1.272   4.459   6.521
 2285SOL    HW1 7754   1.330   4.400   6.464
 2285SOL    HW2 7755   1.233   4.405   6.595
 2286SOL     OW 7756   4.836   6.078   4.162
 2286SOL    HW1 7757   4.756   6.019   4.172
 2286SOL    HW2 7758   4.906   6.052   4.229
 2287SOL     OW 7759   1.922   0.891   3.233
 2287SOL    HW1 7760   2.000   0.939   3.274
 2287SOL    HW2 7761   1.954   0.806   3.191
 2288SOL     OW 7762   0.132   6.417   2.831
 2288SOL    HW1 7763   0.066   6.384   2.764
 2288SOL    HW2 7764   0.095   6.403   2.923
 2289SOL     OW 7765   1.121   5.666   1.839
 2289SOL    HW1 7766   1.196   5.692   1.900
 2289SOL    HW2 7767   1.154   5.663   1.745
 2290SOL     OW 7768   0.948   5.140   0.631
 2290SOL    HW1 7769   0.935   5.099   0.721
 2290SOL    HW2 7770   1.018   5.212   0.636
 2291SOL     OW 7771   2.809   1.937   6.410
 2291SOL    HW1 7772   2.847   1.929   6.318
 2291SOL    HW2 7773   2.833   1.856   6.463
 2292SOL     OW 7774   1.384   1.040   4.388
 2292SOL    HW1 7775   1.469   1.026   4.337
 2292SOL    HW2 7776   1.381   0.974   4.464
 2293SOL     OW 7777   5.537   4.988   2.253
 2293SOL    HW1 7778   5.515   4.951   2.162
 2293SOL    HW2 7779   5.605   5.060   2.244
 2294SOL     OW 7780   4.338   6.391   6.779
 2294SOL    HW1 7781   4.244   6.379   6.810
 2294SOL    HW2 7782   4.400   6.345   6.843
 2295SOL     OW 7783   0.213   2.221   1.317
 2295SOL    HW1 7784   0.289   2.192   1.259
 2295SOL    HW2 7785   0.160   2.291   1.270
 2296SOL     OW 7786   2.971   6.834   0.210
 2296SOL    HW1 7787   3.036   6.828   0.135
 2296SOL    HW2 7788   2.900   6.765   0.199
 2297SOL     OW 7789   4.150   5.229   5.900
 2297SOL    HW1 7790   4.128   5.271   5.812
 2297SOL    HW2 7791   4.065   5.214   5.951
 2298SOL     OW 7792   3.864   2.785   0.881
 2298SOL    HW1 7793   3.818   2.855   0.935
 2298SOL    HW2 7794   3.855   2.696   0.926
 2299SOL     OW 7795   4.935   5.701   6.794
 2299SOL    HW1 7796   5.034   5.696   6.794
 2299SOL    HW2 7797   4.900   5.670   6.705
 2300SOL     OW 7798   1.895   5.147   0.946
 2300SOL    HW1 7799   1.929   5.231   0.987
 2300SOL    HW2 7800   1.916   5.147   0.848
 2301SOL     OW 7801   4.106   3.234   2.592
 2301SOL    HW1 7802   4.044   3.162   2.563
 2301SOL    HW2 7803   4.114   3.233   2.692
 2302SOL     OW 7804   3.334   5.808   2.766
 2302SOL    HW1 7805   3.338   5.898   2.723
 2302SOL    HW2 7806   3.416   5.755   2.742
 2303SOL     OW 7807   1.316   2.635   4.388
 2303SOL    HW1 7808   1.221   2.619   4.416
 2303SOL    HW2 7809   1.345   2.563   4.325
 2304SOL     OW 7810   2.112   1.179   3.739
 2304SOL    HW1 7811   2.055   1.115   3.790
 2304SOL    HW2 7812   2.121   1.264   3.791
 2305SOL     OW 7813   3.110   5.330   2.267
 2305SOL    HW1 7814   3.039   5.293   2.207
 2305SOL    HW2 7815   3.192   5.349   2.213
 2306SOL     OW 7816   1.411   3.969   1.323
 2306SOL    HW1 7817   1.338   3.933   1.381
 2306SOL    HW2 7818   1.459   3.893   1.280
 2307SOL     OW 7819   0.489   2.674   2.830
 2307SOL    HW1 7820   0.528   2.732   2.758
 2307SOL    HW2 7821   0.452   2.591   2.790
 2308SOL     OW 7822   0.194   6.915   6.829
 2308SOL    HW1 7823   0.253   6.929   6.908
 2308SOL    HW2 7824   0.240   6.948   6.747
 2309SOL     OW 7825   3.623   5.612   6.426
 2309SOL    HW1 7826   3.654   5.534   6.480
 2309SOL    HW2 7827   3.693   5.683   6.426
 2310SOL     OW 7828   5.258   1.078   1.967
 2310SOL    HW1 7829   5.229   1.169   1.994
 2310SOL    HW2 7830   5.178   1.023   1.941
 2311SOL     OW 7831   2.851   0.252   3.067
 2311SOL    HW1 7832   2.802   0.166   3.056
 2311SOL    HW2 7833   2.923   0.259   2.999
 2312SOL     OW 7834   3.998   0.527   2.988
 2312SOL    HW1 7835   4.071   0.592   2.970
 2312SOL    HW2 7836   4.037   0.442   3.024
 2313SOL     OW 7837   4.966   4.016   2.106
 2313SOL    HW1 7838   5.054   4.052   2.075
 2313SOL    HW2 7839   4.953   3.924   2.068
 2314SOL     OW 7840   6.085   0.118   3.642
 2314SOL    HW1 7841   6.119   0.136   3.550
 2314SOL    HW2 7842   6.090   0.202   3.697
 2315SOL     OW 7843   4.257   4.679   5.594
 2315SOL    HW1 7844   4.289   4.728   5.676
 2315SOL    HW2 7845   4.179   4.621   5.618
 2316SOL     OW 7846   3.110   1.027   5.889
 2316SOL    HW1 7847   3.177   1.034   5.962
 2316SOL    HW2 7848   3.044   1.102   5.898
 2317SOL     OW 7849   6.025   6.041   3.732
 2317SOL    HW1 7850   5.964   6.109   3.693
 2317SOL    HW2 7851   6.075   6.081   3.809
 2318SOL     OW 7852   2.051   4.413   5.147
 2318SOL    HW1 7853   2.070   4.316   5.158
 2318SOL    HW2 7854   2.127   4.467   5.184
 2319SOL     OW 7855   2.603   5.136   4.505
 2319SOL    HW1 7856   2.578   5.081   4.425
 2319SOL    HW2 7857   2.657   5.215   4.475
 2320SOL     OW 7858   1.053   3.301   5.307
 2320SOL    HW1 7859   1.079   3.216   5.260
 2320SOL    HW2 7860   1.105   3.310   5.391
 2321SOL     OW 7861   2.977   5.040   6.234
 2321SOL    HW1 7862   2.924   4.958   6.211
 2321SOL    HW2 7863   2.930   5.091   6.306
 2322SOL     OW 7864   2.096   3.471   2.501
 2322SOL    HW1 7865   2.055   3.386   2.468
 2322SOL    HW2 7866   2.161   3.450   2.574
 2323SOL     OW 7867   2.704   4.884   1.571
 2323SOL    HW1 7868   2.722   4.973   1.614
 2323SOL    HW2 7869   2.738   4.885   1.477
 2324SOL     OW 7870   0.702   5.363   2.080
 2324SOL    HW1 7871   0.796   5.396   2.082
 2324SOL    HW2 7872   0.642   5.431   2.123
 2325SOL     OW 7873   6.994   5.209   2.018
 2325SOL    HW1 7874   0.032   5.195   1.940
 2325SOL    HW2 7875   6.936   5.129   2.030
 2326SOL     OW 7876   1.151   0.231   6.682
 2326SOL    HW1 7877   1.230   0.284   6.714
 2326SOL    HW2 7878   1.092   0.290   6.627
 2327SOL     OW 7879   6.817   0.199   2.337
 2327SOL    HW1 7880   6.913   0.193   2.364
 2327SOL    HW2 7881   6.762   0.229   2.415
 2328SOL     OW 7882   1.417   2.062   2.414
 2328SOL    HW1 7883   1.423   1.972   2.369
 2328SOL    HW2 7884   1.430   2.134   2.346
 2329SOL     OW 7885   1.168   4.997   3.733
 2329SOL    HW1 7886   1.265   4.996   3.758
 2329SOL    HW2 7887   1.125   5.081   3.767
 2330SOL     OW 7888   6.729   3.276   0.348
 2330SOL    HW1 7889   6.777   3.356   0.383
 2330SOL    HW2 7890   6.648   3.258   0.403
 2331SOL     OW 7891   3.674   5.982   0.314
 2331SOL    HW1 7892   3.604   5.950   0.249
 2331SOL    HW2 7893   3.672   5.924   0.395
 2332SOL     OW 7894   5.575   0.269   6.042
 2332SOL    HW1 7895   5.544   0.180   6.073
 2332SOL    HW2 7896   5.671   0.264   6.015
 2333SOL     OW 7897   6.893   5.057   2.903
 2333SOL    HW1 7898   6.964   5.072   2.972
 2333SOL    HW2 7899   6.865   5.145   2.864
 2334SOL     OW 7900   2.864   1.116   5.662
 2334SOL    HW1 7901   2.927   1.194   5.660
 2334SOL    HW2 7902   2.781   1.139   5.612
 2335SOL     OW 7903   5.919   1.907   3.926
 2335SOL    HW1 7904   5.965   1.896   4.014
 2335SOL    HW2 7905   5.835   1.853   3.925
 2336SOL     OW 7906   2.297   1.520   3.601
 2336SOL    HW1 7907   2.349   1.449   3.553
 2336SOL    HW2 7908   2.336   1.535   3.692
 2337SOL     OW 7909   4.232   1.994   1.300
 2337SOL    HW1 7910   4.231   2.030   1.394
 2337SOL    HW2 7911   4.282   2.058   1.241
 2338SOL     OW 7912   0.490   3.547   4.075
 2338SOL    HW1 7913   0.512   3.472   4.137
 2338SOL    HW2 7914   0.498   3.634   4.124
 2339SOL     OW 7915   3.146   3.505   2.946
 2339SOL    HW1 7916   3.176   3.425   2.893
 2339SOL    HW2 7917   3.184   3.588   2.904
 2340SOL     OW 7918   0.534   5.147   6.461
 2340SOL    HW1 7919   0.548   5.051   6.483
 2340SOL    HW2 7920   0.451   5.157   6.405
 2341SOL     OW 7921   2.203   4.424   3.085
 2341SOL    HW1 7922   2.155   4.396   3.002
 2341SOL    HW2 7923   2.211   4.346   3.147
 2342SOL     OW 7924   3.091   6.678   4.506
 2342SOL    HW1 7925   3.069   6.667   4.409
 2342SOL    HW2 7926   3.067   6.771   4.534
 2343SOL     OW 7927   2.007   6.312   2.854
 2343SOL    HW1 7928   1.908   6.298   2.856
 2343SOL    HW2 7929   2.027   6.408   2.873
 2344SOL     OW 7930   6.710   4.934   0.977
 2344SOL    HW1 7931   6.785   4.922   0.912
 2344SOL    HW2 7932   6.673   4.845   1.003
 2345SOL     OW 7933   2.800   5.814   4.663
 2345SOL    HW1 7934   2.715   5.809   4.610
 2345SOL    HW2 7935   2.878   5.791   4.604
 2346SOL     OW 7936   4.001   3.441   6.191
 2346SOL    HW1 7937   4.087   3.484   6.162
 2346SOL    HW2 7938   3.976   3.369   6.127
 2347SOL     OW 7939   1.433   1.894   1.636
 2347SOL    HW1 7940   1.351   1.862   1.683
 2347SOL    HW2 7941   1.465   1.823   1.573
 2348SOL     OW 7942   1.538   6.291   3.110
 2348SOL    HW1 7943   1.612   6.318   3.172
 2348SOL    HW2 7944   1.550   6.335   3.022
 2349SOL     OW 7945   0.759   3.944   6.512
 2349SOL    HW1 7946   0.840   3.968   6.565
 2349SOL    HW2 7947   0.782   3.873   6.447
 2350SOL     OW 7948   5.822   4.135   5.472
 2350SOL    HW1 7949   5.848   4.040   5.488
 2350SOL    HW2 7950   5.868   4.194   5.538
 2351SOL     OW 7951   2.919   4.827   2.967
 2351SOL    HW1 7952   2.916   4.744   2.911
 2351SOL    HW2 7953   2.931   4.802   3.063
 2352SOL     OW 7954   6.725   2.849   3.356
 2352SOL    HW1 7955   6.806   2.791   3.342
 2352SOL    HW2 7956   6.739   2.936   3.310
 2353SOL     OW 7957   4.149   5.110   5.439
 2353SOL    HW1 7958   4.074   5.093   5.375
 2353SOL    HW2 7959   4.231   5.062   5.407
 2354SOL     OW 7960   2.864   2.190   4.417
 2354SOL    HW1 7961   2.802   2.253   4.463
 2354SOL    HW2 7962   2.953   2.191   4.464
 2355SOL     OW 7963   2.392   6.176   4.643
 2355SOL    HW1 7964   2.490   6.194   4.657
 2355SOL    HW2 7965   2.346   6.261   4.619
 2356SOL     OW 7966   0.801   3.122   6.815
 2356SOL    HW1 7967   0.862   3.049   6.784
 2356SOL    HW2 7968   0.817   3.140   6.912
 2357SOL     OW 7969   3.280   1.086   2.000
 2357SOL    HW1 7970   3.355   1.142   2.035
 2357SOL    HW2 7971   3.206   1.082   2.067
 2358SOL     OW 7972   2.893   4.727   5.898
 2358SOL    HW1 7973   2.856   4.777   5.976
 2358SOL    HW2 7974   2.875   4.629   5.908
 2359SOL     OW 7975   1.173   0.027   5.230
 2359SOL    HW1 7976   1.209   0.120   5.224
 2359SOL    HW2 7977   1.223   7.000   5.299
 2360SOL     OW 7978   6.264   3.755   0.921
 2360SOL    HW1 7979   6.285   3.716   1.011
 2360SOL    HW2 7980   6.325   3.715   0.853
 2361SOL     OW 7981   2.854   0.997   6.333
 2361SOL    HW1 7982   2.798   0.953   6.402
 2361SOL    HW2 7983   2.950   0.974   6.347
 2362SOL     OW 7984   3.392   5.210   3.614
 2362SOL    HW1 7985   3.389   5.172   3.522
 2362SOL    HW2 7986   3.346   5.148   3.678
 2363SOL     OW 7987   3.863   2.011   3.409
 2363SOL    HW1 7988   3.765   1.994   3.422
 2363SOL    HW2 7989   3.901   2.051   3.493
 2364SOL     OW 7990   0.957   2.646   1.468
 2364SOL    HW1 7991   0.963   2.547   1.457
 2364SOL    HW2 7992   0.907   2.685   1.390
 2365SOL     OW 7993   5.927   2.301   0.061
 2365SOL    HW1 7994   5.870   2.355   0.121
 2365SOL    HW2 7995   5.893   2.207   0.058
 2366SOL     OW 7996   3.764   5.307   0.632
 2366SOL    HW1 7997   3.677   5.331   0.590
 2366SOL    HW2 7998   3.800   5.224   0.589
 2367SOL     OW 7999   2.260   3.029   0.338
 2367SOL    HW1 8000   2.299   2.938   0.325
 2367SOL    HW2 8001   2.328   3.099   0.318
 2368SOL     OW 8002   5.589   0.308   4.026
 2368SOL    HW1 8003   5.541   0.377   4.080
 2368SOL    HW2 8004   5.682   0.297   4.060
 2369SOL     OW 8005   1.924   0.316   3.639
 2369SOL    HW1 8006   1.978   0.273   3.566
 2369SOL    HW2 8007   1.961   0.289   3.728
 2370SOL     OW 8008   5.947   2.780   6.701
 2370SOL    HW1 8009   5.915   2.853   6.761
 2370SOL    HW2 8010   5.940   2.692   6.749
 2371SOL     OW 8011   2.133   0.078   1.718
 2371SOL    HW1 8012   2.057   0.013   1.724
 2371SOL    HW2 8013   2.116   0.155   1.779
 2372SOL     OW 8014   6.861   2.826   2.215
 2372SOL    HW1 8015   6.934   2.885   2.180
 2372SOL    HW2 8016   6.870   2.735   2.176
 2373SOL     OW 8017   2.005   3.812   5.781
 2373SOL    HW1 8018   2.020   3.814   5.682
 2373SOL    HW2 8019   1.914   3.775   5.800
 2374SOL     OW 8020   6.583   1.928   5.068
 2374SOL    HW1 8021   6.500   1.894   5.113
 2374SOL    HW2 8022   6.571   2.025   5.046
 2375SOL     OW 8023   3.371   5.479   5.654
 2375SOL    HW1 8024   3.343   5.559   5.601
 2375SOL    HW2 8025   3.344   5.396   5.606
 2376SOL     OW 8026   6.329   3.601   3.515
 2376SOL    HW1 8027   6.309   3.690   3.555
 2376SOL    HW2 8028   6.346   3.534   3.587
 2377SOL     OW 8029   3.446   3.862   3.938
 2377SOL    HW1 8030   3.421   3.771   3.970
 2377SOL    HW2 8031   3.364   3.916   3.924
 2378SOL     OW 8032   4.877   2.034   0.230
 2378SOL    HW1 8033   4.922   1.999   0.148
 2378SOL    HW2 8034   4.830   2.119   0.209
 2379SOL     OW 8035   6.408   0.941   0.567
 2379SOL    HW1 8036   6.481   0.955   0.500
 2379SOL    HW2 8037   6.412   1.014   0.635
 2380SOL     OW 8038   6.816   2.640   0.590
 2380SOL    HW1 8039   6.830   2.731   0.551
 2380SOL    HW2 8040   6.774   2.580   0.522
 2381SOL     OW 8041   2.027   5.843   3.385
 2381SOL    HW1 8042   2.007   5.752   3.349
 2381SOL    HW2 8043   2.113   5.875   3.346
 2382SOL     OW 8044   1.769   3.377   4.536
 2382SOL    HW1 8045   1.718   3.457   4.569
 2382SOL    HW2 8046   1.787   3.316   4.613
 2383SOL     OW 8047   6.786   6.366   0.956
 2383SOL    HW1 8048   6.799   6.465   0.946
 2383SOL    HW2 8049   6.796   6.322   0.867
 2384SOL     OW 8050   4.975   2.003   2.000
 2384SOL    HW1 8051   5.051   1.979   2.061
 2384SOL    HW2 8052   4.889   1.972   2.041
 2385SOL     OW 8053   0.244   0.866   6.802
 2385SOL    HW1 8054   0.151   0.851   6.836
 2385SOL    HW2 8055   0.309   0.814   6.858
 2386SOL     OW 8056   4.768   5.896   5.238
 2386SOL    HW1 8057   4.815   5.969   5.287
 2386SOL    HW2 8058   4.714   5.936   5.163
 2387SOL     OW 8059   1.534   1.013   3.966
 2387SOL    HW1 8060   1.520   1.108   3.994
 2387SOL    HW2 8061   1.520   1.004   3.868
 2388SOL     OW 8062   6.587   3.072   3.792
 2388SOL    HW1 8063   6.598   2.989   3.736
 2388SOL    HW2 8064   6.677   3.104   3.821
 2389SOL     OW 8065   4.426   4.663   3.578
 2389SOL    HW1 8066   4.481   4.582   3.560
 2389SOL    HW2 8067   4.385   4.656   3.669
 2390SOL     OW 8068   4.042   3.818   2.717
 2390SOL    HW1 8069   3.981   3.891   2.685
 2390SOL    HW2 8070   4.067   3.834   2.813
 2391SOL     OW 8071   4.770   4.661   6.368
 2391SOL    HW1 8072   4.718   4.613   6.438
 2391SOL    HW2 8073   4.796   4.597   6.296
 2392SOL     OW 8074   2.564   0.053   6.570
 2392SOL    HW1 8075   2.594   0.027   6.479
 2392SOL    HW2 8076   2.468   0.083   6.566
 2393SOL     OW 8077   4.623   4.484   6.535
 2393SOL    HW1 8078   4.691   4.420   6.498
 2393SOL    HW2 8079   4.643   4.502   6.631
 2394SOL     OW 8080   6.910   4.283   5.150
 2394SOL    HW1 8081   7.009   4.296   5.147
 2394SOL    HW2 8082   6.875   4.311   5.239
 2395SOL     OW 8083   4.629   6.439   5.869
 2395SOL    HW1 8084   4.568   6.381   5.923
 2395SOL    HW2 8085   4.673   6.384   5.798
 2396SOL     OW 8086   3.919   5.210   1.049
 2396SOL    HW1 8087   3.975   5.293   1.061
 2396SOL    HW2 8088   3.847   5.228   0.982
 2397SOL     OW 8089   0.499   4.177   4.208
 2397SOL    HW1 8090   0.598   4.182   4.223
 2397SOL    HW2 8091   0.470   4.082   4.214
 2398SOL     OW 8092   5.026   4.447   6.378
 2398SOL    HW1 8093   5.084   4.450   6.296
 2398SOL    HW2 8094   5.067   4.503   6.450
 2399SOL     OW 8095   4.519   1.278   1.174
 2399SOL    HW1 8096   4.528   1.185   1.210
 2399SOL    HW2 8097   4.578   1.339   1.226
 2400SOL     OW 8098   2.550   4.142   0.454
 2400SOL    HW1 8099   2.562   4.044   0.438
 2400SOL    HW2 8100   2.546   4.160   0.552
 2401SOL     OW 8101   5.821   6.338   5.932
 2401SOL    HW1 8102   5.903   6.298   5.975
 2401SOL    HW2 8103   5.743   6.328   5.994
 2402SOL     OW 8104   0.661   6.721   4.026
 2402SOL    HW1 8105   0.635   6.713   4.122
 2402SOL    HW2 8106   0.738   6.661   4.006
 2403SOL     OW 8107   0.974   2.816   5.235
 2403SOL    HW1 8108   1.060   2.803   5.185
 2403SOL    HW2 8109   0.984   2.889   5.302
 2404SOL     OW 8110   2.288   0.930   1.107
 2404SOL    HW1 8111   2.334   1.018   1.125
 2404SOL    HW2 8112   2.343   0.856   1.145
 2405SOL     OW 8113   3.378   4.143   2.673
 2405SOL    HW1 8114   3.367   4.084   2.593
 2405SOL    HW2 8115   3.293   4.142   2.727
 2406SOL     OW 8116   4.045   1.532   0.810
 2406SOL    HW1 8117   4.140   1.528   0.840
 2406SOL    HW2 8118   4.013   1.439   0.788
 2407SOL     OW 8119   5.402   1.707   3.496
 2407SOL    HW1 8120   5.440   1.702   3.589
 2407SOL    HW2 8121   5.411   1.801   3.462
 2408SOL     OW 8122   4.629   4.473   2.147
 2408SOL    HW1 8123   4.659   4.432   2.233
 2408SOL    HW2 8124   4.589   4.402   2.089
 2409SOL     OW 8125   2.396   3.671   1.192
 2409SOL    HW1 8126   2.332   3.739   1.156
 2409SOL    HW2 8127   2.365   3.640   1.281
 2410SOL     OW 8128   3.486   3.047   3.677
 2410SOL    HW1 8129   3.538   3.118   3.630
 2410SOL    HW2 8130   3.415   3.011   3.617
 2411SOL     OW 8131   5.279   6.578   5.045
 2411SOL    HW1 8132   5.313   6.509   4.981
 2411SOL    HW2 8133   5.272   6.538   5.137
 2412SOL     OW 8134   5.368   4.015   1.243
 2412SOL    HW1 8135   5.461   3.993   1.216
 2412SOL    HW2 8136   5.332   3.942   1.301
 2413SOL     OW 8137   5.348   0.258   1.852
 2413SOL    HW1 8138   5.366   0.216   1.763
 2413SOL    HW2 8139   5.417   0.329   1.870
 2414SOL     OW 8140   4.877   3.310   3.838
 2414SOL    HW1 8141   4.836   3.221   3.817
 2414SOL    HW2 8142   4.899   3.314   3.936
 2415SOL     OW 8143   5.665   1.415   3.118
 2415SOL    HW1 8144   5.715   1.488   3.072
 2415SOL    HW2 8145   5.613   1.453   3.194
 2416SOL     OW 8146   5.038   1.671   6.285
 2416SOL    HW1 8147   5.074   1.694   6.195
 2416SOL    HW2 8148   5.081   1.587   6.318
 2417SOL     OW 8149   3.197   2.978   4.698
 2417SOL    HW1 8150   3.268   2.960   4.765
 2417SOL    HW2 8151   3.109   2.991   4.745
 2418SOL     OW 8152   3.531   3.307   3.529
 2418SOL    HW1 8153   3.532   3.380   3.461
 2418SOL    HW2 8154   3.481   3.338   3.610
 2419SOL     OW 8155   0.461   7.024   2.993
 2419SOL    HW1 8156   0.392   0.068   3.016
 2419SOL    HW2 8157   0.483   0.006   2.896
 2420SOL     OW 8158   2.819   0.217   1.699
 2420SOL    HW1 8159   2.807   0.315   1.684
 2420SOL    HW2 8160   2.905   0.187   1.656
 2421SOL     OW 8161   1.395   2.657   4.902
 2421SOL    HW1 8162   1.427   2.649   4.996
 2421SOL    HW2 8163   1.326   2.587   4.884
 2422SOL     OW 8164   5.262   2.287   1.170
 2422SOL    HW1 8165   5.269   2.274   1.269
 2422SOL    HW2 8166   5.208   2.369   1.151
 2423SOL     OW 8167   2.340   5.733   2.342
 2423SOL    HW1 8168   2.402   5.663   2.308
 2423SOL    HW2 8169   2.370   5.823   2.308
 2424SOL     OW 8170   5.960   1.326   0.212
 2424SOL    HW1 8171   5.939   1.355   0.305
 2424SOL    HW2 8172   6.018   1.396   0.168
 2425SOL     OW 8173   6.254   6.928   3.671
 2425SOL    HW1 8174   6.274   6.884   3.584
 2425SOL    HW2 8175   6.193   7.006   3.656
 2426SOL     OW 8176   2.301   4.311   4.347
 2426SOL    HW1 8177   2.315   4.347   4.439
 2426SOL    HW2 8178   2.348   4.370   4.281
 2427SOL     OW 8179   6.142   6.127   5.045
 2427SOL    HW1 8180   6.227   6.104   4.998
 2427SOL    HW2 8181   6.147   6.221   5.078
 2428SOL     OW 8182   0.686   0.494   1.113
 2428SOL    HW1 8183   0.750   0.435   1.163
 2428SOL    HW2 8184   0.600   0.499   1.163
 2429SOL     OW 8185   4.727   5.888   2.095
 2429SOL    HW1 8186   4.696   5.846   2.010
 2429SOL    HW2 8187   4.825   5.905   2.090
 2430SOL     OW 8188   6.299   0.682   2.683
 2430SOL    HW1 8189   6.348   0.762   2.718
 2430SOL    HW2 8190   6.200   0.695   2.694
 2431SOL     OW 8191   4.217   0.702   1.874
 2431SOL    HW1 8192   4.193   0.687   1.971
 2431SOL    HW2 8193   4.283   0.632   1.846
 2432SOL     OW 8194   3.634   6.323   2.497
 2432SOL    HW1 8195   3.630   6.387   2.573
 2432SOL    HW2 8196   3.730   6.298   2.480
 2433SOL     OW 8197   4.136   0.276   6.904
 2433SOL    HW1 8198   4.082   0.359   6.895
 2433SOL    HW2 8199   4.170   0.268   6.998
 2434SOL     OW 8200   3.775   2.046   6.042
 2434SOL    HW1 8201   3.771   2.054   6.142
 2434SOL    HW2 8202   3.760   1.951   6.016
 2435SOL     OW 8203   6.006   5.528   4.902
 2435SOL    HW1 8204   6.057   5.596   4.849
 2435SOL    HW2 8205   5.917   5.512   4.859
 2436SOL     OW 8206   3.189   5.727   0.317
 2436SOL    HW1 8207   3.241   5.783   0.253
 2436SOL    HW2 8208   3.133   5.787   0.375
 2437SOL     OW 8209   6.578   6.501   5.732
 2437SOL    HW1 8210   6.671   6.531   5.753
 2437SOL    HW2 8211   6.553   6.532   5.641
 2438SOL     OW 8212   2.791   2.029   0.774
 2438SOL    HW1 8213   2.847   1.952   0.804
 2438SOL    HW2 8214   2.846   2.112   0.771
 2439SOL     OW 8215   6.047   4.211   4.956
 2439SOL    HW1 8216   5.949   4.233   4.952
 2439SOL    HW2 8217   6.061   4.116   4.931
 2440SOL     OW 8218   5.786   4.926   6.160
 2440SOL    HW1 8219   5.843   5.005   6.136
 2440SOL    HW2 8220   5.714   4.915   6.091
 2441SOL     OW 8221   5.961   2.461   0.919
 2441SOL    HW1 8222   6.032   2.410   0.871
 2441SOL    HW2 8223   5.997   2.551   0.945
 2442SOL     OW 8224   0.071   3.894   4.762
 2442SOL    HW1 8225   0.034   3.902   4.854
 2442SOL    HW2 8226   0.167   3.922   4.762
 2443SOL     OW 8227   2.548   4.667   6.080
 2443SOL    HW1 8228   2.486   4.632   6.150
 2443SOL    HW2 8229   2.575   4.593   6.018
 2444SOL     OW 8230   2.672   3.627   5.713
 2444SOL    HW1 8231   2.588   3.581   5.684
 2444SOL    HW2 8232   2.751   3.579   5.676
 2445SOL     OW 8233   1.047   0.772   1.085
 2445SOL    HW1 8234   1.015   0.689   1.039
 2445SOL    HW2 8235   1.041   0.758   1.184
 2446SOL     OW 8236   6.489   4.354   6.093
 2446SOL    HW1 8237   6.397   4.316   6.080
 2446SOL    HW2 8238   6.523   4.391   6.006
 2447SOL     OW 8239   0.553   1.948   6.584
 2447SOL    HW1 8240   0.530   1.954   6.487
 2447SOL    HW2 8241   0.569   1.853   6.609
 2448SOL     OW 8242   1.233   6.872   4.185
 2448SOL    HW1 8243   1.145   6.860   4.139
 2448SOL    HW2 8244   1.284   6.946   4.140
 2449SOL     OW 8245   0.020   3.103   5.411
 2449SOL    HW1 8246   0.053   3.036   5.344
 2449SOL    HW2 8247   0.080   3.101   5.491
 2450SOL     OW 8248   2.100   3.529   3.064
 2450SOL    HW1 8249   2.081   3.523   3.162
 2450SOL    HW2 8250   2.172   3.464   3.040
 2451SOL     OW 8251   2.460   6.570   4.007
 2451SOL    HW1 8252   2.493   6.475   4.008
 2451SOL    HW2 8253   2.413   6.589   4.093
 2452SOL     OW 8254   1.143   2.260   4.239
 2452SOL    HW1 8255   1.170   2.187   4.176
 2452SOL    HW2 8256   1.202   2.339   4.225
 2453SOL     OW 8257   0.421   3.712   2.019
 2453SOL    HW1 8258   0.484   3.789   2.028
 2453SOL    HW2 8259   0.438   3.646   2.093
 2454SOL     OW 8260   2.293   0.793   2.307
 2454SOL    HW1 8261   2.274   0.852   2.228
 2454SOL    HW2 8262   2.310   0.850   2.388
 2455SOL     OW 8263   5.506   5.715   0.465
 2455SOL    HW1 8264   5.440   5.650   0.426
 2455SOL    HW2 8265   5.598   5.679   0.454
 2456SOL     OW 8266   3.917   6.409   1.216
 2456SOL    HW1 8267   3.868   6.363   1.290
 2456SOL    HW2 8268   4.008   6.437   1.249
 2457SOL     OW 8269   5.542   6.587   1.719
 2457SOL    HW1 8270   5.575   6.555   1.808
 2457SOL    HW2 8271   5.611   6.645   1.676
 2458SOL     OW 8272   0.606   5.799   3.644
 2458SOL    HW1 8273   0.604   5.884   3.592
 2458SOL    HW2 8274   0.612   5.820   3.742
 2459SOL     OW 8275   1.960   0.642   0.621
 2459SOL    HW1 8276   2.005   0.565   0.667
 2459SOL    HW2 8277   1.861   0.630   0.624
 2460SOL     OW 8278   3.131   5.321   1.519
 2460SOL    HW1 8279   3.145   5.330   1.617
 2460SOL    HW2 8280   3.183   5.391   1.471
 2461SOL     OW 8281   5.909   1.538   3.230
 2461SOL    HW1 8282   5.820   1.495   3.242
 2461SOL    HW2 8283   5.970   1.475   3.182
 2462SOL     OW 8284   1.844   4.464   6.376
 2462SOL    HW1 8285   1.817   4.368   6.378
 2462SOL    HW2 8286   1.937   4.474   6.412
 2463SOL     OW 8287   6.927   1.790   3.950
 2463SOL    HW1 8288   6.890   1.773   3.858
 2463SOL    HW2 8289   0.002   1.791   3.947
 2464SOL     OW 8290   1.459   3.345   1.238
 2464SOL    HW1 8291   1.530   3.309   1.298
 2464SOL    HW2 8292   1.491   3.342   1.143
 2465SOL     OW 8293   6.095   5.515   3.548
 2465SOL    HW1 8294   6.079   5.507   3.647
 2465SOL    HW2 8295   6.048   5.596   3.513
 2466SOL     OW 8296   3.495   1.267   2.093
 2466SOL    HW1 8297   3.489   1.364   2.073
 2466SOL    HW2 8298   3.580   1.230   2.055
 2467SOL     OW 8299   6.645   1.121   5.523
 2467SOL    HW1 8300   6.558   1.081   5.492
 2467SOL    HW2 8301   6.652   1.215   5.491
 2468SOL     OW 8302   6.981   3.798   0.381
 2468SOL    HW1 8303   6.974   3.884   0.330
 2468SOL    HW2 8304   0.036   3.746   0.348
 2469SOL     OW 8305   2.686   3.086   5.604
 2469SOL    HW1 8306   2.672   3.116   5.509
 2469SOL    HW2 8307   2.779   3.109   5.633
 2470SOL     OW 8308   5.476   2.791   0.389
 2470SOL    HW1 8309   5.452   2.704   0.434
 2470SOL    HW2 8310   5.475   2.778   0.290
 2471SOL     OW 8311   0.675   0.438   3.581
 2471SOL    HW1 8312   0.596   0.381   3.563
 2471SOL    HW2 8313   0.689   0.447   3.679
 2472SOL     OW 8314   5.617   1.579   3.324
 2472SOL    HW1 8315   5.589   1.673   3.344
 2472SOL    HW2 8316   5.549   1.515   3.361
 2473SOL     OW 8317   0.294   0.054   5.507
 2473SOL    HW1 8318   0.376   0.067   5.452
 2473SOL    HW2 8319   0.313   7.013   5.580
 2474SOL     OW 8320   5.510   5.375   4.909
 2474SOL    HW1 8321   5.540   5.384   5.004
 2474SOL    HW2 8322   5.435   5.438   4.891
 2475SOL     OW 8323   4.133   2.351   6.694
 2475SOL    HW1 8324   4.163   2.393   6.609
 2475SOL    HW2 8325   4.072   2.274   6.674
 2476SOL     OW 8326   0.288   2.002   3.622
 2476SOL    HW1 8327   0.190   1.994   3.641
 2476SOL    HW2 8328   0.333   2.050   3.697
 2477SOL     OW 8329   4.303   5.099   2.039
 2477SOL    HW1 8330   4.250   5.055   1.967
 2477SOL    HW2 8331   4.398   5.070   2.032
 2478SOL     OW 8332   6.584   6.859   3.159
 2478SOL    HW1 8333   6.508   6.922   3.141
 2478SOL    HW2 8334   6.637   6.847   3.075
 2479SOL     OW 8335   0.667   3.302   0.302
 2479SOL    HW1 8336   0.584   3.357   0.303
 2479SOL    HW2 8337   0.747   3.363   0.301
 2480SOL     OW 8338   0.942   4.256   1.660
 2480SOL    HW1 8339   1.009   4.330   1.664
 2480SOL    HW2 8340   0.894   4.250   1.747
 2481SOL     OW 8341   4.187   5.370   2.538
 2481SOL    HW1 8342   4.093   5.395   2.563
 2481SOL    HW2 8343   4.244   5.452   2.534
 2482SOL     OW 8344   4.890   2.734   4.417
 2482SOL    HW1 8345   4.894   2.666   4.491
 2482SOL    HW2 8346   4.804   2.723   4.367
 2483SOL     OW 8347   0.611   2.366   6.703
 2483SOL    HW1 8348   0.689   2.422   6.676
 2483SOL    HW2 8349   0.644   2.283   6.749
 2484SOL     OW 8350   3.220   2.343   6.320
 2484SOL    HW1 8351   3.200   2.248   6.346
 2484SOL    HW2 8352   3.241   2.347   6.222
 2485SOL     OW 8353   0.969   6.046   1.482
 2485SOL    HW1 8354   0.985   6.143   1.461
 2485SOL    HW2 8355   0.940   5.998   1.400
 2486SOL     OW 8356   0.943   5.057   3.063
 2486SOL    HW1 8357   0.960   4.966   3.100
 2486SOL    HW2 8358   1.029   5.095   3.028
 2487SOL     OW 8359   3.296   0.786   1.368
 2487SOL    HW1 8360   3.315   0.688   1.369
 2487SOL    HW2 8361   3.213   0.805   1.421
 2488SOL     OW 8362   3.434   6.219   6.293
 2488SOL    HW1 8363   3.524   6.176   6.303
 2488SOL    HW2 8364   3.393   6.233   6.383
 2489SOL     OW 8365   6.690   5.676   4.370
 2489SOL    HW1 8366   6.680   5.747   4.300
 2489SOL    HW2 8367   6.752   5.605   4.337
 2490SOL     OW 8368   5.597   3.711   1.545
 2490SOL    HW1 8369   5.593   3.639   1.476
 2490SOL    HW2 8370   5.505   3.732   1.577
 2491SOL     OW 8371   0.486   4.646   2.936
 2491SOL    HW1 8372   0.432   4.571   2.973
 2491SOL    HW2 8373   0.579   4.641   2.973
 2492SOL     OW 8374   4.566   2.703   6.083
 2492SOL    HW1 8375   4.601   2.756   6.160
 2492SOL    HW2 8376   4.543   2.764   6.008
 2493SOL     OW 8377   6.716   1.639   4.037
 2493SOL    HW1 8378   6.784   1.713   4.036
 2493SOL    HW2 8379   6.754   1.560   4.087
 2494SOL     OW 8380   4.311   4.512   1.358
 2494SOL    HW1 8381   4.356   4.473   1.439
 2494SOL    HW2 8382   4.358   4.597   1.332
 2495SOL     OW 8383   6.442   0.907   3.878
 2495SOL    HW1 8384   6.393   0.827   3.843
 2495SOL    HW2 8385   6.444   0.903   3.978
 2496SOL     OW 8386   1.689   5.650   6.523
 2496SOL    HW1 8387   1.591   5.658   6.502
 2496SOL    HW2 8388   1.734   5.736   6.500
 2497SOL     OW 8389   5.687   1.553   6.664
 2497SOL    HW1 8390   5.728   1.535   6.753
 2497SOL    HW2 8391   5.740   1.623   6.616
 2498SOL     OW 8392   1.146   3.495   4.839
 2498SOL    HW1 8393   1.174   3.591   4.833
 2498SOL    HW2 8394   1.079   3.485   4.912
 2499SOL     OW 8395   6.206   0.176   6.054
 2499SOL    HW1 8396   6.182   0.090   6.010
 2499SOL    HW2 8397   6.146   0.249   6.020
 2500SOL     OW 8398   4.666   3.728   6.462
 2500SOL    HW1 8399   4.612   3.786   6.401
 2500SOL    HW2 8400   4.628   3.636   6.463
 2501SOL     OW 8401   6.264   4.922   1.105
 2501SOL    HW1 8402   6.341   4.980   1.078
 2501SOL    HW2 8403   6.179   4.974   1.100
 2502SOL     OW 8404   1.590   6.462   2.782
 2502SOL    HW1 8405   1.535   6.527   2.730
 2502SOL    HW2 8406   1.623   6.505   2.866
 2503SOL     OW 8407   4.679   6.697   4.809
 2503SOL    HW1 8408   4.664   6.796   4.806
 2503SOL    HW2 8409   4.750   6.672   4.744
 2504SOL     OW 8410   2.018   4.257   3.458
 2504SOL    HW1 8411   2.101   4.227   3.410
 2504SOL    HW2 8412   1.947   4.278   3.391
 2505SOL     OW 8413   4.600   4.846   4.038
 2505SOL    HW1 8414   4.686   4.798   4.055
 2505SOL    HW2 8415   4.571   4.894   4.120
 2506SOL     OW 8416   0.308   1.691   0.850
 2506SOL    HW1 8417   0.214   1.702   0.817
 2506SOL    HW2 8418   0.315   1.606   0.903
 2507SOL     OW 8419   6.220   6.364   1.071
 2507SOL    HW1 8420   6.141   6.426   1.071
 2507SOL    HW2 8421   6.219   6.310   1.156
 2508SOL     OW 8422   2.424   2.663   1.886
 2508SOL    HW1 8423   2.519   2.635   1.876
 2508SOL    HW2 8424   2.417   2.762   1.876
 2509SOL     OW 8425   5.157   1.555   3.458
 2509SOL    HW1 8426   5.250   1.591   3.467
 2509SOL    HW2 8427   5.160   1.456   3.452
 2510SOL     OW 8428   4.201   5.824   1.253
 2510SOL    HW1 8429   4.142   5.751   1.218
 2510SOL    HW2 8430   4.288   5.785   1.283
 2511SOL     OW 8431   0.803   6.184   3.929
 2511SOL    HW1 8432   0.798   6.147   4.021
 2511SOL    HW2 8433   0.896   6.175   3.894
 2512SOL     OW 8434   5.149   3.106   4.168
 2512SOL    HW1 8435   5.215   3.135   4.098
 2512SOL    HW2 8436   5.149   3.006   4.174
 2513SOL     OW 8437   0.223   4.815   1.760
 2513SOL    HW1 8438   0.238   4.812   1.661
 2513SOL    HW2 8439   0.300   4.862   1.803
 2514SOL     OW 8440   0.866   1.752   4.217
 2514SOL    HW1 8441   0.917   1.810   4.281
 2514SOL    HW2 8442   0.929   1.690   4.171
 2515SOL     OW 8443   0.958   5.053   0.098
 2515SOL    HW1 8444   0.920   5.077   0.187
 2515SOL    HW2 8445   0.966   5.135   0.041
 2516SOL     OW 8446   5.193   6.231   4.405
 2516SOL    HW1 8447   5.142   6.146   4.398
 2516SOL    HW2 8448   5.167   6.293   4.331
 2517SOL     OW 8449   2.348   5.461   0.578
 2517SOL    HW1 8450   2.359   5.408   0.662
 2517SOL    HW2 8451   2.330   5.557   0.601
 2518SOL     OW 8452   2.398   2.703   6.259
 2518SOL    HW1 8453   2.386   2.748   6.347
 2518SOL    HW2 8454   2.404   2.772   6.187
 2519SOL     OW 8455   5.007   4.065   4.671
 2519SOL    HW1 8456   5.095   4.019   4.684
 2519SOL    HW2 8457   4.999   4.139   4.738
 2520SOL     OW 8458   2.846   5.285   2.131
 2520SOL    HW1 8459   2.803   5.313   2.217
 2520SOL    HW2 8460   2.823   5.189   2.112
 2521SOL     OW 8461   5.893   6.760   6.118
 2521SOL    HW1 8462   5.826   6.769   6.045
 2521SOL    HW2 8463   5.923   6.851   6.147
 2522SOL     OW 8464   1.478   3.318   4.494
 2522SOL    HW1 8465   1.417   3.397   4.488
 2522SOL    HW2 8466   1.498   3.298   4.589
 2523SOL     OW 8467   0.088   2.708   5.755
 2523SOL    HW1 8468   0.142   2.624   5.744
 2523SOL    HW2 8469   0.130   2.765   5.826
 2524SOL     OW 8470   0.990   0.093   4.822
 2524SOL    HW1 8471   1.036   0.019   4.871
 2524SOL    HW2 8472   0.912   0.125   4.876
 2525SOL     OW 8473   1.644   4.316   3.205
 2525SOL    HW1 8474   1.713   4.377   3.166
 2525SOL    HW2 8475   1.643   4.326   3.305
 2526SOL     OW 8476   0.451   2.186   5.259
 2526SOL    HW1 8477   0.382   2.119   5.229
 2526SOL    HW2 8478   0.406   2.273   5.279
 2527SOL     OW 8479   5.880   6.916   3.875
 2527SOL    HW1 8480   5.927   6.828   3.877
 2527SOL    HW2 8481   5.804   6.914   3.941
 2528SOL     OW 8482   5.792   5.204   0.460
 2528SOL    HW1 8483   5.795   5.259   0.544
 2528SOL    HW2 8484   5.873   5.145   0.457
 2529SOL     OW 8485   5.273   3.943   4.511
 2529SOL    HW1 8486   5.275   4.012   4.438
 2529SOL    HW2 8487   5.250   3.854   4.472
 2530SOL     OW 8488   1.184   6.681   3.671
 2530SOL    HW1 8489   1.139   6.767   3.647
 2530SOL    HW2 8490   1.116   6.609   3.682
 2531SOL     OW 8491   5.233   1.310   0.706
 2531SOL    HW1 8492   5.207   1.248   0.780
 2531SOL    HW2 8493   5.283   1.388   0.743
 2532SOL     OW 8494   0.951   4.299   5.751
 2532SOL    HW1 8495   0.932   4.391   5.786
 2532SOL    HW2 8496   1.021   4.305   5.680
 2533SOL     OW 8497   5.844   6.516   5.180
 2533SOL    HW1 8498   5.872   6.604   5.219
 2533SOL    HW2 8499   5.773   6.476   5.238
 2534SOL     OW 8500   6.709   2.086   3.294
 2534SOL    HW1 8501   6.664   2.079   3.384
 2534SOL    HW2 8502   6.807   2.104   3.307
 2535SOL     OW 8503   1.720   1.438   2.878
 2535SOL    HW1 8504   1.791   1.472   2.817
 2535SOL    HW2 8505   1.707   1.340   2.864
 2536SOL     OW 8506   0.047   1.017   3.954
 2536SOL    HW1 8507   6.992   1.058   4.001
 2536SOL    HW2 8508   0.068   0.929   3.995
 2537SOL     OW 8509   4.025   5.259   1.658
 2537SOL    HW1 8510   3.969   5.185   1.695
 2537SOL    HW2 8511   4.014   5.342   1.713
 2538SOL     OW 8512   1.679   4.425   4.878
 2538SOL    HW1 8513   1.653   4.522   4.878
 2538SOL    HW2 8514   1.741   4.407   4.803
 2539SOL     OW 8515   2.308   1.120   5.523
 2539SOL    HW1 8516   2.381   1.063   5.560
 2539SOL    HW2 8517   2.223   1.102   5.573
 2540SOL     OW 8518   5.560   2.056   2.457
 2540SOL    HW1 8519   5.540   1.987   2.386
 2540SOL    HW2 8520   5.559   2.012   2.547
 2541SOL     OW 8521   0.507   0.103   5.853
 2541SOL    HW1 8522   0.515   0.183   5.793
 2541SOL    HW2 8523   0.560   0.027   5.813
 2542SOL     OW 8524   3.678   1.882   3.695
 2542SOL    HW1 8525   3.613   1.814   3.661
 2542SOL    HW2 8526   3.769   1.862   3.659
 2543SOL     OW 8527   0.293   1.989   4.173
 2543SOL    HW1 8528   0.383   1.992   4.128
 2543SOL    HW2 8529   0.232   2.056   4.132
 2544SOL     OW 8530   6.527   6.128   1.986
 2544SOL    HW1 8531   6.610   6.107   2.037
 2544SOL    HW2 8532   6.552   6.167   1.897
 2545SOL     OW 8533   6.312   1.781   0.324
 2545SOL    HW1 8534   6.291   1.714   0.395
 2545SOL    HW2 8535   6.241   1.778   0.253
 2546SOL     OW 8536   6.456   3.828   2.361
 2546SOL    HW1 8537   6.527   3.889   2.398
 2546SOL    HW2 8538   6.477   3.807   2.266
 2547SOL     OW 8539   5.435   4.132   0.994
 2547SOL    HW1 8540   5.518   4.092   0.955
 2547SOL    HW2 8541   5.443   4.135   1.093
 2548SOL     OW 8542   6.330   0.020   5.734
 2548SOL    HW1 8543   6.426   0.046   5.746
 2548SOL    HW2 8544   6.289   0.002   5.823
 2549SOL     OW 8545   2.466   3.204   0.289
 2549SOL    HW1 8546   2.542   3.182   0.228
 2549SOL    HW2 8547   2.420   3.287   0.256
 2550SOL     OW 8548   4.386   5.975   0.295
 2550SOL    HW1 8549   4.415   5.999   0.387
 2550SOL    HW2 8550   4.290   5.946   0.297
 2551SOL     OW 8551   3.417   5.052   0.798
 2551SOL    HW1 8552   3.423   5.049   0.897
 2551SOL    HW2 8553   3.359   4.977   0.766
 2552SOL     OW 8554   2.472   4.861   1.917
 2552SOL    HW1 8555   2.554   4.807   1.939
 2552SOL    HW2 8556   2.476   4.889   1.822
 2553SOL     OW 8557   4.715   0.996   0.226
 2553SOL    HW1 8558   4.684   1.030   0.137
 2553SOL    HW2 8559   4.646   1.015   0.296
 2554SOL     OW 8560   1.216   5.484   1.099
 2554SOL    HW1 8561   1.117   5.476   1.109
 2554SOL    HW2 8562   1.256   5.393   1.089
 2555SOL     OW 8563   5.910   6.817   4.623
 2555SOL    HW1 8564   5.891   6.786   4.716
 2555SOL    HW2 8565   6.003   6.791   4.597
 2556SOL     OW 8566   3.456   6.668   0.570
 2556SOL    HW1 8567   3.419   6.622   0.489
 2556SOL    HW2 8568   3.522   6.607   0.615
 2557SOL     OW 8569   3.200   0.313   6.726
 2557SOL    HW1 8570   3.204   0.296   6.628
 2557SOL    HW2 8571   3.252   0.243   6.775
 2558SOL     OW 8572   4.788   2.438   1.752
 2558SOL    HW1 8573   4.769   2.473   1.844
 2558SOL    HW2 8574   4.717   2.471   1.689
 2559SOL     OW 8575   0.297   5.270   3.838
 2559SOL    HW1 8576   0.350   5.352   3.815
 2559SOL    HW2 8577   0.359   5.198   3.870
 2560SOL     OW 8578   5.100   2.381   2.869
 2560SOL    HW1 8579   5.072   2.474   2.893
 2560SOL    HW2 8580   5.058   2.316   2.931
 2561SOL     OW 8581   3.924   0.071   4.123
 2561SOL    HW1 8582   3.905   0.029   4.212
 2561SOL    HW2 8583   4.014   0.042   4.091
 2562SOL     OW 8584   1.864   0.166   4.760
 2562SOL    HW1 8585   1.815   0.079   4.759
 2562SOL    HW2 8586   1.898   0.185   4.852
 2563SOL     OW 8587   3.383   2.536   6.388
 2563SOL    HW1 8588   3.397   2.539   6.487
 2563SOL    HW2 8589   3.319   2.462   6.366
 2564SOL     OW 8590   1.330   1.783   0.137
 2564SOL    HW1 8591   1.405   1.832   0.093
 2564SOL    HW2 8592   1.243   1.813   0.098
 2565SOL     OW 8593   1.251   0.898   0.475
 2565SOL    HW1 8594   1.292   0.928   0.389
 2565SOL    HW2 8595   1.176   0.960   0.500
 2566SOL     OW 8596   2.914   0.716   1.305
 2566SOL    HW1 8597   2.974   0.713   1.385
 2566SOL    HW2 8598   2.818   0.716   1.336
 2567SOL     OW 8599   1.861   0.916   6.736
 2567SOL    HW1 8600   1.904   0.827   6.723
 2567SOL    HW2 8601   1.855   0.963   6.648
 2568SOL     OW 8602   1.998   5.781   0.955
 2568SOL    HW1 8603   1.974   5.860   1.010
 2568SOL    HW2 8604   1.919   5.751   0.902
 2569SOL     OW 8605   1.959   6.930   0.760
 2569SOL    HW1 8606   1.886   6.880   0.713
 2569SOL    HW2 8607   1.923   6.971   0.843
 2570SOL     OW 8608   0.577   6.447   4.876
 2570SOL    HW1 8609   0.543   6.541   4.870
 2570SOL    HW2 8610   0.597   6.425   4.971
 2571SOL     OW 8611   3.168   3.963   3.919
 2571SOL    HW1 8612   3.076   3.925   3.915
 2571SOL    HW2 8613   3.190   3.989   4.013
 2572SOL     OW 8614   1.811   5.199   2.147
 2572SOL    HW1 8615   1.892   5.249   2.179
 2572SOL    HW2 8616   1.777   5.241   2.063
 2573SOL     OW 8617   0.182   1.848   3.939
 2573SOL    HW1 8618   0.214   1.901   4.017
 2573SOL    HW2 8619   0.147   1.909   3.868
 2574SOL     OW 8620   0.748   3.699   2.195
 2574SOL    HW1 8621   0.734   3.752   2.279
 2574SOL    HW2 8622   0.822   3.633   2.210
 2575SOL     OW 8623   5.703   3.407   6.334
 2575SOL    HW1 8624   5.652   3.337   6.285
 2575SOL    HW2 8625   5.640   3.476   6.371
 2576SOL     OW 8626   1.712   0.264   3.169
 2576SOL    HW1 8627   1.798   0.214   3.179
 2576SOL    HW2 8628   1.674   0.246   3.078
 2577SOL     OW 8629   2.185   5.363   1.303
 2577SOL    HW1 8630   2.268   5.351   1.248
 2577SOL    HW2 8631   2.185   5.455   1.344
 2578SOL     OW 8632   4.900   2.309   4.360
 2578SOL    HW1 8633   4.824   2.267   4.409
 2578SOL    HW2 8634   4.927   2.394   4.406
 2579SOL     OW 8635   6.948   1.461   6.187
 2579SOL    HW1 8636   6.958   1.549   6.140
 2579SOL    HW2 8637   0.010   1.436   6.229
 2580SOL     OW 8638   1.566   1.725   5.943
 2580SOL    HW1 8639   1.523   1.811   5.972
 2580SOL    HW2 8640   1.588   1.670   6.024
 2581SOL     OW 8641   6.082   0.465   4.900
 2581SOL    HW1 8642   6.177   0.439   4.883
 2581SOL    HW2 8643   6.078   0.533   4.974
 2582SOL     OW 8644   0.310   5.611   3.119
 2582SOL    HW1 8645   0.368   5.584   3.042
 2582SOL    HW2 8646   0.365   5.661   3.186
 2583SOL     OW 8647   2.087   1.084   6.487
 2583SOL    HW1 8648   2.097   0.993   6.446
 2583SOL    HW2 8649   2.158   1.098   6.556
 2584SOL     OW 8650   5.195   0.077   2.933
 2584SOL    HW1 8651   5.287   0.113   2.948
 2584SOL    HW2 8652   5.192   0.028   2.846
 2585SOL     OW 8653   4.534   1.098   1.713
 2585SOL    HW1 8654   4.440   1.133   1.721
 2585SOL    HW2 8655   4.598   1.166   1.748
 2586SOL     OW 8656   6.659   1.606   4.440
 2586SOL    HW1 8657   6.750   1.619   4.401
 2586SOL    HW2 8658   6.601   1.683   4.414
 2587SOL     OW 8659   6.781   6.396   2.473
 2587SOL    HW1 8660   6.683   6.414   2.478
 2587SOL    HW2 8661   6.828   6.447   2.545
 2588SOL     OW 8662   5.079   0.320   2.007
 2588SOL    HW1 8663   4.982   0.302   2.022
 2588SOL    HW2 8664   5.126   0.327   2.095
 2589SOL     OW 8665   5.752   6.292   0.489
 2589SOL    HW1 8666   5.755   6.391   0.484
 2589SOL    HW2 8667   5.836   6.254   0.452
 2590SOL     OW 8668   3.673   6.881   2.851
 2590SOL    HW1 8669   3.607   6.944   2.891
 2590SOL    HW2 8670   3.704   6.916   2.763
 2591SOL     OW 8671   5.863   0.531   1.469
 2591SOL    HW1 8672   5.767   0.547   1.444
 2591SOL    HW2 8673   5.916   0.512   1.387
 2592SOL     OW 8674   2.995   5.040   1.535
 2592SOL    HW1 8675   3.089   5.074   1.547
 2592SOL    HW2 8676   2.931   5.100   1.582
 2593SOL     OW 8677   3.191   0.087   2.411
 2593SOL    HW1 8678   3.194   0.051   2.318
 2593SOL    HW2 8679   3.278   0.069   2.456
 2594SOL     OW 8680   1.640   6.860   6.445
 2594SOL    HW1 8681   1.680   6.815   6.365
 2594SOL    HW2 8682   1.665   6.810   6.528
 2595SOL     OW 8683   6.168   3.078   4.130
 2595SOL    HW1 8684   6.156   3.061   4.228
 2595SOL    HW2 8685   6.263   3.063   4.105
 2596SOL     OW 8686   4.421   2.233   1.611
 2596SOL    HW1 8687   4.396   2.238   1.708
 2596SOL    HW2 8688   4.346   2.267   1.556
 2597SOL     OW 8689   1.768   2.497   6.538
 2597SOL    HW1 8690   1.701   2.547   6.483
 2597SOL    HW2 8691   1.841   2.559   6.566
 2598SOL     OW 8692   5.912   2.441   2.708
 2598SOL    HW1 8693   5.820   2.402   2.711
 2598SOL    HW2 8694   5.931   2.489   2.793
 2599SOL     OW 8695   4.226   4.464   6.954
 2599SOL    HW1 8696   4.185   4.541   6.905
 2599SOL    HW2 8697   4.174   4.381   6.933
 2600SOL     OW 8698   6.711   3.295   3.654
 2600SOL    HW1 8699   6.630   3.237   3.663
 2600SOL    HW2 8700   6.736   3.304   3.558
 2601SOL     OW 8701   3.601   3.143   5.248
 2601SOL    HW1 8702   3.537   3.214   5.219
 2601SOL    HW2 8703   3.694   3.172   5.229
 2602SOL     OW 8704   5.878   5.593   5.562
 2602SOL    HW1 8705   5.968   5.633   5.541
 2602SOL    HW2 8706   5.859   5.519   5.498
 2603SOL     OW 8707   2.756   2.609   6.941
 2603SOL    HW1 8708   2.840   2.631   6.890
 2603SOL    HW2 8709   2.677   2.621   6.881
 2604SOL     OW 8710   5.783   1.313   1.545
 2604SOL    HW1 8711   5.882   1.319   1.551
 2604SOL    HW2 8712   5.748   1.257   1.620
 2605SOL     OW 8713   4.925   3.886   3.812
 2605SOL    HW1 8714   4.905   3.977   3.776
 2605SOL    HW2 8715   4.880   3.874   3.900
 2606SOL     OW 8716   0.079   4.567   1.397
 2606SOL    HW1 8717   0.013   4.601   1.330
 2606SOL    HW2 8718   0.057   4.607   1.487
 2607SOL     OW 8719   0.653   1.911   4.800
 2607SOL    HW1 8720   0.670   2.010   4.803
 2607SOL    HW2 8721   0.560   1.892   4.830
 2608SOL     OW 8722   4.976   6.854   0.524
 2608SOL    HW1 8723   5.034   6.785   0.479
 2608SOL    HW2 8724   5.007   6.945   0.496
 2609SOL     OW 8725   0.390   2.530   3.943
 2609SOL    HW1 8726   0.362   2.596   4.013
 2609SOL    HW2 8727   0.482   2.552   3.912
 2610SOL     OW 8728   5.274   5.497   4.819
 2610SOL    HW1 8729   5.229   5.476   4.906
 2610SOL    HW2 8730   5.251   5.590   4.792
 2611SOL     OW 8731   2.994   6.005   2.051
 2611SOL    HW1 8732   2.932   6.076   2.083
 2611SOL    HW2 8733   3.034   5.958   2.129
 2612SOL     OW 8734   6.239   6.685   4.756
 2612SOL    HW1 8735   6.189   6.600   4.774
 2612SOL    HW2 8736   6.227   6.711   4.660
 2613SOL     OW 8737   4.000   0.837   1.279
 2613SOL    HW1 8738   3.925   0.860   1.340
 2613SOL    HW2 8739   3.990   0.888   1.194
 2614SOL     OW 8740   6.960   6.135   6.387
 2614SOL    HW1 8741   0.035   6.127   6.376
 2614SOL    HW2 8742   6.937   6.230   6.411
 2615SOL     OW 8743   5.700   4.885   1.867
 2615SOL    HW1 8744   5.721   4.981   1.886
 2615SOL    HW2 8745   5.757   4.853   1.792
 2616SOL     OW 8746   4.079   3.455   2.460
 2616SOL    HW1 8747   4.096   3.370   2.510
 2616SOL    HW2 8748   4.033   3.434   2.374
 2617SOL     OW 8749   3.950   0.580   1.288
 2617SOL    HW1 8750   3.975   0.676   1.281
 2617SOL    HW2 8751   3.921   0.559   1.382
 2618SOL     OW 8752   0.786   0.410   0.503
 2618SOL    HW1 8753   0.816   0.500   0.535
 2618SOL    HW2 8754   0.744   0.419   0.413
 2619SOL     OW 8755   5.142   1.036   1.134
 2619SOL    HW1 8756   5.156   0.943   1.169
 2619SOL    HW2 8757   5.072   1.081   1.190
 2620SOL     OW 8758   1.906   4.646   4.511
 2620SOL    HW1 8759   1.896   4.570   4.576
 2620SOL    HW2 8760   1.982   4.626   4.449
 2621SOL     OW 8761   1.339   4.750   3.699
 2621SOL    HW1 8762   1.247   4.742   3.736
 2621SOL    HW2 8763   1.392   4.814   3.755
 2622SOL     OW 8764   2.570   3.191   6.158
 2622SOL    HW1 8765   2.496   3.248   6.121
 2622SOL    HW2 8766   2.553   3.096   6.134
 2623SOL     OW 8767   3.279   1.101   6.155
 2623SOL    HW1 8768   3.234   1.064   6.236
 2623SOL    HW2 8769   3.357   1.043   6.131
 2624SOL     OW 8770   6.688   2.014   4.045
 2624SOL    HW1 8771   6.770   1.976   4.088
 2624SOL    HW2 8772   6.691   2.114   4.048
 2625SOL     OW 8773   4.715   0.822   5.629
 2625SOL    HW1 8774   4.647   0.772   5.683
 2625SOL    HW2 8775   4.719   0.917   5.659
 2626SOL     OW 8776   2.416   0.226   2.124
 2626SOL    HW1 8777   2.503   0.273   2.138
 2626SOL    HW2 8778   2.387   0.238   2.030
 2627SOL     OW 8779   7.016   0.924   4.549
 2627SOL    HW1 8780   0.064   0.928   4.480
 2627SOL    HW2 8781   6.968   1.012   4.552
 2628SOL     OW 8782   3.252   5.847   5.727
 2628SOL    HW1 8783   3.347   5.822   5.742
 2628SOL    HW2 8784   3.243   5.947   5.726
 2629SOL     OW 8785   2.939   4.091   1.431
 2629SOL    HW1 8786   2.979   4.012   1.477
 2629SOL    HW2 8787   2.972   4.175   1.475
 2630SOL     OW 8788   2.992   2.165   2.272
 2630SOL    HW1 8789   2.964   2.221   2.194
 2630SOL    HW2 8790   2.942   2.194   2.354
 2631SOL     OW 8791   4.459   0.055   4.901
 2631SOL    HW1 8792   4.387   0.120   4.877
 2631SOL    HW2 8793   4.431   0.001   4.980
 2632SOL     OW 8794   5.671   1.493   1.379
 2632SOL    HW1 8795   5.669   1.456   1.286
 2632SOL    HW2 8796   5.711   1.425   1.441
 2633SOL     OW 8797   6.761   2.759   6.101
 2633SOL    HW1 8798   6.705   2.837   6.073
 2633SOL    HW2 8799   6.773   2.698   6.023
 2634SOL     OW 8800   2.953   5.275   1.289
 2634SOL    HW1 8801   3.011   5.273   1.370
 2634SOL    HW2 8802   2.997   5.223   1.216
 2635SOL     OW 8803   5.897   4.130   3.349
 2635SOL    HW1 8804   5.973   4.068   3.332
 2635SOL    HW2 8805   5.888   4.147   3.447
 2636SOL     OW 8806   5.773   0.662   5.157
 2636SOL    HW1 8807   5.723   0.578   5.140
 2636SOL    HW2 8808   5.740   0.734   5.096
 2637SOL     OW 8809   5.001   6.455   2.951
 2637SOL    HW1 8810   5.096   6.463   2.922
 2637SOL    HW2 8811   4.985   6.515   3.029
 2638SOL     OW 8812   6.047   5.568   0.766
 2638SOL    HW1 8813   6.017   5.614   0.850
 2638SOL    HW2 8814   6.143   5.591   0.748
 2639SOL     OW 8815   6.651   6.410   0.129
 2639SOL    HW1 8816   6.565   6.388   0.083
 2639SOL    HW2 8817   6.722   6.424   0.060
 2640SOL     OW 8818   6.504   6.933   6.524
 2640SOL    HW1 8819   6.578   6.999   6.539
 2640SOL    HW2 8820   6.427   6.979   6.481
 2641SOL     OW 8821   5.717   5.595   0.066
 2641SOL    HW1 8822   5.759   5.646   0.140
 2641SOL    HW2 8823   5.636   5.548   0.099
 2642SOL     OW 8824   6.253   0.159   3.412
 2642SOL    HW1 8825   6.193   0.236   3.389
 2642SOL    HW2 8826   6.334   0.192   3.459
 2643SOL     OW 8827   1.028   0.775   2.616
 2643SOL    HW1 8828   1.011   0.841   2.689
 2643SOL    HW2 8829   1.124   0.776   2.591
 2644SOL     OW 8830   0.491   5.612   6.027
 2644SOL    HW1 8831   0.513   5.631   6.122
 2644SOL    HW2 8832   0.528   5.684   5.968
 2645SOL     OW 8833   6.144   5.440   5.640
 2645SOL    HW1 8834   6.094   5.445   5.726
 2645SOL    HW2 8835   6.242   5.455   5.657
 2646SOL     OW 8836   6.695   6.154   6.922
 2646SOL    HW1 8837   6.717   6.057   6.912
 2646SOL    HW2 8838   6.762   6.197   6.982
 2647SOL     OW 8839   3.738   2.969   0.256
 2647SOL    HW1 8840   3.646   2.929   0.264
 2647SOL    HW2 8841   3.731   3.068   0.262
 2648SOL     OW 8842   3.204   1.129   2.565
 2648SOL    HW1 8843   3.270   1.055   2.582
 2648SOL    HW2 8844   3.161   1.156   2.652
 2649SOL     OW 8845   3.475   2.642   5.502
 2649SOL    HW1 8846   3.433   2.640   5.593
 2649SOL    HW2 8847   3.484   2.737   5.473
 2650SOL     OW 8848   0.129   6.396   1.787
 2650SOL    HW1 8849   0.194   6.324   1.811
 2650SOL    HW2 8850   0.151   6.432   1.697
 2651SOL     OW 8851   0.803   7.002   3.678
 2651SOL    HW1 8852   0.739   6.951   3.735
 2651SOL    HW2 8853   0.763   7.015   3.587
 2652SOL     OW 8854   3.126   3.092   2.473
 2652SOL    HW1 8855   3.220   3.111   2.442
 2652SOL    HW2 8856   3.062   3.149   2.421
 2653SOL     OW 8857   6.819   5.682   6.439
 2653SOL    HW1 8858   6.901   5.626   6.430
 2653SOL    HW2 8859   6.740   5.633   6.402
 2654SOL     OW 8860   5.278   2.167   6.377
 2654SOL    HW1 8861   5.250   2.086   6.325
 2654SOL    HW2 8862   5.328   2.229   6.316
 2655SOL     OW 8863   5.089   5.497   5.012
 2655SOL    HW1 8864   5.104   5.576   5.072
 2655SOL    HW2 8865   4.996   5.463   5.025
 2656SOL     OW 8866   5.412   3.435   3.737
 2656SOL    HW1 8867   5.353   3.446   3.816
 2656SOL    HW2 8868   5.454   3.523   3.713
 2657SOL     OW 8869   2.229   2.513   5.826
 2657SOL    HW1 8870   2.194   2.421   5.847
 2657SOL    HW2 8871   2.168   2.581   5.868
 2658SOL     OW 8872   5.545   4.452   5.759
 2658SOL    HW1 8873   5.629   4.456   5.705
 2658SOL    HW2 8874   5.480   4.390   5.715
 2659SOL     OW 8875   6.987   2.220   2.826
 2659SOL    HW1 8876   6.935   2.270   2.757
 2659SOL    HW2 8877   7.014   2.284   2.899
 2660SOL     OW 8878   6.325   2.326   3.439
 2660SOL    HW1 8879   6.337   2.264   3.517
 2660SOL    HW2 8880   6.406   2.384   3.429
 2661SOL     OW 8881   4.560   6.164   1.537
 2661SOL    HW1 8882   4.651   6.124   1.551
 2661SOL    HW2 8883   4.531   6.210   1.621
 2662SOL     OW 8884   3.649   6.668   3.589
 2662SOL    HW1 8885   3.631   6.599   3.519
 2662SOL    HW2 8886   3.596   6.646   3.671
 2663SOL     OW 8887   0.733   4.697   3.045
 2663SOL    HW1 8888   0.794   4.622   3.071
 2663SOL    HW2 8889   0.779   4.755   2.978
 2664SOL     OW 8890   4.095   3.618   1.835
 2664SOL    HW1 8891   4.071   3.642   1.929
 2664SOL    HW2 8892   4.158   3.686   1.798
 2665SOL     OW 8893   4.048   0.810   4.621
 2665SOL    HW1 8894   4.131   0.812   4.565
 2665SOL    HW2 8895   4.072   0.806   4.718
 2666SOL     OW 8896   5.610   6.492   1.967
 2666SOL    HW1 8897   5.545   6.434   1.919
 2666SOL    HW2 8898   5.691   6.439   1.992
 2667SOL     OW 8899   1.638   5.120   3.757
 2667SOL    HW1 8900   1.695   5.077   3.827
 2667SOL    HW2 8901   1.687   5.119   3.670
 2668SOL     OW 8902   0.075   2.251   5.629
 2668SOL    HW1 8903   0.034   2.165   5.663
 2668SOL    HW2 8904   0.080   2.248   5.529
 2669SOL     OW 8905   4.398   5.136   5.880
 2669SOL    HW1 8906   4.432   5.105   5.969
 2669SOL    HW2 8907   4.302   5.162   5.887
 2670SOL     OW 8908   1.757   0.555   6.220
 2670SOL    HW1 8909   1.779   0.498   6.141
 2670SOL    HW2 8910   1.841   0.576   6.270
 2671SOL     OW 8911   3.274   4.005   5.838
 2671SOL    HW1 8912   3.370   3.979   5.837
 2671SOL    HW2 8913   3.217   3.923   5.853
 2672SOL     OW 8914   0.577   4.356   0.177
 2672SOL    HW1 8915   0.605   4.295   0.103
 2672SOL    HW2 8916   0.486   4.393   0.157
 2673SOL     OW 8917   4.887   2.317   3.825
 2673SOL    HW1 8918   4.805   2.320   3.768
 2673SOL    HW2 8919   4.873   2.374   3.907
 2674SOL     OW 8920   5.256   5.527   5.776
 2674SOL    HW1 8921   5.179   5.587   5.799
 2674SOL    HW2 8922   5.254   5.506   5.679
 2675SOL     OW 8923   0.276   3.780   5.446
 2675SOL    HW1 8924   0.290   3.844   5.371
 2675SOL    HW2 8925   0.217   3.821   5.515
 2676SOL     OW 8926   4.212   0.376   2.269
 2676SOL    HW1 8927   4.127   0.332   2.242
 2676SOL    HW2 8928   4.270   0.311   2.318
 2677SOL     OW 8929   2.506   4.568   2.397
 2677SOL    HW1 8930   2.600   4.598   2.379
 2677SOL    HW2 8931   2.495   4.550   2.495
 2678SOL     OW 8932   0.014   5.560   6.363
 2678SOL    HW1 8933   0.103   5.588   6.399
 2678SOL    HW2 8934   0.022   5.471   6.319
 2679SOL     OW 8935   2.380   4.421   0.585
 2679SOL    HW1 8936   2.398   4.469   0.670
 2679SOL    HW2 8937   2.282   4.422   0.565
 2680SOL     OW 8938   0.957   1.929   1.605
 2680SOL    HW1 8939   0.886   1.923   1.535
 2680SOL    HW2 8940   0.918   1.966   1.689
 2681SOL     OW 8941   1.392   1.363   2.489
 2681SOL    HW1 8942   1.311   1.320   2.450
 2681SOL    HW2 8943   1.365   1.431   2.557
 2682SOL     OW 8944   6.549   2.458   3.400
 2682SOL    HW1 8945   6.610   2.432   3.475
 2682SOL    HW2 8946   6.594   2.442   3.313
 2683SOL     OW 8947   1.380   0.304   1.832
 2683SOL    HW1 8948   1.312   0.232   1.823
 2683SOL    HW2 8949   1.453   0.274   1.895
 2684SOL     OW 8950   2.479   6.000   2.935
 2684SOL    HW1 8951   2.397   5.945   2.950
 2684SOL    HW2 8952   2.553   5.940   2.903
 2685SOL     OW 8953   5.406   5.556   5.136
 2685SOL    HW1 8954   5.505   5.550   5.138
 2685SOL    HW2 8955   5.366   5.470   5.166
 2686SOL     OW 8956   1.317   2.977   4.239
 2686SOL    HW1 8957   1.372   2.896   4.260
 2686SOL    HW2 8958   1.355   3.056   4.288
 2687SOL     OW 8959   5.216   5.450   3.127
 2687SOL    HW1 8960   5.237   5.480   3.034
 2687SOL    HW2 8961   5.143   5.382   3.125
 2688SOL     OW 8962   3.298   5.089   5.972
 2688SOL    HW1 8963   3.397   5.099   5.959
 2688SOL    HW2 8964   3.261   5.029   5.902
 2689SOL     OW 8965   6.795   3.031   4.091
 2689SOL    HW1 8966   6.831   3.120   4.121
 2689SOL    HW2 8967   6.829   3.010   4.000
 2690SOL     OW 8968   2.916   3.693   3.567
 2690SOL    HW1 8969   2.960   3.778   3.538
 2690SOL    HW2 8970   2.920   3.625   3.494
 2691SOL     OW 8971   1.286   6.094   1.567
 2691SOL    HW1 8972   1.203   6.041   1.550
 2691SOL    HW2 8973   1.362   6.052   1.518
 2692SOL     OW 8974   6.722   5.887   3.120
 2692SOL    HW1 8975   6.669   5.872   3.037
 2692SOL    HW2 8976   6.820   5.885   3.099
 2693SOL     OW 8977   1.570   3.716   3.571
 2693SOL    HW1 8978   1.603   3.730   3.664
 2693SOL    HW2 8979   1.616   3.636   3.531
 2694SOL     OW 8980   2.678   0.510   3.380
 2694SOL    HW1 8981   2.721   0.587   3.332
 2694SOL    HW2 8982   2.649   0.442   3.313
 2695SOL     OW 8983   3.621   2.125   2.612
 2695SOL    HW1 8984   3.531   2.101   2.574
 2695SOL    HW2 8985   3.683   2.149   2.538
 2696SOL     OW 8986   3.928   3.309   5.275
 2696SOL    HW1 8987   4.019   3.294   5.235
 2696SOL    HW2 8988   3.936   3.373   5.352
 2697SOL     OW 8989   2.376   2.213   4.653
 2697SOL    HW1 8990   2.316   2.152   4.705
 2697SOL    HW2 8991   2.471   2.182   4.660
 2698SOL     OW 8992   2.132   3.449   7.001
 2698SOL    HW1 8993   2.040   3.408   6.999
 2698SOL    HW2 8994   2.134   3.522   0.045
 2699SOL     OW 8995   3.954   5.944   1.936
 2699SOL    HW1 8996   3.872   5.974   1.888
 2699SOL    HW2 8997   3.930   5.876   2.004
 2700SOL     OW 8998   1.593   3.751   3.015
 2700SOL    HW1 8999   1.571   3.722   2.922
 2700SOL    HW2 9000   1.534   3.827   3.041
 2701SOL     OW 9001   3.382   6.505   6.143
 2701SOL    HW1 9002   3.376   6.573   6.216
 2701SOL    HW2 9003   3.476   6.473   6.134
 2702SOL     OW 9004   0.196   0.290   2.754
 2702SOL    HW1 9005   0.271   0.223   2.759
 2702SOL    HW2 9006   0.109   0.244   2.771
 2703SOL     OW 9007   1.794   1.476   3.138
 2703SOL    HW1 9008   1.727   1.435   3.200
 2703SOL    HW2 9009   1.764   1.464   3.043
 2704SOL     OW 9010   1.813   5.747   0.491
 2704SOL    HW1 9011   1.838   5.680   0.562
 2704SOL    HW2 9012   1.784   5.832   0.535
 2705SOL     OW 9013   0.339   4.967   2.977
 2705SOL    HW1 9014   0.393   4.884   2.967
 2705SOL    HW2 9015   0.356   5.028   2.900
 2706SOL     OW 9016   6.636   1.767   1.770
 2706SOL    HW1 9017   6.671   1.700   1.835
 2706SOL    HW2 9018   6.661   1.740   1.677
 2707SOL     OW 9019   2.333   1.606   5.639
 2707SOL    HW1 9020   2.304   1.685   5.585
 2707SOL    HW2 9021   2.341   1.526   5.580
 2708SOL     OW 9022   1.944   2.737   1.165
 2708SOL    HW1 9023   1.942   2.719   1.067
 2708SOL    HW2 9024   2.002   2.816   1.183
 2709SOL     OW 9025   4.642   6.423   1.722
 2709SOL    HW1 9026   4.576   6.491   1.690
 2709SOL    HW2 9027   4.597   6.358   1.783
 2710SOL     OW 9028   5.670   3.836   2.377
 2710SOL    HW1 9029   5.687   3.768   2.449
 2710SOL    HW2 9030   5.672   3.791   2.288
 2711SOL     OW 9031   1.181   0.116   1.809
 2711SOL    HW1 9032   1.230   0.030   1.822
 2711SOL    HW2 9033   1.083   0.097   1.796
 2712SOL     OW 9034   3.430   4.659   1.031
 2712SOL    HW1 9035   3.383   4.609   1.103
 2712SOL    HW2 9036   3.470   4.743   1.068
 2713SOL     OW 9037   2.203   3.102   4.731
 2713SOL    HW1 9038   2.148   3.086   4.813
 2713SOL    HW2 9039   2.291   3.055   4.740
 2714SOL     OW 9040   5.098   6.795   5.369
 2714SOL    HW1 9041   5.060   6.877   5.412
 2714SOL    HW2 9042   5.198   6.797   5.374
 2715SOL     OW 9043   6.765   0.803   0.174
 2715SOL    HW1 9044   6.735   0.802   0.269
 2715SOL    HW2 9045   6.795   0.711   0.148
 2716SOL     OW 9046   0.665   6.640   2.771
 2716SOL    HW1 9047   0.666   6.696   2.853
 2716SOL    HW2 9048   0.660   6.699   2.690
 2717SOL     OW 9049   1.374   0.304   2.662
 2717SOL    HW1 9050   1.295   0.365   2.651
 2717SOL    HW2 9051   1.341   0.213   2.687
 2718SOL     OW 9052   1.397   4.728   3.406
 2718SOL    HW1 9053   1.413   4.827   3.412
 2718SOL    HW2 9054   1.356   4.696   3.491
 2719SOL     OW 9055   3.922   5.151   2.030
 2719SOL    HW1 9056   3.847   5.214   2.011
 2719SOL    HW2 9057   3.966   5.124   1.944
 2720SOL     OW 9058   1.145   5.662   4.311
 2720SOL    HW1 9059   1.105   5.670   4.220
 2720SOL    HW2 9060   1.093   5.719   4.375
 2721SOL     OW 9061   4.247   0.200   4.534
 2721SOL    HW1 9062   4.267   0.291   4.570
 2721SOL    HW2 9063   4.328   0.143   4.540
 2722SOL     OW 9064   1.474   5.476   1.213
 2722SOL    HW1 9065   1.464   5.445   1.308
 2722SOL    HW2 9066   1.385   5.498   1.175
 2723SOL     OW 9067   1.278   1.402   5.248
 2723SOL    HW1 9068   1.192   1.427   5.204
 2723SOL    HW2 9069   1.353   1.454   5.208
 2724SOL     OW 9070   3.175   5.543   6.337
 2724SOL    HW1 9071   3.223   5.588   6.261
 2724SOL    HW2 9072   3.104   5.482   6.301
 2725SOL     OW 9073   3.418   4.931   3.015
 2725SOL    HW1 9074   3.477   4.906   2.938
 2725SOL    HW2 9075   3.374   5.019   2.996
 2726SOL     OW 9076   5.033   5.735   2.285
 2726SOL    HW1 9077   4.996   5.804   2.347
 2726SOL    HW2 9078   5.003   5.644   2.316
 2727SOL     OW 9079   2.429   5.395   3.104
 2727SOL    HW1 9080   2.346   5.423   3.153
 2727SOL    HW2 9081   2.417   5.303   3.069
 2728SOL     OW 9082   3.601   0.274   5.814
 2728SOL    HW1 9083   3.511   0.254   5.775
 2728SOL    HW2 9084   3.638   0.193   5.859
 2729SOL     OW 9085   6.199   4.692   2.767
 2729SOL    HW1 9086   6.177   4.783   2.802
 2729SOL    HW2 9087   6.224   4.632   2.843
 2730SOL     OW 9088   1.751   4.469   1.644
 2730SOL    HW1 9089   1.798   4.381   1.652
 2730SOL    HW2 9090   1.676   4.462   1.578
 2731SOL     OW 9091   2.920   3.765   1.815
 2731SOL    HW1 9092   2.979   3.727   1.744
 2731SOL    HW2 9093   2.960   3.850   1.849
 2732SOL     OW 9094   5.435   1.936   3.357
 2732SOL    HW1 9095   5.524   1.979   3.371
 2732SOL    HW2 9096   5.363   1.997   3.390
 2733SOL     OW 9097   1.567   0.782   5.539
 2733SOL    HW1 9098   1.612   0.738   5.461
 2733SOL    HW2 9099   1.553   0.715   5.612
 2734SOL     OW 9100   2.536   6.300   3.993
 2734SOL    HW1 9101   2.591   6.227   4.033
 2734SOL    HW2 9102   2.451   6.263   3.957
 2735SOL     OW 9103   2.180   4.342   1.553
 2735SOL    HW1 9104   2.217   4.250   1.566
 2735SOL    HW2 9105   2.193   4.396   1.636
 2736SOL     OW 9106   3.901   6.813   6.062
 2736SOL    HW1 9107   3.877   6.758   5.981
 2736SOL    HW2 9108   3.954   6.757   6.125
 2737SOL     OW 9109   4.269   3.486   6.066
 2737SOL    HW1 9110   4.223   3.567   6.031
 2737SOL    HW2 9111   4.330   3.449   5.996
 2738SOL     OW 9112   5.856   4.699   3.979
 2738SOL    HW1 9113   5.762   4.664   3.976
 2738SOL    HW2 9114   5.884   4.727   3.887
 2739SOL     OW 9115   5.811   3.680   1.005
 2739SOL    HW1 9116   5.743   3.634   0.948
 2739SOL    HW2 9117   5.845   3.617   1.075
 2740SOL     OW 9118   6.462   2.509   2.771
 2740SOL    HW1 9119   6.523   2.561   2.830
 2740SOL    HW2 9120   6.368   2.521   2.801
 2741SOL     OW 9121   1.294   2.303   6.076
 2741SOL    HW1 9122   1.259   2.216   6.110
 2741SOL    HW2 9123   1.277   2.311   5.978
 2742SOL     OW 9124   2.081   6.691   6.095
 2742SOL    HW1 9125   2.145   6.622   6.061
 2742SOL    HW2 9126   2.057   6.753   6.020
 2743SOL     OW 9127   5.443   4.922   0.591
 2743SOL    HW1 9128   5.385   5.002   0.607
 2743SOL    HW2 9129   5.419   4.850   0.657
 2744SOL     OW 9130   4.143   0.958   6.585
 2744SOL    HW1 9131   4.194   1.041   6.561
 2744SOL    HW2 9132   4.150   0.892   6.510
 2745SOL     OW 9133   2.409   5.776   1.135
 2745SOL    HW1 9134   2.463   5.788   1.052
 2745SOL    HW2 9135   2.384   5.865   1.173
 2746SOL     OW 9136   1.701   2.008   6.383
 2746SOL    HW1 9137   1.780   2.035   6.439
 2746SOL    HW2 9138   1.703   1.910   6.369
 2747SOL     OW 9139   5.186   5.647   4.062
 2747SOL    HW1 9140   5.165   5.738   4.096
 2747SOL    HW2 9141   5.281   5.624   4.083
 2748SOL     OW 9142   3.765   1.491   4.406
 2748SOL    HW1 9143   3.727   1.522   4.493
 2748SOL    HW2 9144   3.701   1.426   4.363
 2749SOL     OW 9145   4.151   5.350   4.404
 2749SOL    HW1 9146   4.077   5.417   4.397
 2749SOL    HW2 9147   4.151   5.292   4.323
 2750SOL     OW 9148   0.816   5.970   1.673
 2750SOL    HW1 9149   0.832   5.871   1.675
 2750SOL    HW2 9150   0.881   6.013   1.611
 2751SOL     OW 9151   1.027   6.848   6.942
 2751SOL    HW1 9152   1.031   6.947   6.955
 2751SOL    HW2 9153   1.119   6.810   6.944
 2752SOL     OW 9154   6.369   6.284   5.420
 2752SOL    HW1 9155   6.425   6.241   5.490
 2752SOL    HW2 9156   6.275   6.293   5.453
 2753SOL     OW 9157   2.832   5.771   5.229
 2753SOL    HW1 9158   2.932   5.766   5.219
 2753SOL    HW2 9159   2.802   5.864   5.208
 2754SOL     OW 9160   1.102   6.139   4.655
 2754SOL    HW1 9161   1.016   6.103   4.694
 2754SOL    HW2 9162   1.099   6.131   4.556
 2755SOL     OW 9163   3.778   6.091   2.260
 2755SOL    HW1 9164   3.864   6.119   2.217
 2755SOL    HW2 9165   3.711   6.165   2.253
 2756SOL     OW 9166   0.528   2.581   5.142
 2756SOL    HW1 9167   0.454   2.611   5.080
 2756SOL    HW2 9168   0.594   2.655   5.153
 2757SOL     OW 9169   4.479   3.335   6.746
 2757SOL    HW1 9170   4.388   3.304   6.719
 2757SOL    HW2 9171   4.484   3.341   6.846
 2758SOL     OW 9172   0.198   6.581   1.982
 2758SOL    HW1 9173   0.245   6.634   1.912
 2758SOL    HW2 9174   0.157   6.499   1.940
 2759SOL     OW 9175   3.554   3.699   5.923
 2759SOL    HW1 9176   3.481   3.684   5.990
 2759SOL    HW2 9177   3.633   3.642   5.945
 2760SOL     OW 9178   5.941   5.775   2.456
 2760SOL    HW1 9179   5.854   5.730   2.438
 2760SOL    HW2 9180   5.963   5.766   2.553
 2761SOL     OW 9181   1.341   2.949   3.424
 2761SOL    HW1 9182   1.243   2.952   3.445
 2761SOL    HW2 9183   1.358   2.874   3.360
 2762SOL     OW 9184   2.914   2.273   0.737
 2762SOL    HW1 9185   2.911   2.369   0.766
 2762SOL    HW2 9186   2.885   2.267   0.641
 2763SOL     OW 9187   6.499   1.810   4.033
 2763SOL    HW1 9188   6.551   1.725   4.040
 2763SOL    HW2 9189   6.561   1.885   4.010
 2764SOL     OW 9190   0.630   3.029   3.380
 2764SOL    HW1 9191   0.611   3.113   3.430
 2764SOL    HW2 9192   0.559   3.014   3.311
 2765SOL     OW 9193   6.197   6.786   6.440
 2765SOL    HW1 9194   6.099   6.771   6.427
 2765SOL    HW2 9195   6.236   6.708   6.489
 2766SOL     OW 9196   4.681   0.036   0.223
 2766SOL    HW1 9197   4.704   6.975   0.268
 2766SOL    HW2 9198   4.655   0.104   0.291
 2767SOL     OW 9199   0.320   5.444   6.286
 2767SOL    HW1 9200   0.280   5.483   6.203
 2767SOL    HW2 9201   0.355   5.352   6.266
 2768SOL     OW 9202   4.100   6.731   1.663
 2768SOL    HW1 9203   4.158   6.773   1.593
 2768SOL    HW2 9204   4.020   6.690   1.620
 2769SOL     OW 9205   0.552   4.568   5.819
 2769SOL    HW1 9206   0.548   4.540   5.723
 2769SOL    HW2 9207   0.603   4.654   5.827
 2770SOL     OW 9208   2.673   6.138   0.537
 2770SOL    HW1 9209   2.670   6.100   0.444
 2770SOL    HW2 9210   2.581   6.136   0.577
 2771SOL     OW 9211   4.748   0.460   5.106
 2771SOL    HW1 9212   4.726   0.558   5.112
 2771SOL    HW2 9213   4.795   0.432   5.190
 2772SOL     OW 9214   4.288   0.855   3.982
 2772SOL    HW1 9215   4.353   0.844   4.057
 2772SOL    HW2 9216   4.309   0.939   3.931
 2773SOL     OW 9217   5.820   2.632   4.815
 2773SOL    HW1 9218   5.790   2.726   4.832
 2773SOL    HW2 9219   5.882   2.603   4.888
 2774SOL     OW 9220   5.640   1.900   4.198
 2774SOL    HW1 9221   5.667   1.872   4.106
 2774SOL    HW2 9222   5.549   1.941   4.196
 2775SOL     OW 9223   0.041   3.350   4.018
 2775SOL    HW1 9224   7.008   3.288   4.072
 2775SOL    HW2 9225   7.016   3.374   3.934
 2776SOL     OW 9226   5.027   5.034   6.201
 2776SOL    HW1 9227   5.004   5.060   6.107
 2776SOL    HW2 9228   5.094   4.960   6.200
 2777SOL     OW 9229   2.394   1.985   6.541
 2777SOL    HW1 9230   2.484   2.028   6.530
 2777SOL    HW2 9231   2.351   2.020   6.624
 2778SOL     OW 9232   2.717   0.948   5.828
 2778SOL    HW1 9233   2.779   1.007   5.775
 2778SOL    HW2 9234   2.699   0.865   5.777
 2779SOL     OW 9235   4.910   0.785   1.331
 2779SOL    HW1 9236   4.886   0.875   1.294
 2779SOL    HW2 9237   4.833   0.748   1.382
 2780SOL     OW 9238   0.021   1.040   5.216
 2780SOL    HW1 9239   0.023   0.985   5.300
 2780SOL    HW2 9240   0.019   1.137   5.240
 2781SOL     OW 9241   5.681   1.056   3.541
 2781SOL    HW1 9242   5.740   1.133   3.566
 2781SOL    HW2 9243   5.689   0.984   3.610
 2782SOL     OW 9244   5.712   0.897   6.045
 2782SOL    HW1 9245   5.646   0.868   5.975
 2782SOL    HW2 9246   5.780   0.957   6.004
 2783SOL     OW 9247   6.188   3.606   1.630
 2783SOL    HW1 9248   6.170   3.648   1.541
 2783SOL    HW2 9249   6.203   3.508   1.618
 2784SOL     OW 9250   0.823   2.958   1.083
 2784SOL    HW1 9251   0.724   2.951   1.073
 2784SOL    HW2 9252   0.867   2.921   1.001
 2785SOL     OW 9253   6.088   3.297   2.160
 2785SOL    HW1 9254   6.033   3.215   2.176
 2785SOL    HW2 9255   6.039   3.378   2.192
 2786SOL     OW 9256   0.585   6.055   6.098
 2786SOL    HW1 9257   0.546   6.146   6.103
 2786SOL    HW2 9258   0.674   6.054   6.144
 2787SOL     OW 9259   0.286   5.606   6.708
 2787SOL    HW1 9260   0.286   5.511   6.679
 2787SOL    HW2 9261   0.288   5.666   6.628
 2788SOL     OW 9262   2.881   0.010   6.124
 2788SOL    HW1 9263   2.914   6.939   6.126
 2788SOL    HW2 9264   2.864   0.037   6.030
 2789SOL     OW 9265   1.083   2.140   4.941
 2789SOL    HW1 9266   0.994   2.135   4.897
 2789SOL    HW2 9267   1.131   2.223   4.912
 2790SOL     OW 9268   1.592   5.476   2.079
 2790SOL    HW1 9269   1.685   5.493   2.046
 2790SOL    HW2 9270   1.541   5.563   2.079
 2791SOL     OW 9271   0.948   2.975   3.837
 2791SOL    HW1 9272   0.980   2.952   3.746
 2791SOL    HW2 9273   0.981   3.066   3.862
 2792SOL     OW 9274   3.442   1.901   6.003
 2792SOL    HW1 9275   3.342   1.894   6.015
 2792SOL    HW2 9276   3.487   1.855   6.079
 2793SOL     OW 9277   4.032   3.438   0.440
 2793SOL    HW1 9278   3.947   3.399   0.474
 2793SOL    HW2 9279   4.012   3.513   0.378
 2794SOL     OW 9280   1.067   2.525   0.240
 2794SOL    HW1 9281   1.136   2.579   0.193
 2794SOL    HW2 9282   1.101   2.499   0.330
 2795SOL     OW 9283   1.405   6.278   1.258
 2795SOL    HW1 9284   1.396   6.372   1.225
 2795SOL    HW2 9285   1.470   6.275   1.334
 2796SOL     OW 9286   1.807   6.143   6.567
 2796SOL    HW1 9287   1.717   6.160   6.605
 2796SOL    HW2 9288   1.877   6.164   6.636
 2797SOL     OW 9289   5.177   4.949   3.111
 2797SOL    HW1 9290   5.148   4.861   3.149
 2797SOL    HW2 9291   5.275   4.960   3.123
 2798SOL     OW 9292   5.138   1.179   1.498
 2798SOL    HW1 9293   5.161   1.086   1.528
 2798SOL    HW2 9294   5.053   1.177   1.447
 2799SOL     OW 9295   3.350   6.672   4.346
 2799SOL    HW1 9296   3.301   6.611   4.284
 2799SOL    HW2 9297   3.344   6.638   4.440
 2800SOL     OW 9298   5.501   0.314   6.294
 2800SOL    HW1 9299   5.477   0.217   6.290
 2800SOL    HW2 9300   5.540   0.342   6.207
 2801SOL     OW 9301   0.445   4.603   4.019
 2801SOL    HW1 9302   0.499   4.680   4.052
 2801SOL    HW2 9303   0.350   4.632   4.009
 2802SOL     OW 9304   1.890   5.147   5.360
 2802SOL    HW1 9305   1.880   5.067   5.419
 2802SOL    HW2 9306   1.984   5.153   5.327
 2803SOL     OW 9307   3.807   2.723   6.135
 2803SOL    HW1 9308   3.802   2.744   6.233
 2803SOL    HW2 9309   3.902   2.703   6.110
 2804SOL     OW 9310   0.126   2.668   3.697
 2804SOL    HW1 9311   0.108   2.615   3.781
 2804SOL    HW2 9312   0.222   2.658   3.671
 2805SOL     OW 9313   3.310   3.609   0.852
 2805SOL    HW1 9314   3.307   3.586   0.949
 2805SOL    HW2 9315   3.302   3.526   0.797
 2806SOL     OW 9316   0.207   2.883   6.006
 2806SOL    HW1 9317   0.197   2.978   6.035
 2806SOL    HW2 9318   0.121   2.834   6.022
 2807SOL     OW 9319   4.054   1.420   3.695
 2807SOL    HW1 9320   3.983   1.432   3.625
 2807SOL    HW2 9321   4.129   1.485   3.678
 2808SOL     OW 9322   0.522   4.938   5.497
 2808SOL    HW1 9323   0.577   4.996   5.557
 2808SOL    HW2 9324   0.575   4.913   5.416
 2809SOL     OW 9325   0.119   5.713   2.021
 2809SOL    HW1 9326   0.111   5.625   1.975
 2809SOL    HW2 9327   0.194   5.709   2.087
 2810SOL     OW 9328   1.943   6.759   3.349
 2810SOL    HW1 9329   1.873   6.752   3.421
 2810SOL    HW2 9330   1.909   6.819   3.276
 2811SOL     OW 9331   0.948   1.103   0.740
 2811SOL    HW1 9332   1.021   1.117   0.674
 2811SOL    HW2 9333   0.862   1.140   0.703
 2812SOL     OW 9334   1.252   1.760   0.669
 2812SOL    HW1 9335   1.314   1.682   0.672
 2812SOL    HW2 9336   1.299   1.841   0.705
 2813SOL     OW 9337   0.921   3.470   2.232
 2813SOL    HW1 9338   0.851   3.399   2.243
 2813SOL    HW2 9339   1.000   3.448   2.290
 2814SOL     OW 9340   2.351   4.075   6.981
 2814SOL    HW1 9341   2.362   4.040   6.888
 2814SOL    HW2 9342   2.397   4.164   6.989
 2815SOL     OW 9343   0.446   5.098   4.581
 2815SOL    HW1 9344   0.508   5.110   4.658
 2815SOL    HW2 9345   0.359   5.143   4.601
 2816SOL     OW 9346   0.961   5.954   5.094
 2816SOL    HW1 9347   0.890   5.888   5.119
 2816SOL    HW2 9348   1.036   5.905   5.049
 2817SOL     OW 9349   3.434   0.677   2.289
 2817SOL    HW1 9350   3.338   0.706   2.289
 2817SOL    HW2 9351   3.493   0.758   2.296
 2818SOL     OW 9352   2.049   0.666   0.363
 2818SOL    HW1 9353   2.131   0.724   0.366
 2818SOL    HW2 9354   2.013   0.653   0.455
 2819SOL     OW 9355   0.700   0.240   6.569
 2819SOL    HW1 9356   0.731   0.298   6.494
 2819SOL    HW2 9357   0.777   0.188   6.606
 2820SOL     OW 9358   1.727   2.187   0.198
 2820SOL    HW1 9359   1.660   2.259   0.184
 2820SOL    HW2 9360   1.803   2.198   0.133
 2821SOL     OW 9361   3.393   3.428   6.125
 2821SOL    HW1 9362   3.368   3.524   6.139
 2821SOL    HW2 9363   3.312   3.370   6.134
 2822SOL     OW 9364   5.087   2.585   0.179
 2822SOL    HW1 9365   5.020   2.543   0.118
 2822SOL    HW2 9366   5.042   2.655   0.235
 2823SOL     OW 9367   4.696   3.420   1.305
 2823SOL    HW1 9368   4.612   3.375   1.277
 2823SOL    HW2 9369   4.681   3.519   1.312
 2824SOL     OW 9370   0.795   4.327   4.569
 2824SOL    HW1 9371   0.717   4.323   4.631
 2824SOL    HW2 9372   0.795   4.414   4.520
 2825SOL     OW 9373   5.335   1.306   6.379
 2825SOL    HW1 9374   5.395   1.253   6.319
 2825SOL    HW2 9375   5.386   1.333   6.460
 2826SOL     OW 9376   2.497   2.671   6.835
 2826SOL    HW1 9377   2.469   2.579   6.863
 2826SOL    HW2 9378   2.444   2.699   6.755
 2827SOL     OW 9379   6.151   1.623   6.506
 2827SOL    HW1 9380   6.104   1.673   6.433
 2827SOL    HW2 9381   6.087   1.560   6.550
 2828SOL     OW 9382   1.681   3.224   1.379
 2828SOL    HW1 9383   1.729   3.192   1.461
 2828SOL    HW2 9384   1.716   3.176   1.299
 2829SOL     OW 9385   3.347   3.350   2.195
 2829SOL    HW1 9386   3.431   3.404   2.194
 2829SOL    HW2 9387   3.277   3.395   2.139
 2830SOL     OW 9388   3.217   6.160   4.720
 2830SOL    HW1 9389   3.148   6.156   4.647
 2830SOL    HW2 9390   3.303   6.121   4.687
 2831SOL     OW 9391   6.066   1.527   1.409
 2831SOL    HW1 9392   6.040   1.466   1.335
 2831SOL    HW2 9393   6.017   1.614   1.401
 2832SOL     OW 9394   0.729   3.844   2.430
 2832SOL    HW1 9395   0.809   3.857   2.488
 2832SOL    HW2 9396   0.681   3.761   2.456
 2833SOL     OW 9397   1.455   2.829   2.491
 2833SOL    HW1 9398   1.518   2.844   2.568
 2833SOL    HW2 9399   1.361   2.841   2.523
 2834SOL     OW 9400   3.754   6.651   4.478
 2834SOL    HW1 9401   3.731   6.745   4.504
 2834SOL    HW2 9402   3.719   6.588   4.547
 2835SOL     OW 9403   6.360   0.559   6.834
 2835SOL    HW1 9404   6.380   0.616   6.914
 2835SOL    HW2 9405   6.285   0.496   6.854
 2836SOL     OW 9406   3.164   6.080   2.693
 2836SOL    HW1 9407   3.118   6.029   2.620
 2836SOL    HW2 9408   3.149   6.034   2.781
 2837SOL     OW 9409   4.977   4.331   1.374
 2837SOL    HW1 9410   4.990   4.294   1.283
 2837SOL    HW2 9411   4.926   4.417   1.368
 2838SOL     OW 9412   6.562   4.189   6.330
 2838SOL    HW1 9413   6.591   4.234   6.415
 2838SOL    HW2 9414   6.563   4.255   6.255
 2839SOL     OW 9415   5.889   3.414   5.388
 2839SOL    HW1 9416   5.855   3.375   5.473
 2839SOL    HW2 9417   5.917   3.341   5.326
 2840SOL     OW 9418   6.054   6.720   4.210
 2840SOL    HW1 9419   6.124   6.649   4.205
 2840SOL    HW2 9420   6.035   6.755   4.119
 2841SOL     OW 9421   5.387   4.001   2.420
 2841SOL    HW1 9422   5.476   3.957   2.408
 2841SOL    HW2 9423   5.373   4.068   2.347
 2842SOL     OW 9424   0.891   0.246   3.707
 2842SOL    HW1 9425   0.891   0.148   3.688
 2842SOL    HW2 9426   0.953   0.265   3.783
 2843SOL     OW 9427   2.384   2.758   3.582
 2843SOL    HW1 9428   2.330   2.842   3.594
 2843SOL    HW2 9429   2.338   2.682   3.629
 2844SOL     OW 9430   4.683   3.736   0.840
 2844SOL    HW1 9431   4.778   3.705   0.832
 2844SOL    HW2 9432   4.674   3.798   0.917
 2845SOL     OW 9433   2.532   1.718   2.045
 2845SOL    HW1 9434   2.449   1.688   2.092
 2845SOL    HW2 9435   2.521   1.813   2.015
 2846SOL     OW 9436   6.714   6.747   6.664
 2846SOL    HW1 9437   6.638   6.781   6.610
 2846SOL    HW2 9438   6.693   6.759   6.761
 2847SOL     OW 9439   4.568   5.268   1.318
 2847SOL    HW1 9440   4.609   5.353   1.351
 2847SOL    HW2 9441   4.581   5.196   1.387
 2848SOL     OW 9442   0.783   4.293   5.333
 2848SOL    HW1 9443   0.785   4.345   5.419
 2848SOL    HW2 9444   0.819   4.350   5.259
 2849SOL     OW 9445   5.395   0.515   1.821
 2849SOL    HW1 9446   5.310   0.471   1.794
 2849SOL    HW2 9447   5.424   0.578   1.749
 2850SOL     OW 9448   1.376   0.557   1.937
 2850SOL    HW1 9449   1.375   0.474   1.881
 2850SOL    HW2 9450   1.288   0.567   1.984
 2851SOL     OW 9451   3.050   3.619   1.276
 2851SOL    HW1 9452   3.055   3.534   1.328
 2851SOL    HW2 9453   3.107   3.689   1.319
 2852SOL     OW 9454   6.892   4.796   5.877
 2852SOL    HW1 9455   6.892   4.711   5.824
 2852SOL    HW2 9456   6.971   4.852   5.851
 2853SOL     OW 9457   0.002   4.108   5.424
 2853SOL    HW1 9458   6.966   4.185   5.443
 2853SOL    HW2 9459   6.982   4.047   5.359
 2854SOL     OW 9460   3.373   0.847   6.406
 2854SOL    HW1 9461   3.467   0.859   6.437
 2854SOL    HW2 9462   3.373   0.804   6.316
 2855SOL     OW 9463   2.177   1.480   4.572
 2855SOL    HW1 9464   2.121   1.397   4.565
 2855SOL    HW2 9465   2.218   1.500   4.484
 2856SOL     OW 9466   0.304   5.762   4.083
 2856SOL    HW1 9467   0.262   5.845   4.048
 2856SOL    HW2 9468   0.311   5.768   4.183
 2857SOL     OW 9469   6.833   4.318   0.994
 2857SOL    HW1 9470   6.844   4.371   1.078
 2857SOL    HW2 9471   6.917   4.321   0.941
 2858SOL     OW 9472   4.757   4.671   2.666
 2858SOL    HW1 9473   4.824   4.612   2.710
 2858SOL    HW2 9474   4.707   4.722   2.736
 2859SOL     OW 9475   5.254   4.961   1.558
 2859SOL    HW1 9476   5.188   4.962   1.483
 2859SOL    HW2 9477   5.240   5.042   1.616
 2860SOL     OW 9478   1.194   6.854   2.364
 2860SOL    HW1 9479   1.262   6.781   2.353
 2860SOL    HW2 9480   1.103   6.818   2.343
 2861SOL     OW 9481   4.351   3.957   5.812
 2861SOL    HW1 9482   4.329   3.871   5.767
 2861SOL    HW2 9483   4.289   4.028   5.780
 2862SOL     OW 9484   4.547   2.208   0.005
 2862SOL    HW1 9485   4.511   2.263   6.953
 2862SOL    HW2 9486   4.499   2.232   0.089
 2863SOL     OW 9487   5.810   1.438   4.986
 2863SOL    HW1 9488   5.900   1.446   4.943
 2863SOL    HW2 9489   5.771   1.529   4.999
 2864SOL     OW 9490   4.040   4.990   0.772
 2864SOL    HW1 9491   4.095   4.910   0.748
 2864SOL    HW2 9492   3.978   4.965   0.847
 2865SOL     OW 9493   5.539   4.734   5.347
 2865SOL    HW1 9494   5.449   4.775   5.331
 2865SOL    HW2 9495   5.605   4.775   5.284
 2866SOL     OW 9496   3.840   4.340   0.695
 2866SOL    HW1 9497   3.743   4.365   0.695
 2866SOL    HW2 9498   3.850   4.247   0.730
 2867SOL     OW 9499   6.051   6.436   2.606
 2867SOL    HW1 9500   6.109   6.513   2.580
 2867SOL    HW2 9501   6.002   6.458   2.691
 2868SOL     OW 9502   0.566   0.553   5.906
 2868SOL    HW1 9503   0.621   0.563   5.823
 2868SOL    HW2 9504   0.622   0.573   5.986
 2869SOL     OW 9505   6.149   4.945   4.121
 2869SOL    HW1 9506   6.204   4.971   4.201
 2869SOL    HW2 9507   6.204   4.955   4.039
 2870SOL     OW 9508   6.972   1.709   1.844
 2870SOL    HW1 9509   0.006   1.679   1.768
 2870SOL    HW2 9510   6.952   1.806   1.835
 2871SOL     OW 9511   4.938   1.562   2.936
 2871SOL    HW1 9512   4.946   1.608   3.025
 2871SOL    HW2 9513   5.016   1.588   2.879
 2872SOL     OW 9514   2.666   2.246   2.805
 2872SOL    HW1 9515   2.743   2.281   2.859
 2872SOL    HW2 9516   2.632   2.162   2.847
 2873SOL     OW 9517   1.238   0.121   1.028
 2873SOL    HW1 9518   1.184   0.206   1.028
 2873SOL    HW2 9519   1.335   0.144   1.025
 2874SOL     OW 9520   1.934   1.691   3.245
 2874SOL    HW1 9521   1.883   1.620   3.197
 2874SOL    HW2 9522   1.971   1.654   3.331
 2875SOL     OW 9523   2.410   6.389   3.029
 2875SOL    HW1 9524   2.495   6.350   2.993
 2875SOL    HW2 9525   2.376   6.459   2.965
 2876SOL     OW 9526   1.973   6.574   1.651
 2876SOL    HW1 9527   2.065   6.583   1.691
 2876SOL    HW2 9528   1.907   6.618   1.712
 2877SOL     OW 9529   1.550   2.475   6.320
 2877SOL    HW1 9530   1.557   2.503   6.225
 2877SOL    HW2 9531   1.589   2.384   6.332
 2878SOL     OW 9532   3.956   3.069   4.356
 2878SOL    HW1 9533   3.980   3.081   4.259
 2878SOL    HW2 9534   4.037   3.083   4.412
 2879SOL     OW 9535   5.403   4.389   0.129
 2879SOL    HW1 9536   5.351   4.343   0.057
 2879SOL    HW2 9537   5.386   4.343   0.217
 2880SOL     OW 9538   1.996   1.308   3.502
 2880SOL    HW1 9539   1.920   1.250   3.473
 2880SOL    HW2 9540   2.055   1.256   3.565
 2881SOL     OW 9541   5.486   6.327   0.408
 2881SOL    HW1 9542   5.482   6.395   0.335
 2881SOL    HW2 9543   5.581   6.305   0.428
 2882SOL     OW 9544   4.330   6.421   0.047
 2882SOL    HW1 9545   4.300   6.331   0.079
 2882SOL    HW2 9546   4.415   6.446   0.092
 2883SOL     OW 9547   5.738   6.614   3.383
 2883SOL    HW1 9548   5.828   6.591   3.418
 2883SOL    HW2 9549   5.720   6.712   3.397
 2884SOL     OW 9550   5.683   5.398   4.081
 2884SOL    HW1 9551   5.703   5.386   3.983
 2884SOL    HW2 9552   5.756   5.453   4.122
 2885SOL     OW 9553   1.501   2.661   3.552
 2885SOL    HW1 9554   1.478   2.687   3.646
 2885SOL    HW2 9555   1.453   2.577   3.528
 2886SOL     OW 9556   2.352   4.268   5.633
 2886SOL    HW1 9557   2.349   4.237   5.728
 2886SOL    HW2 9558   2.361   4.189   5.572
 2887SOL     OW 9559   6.978   5.892   2.931
 2887SOL    HW1 9560   7.002   5.804   2.970
 2887SOL    HW2 9561   0.018   5.962   2.964
 2888SOL     OW 9562   5.708   0.008   6.665
 2888SOL    HW1 9563   5.756   0.081   6.618
 2888SOL    HW2 9564   5.754   7.013   6.752
 2889SOL     OW 9565   4.057   6.098   3.655
 2889SOL    HW1 9566   3.974   6.046   3.636
 2889SOL    HW2 9567   4.044   6.194   3.629
 2890SOL     OW 9568   0.648   2.184   1.075
 2890SOL    HW1 9569   0.672   2.174   0.979
 2890SOL    HW2 9570   0.727   2.161   1.132
 2891SOL     OW 9571   0.111   1.414   5.175
 2891SOL    HW1 9572   0.145   1.359   5.098
 2891SOL    HW2 9573   0.184   1.427   5.242
 2892SOL     OW 9574   5.146   3.732   2.081
 2892SOL    HW1 9575   5.212   3.773   2.144
 2892SOL    HW2 9576   5.058   3.720   2.127
 2893SOL     OW 9577   6.538   5.718   5.205
 2893SOL    HW1 9578   6.595   5.641   5.231
 2893SOL    HW2 9579   6.442   5.697   5.225
 2894SOL     OW 9580   2.393   5.356   1.896
 2894SOL    HW1 9581   2.413   5.450   1.925
 2894SOL    HW2 9582   2.306   5.326   1.934
 2895SOL     OW 9583   4.561   6.730   5.816
 2895SOL    HW1 9584   4.613   6.647   5.837
 2895SOL    HW2 9585   4.625   6.803   5.790
 2896SOL     OW 9586   5.361   0.229   4.696
 2896SOL    HW1 9587   5.451   0.196   4.668
 2896SOL    HW2 9588   5.320   0.162   4.759
 2897SOL     OW 9589   3.924   5.116   2.760
 2897SOL    HW1 9590   3.887   5.121   2.853
 2897SOL    HW2 9591   4.007   5.060   2.761
 2898SOL     OW 9592   5.420   2.681   2.347
 2898SOL    HW1 9593   5.367   2.612   2.398
 2898SOL    HW2 9594   5.382   2.690   2.255
 2899SOL     OW 9595   6.771   3.853   0.869
 2899SOL    HW1 9596   6.680   3.835   0.832
 2899SOL    HW2 9597   6.816   3.767   0.892
 2900SOL     OW 9598   2.203   2.966   5.593
 2900SOL    HW1 9599   2.256   2.881   5.598
 2900SOL    HW2 9600   2.251   3.031   5.534
 2901SOL     OW 9601   0.828   3.989   3.082
 2901SOL    HW1 9602   0.863   3.922   3.017
 2901SOL    HW2 9603   0.747   4.034   3.044
 2902SOL     OW 9604   5.772   5.607   3.793
 2902SOL    HW1 9605   5.740   5.512   3.797
 2902SOL    HW2 9606   5.753   5.652   3.880
 2903SOL     OW 9607   5.646   4.954   0.228
 2903SOL    HW1 9608   5.685   4.872   0.186
 2903SOL    HW2 9609   5.591   5.002   0.159
 2904SOL     OW 9610   2.114   4.151   5.196
 2904SOL    HW1 9611   2.204   4.139   5.155
 2904SOL    HW2 9612   2.047   4.097   5.146
 2905SOL     OW 9613   1.885   5.594   1.194
 2905SOL    HW1 9614   1.923   5.623   1.282
 2905SOL    HW2 9615   1.789   5.619   1.189
 2906SOL     OW 9616   5.970   6.026   4.611
 2906SOL    HW1 9617   6.047   5.966   4.632
 2906SOL    HW2 9618   5.907   5.979   4.549
 2907SOL     OW 9619   0.702   0.540   4.707
 2907SOL    HW1 9620   0.756   0.507   4.629
 2907SOL    HW2 9621   0.761   0.544   4.788
 2908SOL     OW 9622   4.436   0.090   3.239
 2908SOL    HW1 9623   4.364   0.029   3.207
 2908SOL    HW2 9624   4.457   0.157   3.168
 2909SOL     OW 9625   0.131   6.491   1.520
 2909SOL    HW1 9626   0.124   6.469   1.423
 2909SOL    HW2 9627   0.046   6.534   1.550
 2910SOL     OW 9628   0.649   0.759   4.231
 2910SOL    HW1 9629   0.717   0.690   4.254
 2910SOL    HW2 9630   0.568   0.747   4.289
 2911SOL     OW 9631   6.905   4.360   5.761
 2911SOL    HW1 9632   6.858   4.330   5.678
 2911SOL    HW2 9633   6.851   4.336   5.841
 2912SOL     OW 9634   1.253   0.964   1.447
 2912SOL    HW1 9635   1.175   1.024   1.427
 2912SOL    HW2 9636   1.320   0.970   1.374
 2913SOL     OW 9637   2.822   6.386   2.951
 2913SOL    HW1 9638   2.769   6.455   3.001
 2913SOL    HW2 9639   2.762   6.312   2.922
 2914SOL     OW 9640   4.149   5.408   1.023
 2914SOL    HW1 9641   4.184   5.476   0.959
 2914SOL    HW2 9642   4.197   5.321   1.010
 2915SOL     OW 9643   2.634   0.356   3.186
 2915SOL    HW1 9644   2.562   0.345   3.118
 2915SOL    HW2 9645   2.721   0.325   3.149
 2916SOL     OW 9646   2.100   5.893   6.785
 2916SOL    HW1 9647   2.068   5.960   6.852
 2916SOL    HW2 9648   2.031   5.822   6.772
 2917SOL     OW 9649   2.691   6.624   3.032
 2917SOL    HW1 9650   2.654   6.643   3.123
 2917SOL    HW2 9651   2.771   6.682   3.016
 2918SOL     OW 9652   5.100   2.955   1.595
 2918SOL    HW1 9653   5.160   3.021   1.640
 2918SOL    HW2 9654   5.009   2.996   1.582
 2919SOL     OW 9655   0.678   6.076   5.088
 2919SOL    HW1 9656   0.776   6.056   5.087
 2919SOL    HW2 9657   0.664   6.171   5.117
 2920SOL     OW 9658   1.951   2.515   2.106
 2920SOL    HW1 9659   1.948   2.600   2.053
 2920SOL    HW2 9660   1.965   2.437   2.045
 2921SOL     OW 9661   1.506   6.351   4.001
 2921SOL    HW1 9662   1.427   6.320   3.948
 2921SOL    HW2 9663   1.586   6.357   3.941
 2922SOL     OW 9664   4.081   5.248   4.146
 2922SOL    HW1 9665   4.102   5.175   4.081
 2922SOL    HW2 9666   4.003   5.301   4.114
 2923SOL     OW 9667   6.949   5.428   5.205
 2923SOL    HW1 9668   6.929   5.514   5.159
 2923SOL    HW2 9669   6.938   5.352   5.140
 2924SOL     OW 9670   6.014   1.749   6.327
 2924SOL    HW1 9671   6.010   1.697   6.241
 2924SOL    HW2 9672   5.963   1.834   6.317
 2925SOL     OW 9673   5.798   6.455   4.636
 2925SOL    HW1 9674   5.830   6.438   4.730
 2925SOL    HW2 9675   5.755   6.545   4.631
 2926SOL     OW 9676   6.666   2.294   4.075
 2926SOL    HW1 9677   6.711   2.369   4.028
 2926SOL    HW2 9678   6.586   2.329   4.124
 2927SOL     OW 9679   1.164   1.834   1.742
 2927SOL    HW1 9680   1.085   1.869   1.692
 2927SOL    HW2 9681   1.194   1.902   1.809
 2928SOL     OW 9682   6.267   3.069   0.354
 2928SOL    HW1 9683   6.249   3.029   0.444
 2928SOL    HW2 9684   6.202   3.034   0.287
 2929SOL     OW 9685   1.955   2.104   4.147
 2929SOL    HW1 9686   2.044   2.148   4.138
 2929SOL    HW2 9687   1.889   2.150   4.087
 2930SOL     OW 9688   0.756   4.177   4.337
 2930SOL    HW1 9689   0.755   4.245   4.410
 2930SOL    HW2 9690   0.827   4.199   4.271
 2931SOL     OW 9691   5.146   3.912   5.450
 2931SOL    HW1 9692   5.085   3.868   5.516
 2931SOL    HW2 9693   5.101   3.994   5.413
 2932SOL     OW 9694   5.964   5.094   1.378
 2932SOL    HW1 9695   6.055   5.113   1.415
 2932SOL    HW2 9696   5.966   5.009   1.325
 2933SOL     OW 9697   1.429   6.487   6.943
 2933SOL    HW1 9698   1.367   6.542   7.000
 2933SOL    HW2 9699   1.486   6.430   7.001
 2934SOL     OW 9700   3.871   4.813   0.963
 2934SOL    HW1 9701   3.863   4.735   1.025
 2934SOL    HW2 9702   3.793   4.813   0.900
 2935SOL     OW 9703   0.956   2.587   6.113
 2935SOL    HW1 9704   0.910   2.504   6.147
 2935SOL    HW2 9705   0.964   2.653   6.188
 2936SOL     OW 9706   4.866   6.397   1.864
 2936SOL    HW1 9707   4.775   6.419   1.827
 2936SOL    HW2 9708   4.893   6.467   1.930
 2937SOL     OW 9709   5.345   4.117   2.658
 2937SOL    HW1 9710   5.376   4.077   2.572
 2937SOL    HW2 9711   5.286   4.195   2.640
 2938SOL     OW 9712   0.556   5.835   5.895
 2938SOL    HW1 9713   0.541   5.897   5.972
 2938SOL    HW2 9714   0.606   5.883   5.823
 2939SOL     OW 9715   0.273   5.909   1.485
 2939SOL    HW1 9716   0.363   5.873   1.510
 2939SOL    HW2 9717   0.283   6.002   1.450
 2940SOL     OW 9718   4.556   6.718   3.715
 2940SOL    HW1 9719   4.457   6.707   3.723
 2940SOL    HW2 9720   4.598   6.628   3.699
 2941SOL     OW 9721   2.073   4.655   3.154
 2941SOL    HW1 9722   2.116   4.566   3.142
 2941SOL    HW2 9723   2.140   4.719   3.194
 2942SOL     OW 9724   3.794   1.449   1.193
 2942SOL    HW1 9725   3.796   1.465   1.291
 2942SOL    HW2 9726   3.873   1.393   1.166
 2943SOL     OW 9727   5.735   3.788   2.953
 2943SOL    HW1 9728   5.767   3.874   2.993
 2943SOL    HW2 9729   5.805   3.751   2.892
 2944SOL     OW 9730   2.256   5.810   2.031
 2944SOL    HW1 9731   2.318   5.868   2.083
 2944SOL    HW2 9732   2.227   5.733   2.088
 2945SOL     OW 9733   4.692   4.359   1.039
 2945SOL    HW1 9734   4.619   4.421   1.010
 2945SOL    HW2 9735   4.672   4.267   1.005
 2946SOL     OW 9736   3.408   3.386   4.285
 2946SOL    HW1 9737   3.409   3.366   4.383
 2946SOL    HW2 9738   3.320   3.356   4.246
 2947SOL     OW 9739   6.713   5.956   1.016
 2947SOL    HW1 9740   6.695   5.878   0.955
 2947SOL    HW2 9741   6.811   5.962   1.035
 2948SOL     OW 9742   7.017   3.693   2.272
 2948SOL    HW1 9743   0.040   3.630   2.334
 2948SOL    HW2 9744   0.058   3.730   2.206
 2949SOL     OW 9745   1.902   6.293   0.516
 2949SOL    HW1 9746   1.867   6.331   0.431
 2949SOL    HW2 9747   1.865   6.346   0.593
 2950SOL     OW 9748   6.223   5.758   2.226
 2950SOL    HW1 9749   6.187   5.771   2.319
 2950SOL    HW2 9750   6.237   5.848   2.183
 2951SOL     OW 9751   0.335   1.216   1.407
 2951SOL    HW1 9752   0.431   1.224   1.432
 2951SOL    HW2 9753   0.327   1.189   1.311
 2952SOL     OW 9754   6.992   1.758   5.354
 2952SOL    HW1 9755   6.995   1.716   5.262
 2952SOL    HW2 9756   6.905   1.805   5.366
 2953SOL     OW 9757   1.402   4.995   3.439
 2953SOL    HW1 9758   1.383   5.082   3.394
 2953SOL    HW2 9759   1.468   5.010   3.513
 2954SOL     OW 9760   0.172   3.998   6.458
 2954SOL    HW1 9761   0.217   3.933   6.397
 2954SOL    HW2 9762   0.073   3.985   6.453
 2955SOL     OW 9763   1.293   4.415   6.103
 2955SOL    HW1 9764   1.216   4.393   6.163
 2955SOL    HW2 9765   1.371   4.356   6.125
 2956SOL     OW 9766   5.189   4.817   4.142
 2956SOL    HW1 9767   5.183   4.724   4.178
 2956SOL    HW2 9768   5.098   4.857   4.136
 2957SOL     OW 9769   2.704   5.159   1.217
 2957SOL    HW1 9770   2.745   5.069   1.198
 2957SOL    HW2 9771   2.774   5.221   1.251
 2958SOL     OW 9772   1.766   4.649   2.914
 2958SOL    HW1 9773   1.671   4.678   2.912
 2958SOL    HW2 9774   1.774   4.561   2.961
 2959SOL     OW 9775   0.222   3.714   3.744
 2959SOL    HW1 9776   0.197   3.730   3.839
 2959SOL    HW2 9777   0.273   3.793   3.710
 2960SOL     OW 9778   4.987   7.005   0.946
 2960SOL    HW1 9779   5.054   6.952   0.893
 2960SOL    HW2 9780   4.895   6.982   0.916
 2961SOL     OW 9781   6.059   3.512   1.867
 2961SOL    HW1 9782   6.140   3.512   1.925
 2961SOL    HW2 9783   6.080   3.557   1.780
 2962SOL     OW 9784   6.976   0.538   3.890
 2962SOL    HW1 9785   6.942   0.531   3.797
 2962SOL    HW2 9786   6.918   0.601   3.942
 2963SOL     OW 9787   1.258   0.291   5.101
 2963SOL    HW1 9788   1.296   0.220   5.042
 2963SOL    HW2 9789   1.332   0.342   5.144
 2964SOL     OW 9790   1.590   1.234   6.443
 2964SOL    HW1 9791   1.617   1.310   6.385
 2964SOL    HW2 9792   1.639   1.238   6.530
 2965SOL     OW 9793   6.601   0.114   5.779
 2965SOL    HW1 9794   6.660   0.169   5.720
 2965SOL    HW2 9795   6.656   0.075   5.853
 2966SOL     OW 9796   2.617   6.056   2.275
 2966SOL    HW1 9797   2.683   5.995   2.319
 2966SOL    HW2 9798   2.664   6.134   2.234
 2967SOL     OW 9799   5.166   0.312   5.131
 2967SOL    HW1 9800   5.226   0.243   5.092
 2967SOL    HW2 9801   5.074   0.273   5.142
 2968SOL     OW 9802   0.803   3.853   1.073
 2968SOL    HW1 9803   0.857   3.811   1.146
 2968SOL    HW2 9804   0.838   3.944   1.053
 2969SOL     OW 9805   4.686   2.938   5.365
 2969SOL    HW1 9806   4.641   2.890   5.290
 2969SOL    HW2 9807   4.778   2.901   5.379
 2970SOL     OW 9808   2.427   2.504   5.442
 2970SOL    HW1 9809   2.433   2.521   5.541
 2970SOL    HW2 9810   2.503   2.550   5.396
 2971SOL     OW 9811   5.188   2.927   6.707
 2971SOL    HW1 9812   5.265   2.970   6.661
 2971SOL    HW2 9813   5.130   2.997   6.748
 2972SOL     OW 9814   6.640   5.201   6.009
 2972SOL    HW1 9815   6.573   5.274   6.019
 2972SOL    HW2 9816   6.660   5.187   5.912
 2973SOL     OW 9817   4.692   1.277   4.171
 2973SOL    HW1 9818   4.674   1.332   4.089
 2973SOL    HW2 9819   4.789   1.255   4.175
 2974SOL     OW 9820   4.599   6.944   2.647
 2974SOL    HW1 9821   4.615   6.942   2.746
 2974SOL    HW2 9822   4.652   7.018   2.606
 2975SOL     OW 9823   4.884   3.833   4.603
 2975SOL    HW1 9824   4.887   3.932   4.613
 2975SOL    HW2 9825   4.922   3.789   4.684
 2976SOL     OW 9826   3.953   1.016   1.965
 2976SOL    HW1 9827   4.047   0.985   1.979
 2976SOL    HW2 9828   3.948   1.072   1.882
 2977SOL     OW 9829   0.977   0.648   1.680
 2977SOL    HW1 9830   1.067   0.686   1.704
 2977SOL    HW2 9831   0.920   0.644   1.762
 2978SOL     OW 9832   4.414   5.447   6.955
 2978SOL    HW1 9833   4.476   5.525   6.971
 2978SOL    HW2 9834   4.353   5.437   0.009
 2979SOL     OW 9835   3.068   0.919   4.869
 2979SOL    HW1 9836   3.040   0.870   4.787
 2979SOL    HW2 9837   3.118   1.002   4.844
 2980SOL     OW 9838   2.903   3.565   4.310
 2980SOL    HW1 9839   2.864   3.515   4.233
 2980SOL    HW2 9840   2.940   3.501   4.377
 2981SOL     OW 9841   2.628   0.963   1.285
 2981SOL    HW1 9842   2.565   1.024   1.238
 2981SOL    HW2 9843   2.712   1.012   1.308
 2982SOL     OW 9844   2.070   0.640   0.977
 2982SOL    HW1 9845   1.986   0.644   1.031
 2982SOL    HW2 9846   2.132   0.572   1.018
 2983SOL     OW 9847   6.607   3.140   5.724
 2983SOL    HW1 9848   6.553   3.069   5.770
 2983SOL    HW2 9849   6.702   3.134   5.754
 2984SOL     OW 9850   0.296   5.615   1.394
 2984SOL    HW1 9851   0.394   5.622   1.377
 2984SOL    HW2 9852   0.278   5.623   1.492
 2985SOL     OW 9853   6.139   0.432   6.247
 2985SOL    HW1 9854   6.109   0.345   6.287
 2985SOL    HW2 9855   6.238   0.428   6.231
 2986SOL     OW 9856   3.619   3.485   2.163
 2986SOL    HW1 9857   3.668   3.473   2.077
 2986SOL    HW2 9858   3.683   3.512   2.235
 2987SOL     OW 9859   2.423   5.730   4.832
 2987SOL    HW1 9860   2.373   5.776   4.759
 2987SOL    HW2 9861   2.479   5.796   4.881
 2988SOL     OW 9862   0.079   1.841   6.342
 2988SOL    HW1 9863   0.038   1.842   6.433
 2988SOL    HW2 9864   0.090   1.935   6.309
 2989SOL     OW 9865   5.352   3.640   4.633
 2989SOL    HW1 9866   5.352   3.679   4.725
 2989SOL    HW2 9867   5.343   3.541   4.638
 2990SOL     OW 9868   5.501   2.099   4.801
 2990SOL    HW1 9869   5.418   2.138   4.761
 2990SOL    HW2 9870   5.559   2.173   4.836
 2991SOL     OW 9871   0.130   3.137   0.391
 2991SOL    HW1 9872   0.039   3.107   0.360
 2991SOL    HW2 9873   0.130   3.236   0.405
 2992SOL     OW 9874   0.390   4.159   4.907
 2992SOL    HW1 9875   0.305   4.208   4.929
 2992SOL    HW2 9876   0.391   4.071   4.956
 2993SOL     OW 9877   2.362   4.061   0.673
 2993SOL    HW1 9878   2.303   4.040   0.594
 2993SOL    HW2 9879   2.314   4.036   0.757
 2994SOL     OW 9880   3.278   5.930   5.425
 2994SOL    HW1 9881   3.187   5.933   5.467
 2994SOL    HW2 9882   3.303   6.022   5.394
 2995SOL     OW 9883   4.111   0.043   1.424
 2995SOL    HW1 9884   4.050   6.990   1.439
 2995SOL    HW2 9885   4.132   0.051   1.326
 2996SOL     OW 9886   6.793   0.697   3.997
 2996SOL    HW1 9887   6.696   0.676   3.982
 2996SOL    HW2 9888   6.803   0.752   4.080
 2997SOL     OW 9889   4.883   6.774   4.135
 2997SOL    HW1 9890   4.883   6.854   4.195
 2997SOL    HW2 9891   4.809   6.712   4.162
 2998SOL     OW 9892   3.079   0.642   1.532
 2998SOL    HW1 9893   3.087   0.742   1.527
 2998SOL    HW2 9894   3.149   0.606   1.592
 2999SOL     OW 9895   2.440   4.518   0.834
 2999SOL    HW1 9896   2.527   4.518   0.882
 2999SOL    HW2 9897   2.369   4.479   0.893
 3000SOL     OW 9898   2.607   4.149   5.295
 3000SOL    HW1 9899   2.697   4.107   5.308
 3000SOL    HW2 9900   2.545   4.083   5.252
 3001SOL     OW 9901   5.420   0.666   6.605
 3001SOL    HW1 9902   5.324   0.672   6.577
 3001SOL    HW2 9903   5.437   0.730   6.680
 3002SOL     OW 9904   1.740   1.856   1.651
 3002SOL    HW1 9905   1.690   1.867   1.737
 3002SOL    HW2 9906   1.686   1.895   1.576
 3003SOL     OW 9907   1.752   6.792   0.628
 3003SOL    HW1 9908   1.663   6.795   0.675
 3003SOL    HW2 9909   1.797   6.705   0.647
 3004SOL     OW 9910   2.400   6.764   3.126
 3004SOL    HW1 9911   2.487   6.783   3.080
 3004SOL    HW2 9912   2.400   6.806   3.217
 3005SOL     OW 9913   1.370   2.407   0.821
 3005SOL    HW1 9914   1.409   2.339   0.759
 3005SOL    HW2 9915   1.443   2.460   0.863
 3006SOL     OW 9916   5.342   1.517   6.184
 3006SOL    HW1 9917   5.334   1.447   6.255
 3006SOL    HW2 9918   5.282   1.494   6.108
 3007SOL     OW 9919   6.168   5.492   6.469
 3007SOL    HW1 9920   6.241   5.449   6.417
 3007SOL    HW2 9921   6.178   5.467   6.566
 3008SOL     OW 9922   4.241   3.559   5.512
 3008SOL    HW1 9923   4.192   3.473   5.528
 3008SOL    HW2 9924   4.268   3.598   5.600
 3009SOL     OW 9925   6.747   3.143   2.501
 3009SOL    HW1 9926   6.745   3.168   2.598
 3009SOL    HW2 9927   6.784   3.051   2.491
 3010SOL     OW 9928   4.315   5.368   2.011
 3010SOL    HW1 9929   4.353   5.369   1.919
 3010SOL    HW2 9930   4.280   5.277   2.032
 3011SOL     OW 9931   6.839   0.384   0.161
 3011SOL    HW1 9932   6.904   0.436   0.106
 3011SOL    HW2 9933   6.784   0.325   0.102
 3012SOL     OW 9934   2.156   1.537   4.841
 3012SOL    HW1 9935   2.134   1.628   4.876
 3012SOL    HW2 9936   2.143   1.536   4.742
 3013SOL     OW 9937   6.997   5.012   5.238
 3013SOL    HW1 9938   6.975   4.920   5.271
 3013SOL    HW2 9939   0.071   5.017   5.217
 3014SOL     OW 9940   5.125   0.309   6.392
 3014SOL    HW1 9941   5.117   0.217   6.431
 3014SOL    HW2 9942   5.152   0.373   6.464
 3015SOL     OW 9943   1.874   0.957   6.223
 3015SOL    HW1 9944   1.954   0.903   6.250
 3015SOL    HW2 9945   1.885   0.988   6.128
 3016SOL     OW 9946   2.206   6.863   4.216
 3016SOL    HW1 9947   2.258   6.779   4.230
 3016SOL    HW2 9948   2.217   6.922   4.296
 3017SOL     OW 9949   1.692   5.968   6.834
 3017SOL    HW1 9950   1.705   6.052   6.887
 3017SOL    HW2 9951   1.621   5.912   6.876
 3018SOL     OW 9952   3.601   1.280   1.650
 3018SOL    HW1 9953   3.604   1.353   1.583
 3018SOL    HW2 9954   3.690   1.272   1.695
 3019SOL     OW 9955   1.987   0.177   5.977
 3019SOL    HW1 9956   2.004   0.261   5.925
 3019SOL    HW2 9957   1.904   0.188   6.031
 3020SOL     OW 9958   5.939   5.119   6.863
 3020SOL    HW1 9959   5.925   5.144   6.959
 3020SOL    HW2 9960   6.020   5.060   6.856
 3021SOL     OW 9961   3.843   0.571   4.766
 3021SOL    HW1 9962   3.816   0.651   4.713
 3021SOL    HW2 9963   3.862   0.598   4.861
 3022SOL     OW 9964   4.559   6.102   3.513
 3022SOL    HW1 9965   4.657   6.094   3.493
 3022SOL    HW2 9966   4.534   6.037   3.585
 3023SOL     OW 9967   5.693   4.780   4.562
 3023SOL    HW1 9968   5.603   4.757   4.525
 3023SOL    HW2 9969   5.727   4.864   4.520
 3024SOL     OW 9970   0.342   1.043   0.419
 3024SOL    HW1 9971   0.329   1.095   0.334
 3024SOL    HW2 9972   0.292   0.957   0.414
 3025SOL     OW 9973   4.377   5.773   0.077
 3025SOL    HW1 9974   4.369   5.861   0.123
 3025SOL    HW2 9975   4.465   5.766   0.031
 3026SOL     OW 9976   0.433   0.527   2.044
 3026SOL    HW1 9977   0.365   0.530   1.970
 3026SOL    HW2 9978   0.507   0.464   2.018
 3027SOL     OW 9979   4.073   0.702   0.698
 3027SOL    HW1 9980   3.994   0.657   0.740
 3027SOL    HW2 9981   4.057   0.711   0.600
 3028SOL     OW 9982   2.983   3.502   5.298
 3028SOL    HW1 9983   2.943   3.438   5.232
 3028SOL    HW2 9984   3.079   3.478   5.314
 3029SOL     OW 9985   6.562   3.422   4.718
 3029SOL    HW1 9986   6.655   3.434   4.681
 3029SOL    HW2 9987   6.550   3.482   4.797
 3030SOL     OW 9988   2.309   2.377   6.617
 3030SOL    HW1 9989   2.394   2.356   6.665
 3030SOL    HW2 9990   2.231   2.348   6.673
 3031SOL     OW 9991   1.161   5.564   0.820
 3031SOL    HW1 9992   1.220   5.574   0.899
 3031SOL    HW2 9993   1.091   5.495   0.839
 3032SOL     OW 9994   2.288   0.019   3.327
 3032SOL    HW1 9995   2.356   0.064   3.385
 3032SOL    HW2 9996   2.234   6.980   3.383
 3033SOL     OW 9997   1.189   1.814   5.777
 3033SOL    HW1 9998   1.186   1.825   5.876
 3033SOL    HW2 9999   1.109   1.856   5.736
 3034SOL     OW10000   5.878   3.355   3.033
 3034SOL    HW110001   5.803   3.354   2.966
 3034SOL    HW210002   5.965   3.353   2.984
 3035SOL     OW10003   0.140   3.195   0.099
 3035SOL    HW110004   0.103   3.282   0.067
 3035SOL    HW210005   0.067   3.140   0.141
 3036SOL     OW10006   3.054   2.032   5.473
 3036SOL    HW110007   3.018   1.970   5.404
 3036SOL    HW210008   3.030   2.126   5.451
 3037SOL     OW10009   1.192   5.725   6.460
 3037SOL    HW110010   1.253   5.790   6.414
 3037SOL    HW210011   1.102   5.728   6.417
 3038SOL     OW10012   5.551   4.697   6.244
 3038SOL    HW110013   5.550   4.774   6.307
 3038SOL    HW210014   5.505   4.619   6.286
 3039SOL     OW10015   6.466   3.938   6.496
 3039SOL    HW110016   6.546   3.997   6.498
 3039SOL    HW210017   6.400   3.973   6.429
 3040SOL     OW10018   5.391   5.137   6.334
 3040SOL    HW110019   5.364   5.119   6.240
 3040SOL    HW210020   5.446   5.221   6.338
 3041SOL     OW10021   1.361   4.666   5.661
 3041SOL    HW110022   1.351   4.621   5.750
 3041SOL    HW210023   1.352   4.597   5.589
 3042SOL     OW10024   0.013   5.051   3.868
 3042SOL    HW110025   0.100   5.095   3.893
 3042SOL    HW210026   0.007   4.962   3.914
 3043SOL     OW10027   2.995   5.582   1.159
 3043SOL    HW110028   2.963   5.606   1.251
 3043SOL    HW210029   3.070   5.516   1.167
 3044SOL     OW10030   3.933   3.567   4.898
 3044SOL    HW110031   3.908   3.617   4.981
 3044SOL    HW210032   3.853   3.562   4.837
 3045SOL     OW10033   4.777   1.948   2.184
 3045SOL    HW110034   4.712   1.969   2.257
 3045SOL    HW210035   4.767   1.852   2.157
 3046SOL     OW10036   5.372   6.539   1.489
 3046SOL    HW110037   5.445   6.525   1.555
 3046SOL    HW210038   5.382   6.475   1.413
 3047SOL     OW10039   6.034   1.406   4.417
 3047SOL    HW110040   6.107   1.464   4.453
 3047SOL    HW210041   6.041   1.402   4.317
 3048SOL     OW10042   4.116   4.812   1.385
 3048SOL    HW110043   4.067   4.837   1.468
 3048SOL    HW210044   4.086   4.872   1.310
 3049SOL     OW10045   0.862   1.960   2.243
 3049SOL    HW110046   0.916   2.039   2.273
 3049SOL    HW210047   0.769   1.990   2.221
 3050SOL     OW10048   3.338   2.029   6.571
 3050SOL    HW110049   3.419   2.086   6.562
 3050SOL    HW210050   3.363   1.942   6.615
 3051SOL     OW10051   2.614   5.462   5.329
 3051SOL    HW110052   2.518   5.487   5.324
 3051SOL    HW210053   2.659   5.483   5.242
 3052SOL     OW10054   0.069   0.030   2.953
 3052SOL    HW110055   0.000   0.035   3.026
 3052SOL    HW210056   0.027   0.055   2.866
 3053SOL     OW10057   1.006   4.164   0.289
 3053SOL    HW110058   0.916   4.131   0.261
 3053SOL    HW210059   0.995   4.225   0.367
 3054SOL     OW10060   5.835   0.885   2.843
 3054SOL    HW110061   5.741   0.878   2.878
 3054SOL    HW210062   5.834   0.929   2.753
 3055SOL     OW10063   6.073   6.424   6.896
 3055SOL    HW110064   6.068   6.388   6.989
 3055SOL    HW210065   5.998   6.386   6.842
 3056SOL     OW10066   4.131   1.556   6.546
 3056SOL    HW110067   4.103   1.465   6.515
 3056SOL    HW210068   4.205   1.590   6.489
 3057SOL     OW10069   4.988   3.753   3.359
 3057SOL    HW110070   4.998   3.673   3.300
 3057SOL    HW210071   4.955   3.724   3.449
 3058SOL     OW10072   0.378   5.194   6.213
 3058SOL    HW110073   0.320   5.113   6.216
 3058SOL    HW210074   0.399   5.217   6.118
 3059SOL     OW10075   1.215   2.288   2.781
 3059SOL    HW110076   1.171   2.200   2.796
 3059SOL    HW210077   1.314   2.275   2.776
 3060SOL     OW10078   5.240   4.073   3.862
 3060SOL    HW110079   5.234   4.041   3.768
 3060SOL    HW210080   5.152   4.110   3.891
 3061SOL     OW10081   5.459   0.279   3.788
 3061SOL    HW110082   5.499   0.287   3.880
 3061SOL    HW210083   5.493   0.196   3.744
 3062SOL     OW10084   4.180   4.357   0.901
 3062SOL    HW110085   4.138   4.279   0.948
 3062SOL    HW210086   4.249   4.398   0.961
 3063SOL     OW10087   6.889   4.948   2.113
 3063SOL    HW110088   6.807   4.903   2.148
 3063SOL    HW210089   6.935   4.888   2.048
 3064SOL     OW10090   5.212   2.169   0.026
 3064SOL    HW110091   5.160   2.255   0.029
 3064SOL    HW210092   5.158   2.099   7.005
 3065SOL     OW10093   5.766   1.145   6.288
 3065SOL    HW110094   5.692   1.137   6.221
 3065SOL    HW210095   5.797   1.240   6.293
 3066SOL     OW10096   5.527   0.165   5.192
 3066SOL    HW110097   5.464   0.108   5.140
 3066SOL    HW210098   5.475   0.218   5.260
 3067SOL     OW10099   1.082   2.155   5.298
 3067SOL    HW110100   1.159   2.210   5.332
 3067SOL    HW210101   0.997   2.204   5.316
 3068SOL     OW10102   6.832   0.096   0.444
 3068SOL    HW110103   6.920   0.136   0.467
 3068SOL    HW210104   6.816   0.103   0.346
 3069SOL     OW10105   4.465   6.756   4.300
 3069SOL    HW110106   4.450   6.833   4.362
 3069SOL    HW210107   4.410   6.769   4.218
 3070SOL     OW10108   2.538   0.551   0.784
 3070SOL    HW110109   2.573   0.505   0.866
 3070SOL    HW210110   2.445   0.583   0.800
 3071SOL     OW10111   5.730   4.541   5.570
 3071SOL    HW110112   5.690   4.508   5.484
 3071SOL    HW210113   5.721   4.641   5.575
 3072SOL     OW10114   2.094   6.652   6.673
 3072SOL    HW110115   2.116   6.638   6.576
 3072SOL    HW210116   2.130   6.741   6.703
 3073SOL     OW10117   0.615   5.273   1.800
 3073SOL    HW110118   0.607   5.312   1.892
 3073SOL    HW210119   0.533   5.298   1.747
 3074SOL     OW10120   3.174   2.907   1.576
 3074SOL    HW110121   3.180   3.005   1.557
 3074SOL    HW210122   3.122   2.893   1.661
 3075SOL     OW10123   3.760   4.865   1.292
 3075SOL    HW110124   3.808   4.817   1.365
 3075SOL    HW210125   3.675   4.817   1.271
 3076SOL     OW10126   0.868   0.592   4.934
 3076SOL    HW110127   0.938   0.521   4.945
 3076SOL    HW210128   0.909   0.672   4.889
 3077SOL     OW10129   0.147   3.657   1.950
 3077SOL    HW110130   0.245   3.671   1.956
 3077SOL    HW210131   0.125   3.562   1.976
 3078SOL     OW10132   0.511   3.352   1.831
 3078SOL    HW110133   0.414   3.349   1.807
 3078SOL    HW210134   0.520   3.363   1.930
 3079SOL     OW10135   2.124   3.374   5.033
 3079SOL    HW110136   2.093   3.412   4.946
 3079SOL    HW210137   2.156   3.448   5.092
 3080SOL     OW10138   4.245   4.742   1.015
 3080SOL    HW110139   4.206   4.760   0.925
 3080SOL    HW210140   4.332   4.694   1.005
 3081SOL     OW10141   1.867   3.499   0.282
 3081SOL    HW110142   1.813   3.583   0.292
 3081SOL    HW210143   1.819   3.436   0.220
 3082SOL     OW10144   5.294   4.830   5.241
 3082SOL    HW110145   5.307   4.920   5.283
 3082SOL    HW210146   5.283   4.841   5.142
 3083SOL     OW10147   3.589   5.652   1.740
 3083SOL    HW110148   3.651   5.729   1.723
 3083SOL    HW210149   3.559   5.613   1.653
 3084SOL     OW10150   0.049   4.834   3.541
 3084SOL    HW110151   0.127   4.786   3.580
 3084SOL    HW210152   0.029   4.916   3.595
 3085SOL     OW10153   6.271   5.475   0.294
 3085SOL    HW110154   6.344   5.429   0.243
 3085SOL    HW210155   6.274   5.446   0.390
 3086SOL     OW10156   6.165   6.065   6.304
 3086SOL    HW110157   6.247   6.090   6.356
 3086SOL    HW210158   6.102   6.142   6.301
 3087SOL     OW10159   3.916   0.128   2.499
 3087SOL    HW110160   3.964   0.090   2.420
 3087SOL    HW210161   3.934   0.226   2.506
 3088SOL     OW10162   2.053   3.478   5.409
 3088SOL    HW110163   1.975   3.458   5.351
 3088SOL    HW210164   2.043   3.429   5.496
 3089SOL     OW10165   4.599   4.718   6.032
 3089SOL    HW110166   4.689   4.679   6.048
 3089SOL    HW210167   4.532   4.673   6.092
 3090SOL     OW10168   0.823   2.665   1.941
 3090SOL    HW110169   0.857   2.744   1.992
 3090SOL    HW210170   0.755   2.695   1.874
 3091SOL     OW10171   0.549   2.970   1.027
 3091SOL    HW110172   0.469   2.926   1.066
 3091SOL    HW210173   0.557   2.944   0.930
 3092SOL     OW10174   5.795   1.071   2.204
 3092SOL    HW110175   5.826   1.000   2.141
 3092SOL    HW210176   5.774   1.154   2.153
 3093SOL     OW10177   6.641   5.797   6.622
 3093SOL    HW110178   6.655   5.746   6.707
 3093SOL    HW210179   6.695   5.756   6.549
 3094SOL     OW10180   2.462   1.351   6.839
 3094SOL    HW110181   2.532   1.418   6.863
 3094SOL    HW210182   2.418   1.377   6.753
 3095SOL     OW10183   1.447   4.060   5.665
 3095SOL    HW110184   1.410   4.040   5.756
 3095SOL    HW210185   1.533   4.010   5.652
 3096SOL     OW10186   1.016   2.873   4.384
 3096SOL    HW110187   1.103   2.911   4.352
 3096SOL    HW210188   1.009   2.778   4.357
 3097SOL     OW10189   5.649   3.155   5.357
 3097SOL    HW110190   5.607   3.223   5.297
 3097SOL    HW210191   5.583   3.127   5.427
 3098SOL     OW10192   2.256   2.911   3.371
 3098SOL    HW110193   2.328   2.841   3.370
 3098SOL    HW210194   2.241   2.943   3.464
 3099SOL     OW10195   0.255   6.593   4.442
 3099SOL    HW110196   0.272   6.613   4.345
 3099SOL    HW210197   0.156   6.597   4.459
 3100SOL     OW10198   5.669   4.574   1.826
 3100SOL    HW110199   5.681   4.639   1.901
 3100SOL    HW210200   5.743   4.585   1.760
 3101SOL     OW10201   4.456   0.245   5.223
 3101SOL    HW110202   4.419   0.164   5.177
 3101SOL    HW210203   4.386   0.284   5.283
 3102SOL     OW10204   6.654   4.813   2.182
 3102SOL    HW110205   6.598   4.752   2.126
 3102SOL    HW210206   6.595   4.873   2.235
 3103SOL     OW10207   2.957   1.602   1.348
 3103SOL    HW110208   3.049   1.586   1.384
 3103SOL    HW210209   2.895   1.531   1.382
 3104SOL     OW10210   5.417   2.521   4.902
 3104SOL    HW110211   5.349   2.462   4.857
 3104SOL    HW210212   5.440   2.483   4.992
 3105SOL     OW10213   5.796   3.837   0.403
 3105SOL    HW110214   5.855   3.890   0.342
 3105SOL    HW210215   5.837   3.832   0.494
 3106SOL     OW10216   5.348   1.577   5.721
 3106SOL    HW110217   5.270   1.521   5.748
 3106SOL    HW210218   5.377   1.633   5.799
 3107SOL     OW10219   3.236   1.799   5.134
 3107SOL    HW110220   3.335   1.807   5.123
 3107SOL    HW210221   3.191   1.865   5.073
 3108SOL     OW10222   2.247   4.148   3.298
 3108SOL    HW110223   2.238   4.076   3.229
 3108SOL    HW210224   2.335   4.139   3.344
 3109SOL     OW10225   6.656   6.434   3.629
 3109SOL    HW110226   6.676   6.364   3.698
 3109SOL    HW210227   6.741   6.478   3.600
 3110SOL     OW10228   1.199   5.663   3.239
 3110SOL    HW110229   1.295   5.636   3.235
 3110SOL    HW210230   1.180   5.734   3.172
 3111SOL     OW10231   6.072   4.009   3.779
 3111SOL    HW110232   6.145   4.052   3.727
 3111SOL    HW210233   6.065   4.052   3.870
 3112SOL     OW10234   3.021   1.202   6.543
 3112SOL    HW110235   2.968   1.130   6.587
 3112SOL    HW210236   3.078   1.162   6.471
 3113SOL     OW10237   1.360   6.270   2.746
 3113SOL    HW110238   1.360   6.279   2.646
 3113SOL    HW210239   1.406   6.349   2.786
 3114SOL     OW10240   4.385   0.948   6.283
 3114SOL    HW110241   4.349   0.858   6.257
 3114SOL    HW210242   4.484   0.948   6.275
 3115SOL     OW10243   4.757   5.768   5.495
 3115SOL    HW110244   4.803   5.681   5.514
 3115SOL    HW210245   4.754   5.783   5.396
 3116SOL     OW10246   0.862   0.399   6.815
 3116SOL    HW110247   0.814   0.442   6.738
 3116SOL    HW210248   0.958   0.426   6.814
 3117SOL     OW10249   4.621   0.479   0.000
 3117SOL    HW110250   4.705   0.436   0.031
 3117SOL    HW210251   4.587   0.432   6.943
 3118SOL     OW10252   1.523   1.450   3.324
 3118SOL    HW110253   1.466   1.485   3.250
 3118SOL    HW210254   1.554   1.527   3.381
 3119SOL     OW10255   4.452   5.923   5.261
 3119SOL    HW110256   4.449   5.936   5.360
 3119SOL    HW210257   4.367   5.882   5.230
 3120SOL     OW10258   2.467   5.780   6.231
 3120SOL    HW110259   2.449   5.683   6.214
 3120SOL    HW210260   2.551   5.808   6.184
 3121SOL     OW10261   3.611   2.092   4.724
 3121SOL    HW110262   3.662   2.044   4.653
 3121SOL    HW210263   3.622   2.191   4.712
 3122SOL     OW10264   5.446   4.694   5.629
 3122SOL    HW110265   5.486   4.611   5.667
 3122SOL    HW210266   5.475   4.705   5.534
 3123SOL     OW10267   1.666   1.171   2.839
 3123SOL    HW110268   1.732   1.131   2.776
 3123SOL    HW210269   1.621   1.098   2.891
 3124SOL     OW10270   4.887   0.027   4.719
 3124SOL    HW110271   4.957   6.999   4.671
 3124SOL    HW210272   4.898   0.124   4.698
 3125SOL     OW10273   1.874   1.413   5.116
 3125SOL    HW110274   1.969   1.409   5.147
 3125SOL    HW210275   1.824   1.479   5.172
 3126SOL     OW10276   4.941   4.890   5.679
 3126SOL    HW110277   4.962   4.956   5.607
 3126SOL    HW210278   4.842   4.875   5.682
 3127SOL     OW10279   0.154   0.839   5.415
 3127SOL    HW110280   0.228   0.781   5.448
 3127SOL    HW210281   0.123   0.899   5.488
 3128SOL     OW10282   3.362   0.863   0.584
 3128SOL    HW110283   3.376   0.794   0.654
 3128SOL    HW210284   3.279   0.841   0.531
 3129SOL     OW10285   4.241   3.878   0.219
 3129SOL    HW110286   4.309   3.807   0.201
 3129SOL    HW210287   4.208   3.870   0.312
 3130SOL     OW10288   6.708   5.396   1.942
 3130SOL    HW110289   6.678   5.459   2.013
 3130SOL    HW210290   6.704   5.302   1.977
 3131SOL     OW10291   6.466   4.378   2.827
 3131SOL    HW110292   6.519   4.370   2.742
 3131SOL    HW210293   6.505   4.452   2.883
 3132SOL     OW10294   4.645   3.933   0.129
 3132SOL    HW110295   4.607   4.018   0.093
 3132SOL    HW210296   4.579   3.859   0.117
 3133SOL     OW10297   4.562   0.052   4.365
 3133SOL    HW110298   4.580   0.034   4.268
 3133SOL    HW210299   4.603   0.139   4.391
 3134SOL     OW10300   6.439   4.994   2.651
 3134SOL    HW110301   6.378   4.973   2.728
 3134SOL    HW210302   6.507   4.922   2.641
 3135SOL     OW10303   4.245   5.327   6.724
 3135SOL    HW110304   4.255   5.402   6.789
 3135SOL    HW210305   4.324   5.325   6.662
 3136SOL     OW10306   6.295   0.760   3.533
 3136SOL    HW110307   6.309   0.745   3.631
 3136SOL    HW210308   6.233   0.690   3.497
 3137SOL     OW10309   5.668   6.393   6.912
 3137SOL    HW110310   5.691   6.357   7.002
 3137SOL    HW210311   5.602   6.333   6.867
 3138SOL     OW10312   6.292   6.267   4.771
 3138SOL    HW110313   6.312   6.186   4.826
 3138SOL    HW210314   6.353   6.342   4.798
 3139SOL     OW10315   2.788   5.209   1.675
 3139SOL    HW110316   2.742   5.225   1.588
 3139SOL    HW210317   2.720   5.197   1.747
 3140SOL     OW10318   0.626   6.547   0.257
 3140SOL    HW110319   0.625   6.455   0.216
 3140SOL    HW210320   0.544   6.559   0.312
 3141SOL     OW10321   6.258   1.852   6.574
 3141SOL    HW110322   6.208   1.768   6.552
 3141SOL    HW210323   6.199   1.931   6.555
 3142SOL     OW10324   4.285   0.353   3.842
 3142SOL    HW110325   4.244   0.342   3.752
 3142SOL    HW210326   4.266   0.446   3.876
 3143SOL     OW10327   6.486   1.256   0.565
 3143SOL    HW110328   6.436   1.227   0.484
 3143SOL    HW210329   6.423   1.266   0.642
 3144SOL     OW10330   4.038   4.135   0.307
 3144SOL    HW110331   4.081   4.054   0.347
 3144SOL    HW210332   3.953   4.155   0.355
 3145SOL     OW10333   0.461   5.861   0.351
 3145SOL    HW110334   0.374   5.892   0.388
 3145SOL    HW210335   0.472   5.894   0.257
 3146SOL     OW10336   6.395   1.689   4.736
 3146SOL    HW110337   6.370   1.594   4.757
 3146SOL    HW210338   6.495   1.699   4.739
 3147SOL     OW10339   3.826   6.352   0.232
 3147SOL    HW110340   3.848   6.372   0.137
 3147SOL    HW210341   3.845   6.255   0.251
 3148SOL     OW10342   0.058   5.068   1.755
 3148SOL    HW110343   0.118   5.127   1.702
 3148SOL    HW210344   0.113   5.004   1.809
 3149SOL     OW10345   3.226   2.364   6.979
 3149SOL    HW110346   3.316   2.353   7.022
 3149SOL    HW210347   3.217   2.297   6.905
 3150SOL     OW10348   6.698   6.213   5.463
 3150SOL    HW110349   6.626   6.193   5.530
 3150SOL    HW210350   6.667   6.283   5.399
 3151SOL     OW10351   0.062   0.588   5.291
 3151SOL    HW110352   0.111   0.576   5.205
 3151SOL    HW210353   0.052   0.686   5.310
 3152SOL     OW10354   1.392   3.167   5.867
 3152SOL    HW110355   1.309   3.142   5.917
 3152SOL    HW210356   1.414   3.263   5.885
 3153SOL     OW10357   5.904   5.173   1.728
 3153SOL    HW110358   5.834   5.133   1.669
 3153SOL    HW210359   5.994   5.164   1.684
 3154SOL     OW10360   4.197   0.969   0.036
 3154SOL    HW110361   4.232   0.964   6.967
 3154SOL    HW210362   4.148   0.885   0.058
 3155SOL     OW10363   0.989   4.672   0.162
 3155SOL    HW110364   0.933   4.729   0.222
 3155SOL    HW210365   0.930   4.628   0.094
 3156SOL     OW10366   3.685   4.224   1.713
 3156SOL    HW110367   3.721   4.169   1.788
 3156SOL    HW210368   3.585   4.223   1.715
 3157SOL     OW10369   1.106   0.789   5.169
 3157SOL    HW110370   1.163   0.733   5.229
 3157SOL    HW210371   1.158   0.811   5.086
 3158SOL     OW10372   1.838   1.490   5.640
 3158SOL    HW110373   1.822   1.542   5.724
 3158SOL    HW210374   1.751   1.470   5.596
 3159SOL     OW10375   5.451   0.144   6.701
 3159SOL    HW110376   5.461   0.232   6.653
 3159SOL    HW210377   5.535   0.091   6.691
 3160SOL     OW10378   1.730   0.431   5.938
 3160SOL    HW110379   1.733   0.357   6.004
 3160SOL    HW210380   1.676   0.404   5.858
 3161SOL     OW10381   1.921   2.797   2.419
 3161SOL    HW110382   1.869   2.726   2.466
 3161SOL    HW210383   1.898   2.796   2.321
 3162SOL     OW10384   1.651   5.681   1.476
 3162SOL    HW110385   1.649   5.735   1.561
 3162SOL    HW210386   1.651   5.743   1.397
 3163SOL     OW10387   4.587   4.494   0.754
 3163SOL    HW110388   4.548   4.538   0.835
 3163SOL    HW210389   4.516   4.440   0.709
 3164SOL     OW10390   2.611   6.441   3.755
 3164SOL    HW110391   2.574   6.389   3.831
 3164SOL    HW210392   2.695   6.488   3.784
 3165SOL     OW10393   0.961   6.332   6.271
 3165SOL    HW110394   1.013   6.377   6.199
 3165SOL    HW210395   0.893   6.396   6.308
 3166SOL     OW10396   5.120   1.207   5.004
 3166SOL    HW110397   5.044   1.157   4.963
 3166SOL    HW210398   5.166   1.262   4.934
 3167SOL     OW10399   5.598   3.112   1.098
 3167SOL    HW110400   5.645   3.098   1.185
 3167SOL    HW210401   5.499   3.116   1.114
 3168SOL     OW10402   4.380   1.675   0.571
 3168SOL    HW110403   4.285   1.658   0.542
 3168SOL    HW210404   4.408   1.766   0.539
 3169SOL     OW10405   2.288   4.163   1.893
 3169SOL    HW110406   2.244   4.095   1.953
 3169SOL    HW210407   2.292   4.251   1.941
 3170SOL     OW10408   2.140   3.639   3.632
 3170SOL    HW110409   2.045   3.621   3.654
 3170SOL    HW210410   2.146   3.699   3.553
 3171SOL     OW10411   5.294   1.876   3.710
 3171SOL    HW110412   5.206   1.829   3.715
 3171SOL    HW210413   5.280   1.975   3.719
 3172SOL     OW10414   6.067   4.155   1.707
 3172SOL    HW110415   6.055   4.126   1.612
 3172SOL    HW210416   6.089   4.252   1.710
 3173SOL     OW10417   4.454   2.830   0.505
 3173SOL    HW110418   4.499   2.759   0.558
 3173SOL    HW210419   4.523   2.889   0.462
 3174SOL     OW10420   3.250   3.118   6.433
 3174SOL    HW110421   3.284   3.173   6.509
 3174SOL    HW210422   3.295   3.029   6.433
 3175SOL     OW10423   5.463   0.735   5.578
 3175SOL    HW110424   5.480   0.811   5.641
 3175SOL    HW210425   5.370   0.744   5.540
 3176SOL     OW10426   0.572   4.864   4.152
 3176SOL    HW110427   0.514   4.920   4.093
 3176SOL    HW210428   0.541   4.873   4.247
 3177SOL     OW10429   5.624   3.367   3.460
 3177SOL    HW110430   5.601   3.334   3.369
 3177SOL    HW210431   5.577   3.312   3.529
 3178SOL     OW10432   6.994   1.130   2.148
 3178SOL    HW110433   6.917   1.098   2.092
 3178SOL    HW210434   0.025   1.195   2.096
 3179SOL     OW10435   1.315   2.617   2.011
 3179SOL    HW110436   1.327   2.714   2.029
 3179SOL    HW210437   1.250   2.579   2.077
 3180SOL     OW10438   0.458   5.660   0.533
 3180SOL    HW110439   0.492   5.706   0.615
 3180SOL    HW210440   0.468   5.721   0.454
 3181SOL     OW10441   1.726   6.414   5.235
 3181SOL    HW110442   1.679   6.482   5.292
 3181SOL    HW210443   1.673   6.398   5.152
 3182SOL     OW10444   2.345   1.091   0.888
 3182SOL    HW110445   2.311   1.172   0.935
 3182SOL    HW210446   2.335   1.011   0.948
 3183SOL     OW10447   3.817   3.686   1.059
 3183SOL    HW110448   3.789   3.595   1.029
 3183SOL    HW210449   3.833   3.685   1.158
 3184SOL     OW10450   7.010   1.826   4.650
 3184SOL    HW110451   6.949   1.874   4.588
 3184SOL    HW210452   7.012   1.728   4.626
 3185SOL     OW10453   0.544   5.561   6.461
 3185SOL    HW110454   0.612   5.552   6.389
 3185SOL    HW210455   0.457   5.524   6.430
 3186SOL     OW10456   0.359   2.469   6.381
 3186SOL    HW110457   0.317   2.536   6.442
 3186SOL    HW210458   0.305   2.462   6.297
 3187SOL     OW10459   5.379   6.098   2.878
 3187SOL    HW110460   5.376   6.004   2.914
 3187SOL    HW210461   5.290   6.142   2.893
 3188SOL     OW10462   2.263   5.731   6.652
 3188SOL    HW110463   2.235   5.780   6.735
 3188SOL    HW210464   2.311   5.794   6.591
 3189SOL     OW10465   3.141   1.665   5.754
 3189SOL    HW110466   3.098   1.727   5.820
 3189SOL    HW210467   3.204   1.604   5.803
 3190SOL     OW10468   5.789   6.142   3.984
 3190SOL    HW110469   5.878   6.187   3.985
 3190SOL    HW210470   5.784   6.075   4.058
 3191SOL     OW10471   3.329   5.597   1.167
 3191SOL    HW110472   3.312   5.667   1.098
 3191SOL    HW210473   3.323   5.506   1.125
 3192SOL     OW10474   5.337   1.627   2.851
 3192SOL    HW110475   5.397   1.560   2.808
 3192SOL    HW210476   5.381   1.665   2.932
 3193SOL     OW10477   3.331   0.378   4.734
 3193SOL    HW110478   3.422   0.390   4.772
 3193SOL    HW210479   3.329   0.409   4.639
 3194SOL     OW10480   1.733   0.185   6.725
 3194SOL    HW110481   1.818   0.234   6.743
 3194SOL    HW210482   1.749   0.087   6.733
 3195SOL     OW10483   0.397   1.504   1.034
 3195SOL    HW110484   0.365   1.553   1.115
 3195SOL    HW210485   0.435   1.416   1.061
 3196SOL     OW10486   5.489   6.990   3.761
 3196SOL    HW110487   5.445   6.989   3.671
 3196SOL    HW210488   5.495   6.897   3.797
 3197SOL     OW10489   2.357   0.836   6.311
 3197SOL    HW110490   2.400   0.790   6.389
 3197SOL    HW210491   2.390   0.796   6.226
 3198SOL     OW10492   5.413   2.902   3.465
 3198SOL    HW110493   5.463   2.962   3.402
 3198SOL    HW210494   5.438   2.807   3.448
 3199SOL     OW10495   5.216   4.153   2.977
 3199SOL    HW110496   5.228   4.058   2.946
 3199SOL    HW210497   5.145   4.197   2.923
 3200SOL     OW10498   5.441   3.723   3.626
 3200SOL    HW110499   5.398   3.806   3.661
 3200SOL    HW210500   5.540   3.729   3.640
 3201SOL     OW10501   6.397   4.257   2.403
 3201SOL    HW110502   6.404   4.251   2.503
 3201SOL    HW210503   6.345   4.339   2.378
 3202SOL     OW10504   2.425   3.437   6.959
 3202SOL    HW110505   2.355   3.508   6.971
 3202SOL    HW210506   2.483   3.432   0.017
 3203SOL     OW10507   3.701   6.695   1.286
 3203SOL    HW110508   3.611   6.704   1.244
 3203SOL    HW210509   3.693   6.711   1.385
 3204SOL     OW10510   3.483   1.456   3.619
 3204SOL    HW110511   3.399   1.404   3.606
 3204SOL    HW210512   3.552   1.398   3.663
 3205SOL     OW10513   4.724   3.537   5.761
 3205SOL    HW110514   4.649   3.493   5.811
 3205SOL    HW210515   4.809   3.529   5.814
 3206SOL     OW10516   3.334   3.454   1.089
 3206SOL    HW110517   3.345   3.484   1.184
 3206SOL    HW210518   3.287   3.366   1.087
 3207SOL     OW10519   2.260   5.234   5.510
 3207SOL    HW110520   2.286   5.139   5.529
 3207SOL    HW210521   2.342   5.288   5.493
 3208SOL     OW10522   6.478   5.003   6.114
 3208SOL    HW110523   6.519   4.932   6.172
 3208SOL    HW210524   6.550   5.046   6.060
 3209SOL     OW10525   5.110   5.647   6.313
 3209SOL    HW110526   5.118   5.677   6.218
 3209SOL    HW210527   5.038   5.700   6.358
 3210SOL     OW10528   5.747   5.974   1.815
 3210SOL    HW110529   5.827   5.956   1.759
 3210SOL    HW210530   5.668   5.924   1.778
 3211SOL     OW10531   1.619   5.809   6.264
 3211SOL    HW110532   1.698   5.853   6.305
 3211SOL    HW210533   1.618   5.828   6.165
 3212SOL     OW10534   1.987   0.626   3.153
 3212SOL    HW110535   1.925   0.566   3.103
 3212SOL    HW210536   2.028   0.576   3.229
 3213SOL     OW10537   1.385   0.128   5.977
 3213SOL    HW110538   1.396   0.215   6.025
 3213SOL    HW210539   1.414   0.053   6.037
 3214SOL     OW10540   3.163   0.782   2.647
 3214SOL    HW110541   3.242   0.843   2.639
 3214SOL    HW210542   3.193   0.693   2.681
 3215SOL     OW10543   1.761   3.431   1.546
 3215SOL    HW110544   1.849   3.468   1.515
 3215SOL    HW210545   1.777   3.343   1.592
 3216SOL     OW10546   6.060   5.070   1.024
 3216SOL    HW110547   6.082   5.167   1.012
 3216SOL    HW210548   5.968   5.062   1.063
 3217SOL     OW10549   6.839   6.143   2.104
 3217SOL    HW110550   6.916   6.108   2.052
 3217SOL    HW210551   6.827   6.241   2.085
 3218SOL     OW10552   5.227   1.312   3.348
 3218SOL    HW110553   5.189   1.354   3.265
 3218SOL    HW210554   5.327   1.314   3.343
 3219SOL     OW10555   6.278   1.361   5.352
 3219SOL    HW110556   6.293   1.265   5.376
 3219SOL    HW210557   6.230   1.407   5.427
 3220SOL     OW10558   6.841   4.435   6.145
 3220SOL    HW110559   6.813   4.530   6.138
 3220SOL    HW210560   6.807   4.384   6.065
 3221SOL     OW10561   3.563   1.468   1.450
 3221SOL    HW110562   3.472   1.478   1.491
 3221SOL    HW210563   3.576   1.537   1.379
 3222SOL     OW10564   2.979   1.704   3.230
 3222SOL    HW110565   2.922   1.751   3.163
 3222SOL    HW210566   3.067   1.680   3.188
 3223SOL     OW10567   1.666   5.678   0.277
 3223SOL    HW110568   1.604   5.755   0.262
 3223SOL    HW210569   1.719   5.694   0.360
 3224SOL     OW10570   3.615   2.128   3.631
 3224SOL    HW110571   3.530   2.131   3.580
 3224SOL    HW210572   3.628   2.037   3.670
 3225SOL     OW10573   4.048   1.082   3.715
 3225SOL    HW110574   4.008   1.170   3.691
 3225SOL    HW210575   4.113   1.094   3.790
 3226SOL     OW10576   6.329   0.324   0.045
 3226SOL    HW110577   6.313   0.303   6.972
 3226SOL    HW210578   6.346   0.240   0.095
 3227SOL     OW10579   5.594   4.701   4.818
 3227SOL    HW110580   5.635   4.737   4.735
 3227SOL    HW210581   5.564   4.777   4.876
 3228SOL     OW10582   2.137   4.252   7.019
 3228SOL    HW110583   2.210   4.188   6.998
 3228SOL    HW210584   2.176   4.335   0.035
 3229SOL     OW10585   1.667   1.682   0.306
 3229SOL    HW110586   1.623   1.748   0.246
 3229SOL    HW210587   1.739   1.634   0.256
 3230SOL     OW10588   3.072   6.463   5.552
 3230SOL    HW110589   3.095   6.489   5.646
 3230SOL    HW210590   3.108   6.372   5.533
 3231SOL     OW10591   1.899   1.751   2.533
 3231SOL    HW110592   1.896   1.838   2.483
 3231SOL    HW210593   1.899   1.768   2.631
 3232SOL     OW10594   3.381   5.380   3.927
 3232SOL    HW110595   3.382   5.468   3.881
 3232SOL    HW210596   3.351   5.392   4.021
 3233SOL     OW10597   1.033   1.461   0.493
 3233SOL    HW110598   1.070   1.437   0.583
 3233SOL    HW210599   1.098   1.520   0.445
 3234SOL     OW10600   2.455   2.717   0.760
 3234SOL    HW110601   2.388   2.644   0.775
 3234SOL    HW210602   2.489   2.713   0.666
 3235SOL     OW10603   0.830   0.053   2.850
 3235SOL    HW110604   0.913   0.002   2.873
 3235SOL    HW210605   0.850   0.151   2.853
 3236SOL     OW10606   4.006   1.607   0.016
 3236SOL    HW110607   3.929   1.543   0.013
 3236SOL    HW210608   4.066   1.591   6.962
 3237SOL     OW10609   5.952   2.139   5.644
 3237SOL    HW110610   5.977   2.046   5.670
 3237SOL    HW210611   6.021   2.177   5.583
 3238SOL     OW10612   6.806   4.917   1.794
 3238SOL    HW110613   6.846   4.998   1.751
 3238SOL    HW210614   6.879   4.852   1.816
 3239SOL     OW10615   6.340   7.003   4.615
 3239SOL    HW110616   6.251   0.019   4.592
 3239SOL    HW210617   6.332   6.952   4.701
 3240SOL     OW10618   0.333   0.774   0.290
 3240SOL    HW110619   0.287   0.820   0.214
 3240SOL    HW210620   0.273   0.772   0.370
 3241SOL     OW10621   5.915   2.648   5.807
 3241SOL    HW110622   5.959   2.731   5.840
 3241SOL    HW210623   5.882   2.594   5.884
 3242SOL     OW10624   6.171   4.029   4.529
 3242SOL    HW110625   6.100   4.063   4.591
 3242SOL    HW210626   6.200   4.102   4.468
 3243SOL     OW10627   6.010   4.639   4.205
 3243SOL    HW110628   5.966   4.550   4.208
 3243SOL    HW210629   5.965   4.697   4.138
 3244SOL     OW10630   5.193   0.068   6.559
 3244SOL    HW110631   5.124   0.125   6.603
 3244SOL    HW210632   5.284   0.094   6.593
 3245SOL     OW10633   4.147   0.844   5.358
 3245SOL    HW110634   4.076   0.887   5.302
 3245SOL    HW210635   4.178   0.908   5.427
 3246SOL     OW10636   6.951   0.322   2.988
 3246SOL    HW110637   6.854   0.348   2.983
 3246SOL    HW210638   7.003   0.376   2.922
 3247SOL     OW10639   0.379   4.148   3.461
 3247SOL    HW110640   0.411   4.117   3.372
 3247SOL    HW210641   0.338   4.071   3.510
 3248SOL     OW10642   5.259   2.149   3.730
 3248SOL    HW110643   5.337   2.176   3.787
 3248SOL    HW210644   5.205   2.230   3.707
 3249SOL     OW10645   3.313   4.133   3.763
 3249SOL    HW110646   3.221   4.162   3.789
 3249SOL    HW210647   3.374   4.144   3.842
 3250SOL     OW10648   4.777   5.328   2.536
 3250SOL    HW110649   4.743   5.239   2.565
 3250SOL    HW210650   4.702   5.394   2.536
 3251SOL     OW10651   2.401   2.129   2.707
 3251SOL    HW110652   2.475   2.193   2.688
 3251SOL    HW210653   2.439   2.040   2.733
 3252SOL     OW10654   1.491   0.684   2.900
 3252SOL    HW110655   1.518   0.619   2.828
 3252SOL    HW210656   1.512   0.644   2.989
 3253SOL     OW10657   6.451   3.810   0.423
 3253SOL    HW110658   6.358   3.845   0.416
 3253SOL    HW210659   6.510   3.858   0.358
 3254SOL     OW10660   5.956   0.112   0.849
 3254SOL    HW110661   5.866   0.113   0.893
 3254SOL    HW210662   6.021   0.165   0.904
 3255SOL     OW10663   5.187   5.918   1.289
 3255SOL    HW110664   5.224   5.826   1.277
 3255SOL    HW210665   5.132   5.942   1.209
 3256SOL     OW10666   4.799   2.664   1.369
 3256SOL    HW110667   4.735   2.637   1.440
 3256SOL    HW210668   4.807   2.591   1.301
 3257SOL     OW10669   2.891   1.920   3.006
 3257SOL    HW110670   2.875   1.836   2.955
 3257SOL    HW210671   2.977   1.962   2.975
 3258SOL     OW10672   2.390   5.473   3.628
 3258SOL    HW110673   2.476   5.424   3.644
 3258SOL    HW210674   2.357   5.510   3.714
 3259SOL     OW10675   4.965   4.276   3.559
 3259SOL    HW110676   5.010   4.365   3.560
 3259SOL    HW210677   5.027   4.207   3.523
 3260SOL     OW10678   1.066   4.407   2.913
 3260SOL    HW110679   1.015   4.335   2.866
 3260SOL    HW210680   1.007   4.450   2.982
 3261SOL     OW10681   5.065   0.153   3.668
 3261SOL    HW110682   4.978   0.149   3.717
 3261SOL    HW210683   5.066   0.232   3.607
 3262SOL     OW10684   3.071   1.961   3.560
 3262SOL    HW110685   3.105   2.044   3.515
 3262SOL    HW210686   3.090   1.967   3.658
 3263SOL     OW10687   0.017   1.160   2.411
 3263SOL    HW110688   0.012   1.135   2.314
 3263SOL    HW210689   6.949   1.167   2.449
 3264SOL     OW10690   1.577   5.019   6.540
 3264SOL    HW110691   1.507   5.066   6.487
 3264SOL    HW210692   1.561   4.920   6.536
 3265SOL     OW10693   5.945   5.342   6.411
 3265SOL    HW110694   5.945   5.273   6.484
 3265SOL    HW210695   5.993   5.424   6.442
 3266SOL     OW10696   3.506   5.515   6.783
 3266SOL    HW110697   3.509   5.593   6.845
 3266SOL    HW210698   3.436   5.531   6.713
 3267SOL     OW10699   3.490   6.897   0.199
 3267SOL    HW110700   3.420   6.911   0.269
 3267SOL    HW210701   3.579   6.929   0.233
 3268SOL     OW10702   6.209   5.382   1.747
 3268SOL    HW110703   6.268   5.436   1.687
 3268SOL    HW210704   6.114   5.404   1.728
 3269SOL     OW10705   1.566   4.862   1.435
 3269SOL    HW110706   1.574   4.954   1.474
 3269SOL    HW210707   1.514   4.866   1.349
 3270SOL     OW10708   0.721   2.759   5.200
 3270SOL    HW110709   0.669   2.840   5.228
 3270SOL    HW210710   0.819   2.776   5.211
 3271SOL     OW10711   1.168   2.877   2.292
 3271SOL    HW110712   1.191   2.781   2.312
 3271SOL    HW210713   1.096   2.907   2.353
 3272SOL     OW10714   4.435   6.350   0.931
 3272SOL    HW110715   4.422   6.447   0.953
 3272SOL    HW210716   4.416   6.294   1.012
 3273SOL     OW10717   5.183   2.945   6.114
 3273SOL    HW110718   5.195   2.862   6.059
 3273SOL    HW210719   5.105   2.934   6.175
 3274SOL     OW10720   5.725   0.187   1.785
 3274SOL    HW110721   5.682   0.261   1.837
 3274SOL    HW210722   5.696   0.192   1.689
 3275SOL     OW10723   5.059   0.756   2.148
 3275SOL    HW110724   5.087   0.693   2.220
 3275SOL    HW210725   5.128   0.756   2.075
 3276SOL     OW10726   5.152   0.093   7.008
 3276SOL    HW110727   5.166   0.191   7.024
 3276SOL    HW210728   5.239   0.050   6.983
 3277SOL     OW10729   3.225   2.122   2.091
 3277SOL    HW110730   3.128   2.142   2.105
 3277SOL    HW210731   3.274   2.132   2.178
 3278SOL     OW10732   6.092   0.608   6.968
 3278SOL    HW110733   6.075   0.687   6.909
 3278SOL    HW210734   6.085   0.524   6.914
 3279SOL     OW10735   3.208   0.103   2.094
 3279SOL    HW110736   3.162   0.039   2.033
 3279SOL    HW210737   3.302   0.072   2.110
 3280SOL     OW10738   6.456   3.925   3.901
 3280SOL    HW110739   6.380   3.901   3.840
 3280SOL    HW210740   6.520   3.848   3.906
 3281SOL     OW10741   5.994   3.834   1.598
 3281SOL    HW110742   5.933   3.763   1.633
 3281SOL    HW210743   6.082   3.827   1.646
 3282SOL     OW10744   0.102   5.007   4.845
 3282SOL    HW110745   0.122   5.026   4.941
 3282SOL    HW210746   0.173   4.948   4.807
 3283SOL     OW10747   3.408   1.990   0.731
 3283SOL    HW110748   3.463   1.935   0.668
 3283SOL    HW210749   3.426   2.087   0.716
 3284SOL     OW10750   2.502   6.025   4.298
 3284SOL    HW110751   2.565   6.090   4.339
 3284SOL    HW210752   2.525   6.012   4.202
 3285SOL     OW10753   4.004   2.104   5.168
 3285SOL    HW110754   3.996   2.110   5.069
 3285SOL    HW210755   4.085   2.155   5.198
 3286SOL     OW10756   2.139   1.964   2.664
 3286SOL    HW110757   2.140   1.892   2.734
 3286SOL    HW210758   2.207   2.033   2.688
 3287SOL     OW10759   2.576   0.423   0.156
 3287SOL    HW110760   2.574   0.367   0.073
 3287SOL    HW210761   2.484   0.456   0.176
 3288SOL     OW10762   2.488   6.268   1.984
 3288SOL    HW110763   2.422   6.227   2.048
 3288SOL    HW210764   2.510   6.361   2.013
 3289SOL     OW10765   4.746   1.100   6.154
 3289SOL    HW110766   4.713   1.019   6.203
 3289SOL    HW210767   4.668   1.155   6.124
 3290SOL     OW10768   0.574   5.437   0.427
 3290SOL    HW110769   0.501   5.375   0.397
 3290SOL    HW210770   0.535   5.525   0.453
 3291SOL     OW10771   4.893   0.194   5.161
 3291SOL    HW110772   4.824   0.233   5.099
 3291SOL    HW210773   4.933   0.113   5.118
 3292SOL     OW10774   6.980   2.121   1.066
 3292SOL    HW110775   0.050   2.149   1.083
 3292SOL    HW210776   6.976   2.060   0.987
 3293SOL     OW10777   5.965   5.823   3.892
 3293SOL    HW110778   5.972   5.889   3.818
 3293SOL    HW210779   5.870   5.814   3.921
 3294SOL     OW10780   5.186   3.009   4.981
 3294SOL    HW110781   5.174   2.963   4.893
 3294SOL    HW210782   5.210   3.105   4.964
 3295SOL     OW10783   0.890   2.686   2.739
 3295SOL    HW110784   0.931   2.668   2.649
 3295SOL    HW210785   0.895   2.784   2.759
 3296SOL     OW10786   1.583   0.692   6.068
 3296SOL    HW110787   1.614   0.787   6.074
 3296SOL    HW210788   1.643   0.634   6.123
 3297SOL     OW10789   3.084   1.527   4.855
 3297SOL    HW110790   3.012   1.592   4.828
 3297SOL    HW210791   3.058   1.484   4.941
 3298SOL     OW10792   5.342   3.629   5.861
 3298SOL    HW110793   5.393   3.558   5.908
 3298SOL    HW210794   5.392   3.716   5.866
 3299SOL     OW10795   2.663   4.608   4.092
 3299SOL    HW110796   2.760   4.610   4.072
 3299SOL    HW210797   2.625   4.700   4.080
 3300SOL     OW10798   1.951   6.767   4.171
 3300SOL    HW110799   2.042   6.810   4.173
 3300SOL    HW210800   1.946   6.702   4.096
 3301SOL     OW10801   0.662   1.235   3.069
 3301SOL    HW110802   0.612   1.287   3.001
 3301SOL    HW210803   0.620   1.248   3.159
 3302SOL     OW10804   1.952   4.808   5.270
 3302SOL    HW110805   1.890   4.731   5.252
 3302SOL    HW210806   1.905   4.874   5.328
 3303SOL     OW10807   3.464   2.873   0.297
 3303SOL    HW110808   3.402   2.885   0.375
 3303SOL    HW210809   3.425   2.807   0.233
 3304SOL     OW10810   3.054   5.121   0.125
 3304SOL    HW110811   3.121   5.189   0.094
 3304SOL    HW210812   3.100   5.034   0.141
 3305SOL     OW10813   3.154   2.538   0.649
 3305SOL    HW110814   3.060   2.510   0.630
 3305SOL    HW210815   3.216   2.461   0.631
 3306SOL     OW10816   2.419   0.706   0.050
 3306SOL    HW110817   2.375   0.644   0.115
 3306SOL    HW210818   2.406   0.801   0.081
 3307SOL     OW10819   1.594   6.596   5.568
 3307SOL    HW110820   1.671   6.534   5.584
 3307SOL    HW210821   1.511   6.542   5.558
 3308SOL     OW10822   4.056   4.621   1.161
 3308SOL    HW110823   4.137   4.669   1.130
 3308SOL    HW210824   4.008   4.582   1.082
 3309SOL     OW10825   5.973   2.810   3.336
 3309SOL    HW110826   5.981   2.835   3.432
 3309SOL    HW210827   6.039   2.739   3.314
 3310SOL     OW10828   6.062   4.913   5.943
 3310SOL    HW110829   6.035   4.984   6.009
 3310SOL    HW210830   6.069   4.825   5.991
 3311SOL     OW10831   2.852   3.508   0.403
 3311SOL    HW110832   2.902   3.594   0.416
 3311SOL    HW210833   2.806   3.483   0.488
 3312SOL     OW10834   4.754   2.188   6.045
 3312SOL    HW110835   4.732   2.121   5.974
 3312SOL    HW210836   4.718   2.277   6.018
 3313SOL     OW10837   0.580   0.719   3.522
 3313SOL    HW110838   0.621   0.734   3.432
 3313SOL    HW210839   0.604   0.627   3.555
 3314SOL     OW10840   2.799   5.864   2.433
 3314SOL    HW110841   2.712   5.824   2.462
 3314SOL    HW210842   2.840   5.807   2.361
 3315SOL     OW10843   0.297   5.725   5.183
 3315SOL    HW110844   0.243   5.662   5.128
 3315SOL    HW210845   0.262   5.818   5.171
 3316SOL     OW10846   4.433   2.584   6.792
 3316SOL    HW110847   4.421   2.490   6.826
 3316SOL    HW210848   4.421   2.649   6.866
 3317SOL     OW10849   5.306   2.642   2.082
 3317SOL    HW110850   5.235   2.617   2.016
 3317SOL    HW210851   5.387   2.586   2.067
 3318SOL     OW10852   3.454   2.279   0.631
 3318SOL    HW110853   3.355   2.278   0.645
 3318SOL    HW210854   3.476   2.320   0.543
 3319SOL     OW10855   6.022   5.738   3.415
 3319SOL    HW110856   6.055   5.821   3.460
 3319SOL    HW210857   6.054   5.737   3.320
 3320SOL     OW10858   6.559   6.635   1.517
 3320SOL    HW110859   6.639   6.595   1.472
 3320SOL    HW210860   6.480   6.575   1.501
 3321SOL     OW10861   5.085   1.494   0.286
 3321SOL    HW110862   5.015   1.548   0.332
 3321SOL    HW210863   5.117   1.543   0.204
 3322SOL     OW10864   6.499   3.961   0.654
 3322SOL    HW110865   6.437   3.986   0.728
 3322SOL    HW210866   6.446   3.928   0.576
 3323SOL     OW10867   1.443   2.110   1.451
 3323SOL    HW110868   1.347   2.133   1.438
 3323SOL    HW210869   1.451   2.037   1.518
 3324SOL     OW10870   5.272   5.986   5.764
 3324SOL    HW110871   5.367   5.959   5.783
 3324SOL    HW210872   5.212   5.908   5.784
 3325SOL     OW10873   2.762   4.096   5.628
 3325SOL    HW110874   2.722   4.006   5.607
 3325SOL    HW210875   2.781   4.145   5.543
 3326SOL     OW10876   4.337   1.575   2.056
 3326SOL    HW110877   4.313   1.479   2.071
 3326SOL    HW210878   4.413   1.581   1.992
 3327SOL     OW10879   0.201   5.004   6.629
 3327SOL    HW110880   0.255   5.056   6.695
 3327SOL    HW210881   0.133   5.065   6.587
 3328SOL     OW10882   4.613   2.486   6.318
 3328SOL    HW110883   4.684   2.507   6.251
 3328SOL    HW210884   4.614   2.554   6.391
 3329SOL     OW10885   6.311   5.894   5.832
 3329SOL    HW110886   6.373   5.820   5.806
 3329SOL    HW210887   6.291   5.887   5.929
 3330SOL     OW10888   6.998   3.640   2.774
 3330SOL    HW110889   6.908   3.682   2.760
 3330SOL    HW210890   7.001   3.551   2.728
 3331SOL     OW10891   2.166   3.174   1.006
 3331SOL    HW110892   2.250   3.170   0.951
 3331SOL    HW210893   2.161   3.263   1.051
 3332SOL     OW10894   6.372   4.858   1.687
 3332SOL    HW110895   6.419   4.931   1.638
 3332SOL    HW210896   6.440   4.796   1.728
 3333SOL     OW10897   4.073   5.605   6.580
 3333SOL    HW110898   4.160   5.608   6.531
 3333SOL    HW210899   4.090   5.582   6.676
 3334SOL     OW10900   2.327   4.102   1.646
 3334SOL    HW110901   2.408   4.156   1.624
 3334SOL    HW210902   2.293   4.130   1.736
 3335SOL     OW10903   5.847   4.040   4.641
 3335SOL    HW110904   5.881   4.021   4.733
 3335SOL    HW210905   5.860   4.137   4.620
 3336SOL     OW10906   2.979   5.890   5.816
 3336SOL    HW110907   2.918   5.812   5.828
 3336SOL    HW210908   3.072   5.857   5.800
 3337SOL     OW10909   3.325   1.709   0.569
 3337SOL    HW110910   3.399   1.755   0.520
 3337SOL    HW210911   3.360   1.669   0.654
 3338SOL     OW10912   6.730   4.365   0.540
 3338SOL    HW110913   6.776   4.282   0.571
 3338SOL    HW210914   6.701   4.353   0.445
 3339SOL     OW10915   0.208   5.593   6.047
 3339SOL    HW110916   0.306   5.574   6.039
 3339SOL    HW210917   0.189   5.687   6.019
 3340SOL     OW10918   4.034   6.579   1.907
 3340SOL    HW110919   3.938   6.592   1.880
 3340SOL    HW210920   4.094   6.603   1.831
 3341SOL     OW10921   0.906   0.098   1.869
 3341SOL    HW110922   0.898   7.023   1.857
 3341SOL    HW210923   0.849   0.127   1.946
 3342SOL     OW10924   2.666   0.003   4.029
 3342SOL    HW110925   2.605   0.051   3.966
 3342SOL    HW210926   2.657   6.928   4.015
 3343SOL     OW10927   6.286   2.750   1.117
 3343SOL    HW110928   6.346   2.671   1.131
 3343SOL    HW210929   6.229   2.733   1.037
 3344SOL     OW10930   6.941   3.344   5.367
 3344SOL    HW110931   6.990   3.257   5.366
 3344SOL    HW210932   6.858   3.335   5.421
 3345SOL     OW10933   2.721   3.575   5.985
 3345SOL    HW110934   2.693   3.622   5.901
 3345SOL    HW210935   2.799   3.623   6.026
 3346SOL     OW10936   1.689   6.160   2.268
 3346SOL    HW110937   1.630   6.096   2.317
 3346SOL    HW210938   1.780   6.120   2.256
 3347SOL     OW10939   5.447   3.981   4.723
 3347SOL    HW110940   5.401   3.951   4.640
 3347SOL    HW210941   5.503   3.906   4.759
 3348SOL     OW10942   3.906   3.106   3.210
 3348SOL    HW110943   3.886   3.196   3.171
 3348SOL    HW210944   3.928   3.041   3.137
 3349SOL     OW10945   6.299   3.706   5.383
 3349SOL    HW110946   6.379   3.745   5.428
 3349SOL    HW210947   6.231   3.680   5.453
 3350SOL     OW10948   1.396   1.984   0.764
 3350SOL    HW110949   1.369   2.030   0.848
 3350SOL    HW210950   1.407   2.051   0.691
 3351SOL     OW10951   5.170   1.748   1.639
 3351SOL    HW110952   5.113   1.677   1.680
 3351SOL    HW210953   5.259   1.710   1.614
 3352SOL     OW10954   0.364   3.634   0.507
 3352SOL    HW110955   0.372   3.691   0.425
 3352SOL    HW210956   0.409   3.678   0.584
 3353SOL     OW10957   2.143   6.876   6.266
 3353SOL    HW110958   2.241   6.857   6.278
 3353SOL    HW210959   2.102   6.803   6.212
 3354SOL     OW10960   0.904   1.435   2.556
 3354SOL    HW110961   0.866   1.464   2.469
 3354SOL    HW210962   0.951   1.512   2.600
 3355SOL     OW10963   6.267   1.744   2.570
 3355SOL    HW110964   6.351   1.766   2.619
 3355SOL    HW210965   6.276   1.654   2.527
 3356SOL     OW10966   2.592   3.335   6.390
 3356SOL    HW110967   2.691   3.326   6.405
 3356SOL    HW210968   2.564   3.274   6.315
 3357SOL     OW10969   2.589   5.028   2.173
 3357SOL    HW110970   2.540   5.115   2.161
 3357SOL    HW210971   2.572   4.968   2.095
 3358SOL     OW10972   5.744   4.528   2.848
 3358SOL    HW110973   5.700   4.492   2.930
 3358SOL    HW210974   5.682   4.590   2.801
 3359SOL     OW10975   0.866   1.159   1.623
 3359SOL    HW110976   0.817   1.088   1.673
 3359SOL    HW210977   0.895   1.231   1.686
 3360SOL     OW10978   1.684   0.498   6.727
 3360SOL    HW110979   1.732   0.411   6.733
 3360SOL    HW210980   1.663   0.519   6.631
 3361SOL     OW10981   5.002   6.927   2.621
 3361SOL    HW110982   4.943   6.979   2.682
 3361SOL    HW210983   5.089   6.908   2.667
 3362SOL     OW10984   2.619   1.665   5.281
 3362SOL    HW110985   2.602   1.662   5.379
 3362SOL    HW210986   2.692   1.731   5.262
 3363SOL     OW10987   0.452   0.738   6.386
 3363SOL    HW110988   0.481   0.800   6.312
 3363SOL    HW210989   0.382   0.784   6.442
 3364SOL     OW10990   2.124   4.847   6.049
 3364SOL    HW110991   2.147   4.806   5.961
 3364SOL    HW210992   2.039   4.807   6.084
 3365SOL     OW10993   6.305   2.027   5.691
 3365SOL    HW110994   6.336   2.045   5.784
 3365SOL    HW210995   6.238   1.953   5.692
 3366SOL     OW10996   5.316   1.101   5.831
 3366SOL    HW110997   5.376   1.171   5.870
 3366SOL    HW210998   5.234   1.093   5.887
 3367SOL     OW10999   1.131   0.858   2.087
 3367SOL    HW111000   1.118   0.926   2.015
 3367SOL    HW211001   1.128   0.767   2.048
 3368SOL     OW11002   6.489   6.609   5.483
 3368SOL    HW111003   6.418   6.548   5.448
 3368SOL    HW211004   6.448   6.695   5.512
 3369SOL     OW11005   3.567   6.663   6.284
 3369SOL    HW111006   3.597   6.611   6.364
 3369SOL    HW211007   3.608   6.624   6.201
 3370SOL     OW11008   5.233   0.481   5.330
 3370SOL    HW111009   5.203   0.414   5.262
 3370SOL    HW211010   5.190   0.569   5.311
 3371SOL     OW11011   0.376   4.950   1.951
 3371SOL    HW111012   0.475   4.949   1.969
 3371SOL    HW211013   0.329   4.897   2.022
 3372SOL     OW11014   0.460   1.685   2.097
 3372SOL    HW111015   0.486   1.758   2.160
 3372SOL    HW211016   0.402   1.722   2.024
 3373SOL     OW11017   0.170   1.958   5.357
 3373SOL    HW111018   0.239   1.934   5.289
 3373SOL    HW211019   0.095   1.891   5.353
 3374SOL     OW11020   3.698   5.150   5.265
 3374SOL    HW111021   3.693   5.228   5.328
 3374SOL    HW211022   3.672   5.180   5.173
 3375SOL     OW11023   4.427   4.383   5.341
 3375SOL    HW111024   4.358   4.405   5.272
 3375SOL    HW211025   4.463   4.291   5.324
 3376SOL     OW11026   3.179   3.677   2.572
 3376SOL    HW111027   3.238   3.739   2.520
 3376SOL    HW211028   3.118   3.628   2.509
 3377SOL     OW11029   2.459   5.878   5.245
 3377SOL    HW111030   2.376   5.849   5.293
 3377SOL    HW211031   2.438   5.895   5.149
 3378SOL     OW11032   0.762   1.612   0.598
 3378SOL    HW111033   0.744   1.556   0.679
 3378SOL    HW211034   0.856   1.646   0.601
 3379SOL     OW11035   1.118   4.657   6.440
 3379SOL    HW111036   1.162   4.739   6.475
 3379SOL    HW211037   1.166   4.576   6.473
 3380SOL     OW11038   0.598   3.955   6.044
 3380SOL    HW111039   0.688   3.991   6.019
 3380SOL    HW211040   0.571   3.992   6.133
 3381SOL     OW11041   3.478   2.258   1.000
 3381SOL    HW111042   3.559   2.237   0.945
 3381SOL    HW211043   3.498   2.239   1.097
 3382SOL     OW11044   6.631   6.833   0.938
 3382SOL    HW111045   6.592   6.784   1.015
 3382SOL    HW211046   6.670   6.920   0.970
 3383SOL     OW11047   0.082   4.612   3.054
 3383SOL    HW111048   0.050   4.649   2.967
 3383SOL    HW211049   0.089   4.686   3.121
 3384SOL     OW11050   3.596   3.199   4.456
 3384SOL    HW111051   3.562   3.273   4.399
 3384SOL    HW211052   3.532   3.122   4.452
 3385SOL     OW11053   6.458   3.507   3.277
 3385SOL    HW111054   6.388   3.527   3.345
 3385SOL    HW211055   6.463   3.583   3.212
 3386SOL     OW11056   6.144   4.377   4.573
 3386SOL    HW111057   6.225   4.364   4.630
 3386SOL    HW211058   6.167   4.362   4.477
 3387SOL     OW11059   2.943   2.192   2.749
 3387SOL    HW111060   3.039   2.173   2.729
 3387SOL    HW211061   2.936   2.229   2.842
 3388SOL     OW11062   5.759   3.131   1.671
 3388SOL    HW111063   5.800   3.041   1.657
 3388SOL    HW211064   5.661   3.121   1.689
 3389SOL     OW11065   6.197   3.994   3.429
 3389SOL    HW111066   6.204   3.968   3.526
 3389SOL    HW211067   6.235   4.086   3.417
 3390SOL     OW11068   4.987   2.489   5.493
 3390SOL    HW111069   5.022   2.564   5.437
 3390SOL    HW211070   4.898   2.514   5.531
 3391SOL     OW11071   3.369   1.545   4.318
 3391SOL    HW111072   3.455   1.594   4.305
 3391SOL    HW211073   3.295   1.594   4.273
 3392SOL     OW11074   4.529   6.405   4.064
 3392SOL    HW111075   4.519   6.428   3.967
 3392SOL    HW211076   4.442   6.418   4.111
 3393SOL     OW11077   6.534   0.337   6.857
 3393SOL    HW111078   6.477   0.259   6.830
 3393SOL    HW211079   6.492   0.422   6.824
 3394SOL     OW11080   6.315   2.699   1.483
 3394SOL    HW111081   6.282   2.736   1.570
 3394SOL    HW211082   6.375   2.765   1.439
 3395SOL     OW11083   1.455   3.337   5.070
 3395SOL    HW111084   1.437   3.431   5.097
 3395SOL    HW211085   1.541   3.333   5.018
 3396SOL     OW11086   0.501   3.918   4.091
 3396SOL    HW111087   0.520   3.863   4.010
 3396SOL    HW211088   0.521   3.864   4.173
 3397SOL     OW11089   4.219   5.995   6.043
 3397SOL    HW111090   4.295   5.982   5.979
 3397SOL    HW211091   4.255   6.012   6.135
 3398SOL     OW11092   0.234   6.346   4.202
 3398SOL    HW111093   0.231   6.335   4.102
 3398SOL    HW211094   0.307   6.409   4.226
 3399SOL     OW11095   4.785   4.928   4.684
 3399SOL    HW111096   4.837   4.847   4.657
 3399SOL    HW211097   4.748   4.915   4.776
 3400SOL     OW11098   4.889   2.291   6.907
 3400SOL    HW111099   4.940   2.206   6.925
 3400SOL    HW211100   4.860   2.292   6.812
 3401SOL     OW11101   5.860   5.234   0.071
 3401SOL    HW111102   5.944   5.222   0.124
 3401SOL    HW211103   5.785   5.257   0.134
 3402SOL     OW11104   5.244   5.727   1.878
 3402SOL    HW111105   5.212   5.819   1.856
 3402SOL    HW211106   5.252   5.718   1.977
 3403SOL     OW11107   3.671   1.128   5.426
 3403SOL    HW111108   3.582   1.081   5.422
 3403SOL    HW211109   3.668   1.200   5.495
 3404SOL     OW11110   4.605   0.519   0.651
 3404SOL    HW111111   4.701   0.544   0.665
 3404SOL    HW211112   4.547   0.580   0.704
 3405SOL     OW11113   5.809   4.061   0.215
 3405SOL    HW111114   5.826   4.160   0.215
 3405SOL    HW211115   5.725   4.042   0.165
 3406SOL     OW11116   1.137   4.458   1.715
 3406SOL    HW111117   1.192   4.454   1.632
 3406SOL    HW211118   1.197   4.454   1.795
 3407SOL     OW11119   1.895   5.640   2.172
 3407SOL    HW111120   1.836   5.631   2.253
 3407SOL    HW211121   1.859   5.712   2.113
 3408SOL     OW11122   5.189   4.233   3.296
 3408SOL    HW111123   5.286   4.244   3.319
 3408SOL    HW211124   5.180   4.221   3.197
 3409SOL     OW11125   3.587   0.578   5.797
 3409SOL    HW111126   3.585   0.478   5.790
 3409SOL    HW211127   3.498   0.615   5.772
 3410SOL     OW11128   6.965   6.697   6.942
 3410SOL    HW111129   6.868   6.722   6.941
 3410SOL    HW211130   7.005   6.715   6.852
 3411SOL     OW11131   4.767   2.245   2.171
 3411SOL    HW111132   4.805   2.268   2.082
 3411SOL    HW211133   4.759   2.145   2.179
 3412SOL     OW11134   3.911   4.725   0.457
 3412SOL    HW111135   3.945   4.813   0.492
 3412SOL    HW211136   3.815   4.735   0.432
 3413SOL     OW11137   3.798   2.162   2.396
 3413SOL    HW111138   3.893   2.173   2.426
 3413SOL    HW211139   3.796   2.124   2.304
 3414SOL     OW11140   2.738   2.354   5.077
 3414SOL    HW111141   2.737   2.402   4.989
 3414SOL    HW211142   2.745   2.420   5.151
 3415SOL     OW11143   0.477   5.106   3.977
 3415SOL    HW111144   0.529   5.052   3.911
 3415SOL    HW211145   0.510   5.200   3.977
 3416SOL     OW11146   1.720   5.174   5.724
 3416SOL    HW111147   1.633   5.147   5.684
 3416SOL    HW211148   1.768   5.235   5.661
 3417SOL     OW11149   5.970   0.372   2.460
 3417SOL    HW111150   5.960   0.304   2.533
 3417SOL    HW211151   6.031   0.337   2.390
 3418SOL     OW11152   2.900   1.192   5.953
 3418SOL    HW111153   2.934   1.258   6.019
 3418SOL    HW211154   2.802   1.207   5.939
 3419SOL     OW11155   4.682   4.577   0.521
 3419SOL    HW111156   4.638   4.557   0.609
 3419SOL    HW211157   4.616   4.562   0.447
 3420SOL     OW11158   4.022   2.217   4.136
 3420SOL    HW111159   3.933   2.246   4.172
 3420SOL    HW211160   4.032   2.118   4.147
 3421SOL     OW11161   0.155   5.967   5.157
 3421SOL    HW111162   0.071   6.013   5.128
 3421SOL    HW211163   0.144   5.932   5.250
 3422SOL     OW11164   3.411   1.765   1.500
 3422SOL    HW111165   3.346   1.819   1.446
 3422SOL    HW211166   3.366   1.682   1.532
 3423SOL     OW11167   2.617   0.488   1.039
 3423SOL    HW111168   2.706   0.446   1.017
 3423SOL    HW211169   2.630   0.586   1.056
 3424SOL     OW11170   4.507   1.639   2.590
 3424SOL    HW111171   4.473   1.700   2.519
 3424SOL    HW211172   4.533   1.551   2.549
 3425SOL     OW11173   4.312   4.486   1.795
 3425SOL    HW111174   4.381   4.540   1.747
 3425SOL    HW211175   4.345   4.393   1.807
 3426SOL     OW11176   4.509   3.830   0.624
 3426SOL    HW111177   4.497   3.924   0.654
 3426SOL    HW211178   4.588   3.790   0.672
 3427SOL     OW11179   0.305   1.666   6.751
 3427SOL    HW111180   0.366   1.589   6.769
 3427SOL    HW211181   0.221   1.633   6.709
 3428SOL     OW11182   4.576   4.771   2.827
 3428SOL    HW111183   4.494   4.730   2.786
 3428SOL    HW211184   4.569   4.766   2.927
 3429SOL     OW11185   1.698   3.010   6.895
 3429SOL    HW111186   1.691   3.009   6.995
 3429SOL    HW211187   1.687   3.104   6.862
 3430SOL     OW11188   1.288   6.836   6.921
 3430SOL    HW111189   1.285   6.935   6.922
 3430SOL    HW211190   1.372   6.805   6.965
 3431SOL     OW11191   0.956   5.719   0.912
 3431SOL    HW111192   0.963   5.671   0.999
 3431SOL    HW211193   1.023   5.680   0.848
 3432SOL     OW11194   3.286   1.231   6.440
 3432SOL    HW111195   3.382   1.211   6.420
 3432SOL    HW211196   3.278   1.272   6.531
 3433SOL     OW11197   3.784   0.986   4.920
 3433SOL    HW111198   3.703   1.003   4.977
 3433SOL    HW211199   3.793   1.061   4.854
 3434SOL     OW11200   4.328   2.398   2.202
 3434SOL    HW111201   4.332   2.301   2.179
 3434SOL    HW211202   4.256   2.442   2.148
 3435SOL     OW11203   0.539   1.024   0.612
 3435SOL    HW111204   0.504   0.955   0.675
 3435SOL    HW211205   0.475   1.036   0.536
 3436SOL     OW11206   3.924   6.858   4.315
 3436SOL    HW111207   3.891   6.765   4.336
 3436SOL    HW211208   4.013   6.872   4.359
 3437SOL     OW11209   4.026   7.005   5.919
 3437SOL    HW111210   4.115   0.018   5.946
 3437SOL    HW211211   3.999   6.932   5.981
 3438SOL     OW11212   1.123   2.890   6.108
 3438SOL    HW111213   1.153   2.864   6.015
 3438SOL    HW211214   1.025   2.911   6.107
 3439SOL     OW11215   2.377   5.842   3.657
 3439SOL    HW111216   2.473   5.816   3.648
 3439SOL    HW211217   2.363   5.887   3.745
 3440SOL     OW11218   5.059   3.118   0.759
 3440SOL    HW111219   5.158   3.131   0.766
 3440SOL    HW211220   5.014   3.207   0.760
 3441SOL     OW11221   2.765   0.639   4.052
 3441SOL    HW111222   2.786   0.723   4.002
 3441SOL    HW211223   2.757   0.563   3.987
 3442SOL     OW11224   1.979   4.785   3.480
 3442SOL    HW111225   2.062   4.788   3.536
 3442SOL    HW211226   1.915   4.719   3.519
 3443SOL     OW11227   5.261   1.340   3.740
 3443SOL    HW111228   5.322   1.315   3.666
 3443SOL    HW211229   5.173   1.293   3.729
 3444SOL     OW11230   4.460   5.284   0.392
 3444SOL    HW111231   4.489   5.213   0.456
 3444SOL    HW211232   4.440   5.243   0.304
 3445SOL     OW11233   6.571   3.853   5.008
 3445SOL    HW111234   6.538   3.895   5.093
 3445SOL    HW211235   6.657   3.895   4.981
 3446SOL     OW11236   3.451   0.091   2.836
 3446SOL    HW111237   3.512   0.169   2.851
 3446SOL    HW211238   3.381   0.089   2.907
 3447SOL     OW11239   5.302   5.856   6.573
 3447SOL    HW111240   5.349   5.835   6.658
 3447SOL    HW211241   5.304   5.776   6.513
 3448SOL     OW11242   3.666   2.281   0.806
 3448SOL    HW111243   3.727   2.205   0.783
 3448SOL    HW211244   3.594   2.287   0.737
 3449SOL     OW11245   6.621   6.259   3.291
 3449SOL    HW111246   6.702   6.270   3.233
 3449SOL    HW211247   6.587   6.165   3.282
 3450SOL     OW11248   1.046   1.502   1.446
 3450SOL    HW111249   1.119   1.557   1.405
 3450SOL    HW211250   0.985   1.562   1.498
 3451SOL     OW11251   0.932   5.787   4.730
 3451SOL    HW111252   0.967   5.808   4.639
 3451SOL    HW211253   0.911   5.873   4.778
 3452SOL     OW11254   6.092   1.835   0.637
 3452SOL    HW111255   6.067   1.804   0.729
 3452SOL    HW211256   6.067   1.931   0.626
 3453SOL     OW11257   5.212   5.372   5.228
 3453SOL    HW111258   5.145   5.404   5.161
 3453SOL    HW211259   5.233   5.276   5.210
 3454SOL     OW11260   0.682   0.825   7.013
 3454SOL    HW111261   0.747   0.750   7.003
 3454SOL    HW211262   0.642   0.823   0.081
 3455SOL     OW11263   1.597   2.438   4.371
 3455SOL    HW111264   1.685   2.461   4.328
 3455SOL    HW211265   1.610   2.427   4.469
 3456SOL     OW11266   5.983   0.122   1.882
 3456SOL    HW111267   5.888   0.131   1.851
 3456SOL    HW211268   6.007   0.026   1.890
 3457SOL     OW11269   2.583   5.125   3.225
 3457SOL    HW111270   2.633   5.098   3.142
 3457SOL    HW211271   2.637   5.192   3.276
 3458SOL     OW11272   5.540   5.856   1.059
 3458SOL    HW111273   5.475   5.924   1.024
 3458SOL    HW211274   5.543   5.778   0.997
 3459SOL     OW11275   6.994   5.721   4.035
 3459SOL    HW111276   0.026   5.733   3.953
 3459SOL    HW211277   0.016   5.660   4.098
 3460SOL     OW11278   4.538   3.483   6.425
 3460SOL    HW111279   4.442   3.463   6.404
 3460SOL    HW211280   4.583   3.399   6.458
 3461SOL     OW11281   3.846   6.411   3.173
 3461SOL    HW111282   3.871   6.437   3.080
 3461SOL    HW211283   3.928   6.410   3.230
 3462SOL     OW11284   4.895   3.263   3.081
 3462SOL    HW111285   4.918   3.319   3.001
 3462SOL    HW211286   4.878   3.322   3.160
 3463SOL     OW11287   2.270   2.839   1.532
 3463SOL    HW111288   2.301   2.846   1.437
 3463SOL    HW211289   2.222   2.752   1.545
 3464SOL     OW11290   4.874   2.615   6.699
 3464SOL    HW111291   4.868   2.516   6.687
 3464SOL    HW211292   4.886   2.636   6.796
 3465SOL     OW11293   2.184   3.641   2.301
 3465SOL    HW111294   2.200   3.604   2.210
 3465SOL    HW211295   2.175   3.567   2.367
 3466SOL     OW11296   6.328   4.976   3.699
 3466SOL    HW111297   6.343   5.075   3.703
 3466SOL    HW211298   6.240   4.957   3.655
 3467SOL     OW11299   2.845   2.526   0.836
 3467SOL    HW111300   2.756   2.530   0.882
 3467SOL    HW211301   2.918   2.529   0.904
 3468SOL     OW11302   4.167   1.541   1.243
 3468SOL    HW111303   4.093   1.595   1.203
 3468SOL    HW211304   4.181   1.458   1.189
 3469SOL     OW11305   4.370   6.663   5.615
 3469SOL    HW111306   4.424   6.696   5.692
 3469SOL    HW211307   4.368   6.732   5.543
 3470SOL     OW11308   0.264   2.935   1.665
 3470SOL    HW111309   0.220   3.014   1.622
 3470SOL    HW211310   0.350   2.963   1.706
 3471SOL     OW11311   5.254   3.294   3.568
 3471SOL    HW111312   5.167   3.340   3.549
 3471SOL    HW211313   5.318   3.360   3.607
 3472SOL     OW11314   3.913   1.684   3.873
 3472SOL    HW111315   3.899   1.692   3.972
 3472SOL    HW211316   3.957   1.597   3.852
 3473SOL     OW11317   0.158   3.879   2.143
 3473SOL    HW111318   0.144   3.859   2.046
 3473SOL    HW211319   0.077   3.925   2.180
 3474SOL     OW11320   6.297   5.556   3.891
 3474SOL    HW111321   6.203   5.538   3.921
 3474SOL    HW211322   6.343   5.470   3.871
 3475SOL     OW11323   6.914   3.837   4.551
 3475SOL    HW111324   6.895   3.917   4.494
 3475SOL    HW211325   6.980   3.861   4.622
 3476SOL     OW11326   0.812   1.385   3.512
 3476SOL    HW111327   0.804   1.345   3.603
 3476SOL    HW211328   0.745   1.341   3.451
 3477SOL     OW11329   0.804   3.963   1.497
 3477SOL    HW111330   0.716   3.932   1.531
 3477SOL    HW211331   0.840   4.035   1.556
 3478SOL     OW11332   2.210   0.286   0.447
 3478SOL    HW111333   2.288   0.276   0.385
 3478SOL    HW211334   2.221   0.225   0.525
 3479SOL     OW11335   1.450   3.659   3.917
 3479SOL    HW111336   1.514   3.707   3.857
 3479SOL    HW211337   1.419   3.720   3.989
 3480SOL     OW11338   1.385   5.182   6.419
 3480SOL    HW111339   1.320   5.164   6.493
 3480SOL    HW211340   1.382   5.280   6.396
 3481SOL     OW11341   6.732   0.420   5.769
 3481SOL    HW111342   6.800   0.491   5.747
 3481SOL    HW211343   6.721   0.359   5.691
 3482SOL     OW11344   6.140   3.720   4.849
 3482SOL    HW111345   6.206   3.736   4.776
 3482SOL    HW211346   6.189   3.704   4.935
 3483SOL     OW11347   4.691   2.739   3.959
 3483SOL    HW111348   4.609   2.682   3.959
 3483SOL    HW211349   4.754   2.706   3.889
 3484SOL     OW11350   1.456   3.276   5.573
 3484SOL    HW111351   1.526   3.340   5.541
 3484SOL    HW211352   1.475   3.185   5.537
 3485SOL     OW11353   0.845   2.391   6.265
 3485SOL    HW111354   0.873   2.394   6.361
 3485SOL    HW211355   0.754   2.430   6.255
 3486SOL     OW11356   2.286   0.146   4.647
 3486SOL    HW111357   2.369   0.202   4.640
 3486SOL    HW211358   2.215   0.197   4.695
 3487SOL     OW11359   5.166   1.068   6.466
 3487SOL    HW111360   5.129   1.147   6.416
 3487SOL    HW211361   5.259   1.089   6.496
 3488SOL     OW11362   6.006   0.707   4.262
 3488SOL    HW111363   6.045   0.695   4.353
 3488SOL    HW211364   6.073   0.679   4.193
 3489SOL     OW11365   3.253   0.074   0.404
 3489SOL    HW111366   3.191   0.151   0.389
 3489SOL    HW211367   3.214   7.015   0.366
 3490SOL     OW11368   4.232   5.365   0.579
 3490SOL    HW111369   4.285   5.387   0.497
 3490SOL    HW211370   4.250   5.270   0.605
 3491SOL     OW11371   4.723   4.042   6.896
 3491SOL    HW111372   4.717   4.114   6.965
 3491SOL    HW211373   4.817   4.034   6.864
 3492SOL     OW11374   6.232   4.094   2.614
 3492SOL    HW111375   6.296   4.034   2.661
 3492SOL    HW211376   6.168   4.039   2.560
 3493SOL     OW11377   5.784   3.351   4.640
 3493SOL    HW111378   5.684   3.348   4.643
 3493SOL    HW211379   5.816   3.439   4.674
 3494SOL     OW11380   4.309   1.421   1.650
 3494SOL    HW111381   4.221   1.469   1.644
 3494SOL    HW211382   4.378   1.472   1.599
 3495SOL     OW11383   1.941   3.031   2.574
 3495SOL    HW111384   1.935   2.937   2.542
 3495SOL    HW211385   1.890   3.041   2.660
 3496SOL     OW11386   6.534   5.622   0.915
 3496SOL    HW111387   6.545   5.604   1.013
 3496SOL    HW211388   6.437   5.631   0.894
 3497SOL     OW11389   3.415   0.570   2.555
 3497SOL    HW111390   3.449   0.619   2.475
 3497SOL    HW211391   3.352   0.498   2.526
 3498SOL     OW11392   2.253   1.642   1.482
 3498SOL    HW111393   2.267   1.686   1.570
 3498SOL    HW211394   2.167   1.590   1.483
 3499SOL     OW11395   5.662   5.322   5.647
 3499SOL    HW111396   5.725   5.314   5.570
 3499SOL    HW211397   5.651   5.418   5.672
 3500SOL     OW11398   1.467   2.141   4.112
 3500SOL    HW111399   1.543   2.106   4.167
 3500SOL    HW211400   1.462   2.090   4.027
 3501SOL     OW11401   1.548   6.829   5.711
 3501SOL    HW111402   1.521   6.816   5.807
 3501SOL    HW211403   1.563   6.740   5.668
 3502SOL     OW11404   4.917   3.185   2.121
 3502SOL    HW111405   4.855   3.128   2.067
 3502SOL    HW211406   5.012   3.166   2.094
 3503SOL     OW11407   6.677   6.064   6.617
 3503SOL    HW111408   6.692   6.087   6.713
 3503SOL    HW211409   6.652   5.967   6.610
 3504SOL     OW11410   1.438   0.974   1.250
 3504SOL    HW111411   1.534   1.003   1.249
 3504SOL    HW211412   1.432   0.875   1.241
 3505SOL     OW11413   5.961   5.132   6.057
 3505SOL    HW111414   5.949   5.222   6.099
 3505SOL    HW211415   5.923   5.133   5.965
 3506SOL     OW11416   5.057   4.794   4.847
 3506SOL    HW111417   5.022   4.755   4.762
 3506SOL    HW211418   4.988   4.784   4.919
 3507SOL     OW11419   2.780   6.677   0.489
 3507SOL    HW111420   2.879   6.684   0.499
 3507SOL    HW211421   2.750   6.584   0.512
 3508SOL     OW11422   2.971   2.555   5.326
 3508SOL    HW111423   3.034   2.486   5.291
 3508SOL    HW211424   2.966   2.631   5.262
 3509SOL     OW11425   4.171   5.576   6.858
 3509SOL    HW111426   4.254   5.588   6.912
 3509SOL    HW211427   4.107   5.517   6.907
 3510SOL     OW11428   2.651   0.769   1.080
 3510SOL    HW111429   2.689   0.832   1.012
 3510SOL    HW211430   2.643   0.815   1.168
 3511SOL     OW11431   2.409   4.851   1.615
 3511SOL    HW111432   2.420   4.754   1.638
 3511SOL    HW211433   2.495   4.886   1.578
 3512SOL     OW11434   0.630   4.413   6.758
 3512SOL    HW111435   0.540   4.445   6.728
 3512SOL    HW211436   0.679   4.374   6.680
 3513SOL     OW11437   5.508   2.093   0.205
 3513SOL    HW111438   5.543   2.009   0.248
 3513SOL    HW211439   5.438   2.134   0.263
 3514SOL     OW11440   4.183   1.364   2.935
 3514SOL    HW111441   4.207   1.378   3.031
 3514SOL    HW211442   4.110   1.296   2.928
 3515SOL     OW11443   5.735   5.452   4.518
 3515SOL    HW111444   5.653   5.425   4.467
 3515SOL    HW211445   5.804   5.487   4.454
 3516SOL     OW11446   5.507   0.222   0.765
 3516SOL    HW111447   5.573   0.207   0.838
 3516SOL    HW211448   5.553   0.215   0.676
 3517SOL     OW11449   6.194   0.742   0.586
 3517SOL    HW111450   6.215   0.703   0.496
 3517SOL    HW211451   6.262   0.812   0.608
 3518SOL     OW11452   5.753   1.448   5.414
 3518SOL    HW111453   5.792   1.530   5.372
 3518SOL    HW211454   5.655   1.442   5.392
 3519SOL     OW11455   3.365   0.556   0.611
 3519SOL    HW111456   3.308   0.574   0.531
 3519SOL    HW211457   3.458   0.532   0.581
 3520SOL     OW11458   2.848   6.428   4.912
 3520SOL    HW111459   2.847   6.460   5.006
 3520SOL    HW211460   2.942   6.405   4.885
 3521SOL     OW11461   3.096   2.660   6.952
 3521SOL    HW111462   3.048   2.681   6.867
 3521SOL    HW211463   3.097   2.561   6.966
 3522SOL     OW11464   6.915   5.606   6.962
 3522SOL    HW111465   6.955   5.623   6.872
 3522SOL    HW211466   6.816   5.617   6.957
 3523SOL     OW11467   1.188   5.642   5.884
 3523SOL    HW111468   1.269   5.615   5.938
 3523SOL    HW211469   1.150   5.561   5.840
 3524SOL     OW11470   6.177   1.299   3.624
 3524SOL    HW111471   6.139   1.305   3.716
 3524SOL    HW211472   6.155   1.382   3.573
 3525SOL     OW11473   6.360   4.645   3.399
 3525SOL    HW111474   6.363   4.583   3.321
 3525SOL    HW211475   6.451   4.681   3.417
 3526SOL     OW11476   0.977   5.935   3.297
 3526SOL    HW111477   1.016   5.945   3.206
 3526SOL    HW211478   0.977   6.024   3.343
 3527SOL     OW11479   6.968   3.019   6.013
 3527SOL    HW111480   6.892   3.075   5.980
 3527SOL    HW211481   0.021   3.079   6.035
 3528SOL     OW11482   2.537   6.775   4.934
 3528SOL    HW111483   2.583   6.860   4.907
 3528SOL    HW211484   2.524   6.717   4.853
 3529SOL     OW11485   4.779   5.479   0.572
 3529SOL    HW111486   4.874   5.472   0.603
 3529SOL    HW211487   4.762   5.572   0.539
 3530SOL     OW11488   0.219   0.515   1.792
 3530SOL    HW111489   0.287   0.585   1.768
 3530SOL    HW211490   0.257   0.425   1.774
 3531SOL     OW11491   5.030   1.628   1.409
 3531SOL    HW111492   5.057   1.698   1.475
 3531SOL    HW211493   5.104   1.561   1.399
 3532SOL     OW11494   1.777   1.114   1.782
 3532SOL    HW111495   1.772   1.160   1.871
 3532SOL    HW211496   1.863   1.062   1.777
 3533SOL     OW11497   0.168   1.140   2.880
 3533SOL    HW111498   0.243   1.074   2.888
 3533SOL    HW211499   0.196   1.217   2.823
 3534SOL     OW11500   6.836   1.075   1.255
 3534SOL    HW111501   6.844   1.157   1.197
 3534SOL    HW211502   6.749   1.077   1.304
 3535SOL     OW11503   2.795   5.272   5.073
 3535SOL    HW111504   2.703   5.277   5.112
 3535SOL    HW211505   2.820   5.176   5.059
 3536SOL     OW11506   3.389   2.078   2.504
 3536SOL    HW111507   3.292   2.068   2.528
 3536SOL    HW211508   3.398   2.081   2.405
 3537SOL     OW11509   2.035   5.315   2.249
 3537SOL    HW111510   2.040   5.283   2.344
 3537SOL    HW211511   2.063   5.410   2.244
 3538SOL     OW11512   3.161   5.653   4.850
 3538SOL    HW111513   3.131   5.566   4.888
 3538SOL    HW211514   3.214   5.637   4.767
 3539SOL     OW11515   3.948   3.955   4.733
 3539SOL    HW111516   3.988   3.868   4.704
 3539SOL    HW211517   3.882   3.986   4.664
 3540SOL     OW11518   1.944   1.849   4.034
 3540SOL    HW111519   1.905   1.856   3.942
 3540SOL    HW211520   1.948   1.941   4.075
 3541SOL     OW11521   2.860   3.848   5.260
 3541SOL    HW111522   2.766   3.871   5.284
 3541SOL    HW211523   2.876   3.867   5.163
 3542SOL     OW11524   1.307   4.431   1.924
 3542SOL    HW111525   1.277   4.384   2.007
 3542SOL    HW211526   1.372   4.503   1.949
 3543SOL     OW11527   5.634   3.042   4.790
 3543SOL    HW111528   5.570   2.980   4.746
 3543SOL    HW211529   5.598   3.135   4.787
 3544SOL     OW11530   2.050   4.594   5.675
 3544SOL    HW111531   1.968   4.646   5.699
 3544SOL    HW211532   2.120   4.608   5.745
 3545SOL     OW11533   4.468   5.356   6.538
 3545SOL    HW111534   4.468   5.439   6.483
 3545SOL    HW211535   4.437   5.279   6.482
 3546SOL     OW11536   6.501   5.214   3.266
 3546SOL    HW111537   6.521   5.217   3.168
 3546SOL    HW211538   6.537   5.297   3.310
 3547SOL     OW11539   4.836   5.315   4.299
 3547SOL    HW111540   4.828   5.337   4.396
 3547SOL    HW211541   4.889   5.386   4.253
 3548SOL     OW11542   4.741   2.506   5.585
 3548SOL    HW111543   4.731   2.460   5.497
 3548SOL    HW211544   4.687   2.458   5.654
 3549SOL     OW11545   5.652   4.926   2.806
 3549SOL    HW111546   5.729   4.948   2.745
 3549SOL    HW211547   5.625   4.830   2.791
 3550SOL     OW11548   5.412   1.858   2.683
 3550SOL    HW111549   5.323   1.828   2.650
 3550SOL    HW211550   5.470   1.779   2.700
 3551SOL     OW11551   2.863   6.466   3.262
 3551SOL    HW111552   2.951   6.453   3.307
 3551SOL    HW211553   2.849   6.563   3.243
 3552SOL     OW11554   6.508   5.267   2.676
 3552SOL    HW111555   6.583   5.268   2.743
 3552SOL    HW211556   6.481   5.173   2.657
 3553SOL     OW11557   4.845   1.906   2.860
 3553SOL    HW111558   4.782   1.883   2.934
 3553SOL    HW211559   4.933   1.861   2.877
 3554SOL     OW11560   4.081   4.666   6.711
 3554SOL    HW111561   4.071   4.765   6.699
 3554SOL    HW211562   4.171   4.637   6.680
 3555SOL     OW11563   1.128   2.805   3.237
 3555SOL    HW111564   1.192   2.729   3.227
 3555SOL    HW211565   1.153   2.878   3.174
 3556SOL     OW11566   3.492   0.979   6.019
 3556SOL    HW111567   3.586   0.961   6.048
 3556SOL    HW211568   3.492   1.010   5.924
 3557SOL     OW11569   1.613   0.193   5.134
 3557SOL    HW111570   1.639   0.279   5.090
 3557SOL    HW211571   1.514   0.188   5.140
 3558SOL     OW11572   0.047   5.882   1.329
 3558SOL    HW111573   6.992   5.836   1.370
 3558SOL    HW211574   0.114   5.901   1.400
 3559SOL     OW11575   0.863   0.654   5.199
 3559SOL    HW111576   0.934   0.722   5.220
 3559SOL    HW211577   0.864   0.633   5.102
 3560SOL     OW11578   0.383   6.205   1.041
 3560SOL    HW111579   0.449   6.187   1.115
 3560SOL    HW211580   0.316   6.131   1.037
 3561SOL     OW11581   4.997   5.039   5.466
 3561SOL    HW111582   5.095   5.026   5.480
 3561SOL    HW211583   4.966   4.982   5.390
 3562SOL     OW11584   5.503   0.469   3.068
 3562SOL    HW111585   5.559   0.534   3.017
 3562SOL    HW211586   5.521   0.377   3.035
 3563SOL     OW11587   4.639   0.912   2.000
 3563SOL    HW111588   4.685   0.941   1.916
 3563SOL    HW211589   4.600   0.992   2.046
 3564SOL     OW11590   6.993   5.095   3.598
 3564SOL    HW111591   6.974   5.191   3.578
 3564SOL    HW211592   7.009   5.084   3.696
 3565SOL     OW11593   1.987   0.646   5.237
 3565SOL    HW111594   1.932   0.728   5.223
 3565SOL    HW211595   2.082   0.664   5.212
 3566SOL     OW11596   0.533   3.160   5.729
 3566SOL    HW111597   0.457   3.125   5.785
 3566SOL    HW211598   0.567   3.086   5.671
 3567SOL     OW11599   0.143   3.307   0.798
 3567SOL    HW111600   0.221   3.346   0.848
 3567SOL    HW211601   0.079   3.265   0.864
 3568SOL     OW11602   4.570   4.420   3.530
 3568SOL    HW111603   4.587   4.405   3.627
 3568SOL    HW211604   4.551   4.332   3.485
 3569SOL     OW11605   3.699   3.929   4.048
 3569SOL    HW111606   3.750   3.946   3.964
 3569SOL    HW211607   3.612   3.884   4.026
 3570SOL     OW11608   0.228   2.277   5.961
 3570SOL    HW111609   0.150   2.215   5.969
 3570SOL    HW211610   0.310   2.225   5.938
 3571SOL     OW11611   2.308   6.915   5.153
 3571SOL    HW111612   2.290   6.985   5.083
 3571SOL    HW211613   2.222   6.885   5.194
 3572SOL     OW11614   5.032   4.553   1.896
 3572SOL    HW111615   5.128   4.529   1.887
 3572SOL    HW211616   5.001   4.598   1.812
 3573SOL     OW11617   6.868   3.990   3.170
 3573SOL    HW111618   6.892   3.895   3.150
 3573SOL    HW211619   6.887   4.009   3.266
 3574SOL     OW11620   2.406   2.941   6.107
 3574SOL    HW111621   2.375   2.950   6.012
 3574SOL    HW211622   2.334   2.972   6.169
 3575SOL     OW11623   5.703   6.915   0.357
 3575SOL    HW111624   5.724   6.878   0.447
 3575SOL    HW211625   5.606   6.937   0.352
 3576SOL     OW11626   1.561   2.595   0.905
 3576SOL    HW111627   1.602   2.580   0.996
 3576SOL    HW211628   1.582   2.688   0.875
 3577SOL     OW11629   2.588   2.681   5.930
 3577SOL    HW111630   2.577   2.780   5.938
 3577SOL    HW211631   2.565   2.652   5.837
 3578SOL     OW11632   2.850   3.248   6.128
 3578SOL    HW111633   2.753   3.246   6.105
 3578SOL    HW211634   2.903   3.275   6.048
 3579SOL     OW11635   0.587   2.708   1.767
 3579SOL    HW111636   0.496   2.717   1.727
 3579SOL    HW211637   0.636   2.794   1.759
 3580SOL     OW11638   0.307   4.404   1.373
 3580SOL    HW111639   0.281   4.469   1.444
 3580SOL    HW211640   0.224   4.361   1.336
 3581SOL     OW11641   1.119   6.985   2.617
 3581SOL    HW111642   1.122   6.939   2.528
 3581SOL    HW211643   1.064   6.931   2.681
 3582SOL     OW11644   3.745   4.450   5.815
 3582SOL    HW111645   3.726   4.531   5.871
 3582SOL    HW211646   3.843   4.433   5.814
 3583SOL     OW11647   0.363   4.856   0.407
 3583SOL    HW111648   0.457   4.890   0.412
 3583SOL    HW211649   0.307   4.903   0.474
 3584SOL     OW11650   6.149   4.647   4.632
 3584SOL    HW111651   6.186   4.661   4.724
 3584SOL    HW211652   6.138   4.550   4.615
 3585SOL     OW11653   2.782   1.709   2.884
 3585SOL    HW111654   2.702   1.670   2.929
 3585SOL    HW211655   2.785   1.677   2.789
 3586SOL     OW11656   6.479   2.049   4.709
 3586SOL    HW111657   6.539   1.976   4.742
 3586SOL    HW211658   6.406   2.010   4.654
 3587SOL     OW11659   3.102   6.721   6.349
 3587SOL    HW111660   3.133   6.776   6.272
 3587SOL    HW211661   3.181   6.678   6.394
 3588SOL     OW11662   6.425   4.242   4.570
 3588SOL    HW111663   6.419   4.184   4.489
 3588SOL    HW211664   6.513   4.230   4.614
 3589SOL     OW11665   0.210   6.666   6.369
 3589SOL    HW111666   0.283   6.622   6.318
 3589SOL    HW211667   0.163   6.732   6.311
 3590SOL     OW11668   6.390   4.975   0.735
 3590SOL    HW111669   6.460   5.021   0.679
 3590SOL    HW211670   6.407   4.877   0.735
 3591SOL     OW11671   5.871   1.971   6.235
 3591SOL    HW111672   5.909   2.050   6.283
 3591SOL    HW211673   5.776   1.988   6.211
 3592SOL     OW11674   2.117   6.411   1.446
 3592SOL    HW111675   2.165   6.391   1.531
 3592SOL    HW211676   2.096   6.509   1.442
 3593SOL     OW11677   4.947   3.192   5.926
 3593SOL    HW111678   4.875   3.186   5.857
 3593SOL    HW211679   4.922   3.137   6.006
 3594SOL     OW11680   4.614   4.936   4.969
 3594SOL    HW111681   4.544   4.985   4.916
 3594SOL    HW211682   4.630   4.983   5.055
 3595SOL     OW11683   5.555   6.391   5.176
 3595SOL    HW111684   5.577   6.462   5.109
 3595SOL    HW211685   5.522   6.310   5.128
 3596SOL     OW11686   4.065   2.209   3.859
 3596SOL    HW111687   4.144   2.260   3.825
 3596SOL    HW211688   4.058   2.221   3.958
 3597SOL     OW11689   2.315   3.131   5.373
 3597SOL    HW111690   2.314   3.230   5.386
 3597SOL    HW211691   2.397   3.105   5.323
 3598SOL     OW11692   1.061   5.526   5.045
 3598SOL    HW111693   1.002   5.484   4.976
 3598SOL    HW211694   1.083   5.459   5.116
 3599SOL     OW11695   4.011   1.585   4.695
 3599SOL    HW111696   4.069   1.509   4.726
 3599SOL    HW211697   3.931   1.593   4.754
 3600SOL     OW11698   3.188   2.993   6.991
 3600SOL    HW111699   3.145   2.909   7.023
 3600SOL    HW211700   3.261   3.020   0.030
 3601SOL     OW11701   4.747   0.967   5.364
 3601SOL    HW111702   4.843   0.963   5.333
 3601SOL    HW211703   4.734   0.902   5.439
 3602SOL     OW11704   2.066   1.520   1.252
 3602SOL    HW111705   2.141   1.559   1.200
 3602SOL    HW211706   2.031   1.588   1.316
 3603SOL     OW11707   3.123   1.039   5.377
 3603SOL    HW111708   3.126   0.967   5.307
 3603SOL    HW211709   3.099   0.999   5.465
 3604SOL     OW11710   0.050   0.225   3.585
 3604SOL    HW111711   7.008   0.297   3.562
 3604SOL    HW211712   0.119   0.261   3.646
 3605SOL     OW11713   1.198   5.904   3.624
 3605SOL    HW111714   1.118   5.845   3.611
 3605SOL    HW211715   1.275   5.870   3.571
 3606SOL     OW11716   2.721   6.638   2.474
 3606SOL    HW111717   2.697   6.726   2.517
 3606SOL    HW211718   2.702   6.564   2.538
 3607SOL     OW11719   5.449   2.267   2.286
 3607SOL    HW111720   5.464   2.217   2.371
 3607SOL    HW211721   5.492   2.356   2.291
 3608SOL     OW11722   2.547   1.907   5.590
 3608SOL    HW111723   2.460   1.873   5.555
 3608SOL    HW211724   2.595   1.957   5.518
 3609SOL     OW11725   2.342   0.508   4.643
 3609SOL    HW111726   2.410   0.444   4.608
 3609SOL    HW211727   2.255   0.493   4.595
 3610SOL     OW11728   1.843   0.018   5.166
 3610SOL    HW111729   1.904   0.080   5.118
 3610SOL    HW211730   1.751   0.057   5.170
 3611SOL     OW11731   5.517   5.395   2.801
 3611SOL    HW111732   5.576   5.436   2.871
 3611SOL    HW211733   5.443   5.344   2.845
 3612SOL     OW11734   6.053   1.565   0.087
 3612SOL    HW111735   6.091   1.656   0.074
 3612SOL    HW211736   6.101   1.500   0.028
 3613SOL     OW11737   4.412   5.377   1.534
 3613SOL    HW111738   4.479   5.448   1.515
 3613SOL    HW211739   4.320   5.414   1.525
 3614SOL     OW11740   4.077   5.087   6.437
 3614SOL    HW111741   4.036   5.014   6.382
 3614SOL    HW211742   4.042   5.176   6.406
 3615SOL     OW11743   5.602   2.647   5.873
 3615SOL    HW111744   5.577   2.734   5.829
 3615SOL    HW211745   5.579   2.571   5.812
 3616SOL     OW11746   1.403   1.463   0.075
 3616SOL    HW111747   1.390   1.511   0.162
 3616SOL    HW211748   1.315   1.450   0.030
 3617SOL     OW11749   4.142   6.544   5.909
 3617SOL    HW111750   4.100   6.474   5.966
 3617SOL    HW211751   4.210   6.594   5.963
 3618SOL     OW11752   1.827   4.686   4.797
 3618SOL    HW111753   1.885   4.736   4.861
 3618SOL    HW211754   1.846   4.717   4.704
 3619SOL     OW11755   5.636   3.942   1.258
 3619SOL    HW111756   5.618   3.843   1.264
 3619SOL    HW211757   5.687   3.971   1.339
 3620SOL     OW11758   5.928   5.414   5.135
 3620SOL    HW111759   5.984   5.427   5.217
 3620SOL    HW211760   5.953   5.482   5.067
 3621SOL     OW11761   2.923   3.280   3.744
 3621SOL    HW111762   2.951   3.244   3.655
 3621SOL    HW211763   2.873   3.209   3.794
 3622SOL     OW11764   1.368   5.861   6.328
 3622SOL    HW111765   1.390   5.952   6.363
 3622SOL    HW211766   1.452   5.814   6.300
 3623SOL     OW11767   0.926   5.100   6.029
 3623SOL    HW111768   0.933   5.046   6.112
 3623SOL    HW211769   0.830   5.117   6.008
 3624SOL     OW11770   2.870   1.927   1.692
 3624SOL    HW111771   2.852   1.891   1.784
 3624SOL    HW211772   2.956   1.978   1.692
 3625SOL     OW11773   6.664   1.979   0.562
 3625SOL    HW111774   6.601   1.992   0.485
 3625SOL    HW211775   6.629   1.908   0.622
 3626SOL     OW11776   0.798   2.562   4.972
 3626SOL    HW111777   0.708   2.574   5.013
 3626SOL    HW211778   0.845   2.650   4.968
 3627SOL     OW11779   3.394   2.155   1.837
 3627SOL    HW111780   3.485   2.192   1.860
 3627SOL    HW211781   3.338   2.151   1.920
 3628SOL     OW11782   5.839   1.688   1.063
 3628SOL    HW111783   5.900   1.740   1.123
 3628SOL    HW211784   5.803   1.609   1.112
 3629SOL     OW11785   1.041   0.807   3.783
 3629SOL    HW111786   1.026   0.714   3.749
 3629SOL    HW211787   0.965   0.865   3.754
 3630SOL     OW11788   6.930   2.178   2.449
 3630SOL    HW111789   0.003   2.168   2.428
 3630SOL    HW211790   6.887   2.238   2.382
 3631SOL     OW11791   1.598   6.717   2.104
 3631SOL    HW111792   1.562   6.807   2.131
 3631SOL    HW211793   1.694   6.726   2.079
 3632SOL     OW11794   4.482   3.886   1.357
 3632SOL    HW111795   4.388   3.856   1.373
 3632SOL    HW211796   4.496   3.976   1.397
 3633SOL     OW11797   4.340   3.925   6.501
 3633SOL    HW111798   4.273   3.999   6.507
 3633SOL    HW211799   4.369   3.914   6.405
 3634SOL     OW11800   3.559   5.886   6.766
 3634SOL    HW111801   3.659   5.877   6.759
 3634SOL    HW211802   3.535   5.983   6.769
 3635SOL     OW11803   1.796   6.691   1.824
 3635SOL    HW111804   1.768   6.772   1.875
 3635SOL    HW211805   1.790   6.610   1.883
 3636SOL     OW11806   1.090   4.701   6.711
 3636SOL    HW111807   1.043   4.785   6.740
 3636SOL    HW211808   1.049   4.667   6.626
 3637SOL     OW11809   6.111   3.381   6.998
 3637SOL    HW111810   6.040   3.416   0.035
 3637SOL    HW211811   6.069   3.330   6.923
 3638SOL     OW11812   6.349   4.371   3.175
 3638SOL    HW111813   6.446   4.394   3.167
 3638SOL    HW211814   6.323   4.311   3.099
 3639SOL     OW11815   3.815   3.673   3.804
 3639SOL    HW111816   3.787   3.607   3.734
 3639SOL    HW211817   3.754   3.666   3.882
 3640SOL     OW11818   4.666   2.373   0.945
 3640SOL    HW111819   4.596   2.406   0.881
 3640SOL    HW211820   4.646   2.408   1.037
 3641SOL     OW11821   5.786   3.506   2.626
 3641SOL    HW111822   5.865   3.538   2.573
 3641SOL    HW211823   5.768   3.571   2.700
 3642SOL     OW11824   5.970   3.450   6.363
 3642SOL    HW111825   5.997   3.494   6.277
 3642SOL    HW211826   5.873   3.426   6.359
 3643SOL     OW11827   4.100   5.673   5.549
 3643SOL    HW111828   4.032   5.652   5.479
 3643SOL    HW211829   4.117   5.592   5.605
 3644SOL     OW11830   2.813   0.245   1.398
 3644SOL    HW111831   2.715   0.230   1.385
 3644SOL    HW211832   2.826   0.315   1.469
 3645SOL     OW11833   1.098   4.349   3.497
 3645SOL    HW111834   1.164   4.277   3.475
 3645SOL    HW211835   1.091   4.358   3.596
 3646SOL     OW11836   1.777   4.406   5.144
 3646SOL    HW111837   1.876   4.420   5.147
 3646SOL    HW211838   1.746   4.407   5.049
 3647SOL     OW11839   3.523   6.936   6.272
 3647SOL    HW111840   3.542   6.838   6.280
 3647SOL    HW211841   3.535   6.980   6.360
 3648SOL     OW11842   4.420   5.451   3.479
 3648SOL    HW111843   4.494   5.413   3.535
 3648SOL    HW211844   4.447   5.541   3.446
 3649SOL     OW11845   6.056   2.219   0.319
 3649SOL    HW111846   6.034   2.291   0.252
 3649SOL    HW211847   6.067   2.260   0.409
 3650SOL     OW11848   5.441   5.707   6.751
 3650SOL    HW111849   5.499   5.743   6.824
 3650SOL    HW211850   5.490   5.636   6.701
 3651SOL     OW11851   0.749   2.049   5.689
 3651SOL    HW111852   0.722   2.109   5.614
 3651SOL    HW211853   0.767   2.103   5.771
 3652SOL     OW11854   4.151   1.794   1.914
 3652SOL    HW111855   4.094   1.731   1.966
 3652SOL    HW211856   4.097   1.835   1.841
 3653SOL     OW11857   1.081   1.637   1.013
 3653SOL    HW111858   1.044   1.596   1.097
 3653SOL    HW211859   1.179   1.651   1.023
 3654SOL     OW11860   5.188   6.666   1.030
 3654SOL    HW111861   5.222   6.680   0.937
 3654SOL    HW211862   5.151   6.752   1.065
 3655SOL     OW11863   1.534   1.631   3.846
 3655SOL    HW111864   1.551   1.540   3.884
 3655SOL    HW211865   1.604   1.652   3.778
 3656SOL     OW11866   6.932   0.168   1.378
 3656SOL    HW111867   6.833   0.159   1.366
 3656SOL    HW211868   6.952   0.187   1.475
 3657SOL     OW11869   5.421   4.964   5.588
 3657SOL    HW111870   5.460   5.006   5.669
 3657SOL    HW211871   5.458   4.872   5.576
 3658SOL     OW11872   2.065   4.951   5.693
 3658SOL    HW111873   2.139   4.958   5.627
 3658SOL    HW211874   2.016   4.864   5.680
 3659SOL     OW11875   0.590   2.440   6.220
 3659SOL    HW111876   0.581   2.352   6.173
 3659SOL    HW211877   0.505   2.460   6.268
 3660SOL     OW11878   5.885   5.671   6.779
 3660SOL    HW111879   5.907   5.749   6.720
 3660SOL    HW211880   5.798   5.687   6.824
 3661SOL     OW11881   0.434   1.749   4.906
 3661SOL    HW111882   0.477   1.688   4.839
 3661SOL    HW211883   0.340   1.766   4.879
 3662SOL     OW11884   2.681   2.042   5.383
 3662SOL    HW111885   2.764   2.011   5.337
 3662SOL    HW211886   2.692   2.137   5.410
 3663SOL     OW11887   2.620   1.934   6.681
 3663SOL    HW111888   2.649   1.974   6.594
 3663SOL    HW211889   2.598   1.837   6.668
 3664SOL     OW11890   3.924   1.208   1.764
 3664SOL    HW111891   3.918   1.298   1.808
 3664SOL    HW211892   3.953   1.220   1.669
 3665SOL     OW11893   1.006   5.849   5.968
 3665SOL    HW111894   1.031   5.937   5.927
 3665SOL    HW211895   1.076   5.781   5.947
 3666SOL     OW11896   2.197   2.595   4.802
 3666SOL    HW111897   2.235   2.509   4.837
 3666SOL    HW211898   2.238   2.616   4.714
 3667SOL     OW11899   2.214   0.330   1.306
 3667SOL    HW111900   2.228   0.267   1.382
 3667SOL    HW211901   2.153   0.287   1.239
 3668SOL     OW11902   6.909   0.666   0.935
 3668SOL    HW111903   6.965   0.720   0.872
 3668SOL    HW211904   6.866   0.728   1.001
 3669SOL     OW11905   0.477   1.582   3.336
 3669SOL    HW111906   0.529   1.595   3.421
 3669SOL    HW211907   0.380   1.580   3.357
 3670SOL     OW11908   2.712   6.739   2.218
 3670SOL    HW111909   2.625   6.785   2.203
 3670SOL    HW211910   2.707   6.686   2.303
 3671SOL     OW11911   6.121   0.354   3.873
 3671SOL    HW111912   6.166   0.386   3.790
 3671SOL    HW211913   6.188   0.349   3.947
 3672SOL     OW11914   3.342   7.011   3.489
 3672SOL    HW111915   3.364   0.065   3.431
 3672SOL    HW211916   3.425   6.980   3.536
 3673SOL     OW11917   3.618   6.394   1.164
 3673SOL    HW111918   3.690   6.426   1.226
 3673SOL    HW211919   3.588   6.303   1.192
 3674SOL     OW11920   1.529   4.310   6.675
 3674SOL    HW111921   1.445   4.287   6.724
 3674SOL    HW211922   1.599   4.241   6.695
 3675SOL     OW11923   1.351   0.317   3.643
 3675SOL    HW111924   1.317   0.362   3.561
 3675SOL    HW211925   1.302   0.351   3.724
 3676SOL     OW11926   3.621   2.093   4.197
 3676SOL    HW111927   3.534   2.060   4.233
 3676SOL    HW211928   3.613   2.110   4.099
 3677SOL     OW11929   2.065   0.747   4.454
 3677SOL    HW111930   2.131   0.819   4.477
 3677SOL    HW211931   2.085   0.665   4.507
 3678SOL     OW11932   1.138   0.479   4.187
 3678SOL    HW111933   1.186   0.566   4.195
 3678SOL    HW211934   1.201   0.409   4.153
 3679SOL     OW11935   4.136   0.713   2.558
 3679SOL    HW111936   4.141   0.614   2.567
 3679SOL    HW211937   4.119   0.754   2.648
 3680SOL     OW11938   3.396   1.410   4.686
 3680SOL    HW111939   3.311   1.436   4.641
 3680SOL    HW211940   3.409   1.467   4.768
 3681SOL     OW11941   1.269   6.161   4.419
 3681SOL    HW111942   1.348   6.203   4.373
 3681SOL    HW211943   1.294   6.068   4.448
 3682SOL     OW11944   5.729   2.229   1.481
 3682SOL    HW111945   5.744   2.151   1.420
 3682SOL    HW211946   5.648   2.279   1.451
 3683SOL     OW11947   5.955   1.428   6.571
 3683SOL    HW111948   5.916   1.395   6.657
 3683SOL    HW211949   6.009   1.354   6.530
 3684SOL     OW11950   2.128   6.466   5.574
 3684SOL    HW111951   2.218   6.507   5.565
 3684SOL    HW211952   2.083   6.464   5.484
 3685SOL     OW11953   2.269   6.062   4.868
 3685SOL    HW111954   2.195   6.020   4.817
 3685SOL    HW211955   2.330   6.110   4.805
 3686SOL     OW11956   0.577   4.062   2.025
 3686SOL    HW111957   0.628   3.985   1.987
 3686SOL    HW211958   0.560   4.045   2.122
 3687SOL     OW11959   5.475   4.721   4.432
 3687SOL    HW111960   5.458   4.761   4.342
 3687SOL    HW211961   5.390   4.685   4.470
 3688SOL     OW11962   6.374   2.581   0.522
 3688SOL    HW111963   6.357   2.627   0.609
 3688SOL    HW211964   6.289   2.570   0.472
 3689SOL     OW11965   1.444   6.833   5.986
 3689SOL    HW111966   1.419   6.741   6.015
 3689SOL    HW211967   1.365   6.877   5.943
 3690SOL     OW11968   5.046   5.556   2.020
 3690SOL    HW111969   5.074   5.513   2.106
 3690SOL    HW211970   5.125   5.562   1.958
 3691SOL     OW11971   1.608   2.856   0.823
 3691SOL    HW111972   1.611   2.915   0.904
 3691SOL    HW211973   1.700   2.848   0.785
 3692SOL     OW11974   0.640   3.092   6.006
 3692SOL    HW111975   0.616   3.166   6.069
 3692SOL    HW211976   0.613   3.116   5.913
 3693SOL     OW11977   6.588   1.650   2.128
 3693SOL    HW111978   6.577   1.740   2.084
 3693SOL    HW211979   6.541   1.650   2.216
 3694SOL     OW11980   6.497   6.957   2.731
 3694SOL    HW111981   6.510   6.860   2.709
 3694SOL    HW211982   6.491   7.010   2.646
 3695SOL     OW11983   5.312   3.410   3.040
 3695SOL    HW111984   5.289   3.331   2.982
 3695SOL    HW211985   5.352   3.377   3.125
 3696SOL     OW11986   4.054   0.599   4.268
 3696SOL    HW111987   3.958   0.621   4.253
 3696SOL    HW211988   4.065   0.501   4.285
 3697SOL     OW11989   6.705   6.329   2.896
 3697SOL    HW111990   6.643   6.266   2.850
 3697SOL    HW211991   6.682   6.423   2.871
 3698SOL     OW11992   1.424   6.999   2.439
 3698SOL    HW111993   1.378   7.015   2.526
 3698SOL    HW211994   1.355   6.988   2.367
 3699SOL     OW11995   2.777   2.350   3.633
 3699SOL    HW111996   2.703   2.378   3.694
 3699SOL    HW211997   2.805   2.429   3.577
 3700SOL     OW11998   0.910   5.373   4.872
 3700SOL    HW111999   0.896   5.356   4.774
 3700SOL    HW212000   0.873   5.296   4.925
 3701SOL     OW12001   1.123   0.270   2.063
 3701SOL    HW112002   1.150   0.258   1.968
 3701SOL    HW212003   1.114   0.180   2.106
 3702SOL     OW12004   5.932   4.398   3.220
 3702SOL    HW112005   5.923   4.382   3.122
 3702SOL    HW212006   5.949   4.311   3.267
 3703SOL     OW12007   1.350   1.811   3.679
 3703SOL    HW112008   1.318   1.744   3.613
 3703SOL    HW212009   1.429   1.775   3.727
 3704SOL     OW12010   6.740   1.350   0.464
 3704SOL    HW112011   6.642   1.333   0.479
 3704SOL    HW212012   6.767   1.311   0.376
 3705SOL     OW12013   5.030   4.531   3.612
 3705SOL    HW112014   5.045   4.625   3.580
 3705SOL    HW212015   5.096   4.510   3.685
 3706SOL     OW12016   1.285   4.263   0.162
 3706SOL    HW112017   1.347   4.322   0.213
 3706SOL    HW212018   1.191   4.285   0.187
 3707SOL     OW12019   1.305   5.384   3.510
 3707SOL    HW112020   1.325   5.352   3.603
 3707SOL    HW212021   1.208   5.410   3.504
 3708SOL     OW12022   2.362   6.051   1.175
 3708SOL    HW112023   2.262   6.058   1.183
 3708SOL    HW212024   2.405   6.081   1.260
 3709SOL     OW12025   1.138   1.566   1.821
 3709SOL    HW112026   1.126   1.649   1.767
 3709SOL    HW212027   1.233   1.557   1.848
 3710SOL     OW12028   0.269   4.238   5.598
 3710SOL    HW112029   0.220   4.275   5.677
 3710SOL    HW212030   0.310   4.150   5.622
 3711SOL     OW12031   0.976   5.923   4.450
 3711SOL    HW112032   0.922   5.840   4.436
 3711SOL    HW212033   0.956   5.989   4.378
 3712SOL     OW12034   1.680   5.230   4.455
 3712SOL    HW112035   1.672   5.295   4.530
 3712SOL    HW212036   1.657   5.138   4.487
 3713SOL     OW12037   6.239   0.681   4.124
 3713SOL    HW112038   6.315   0.645   4.179
 3713SOL    HW212039   6.233   0.780   4.137
 3714SOL     OW12040   0.765   4.315   0.400
 3714SOL    HW112041   0.693   4.321   0.331
 3714SOL    HW212042   0.760   4.226   0.445
 3715SOL     OW12043   5.884   5.072   3.720
 3715SOL    HW112044   5.948   5.016   3.667
 3715SOL    HW212045   5.794   5.072   3.675
 3716SOL     OW12046   5.002   5.584   4.615
 3716SOL    HW112047   4.979   5.619   4.706
 3716SOL    HW212048   5.030   5.488   4.622
 3717SOL     OW12049   4.589   1.037   0.741
 3717SOL    HW112050   4.668   0.975   0.740
 3717SOL    HW212051   4.621   1.132   0.733
 3718SOL     OW12052   6.325   6.575   6.111
 3718SOL    HW112053   6.303   6.559   6.015
 3718SOL    HW212054   6.303   6.670   6.134
 3719SOL     OW12055   3.584   3.920   0.083
 3719SOL    HW112056   3.622   3.969   0.162
 3719SOL    HW212057   3.485   3.910   0.095
 3720SOL     OW12058   0.127   3.376   1.084
 3720SOL    HW112059   0.137   3.392   1.182
 3720SOL    HW212060   0.033   3.349   1.063
 3721SOL     OW12061   6.851   6.729   5.448
 3721SOL    HW112062   6.929   6.706   5.507
 3721SOL    HW212063   6.769   6.684   5.482
 3722SOL     OW12064   5.415   6.730   2.820
 3722SOL    HW112065   5.353   6.660   2.853
 3722SOL    HW212066   5.476   6.758   2.894
 3723SOL     OW12067   4.566   3.530   0.297
 3723SOL    HW112068   4.608   3.451   0.252
 3723SOL    HW212069   4.532   3.503   0.387
 3724SOL     OW12070   0.696   5.003   4.628
 3724SOL    HW112071   0.728   5.066   4.699
 3724SOL    HW212072   0.773   4.952   4.591
 3725SOL     OW12073   1.605   6.355   0.122
 3725SOL    HW112074   1.518   6.337   0.169
 3725SOL    HW212075   1.681   6.332   0.183
 3726SOL     OW12076   5.916   3.885   4.886
 3726SOL    HW112077   5.994   3.835   4.851
 3726SOL    HW212078   5.832   3.833   4.870
 3727SOL     OW12079   6.872   3.044   3.785
 3727SOL    HW112080   6.878   3.134   3.743
 3727SOL    HW212081   6.848   2.976   3.716
 3728SOL     OW12082   2.858   2.995   0.653
 3728SOL    HW112083   2.922   3.060   0.695
 3728SOL    HW212084   2.801   2.954   0.725
 3729SOL     OW12085   0.817   0.239   5.917
 3729SOL    HW112086   0.756   0.224   5.840
 3729SOL    HW212087   0.871   0.322   5.902
 3730SOL     OW12088   4.884   5.974   4.648
 3730SOL    HW112089   4.836   5.900   4.696
 3730SOL    HW212090   4.939   6.025   4.713
 3731SOL     OW12091   0.011   2.169   6.916
 3731SOL    HW112092   0.047   2.233   6.848
 3731SOL    HW212093   6.972   2.217   6.977
 3732SOL     OW12094   3.505   2.411   6.784
 3732SOL    HW112095   3.473   2.322   6.816
 3732SOL    HW212096   3.430   2.459   6.738
 3733SOL     OW12097   1.550   0.431   3.357
 3733SOL    HW112098   1.591   0.374   3.285
 3733SOL    HW212099   1.585   0.403   3.446
 3734SOL     OW12100   4.291   0.112   0.778
 3734SOL    HW112101   4.383   0.149   0.765
 3734SOL    HW212102   4.232   0.182   0.818
 3735SOL     OW12103   4.498   0.179   2.734
 3735SOL    HW112104   4.538   0.100   2.688
 3735SOL    HW212105   4.481   0.251   2.666
 3736SOL     OW12106   6.549   0.983   0.335
 3736SOL    HW112107   6.459   0.983   0.291
 3736SOL    HW212108   6.589   0.892   0.328
 3737SOL     OW12109   6.335   2.387   2.468
 3737SOL    HW112110   6.369   2.304   2.512
 3737SOL    HW212111   6.235   2.391   2.478
 3738SOL     OW12112   6.583   6.811   1.221
 3738SOL    HW112113   6.679   6.784   1.221
 3738SOL    HW212114   6.574   6.906   1.249
 3739SOL     OW12115   3.275   3.404   0.377
 3739SOL    HW112116   3.366   3.386   0.340
 3739SOL    HW212117   3.250   3.499   0.360
 3740SOL     OW12118   4.850   5.349   6.305
 3740SOL    HW112119   4.930   5.303   6.344
 3740SOL    HW212120   4.793   5.282   6.258
 3741SOL     OW12121   5.240   2.969   0.373
 3741SOL    HW112122   5.308   2.898   0.389
 3741SOL    HW212123   5.246   2.999   0.277
 3742SOL     OW12124   3.712   5.335   0.915
 3742SOL    HW112125   3.751   5.340   0.823
 3742SOL    HW212126   3.629   5.391   0.919
 3743SOL     OW12127   3.635   3.232   1.449
 3743SOL    HW112128   3.699   3.221   1.525
 3743SOL    HW212129   3.628   3.146   1.397
 3744SOL     OW12130   0.234   6.704   2.200
 3744SOL    HW112131   0.224   6.636   2.127
 3744SOL    HW212132   0.227   6.796   2.161
 3745SOL     OW12133   4.886   3.283   2.422
 3745SOL    HW112134   4.897   3.276   2.323
 3745SOL    HW212135   4.827   3.210   2.455
 3746SOL     OW12136   6.386   0.295   3.943
 3746SOL    HW112137   6.422   0.276   4.034
 3746SOL    HW212138   6.361   0.209   3.898
 3747SOL     OW12139   3.446   6.621   5.448
 3747SOL    HW112140   3.406   6.702   5.404
 3747SOL    HW212141   3.407   6.611   5.539
 3748SOL     OW12142   4.441   1.969   2.724
 3748SOL    HW112143   4.366   1.904   2.735
 3748SOL    HW212144   4.520   1.921   2.685
 3749SOL     OW12145   0.141   6.556   2.437
 3749SOL    HW112146   0.157   6.639   2.383
 3749SOL    HW212147   0.169   6.573   2.532
 3750SOL     OW12148   5.464   4.504   0.775
 3750SOL    HW112149   5.560   4.479   0.759
 3750SOL    HW212150   5.404   4.433   0.741
 3751SOL     OW12151   1.898   3.655   2.410
 3751SOL    HW112152   1.865   3.675   2.503
 3751SOL    HW212153   1.992   3.621   2.414
 3752SOL     OW12154   0.772   6.307   5.958
 3752SOL    HW112155   0.687   6.298   5.906
 3752SOL    HW212156   0.849   6.304   5.895
 3753SOL     OW12157   6.575   0.111   4.608
 3753SOL    HW112158   6.596   0.129   4.705
 3753SOL    HW212159   6.489   0.061   4.602
 3754SOL     OW12160   6.938   6.658   1.597
 3754SOL    HW112161   6.939   6.749   1.557
 3754SOL    HW212162   6.900   6.662   1.689
 3755SOL     OW12163   5.041   2.694   2.914
 3755SOL    HW112164   5.099   2.719   2.837
 3755SOL    HW212165   5.038   2.769   2.980
 3756SOL     OW12166   3.180   0.149   6.483
 3756SOL    HW112167   3.145   0.176   6.393
 3756SOL    HW212168   3.280   0.150   6.481
 3757SOL     OW12169   3.356   5.019   6.970
 3757SOL    HW112170   3.347   4.988   6.876
 3757SOL    HW212171   3.396   5.111   6.971
 3758SOL     OW12172   0.700   0.766   3.957
 3758SOL    HW112173   0.799   0.765   3.969
 3758SOL    HW212174   0.656   0.766   4.046
 3759SOL     OW12175   4.715   4.800   0.049
 3759SOL    HW112176   4.707   4.894   0.081
 3759SOL    HW212177   4.656   4.787   6.993
 3760SOL     OW12178   1.832   2.460   5.433
 3760SOL    HW112179   1.900   2.434   5.502
 3760SOL    HW212180   1.804   2.555   5.448
 3761SOL     OW12181   6.920   6.485   3.569
 3761SOL    HW112182   6.982   6.514   3.642
 3761SOL    HW212183   6.971   6.434   3.500
 3762SOL     OW12184   0.106   3.807   6.738
 3762SOL    HW112185   0.195   3.786   6.696
 3762SOL    HW212186   0.035   3.803   6.667
 3763SOL     OW12187   6.380   3.686   6.258
 3763SOL    HW112188   6.384   3.786   6.267
 3763SOL    HW212189   6.392   3.662   6.162
 3764SOL     OW12190   2.197   6.559   3.787
 3764SOL    HW112191   2.228   6.653   3.803
 3764SOL    HW212192   2.200   6.538   3.690
 3765SOL     OW12193   5.475   1.125   4.293
 3765SOL    HW112194   5.504   1.148   4.386
 3765SOL    HW212195   5.462   1.026   4.286
 3766SOL     OW12196   1.464   0.431   5.354
 3766SOL    HW112197   1.517   0.500   5.306
 3766SOL    HW212198   1.525   0.363   5.394
 3767SOL     OW12199   1.596   4.636   1.206
 3767SOL    HW112200   1.627   4.705   1.271
 3767SOL    HW212201   1.651   4.553   1.216
 3768SOL     OW12202   4.784   6.663   0.761
 3768SOL    HW112203   4.833   6.624   0.839
 3768SOL    HW212204   4.823   6.628   0.676
 3769SOL     OW12205   4.568   6.392   5.199
 3769SOL    HW112206   4.557   6.295   5.221
 3769SOL    HW212207   4.575   6.445   5.283
 3770SOL     OW12208   2.177   1.698   0.046
 3770SOL    HW112209   2.103   1.635   0.072
 3770SOL    HW212210   2.174   1.779   0.105
 3771SOL     OW12211   5.124   1.372   5.757
 3771SOL    HW112212   5.133   1.401   5.662
 3771SOL    HW212213   5.051   1.304   5.765
 3772SOL     OW12214   5.207   1.185   2.660
 3772SOL    HW112215   5.226   1.093   2.694
 3772SOL    HW212216   5.208   1.185   2.561
 3773SOL     OW12217   6.592   2.767   6.750
 3773SOL    HW112218   6.632   2.718   6.828
 3773SOL    HW212219   6.522   2.830   6.782
 3774SOL     OW12220   0.460   1.126   1.751
 3774SOL    HW112221   0.470   1.139   1.653
 3774SOL    HW212222   0.370   1.160   1.780
 3775SOL     OW12223   5.553   3.202   3.657
 3775SOL    HW112224   5.500   3.268   3.712
 3775SOL    HW212225   5.558   3.115   3.705
 3776SOL     OW12226   2.911   3.284   0.027
 3776SOL    HW112227   2.904   3.301   6.953
 3776SOL    HW212228   2.993   3.229   0.046
 3777SOL     OW12229   2.012   4.289   3.750
 3777SOL    HW112230   1.916   4.312   3.766
 3777SOL    HW212231   2.034   4.304   3.653
 3778SOL     OW12232   2.216   6.702   2.261
 3778SOL    HW112233   2.290   6.746   2.209
 3778SOL    HW212234   2.162   6.772   2.306
 3779SOL     OW12235   3.250   5.024   6.243
 3779SOL    HW112236   3.150   5.019   6.237
 3779SOL    HW212237   3.283   5.095   6.181
 3780SOL     OW12238   2.746   0.207   4.701
 3780SOL    HW112239   2.799   0.170   4.625
 3780SOL    HW212240   2.808   0.239   4.772
 3781SOL     OW12241   3.186   5.417   4.963
 3781SOL    HW112242   3.177   5.337   4.904
 3781SOL    HW212243   3.109   5.422   5.026
 3782SOL     OW12244   2.134   2.108   3.401
 3782SOL    HW112245   2.102   2.066   3.316
 3782SOL    HW212246   2.147   2.036   3.470
 3783SOL     OW12247   4.581   5.600   5.671
 3783SOL    HW112248   4.617   5.668   5.606
 3783SOL    HW212249   4.489   5.627   5.699
 3784SOL     OW12250   4.829   1.139   3.561
 3784SOL    HW112251   4.749   1.090   3.593
 3784SOL    HW212252   4.860   1.100   3.474
 3785SOL     OW12253   1.657   1.500   1.467
 3785SOL    HW112254   1.637   1.404   1.484
 3785SOL    HW212255   1.694   1.511   1.374
 3786SOL     OW12256   3.275   5.427   3.241
 3786SOL    HW112257   3.238   5.467   3.158
 3786SOL    HW212258   3.208   5.364   3.280
 3787SOL     OW12259   3.697   1.548   4.127
 3787SOL    HW112260   3.661   1.607   4.055
 3787SOL    HW212261   3.680   1.452   4.104
 3788SOL     OW12262   6.049   2.999   2.498
 3788SOL    HW112263   6.121   2.949   2.449
 3788SOL    HW212264   5.960   2.968   2.465
 3789SOL     OW12265   1.338   5.122   2.811
 3789SOL    HW112266   1.397   5.096   2.734
 3789SOL    HW212267   1.242   5.113   2.785
 3790SOL     OW12268   2.160   3.424   4.095
 3790SOL    HW112269   2.183   3.363   4.171
 3790SOL    HW212270   2.078   3.389   4.049
 3791SOL     OW12271   5.238   0.375   2.215
 3791SOL    HW112272   5.271   0.286   2.247
 3791SOL    HW212273   5.299   0.410   2.144
 3792SOL     OW12274   0.174   6.700   5.372
 3792SOL    HW112275   0.131   6.785   5.340
 3792SOL    HW212276   0.112   6.652   5.433
 3793SOL     OW12277   2.407   0.477   2.625
 3793SOL    HW112278   2.330   0.418   2.650
 3793SOL    HW212279   2.484   0.459   2.687
 3794SOL     OW12280   4.427   6.450   2.063
 3794SOL    HW112281   4.443   6.549   2.074
 3794SOL    HW212282   4.331   6.435   2.038
 3795SOL     OW12283   5.232   6.817   6.620
 3795SOL    HW112284   5.238   6.909   6.583
 3795SOL    HW212285   5.322   6.788   6.652
 3796SOL     OW12286   1.444   2.944   1.781
 3796SOL    HW112287   1.426   3.042   1.774
 3796SOL    HW212288   1.435   2.915   1.877
 3797SOL     OW12289   0.161   5.138   2.649
 3797SOL    HW112290   0.082   5.156   2.707
 3797SOL    HW212291   0.242   5.182   2.688
 3798SOL     OW12292   1.868   4.499   2.289
 3798SOL    HW112293   1.922   4.554   2.353
 3798SOL    HW212294   1.928   4.436   2.240
 3799SOL     OW12295   1.811   0.031   5.445
 3799SOL    HW112296   1.868   0.021   5.526
 3799SOL    HW212297   1.869   0.036   5.364
 3800SOL     OW12298   4.939   3.407   4.800
 3800SOL    HW112299   4.917   3.399   4.897
 3800SOL    HW212300   4.896   3.331   4.750
 3801SOL     OW12301   0.273   7.003   6.261
 3801SOL    HW112302   0.263   6.993   6.360
 3801SOL    HW212303   0.196   0.031   6.224
 3802SOL     OW12304   1.229   2.596   5.148
 3802SOL    HW112305   1.328   2.585   5.157
 3802SOL    HW212306   1.185   2.506   5.148
 3803SOL     OW12307   3.714   1.204   0.937
 3803SOL    HW112308   3.636   1.141   0.938
 3803SOL    HW212309   3.778   1.179   1.009
 3804SOL     OW12310   4.715   2.248   5.422
 3804SOL    HW112311   4.784   2.202   5.365
 3804SOL    HW212312   4.656   2.179   5.465
 3805SOL     OW12313   2.168   3.941   1.480
 3805SOL    HW112314   2.234   3.978   1.546
 3805SOL    HW212315   2.198   3.851   1.451
 3806SOL     OW12316   2.371   1.726   0.665
 3806SOL    HW112317   2.415   1.750   0.578
 3806SOL    HW212318   2.350   1.629   0.666
 3807SOL     OW12319   1.243   6.619   3.162
 3807SOL    HW112320   1.235   6.672   3.246
 3807SOL    HW212321   1.278   6.528   3.183
 3808SOL     OW12322   3.620   0.272   1.390
 3808SOL    HW112323   3.619   0.359   1.340
 3808SOL    HW212324   3.585   0.286   1.482
 3809SOL     OW12325   4.577   0.575   6.205
 3809SOL    HW112326   4.496   0.629   6.228
 3809SOL    HW212327   4.652   0.636   6.181
 3810SOL     OW12328   2.629   3.182   5.359
 3810SOL    HW112329   2.725   3.180   5.329
 3810SOL    HW212330   2.575   3.122   5.300
 3811SOL     OW12331   0.821   5.657   6.009
 3811SOL    HW112332   0.757   5.662   5.933
 3811SOL    HW212333   0.886   5.733   6.004
 3812SOL     OW12334   5.241   1.109   5.204
 3812SOL    HW112335   5.191   1.151   5.128
 3812SOL    HW212336   5.316   1.054   5.167
 3813SOL     OW12337   3.636   4.610   1.578
 3813SOL    HW112338   3.589   4.619   1.666
 3813SOL    HW212339   3.571   4.626   1.504
 3814SOL     OW12340   1.124   6.446   2.124
 3814SOL    HW112341   1.198   6.418   2.064
 3814SOL    HW212342   1.084   6.366   2.168
 3815SOL     OW12343   5.152   2.224   1.617
 3815SOL    HW112344   5.116   2.161   1.686
 3815SOL    HW212345   5.150   2.317   1.653
 3816SOL     OW12346   0.817   6.601   1.310
 3816SOL    HW112347   0.753   6.562   1.243
 3816SOL    HW212348   0.889   6.650   1.261
 3817SOL     OW12349   5.304   1.969   5.511
 3817SOL    HW112350   5.392   1.930   5.538
 3817SOL    HW212351   5.240   1.895   5.490
 3818SOL     OW12352   5.285   5.069   2.318
 3818SOL    HW112353   5.283   5.092   2.415
 3818SOL    HW212354   5.377   5.039   2.293
 3819SOL     OW12355   5.469   4.249   6.366
 3819SOL    HW112356   5.538   4.207   6.426
 3819SOL    HW212357   5.380   4.208   6.385
 3820SOL     OW12358   5.450   6.449   4.240
 3820SOL    HW112359   5.387   6.503   4.183
 3820SOL    HW212360   5.452   6.488   4.332
 3821SOL     OW12361   0.957   4.210   2.068
 3821SOL    HW112362   0.989   4.122   2.033
 3821SOL    HW212363   0.870   4.233   2.026
 3822SOL     OW12364   2.080   5.066   1.919
 3822SOL    HW112365   2.109   5.147   1.970
 3822SOL    HW212366   2.124   4.985   1.957
 3823SOL     OW12367   3.164   2.731   5.503
 3823SOL    HW112368   3.203   2.674   5.431
 3823SOL    HW212369   3.088   2.682   5.546
 3824SOL     OW12370   0.006   2.637   6.747
 3824SOL    HW112371   6.953   2.594   6.700
 3824SOL    HW212372   6.999   2.674   6.835
 3825SOL     OW12373   6.792   6.931   6.331
 3825SOL    HW112374   6.885   6.907   6.357
 3825SOL    HW212375   6.749   6.853   6.286
 3826SOL     OW12376   6.865   2.469   1.416
 3826SOL    HW112377   6.817   2.383   1.398
 3826SOL    HW212378   6.894   2.472   1.511
 3827SOL     OW12379   4.449   3.561   0.553
 3827SOL    HW112380   4.358   3.545   0.591
 3827SOL    HW212381   4.464   3.659   0.542
 3828SOL     OW12382   4.296   1.221   1.820
 3828SOL    HW112383   4.229   1.155   1.787
 3828SOL    HW212384   4.298   1.300   1.759
 3829SOL     OW12385   1.757   5.137   3.504
 3829SOL    HW112386   1.729   5.054   3.454
 3829SOL    HW212387   1.856   5.139   3.512
 3830SOL     OW12388   2.801   0.616   4.811
 3830SOL    HW112389   2.819   0.552   4.736
 3830SOL    HW212390   2.794   0.709   4.774
 3831SOL     OW12391   3.844   1.442   1.894
 3831SOL    HW112392   3.811   1.497   1.818
 3831SOL    HW212393   3.857   1.499   1.975
 3832SOL     OW12394   6.027   0.166   2.927
 3832SOL    HW112395   6.119   0.199   2.903
 3832SOL    HW212396   6.023   0.067   2.914
 3833SOL     OW12397   0.961   5.201   6.638
 3833SOL    HW112398   0.997   5.293   6.623
 3833SOL    HW212399   0.864   5.200   6.614
 3834SOL     OW12400   2.563   2.417   0.715
 3834SOL    HW112401   2.589   2.330   0.757
 3834SOL    HW212402   2.467   2.436   0.734
 3835SOL     OW12403   3.484   6.032   4.585
 3835SOL    HW112404   3.572   5.986   4.581
 3835SOL    HW212405   3.411   5.968   4.563
 3836SOL     OW12406   1.091   3.667   5.662
 3836SOL    HW112407   1.035   3.586   5.675
 3836SOL    HW212408   1.174   3.659   5.718
 3837SOL     OW12409   3.492   3.472   0.230
 3837SOL    HW112410   3.588   3.496   0.211
 3837SOL    HW212411   3.460   3.406   0.162
 3838SOL     OW12412   5.995   3.618   5.841
 3838SOL    HW112413   5.902   3.643   5.813
 3838SOL    HW212414   6.009   3.520   5.826
 3839SOL     OW12415   6.089   6.269   6.023
 3839SOL    HW112416   6.139   6.287   6.108
 3839SOL    HW212417   6.153   6.268   5.946
 3840SOL     OW12418   1.900   0.581   3.543
 3840SOL    HW112419   1.849   0.658   3.579
 3840SOL    HW212420   1.893   0.503   3.605
 3841SOL     OW12421   0.368   3.887   4.768
 3841SOL    HW112422   0.423   3.803   4.763
 3841SOL    HW212423   0.367   3.920   4.863
 3842SOL     OW12424   1.257   5.138   6.655
 3842SOL    HW112425   1.296   5.187   6.733
 3842SOL    HW212426   1.158   5.130   6.666
 3843SOL     OW12427   5.951   4.334   0.779
 3843SOL    HW112428   6.009   4.383   0.714
 3843SOL    HW212429   5.955   4.236   0.760
 3844SOL     OW12430   2.046   4.438   6.558
 3844SOL    HW112431   2.007   4.357   6.602
 3844SOL    HW212432   2.133   4.414   6.514
 3845SOL     OW12433   3.466   3.457   3.765
 3845SOL    HW112434   3.447   3.539   3.711
 3845SOL    HW212435   3.382   3.425   3.807
 3846SOL     OW12436   0.098   4.421   3.385
 3846SOL    HW112437   0.194   4.434   3.411
 3846SOL    HW212438   0.048   4.381   3.461
 3847SOL     OW12439   0.891   0.162   0.530
 3847SOL    HW112440   0.867   0.133   0.437
 3847SOL    HW212441   0.845   0.249   0.550
 3848SOL     OW12442   3.379   5.051   0.402
 3848SOL    HW112443   3.314   5.121   0.434
 3848SOL    HW212444   3.345   5.010   0.318
 3849SOL     OW12445   2.146   2.712   6.052
 3849SOL    HW112446   2.054   2.681   6.078
 3849SOL    HW212447   2.213   2.673   6.115
 3850SOL     OW12448   2.378   3.603   1.668
 3850SOL    HW112449   2.378   3.699   1.695
 3850SOL    HW212450   2.384   3.545   1.749
 3851SOL     OW12451   2.275   2.471   1.781
 3851SOL    HW112452   2.247   2.506   1.691
 3851SOL    HW212453   2.327   2.542   1.829
 3852SOL     OW12454   4.525   1.004   5.805
 3852SOL    HW112455   4.457   1.058   5.854
 3852SOL    HW212456   4.570   1.062   5.737
 3853SOL     OW12457   1.625   3.009   2.370
 3853SOL    HW112458   1.546   2.954   2.398
 3853SOL    HW212459   1.701   2.949   2.347
 3854SOL     OW12460   1.194   2.826   4.705
 3854SOL    HW112461   1.166   2.833   4.801
 3854SOL    HW212462   1.254   2.902   4.682
 3855SOL     OW12463   7.018   2.222   5.055
 3855SOL    HW112464   6.976   2.155   4.993
 3855SOL    HW212465   0.018   2.304   5.003
 3856SOL     OW12466   0.945   6.398   5.487
 3856SOL    HW112467   0.868   6.438   5.537
 3856SOL    HW212468   0.955   6.444   5.399
 3857SOL     OW12469   1.062   7.005   5.562
 3857SOL    HW112470   1.063   0.059   5.500
 3857SOL    HW212471   1.155   6.968   5.569
 3858SOL     OW12472   2.161   5.377   6.717
 3858SOL    HW112473   2.108   5.355   6.634
 3858SOL    HW212474   2.246   5.422   6.692
 3859SOL     OW12475   6.665   2.387   1.869
 3859SOL    HW112476   6.726   2.387   1.789
 3859SOL    HW212477   6.672   2.475   1.916
 3860SOL     OW12478   2.137   6.732   4.846
 3860SOL    HW112479   2.043   6.714   4.819
 3860SOL    HW212480   2.191   6.758   4.766
 3861SOL     OW12481   4.500   4.555   1.002
 3861SOL    HW112482   4.547   4.614   1.067
 3861SOL    HW212483   4.427   4.504   1.048
 3862SOL     OW12484   1.161   5.275   6.019
 3862SOL    HW112485   1.161   5.344   5.947
 3862SOL    HW212486   1.081   5.216   6.008
 3863SOL     OW12487   3.273   2.897   0.475
 3863SOL    HW112488   3.190   2.891   0.419
 3863SOL    HW212489   3.264   2.837   0.554
 3864SOL     OW12490   3.477   1.898   6.945
 3864SOL    HW112491   3.550   1.835   6.972
 3864SOL    HW212492   3.434   1.864   6.861
 3865SOL     OW12493   4.212   0.935   2.410
 3865SOL    HW112494   4.169   0.922   2.320
 3865SOL    HW212495   4.205   0.850   2.462
 3866SOL     OW12496   4.051   6.343   6.114
 3866SOL    HW112497   3.983   6.271   6.101
 3866SOL    HW212498   4.142   6.306   6.094
 3867SOL     OW12499   1.887   3.461   4.310
 3867SOL    HW112500   1.847   3.414   4.388
 3867SOL    HW212501   1.920   3.394   4.244
 3868SOL     OW12502   1.363   5.291   3.023
 3868SOL    HW112503   1.387   5.251   2.934
 3868SOL    HW212504   1.266   5.314   3.024
 3869SOL     OW12505   1.583   2.011   3.901
 3869SOL    HW112506   1.660   2.070   3.923
 3869SOL    HW212507   1.612   1.938   3.840
 3870SOL     OW12508   4.042   4.455   0.553
 3870SOL    HW112509   3.982   4.522   0.509
 3870SOL    HW212510   3.988   4.398   0.615
 3871SOL     OW12511   3.191   1.755   4.478
 3871SOL    HW112512   3.179   1.828   4.545
 3871SOL    HW212513   3.287   1.749   4.452
 3872SOL     OW12514   4.197   3.471   0.688
 3872SOL    HW112515   4.187   3.391   0.747
 3872SOL    HW212516   4.135   3.463   0.610
 3873SOL     OW12517   5.285   4.280   1.828
 3873SOL    HW112518   5.382   4.292   1.852
 3873SOL    HW212519   5.256   4.356   1.770
 3874SOL     OW12520   4.641   6.047   6.394
 3874SOL    HW112521   4.717   6.016   6.450
 3874SOL    HW212522   4.676   6.090   6.310
 3875SOL     OW12523   1.905   3.999   0.624
 3875SOL    HW112524   1.939   3.994   0.718
 3875SOL    HW212525   1.921   3.911   0.579
 3876SOL     OW12526   5.137   3.982   2.500
 3876SOL    HW112527   5.232   3.972   2.468
 3876SOL    HW212528   5.089   4.048   2.443
 3877SOL     OW12529   5.675   1.226   2.685
 3877SOL    HW112530   5.703   1.315   2.649
 3877SOL    HW212531   5.639   1.169   2.611
 3878SOL     OW12532   4.205   6.056   4.626
 3878SOL    HW112533   4.272   6.002   4.574
 3878SOL    HW212534   4.142   5.994   4.673
 3879SOL     OW12535   3.066   6.135   1.303
 3879SOL    HW112536   3.033   6.044   1.327
 3879SOL    HW212537   3.072   6.143   1.203
 3880SOL     OW12538   5.341   2.737   4.208
 3880SOL    HW112539   5.406   2.813   4.214
 3880SOL    HW212540   5.248   2.772   4.211
 3881SOL     OW12541   1.392   5.176   1.343
 3881SOL    HW112542   1.488   5.202   1.349
 3881SOL    HW212543   1.382   5.097   1.283
 3882SOL     OW12544   0.821   6.099   6.205
 3882SOL    HW112545   0.883   6.040   6.153
 3882SOL    HW212546   0.861   6.191   6.212
 3883SOL     OW12547   3.141   1.387   6.250
 3883SOL    HW112548   3.184   1.312   6.301
 3883SOL    HW212549   3.212   1.437   6.201
 3884SOL     OW12550   1.821   4.947   5.512
 3884SOL    HW112551   1.748   4.880   5.521
 3884SOL    HW212552   1.835   4.994   5.599
 3885SOL     OW12553   0.031   1.539   5.529
 3885SOL    HW112554   0.031   1.579   5.621
 3885SOL    HW212555   0.004   1.609   5.463
 3886SOL     OW12556   0.478   6.135   5.442
 3886SOL    HW112557   0.568   6.177   5.451
 3886SOL    HW212558   0.472   6.087   5.355
 3887SOL     OW12559   5.267   3.457   5.166
 3887SOL    HW112560   5.225   3.392   5.229
 3887SOL    HW212561   5.238   3.550   5.189
 3888SOL     OW12562   5.429   2.106   1.846
 3888SOL    HW112563   5.362   2.158   1.898
 3888SOL    HW212564   5.399   2.099   1.751
 3889SOL     OW12565   0.040   5.481   0.125
 3889SOL    HW112566   7.017   5.528   0.199
 3889SOL    HW212567   7.022   5.507   0.037
 3890SOL     OW12568   6.748   3.499   2.598
 3890SOL    HW112569   6.735   3.585   2.648
 3890SOL    HW212570   6.663   3.475   2.550
 3891SOL     OW12571   5.947   5.105   6.584
 3891SOL    HW112572   5.971   5.011   6.558
 3891SOL    HW212573   5.936   5.111   6.683
 3892SOL     OW12574   5.709   5.347   3.801
 3892SOL    HW112575   5.688   5.343   3.703
 3892SOL    HW212576   5.649   5.284   3.850
 3893SOL     OW12577   3.277   6.334   4.232
 3893SOL    HW112578   3.237   6.345   4.322
 3893SOL    HW212579   3.375   6.356   4.236
 3894SOL     OW12580   4.843   5.467   6.943
 3894SOL    HW112581   4.894   5.382   6.932
 3894SOL    HW212582   4.901   5.544   6.915
 3895SOL     OW12583   1.774   2.604   5.872
 3895SOL    HW112584   1.824   2.623   5.956
 3895SOL    HW212585   1.676   2.595   5.892
 3896SOL     OW12586   6.596   2.381   6.386
 3896SOL    HW112587   6.516   2.332   6.352
 3896SOL    HW212588   6.596   2.475   6.351
 3897SOL     OW12589   3.090   6.715   3.200
 3897SOL    HW112590   3.097   6.628   3.248
 3897SOL    HW212591   3.161   6.777   3.232
 3898SOL     OW12592   3.241   3.591   4.497
 3898SOL    HW112593   3.231   3.492   4.495
 3898SOL    HW212594   3.304   3.620   4.425
 3899SOL     OW12595   5.090   2.216   5.045
 3899SOL    HW112596   4.994   2.245   5.042
 3899SOL    HW212597   5.135   2.261   5.123
 3900SOL     OW12598   6.926   2.392   4.395
 3900SOL    HW112599   6.932   2.332   4.474
 3900SOL    HW212600   6.975   2.477   4.414
 3901SOL     OW12601   2.677   5.585   5.111
 3901SOL    HW112602   2.710   5.598   5.018
 3901SOL    HW212603   2.720   5.653   5.171
 3902SOL     OW12604   4.247   4.671   2.473
 3902SOL    HW112605   4.300   4.587   2.490
 3902SOL    HW212606   4.302   4.734   2.418
 3903SOL     OW12607   4.873   2.711   5.891
 3903SOL    HW112608   4.940   2.638   5.909
 3903SOL    HW212609   4.786   2.670   5.863
 3904SOL     OW12610   2.438   6.195   0.937
 3904SOL    HW112611   2.457   6.292   0.947
 3904SOL    HW212612   2.423   6.154   1.027
 3905SOL     OW12613   6.433   0.487   6.164
 3905SOL    HW112614   6.427   0.471   6.065
 3905SOL    HW212615   6.529   0.489   6.192
 3906SOL     OW12616   0.202   5.861   4.644
 3906SOL    HW112617   0.267   5.863   4.568
 3906SOL    HW212618   0.216   5.942   4.701
 3907SOL     OW12619   0.603   1.398   5.546
 3907SOL    HW112620   0.504   1.410   5.557
 3907SOL    HW212621   0.620   1.320   5.487
 3908SOL     OW12622   2.507   0.906   4.267
 3908SOL    HW112623   2.471   0.813   4.262
 3908SOL    HW212624   2.433   0.969   4.289
 3909SOL     OW12625   5.126   2.452   1.422
 3909SOL    HW112626   5.129   2.542   1.378
 3909SOL    HW212627   5.142   2.462   1.520
 3910SOL     OW12628   3.255   2.088   0.931
 3910SOL    HW112629   3.298   2.172   0.964
 3910SOL    HW212630   3.303   2.056   0.849
 3911SOL     OW12631   6.851   0.540   1.380
 3911SOL    HW112632   6.905   0.543   1.464
 3911SOL    HW212633   6.784   0.465   1.386
 3912SOL     OW12634   4.179   4.066   0.055
 3912SOL    HW112635   4.201   3.991   0.116
 3912SOL    HW212636   4.080   4.074   0.046
 3913SOL     OW12637   4.197   5.515   1.479
 3913SOL    HW112638   4.133   5.446   1.444
 3913SOL    HW212639   4.177   5.603   1.436
 3914SOL     OW12640   6.488   2.063   0.372
 3914SOL    HW112641   6.389   2.049   0.375
 3914SOL    HW212642   6.510   2.129   0.301
 3915SOL     OW12643   5.773   0.373   5.456
 3915SOL    HW112644   5.704   0.406   5.520
 3915SOL    HW212645   5.849   0.437   5.452
 3916SOL     OW12646   1.844   2.322   2.816
 3916SOL    HW112647   1.833   2.350   2.721
 3916SOL    HW212648   1.757   2.333   2.864
 3917SOL     OW12649   3.881   4.773   1.785
 3917SOL    HW112650   3.957   4.726   1.830
 3917SOL    HW212651   3.798   4.761   1.839
 3918SOL     OW12652   5.170   0.545   0.530
 3918SOL    HW112653   5.234   0.611   0.490
 3918SOL    HW212654   5.079   0.561   0.492
 3919SOL     OW12655   4.646   5.979   3.160
 3919SOL    HW112656   4.717   6.049   3.161
 3919SOL    HW212657   4.640   5.939   3.069
 3920SOL     OW12658   3.003   1.406   5.487
 3920SOL    HW112659   2.978   1.359   5.403
 3920SOL    HW212660   2.996   1.505   5.473
 3921SOL     OW12661   1.100   3.379   6.275
 3921SOL    HW112662   1.020   3.337   6.319
 3921SOL    HW212663   1.154   3.429   6.343
 3922SOL     OW12664   5.003   3.405   3.607
 3922SOL    HW112665   4.982   3.503   3.599
 3922SOL    HW212666   4.943   3.363   3.674
 3923SOL     OW12667   5.214   1.435   1.456
 3923SOL    HW112668   5.289   1.467   1.513
 3923SOL    HW212669   5.204   1.336   1.466
 3924SOL     OW12670   5.001   4.858   4.379
 3924SOL    HW112671   4.954   4.929   4.325
 3924SOL    HW212672   5.094   4.888   4.399
 3925SOL     OW12673   4.935   5.436   1.370
 3925SOL    HW112674   5.009   5.448   1.436
 3925SOL    HW212675   4.967   5.379   1.294
 3926SOL     OW12676   0.620   5.679   5.105
 3926SOL    HW112677   0.718   5.684   5.125
 3926SOL    HW212678   0.568   5.673   5.190
 3927SOL     OW12679   5.668   1.378   5.689
 3927SOL    HW112680   5.586   1.434   5.676
 3927SOL    HW212681   5.716   1.368   5.602
 3928SOL     OW12682   3.637   5.768   2.657
 3928SOL    HW112683   3.647   5.813   2.568
 3928SOL    HW212684   3.698   5.811   2.724
 3929SOL     OW12685   0.900   1.454   5.893
 3929SOL    HW112686   0.961   1.421   5.821
 3929SOL    HW212687   0.933   1.542   5.927
 3930SOL     OW12688   1.412   4.966   3.847
 3930SOL    HW112689   1.386   5.001   3.937
 3930SOL    HW212690   1.448   5.041   3.791
 3931SOL     OW12691   1.034   2.233   0.076
 3931SOL    HW112692   0.960   2.247   0.010
 3931SOL    HW212693   0.997   2.241   0.169
 3932SOL     OW12694   2.460   4.437   3.044
 3932SOL    HW112695   2.492   4.377   2.971
 3932SOL    HW212696   2.360   4.443   3.042
 3933SOL     OW12697   2.229   5.643   1.347
 3933SOL    HW112698   2.281   5.639   1.433
 3933SOL    HW212699   2.283   5.691   1.278
 3934SOL     OW12700   2.329   6.909   1.398
 3934SOL    HW112701   2.331   7.004   1.431
 3934SOL    HW212702   2.284   6.906   1.308
 3935SOL     OW12703   0.212   3.393   4.928
 3935SOL    HW112704   0.181   3.464   4.865
 3935SOL    HW212705   0.311   3.382   4.920
 3936SOL     OW12706   0.164   4.336   5.121
 3936SOL    HW112707   0.184   4.405   5.051
 3936SOL    HW212708   0.230   4.345   5.195
 3937SOL     OW12709   1.230   6.160   0.513
 3937SOL    HW112710   1.156   6.113   0.466
 3937SOL    HW212711   1.316   6.145   0.464
 3938SOL     OW12712   0.501   3.386   0.871
 3938SOL    HW112713   0.511   3.372   0.773
 3938SOL    HW212714   0.416   3.435   0.889
 3939SOL     OW12715   1.762   6.714   3.547
 3939SOL    HW112716   1.774   6.766   3.632
 3939SOL    HW212717   1.664   6.705   3.528
 3940SOL     OW12718   3.012   5.486   6.633
 3940SOL    HW112719   3.049   5.412   6.576
 3940SOL    HW212720   2.992   5.565   6.577
 3941SOL     OW12721   4.590   5.530   2.522
 3941SOL    HW112722   4.583   5.587   2.440
 3941SOL    HW212723   4.507   5.540   2.577
 3942SOL     OW12724   6.733   6.503   6.236
 3942SOL    HW112725   6.833   6.504   6.236
 3942SOL    HW212726   6.700   6.430   6.296
 3943SOL     OW12727   2.291   3.162   6.957
 3943SOL    HW112728   2.251   3.248   6.989
 3943SOL    HW212729   2.388   3.175   6.940
 3944SOL     OW12730   4.129   3.008   6.517
 3944SOL    HW112731   4.125   2.986   6.615
 3944SOL    HW212732   4.224   3.029   6.492
 3945SOL     OW12733   5.605   0.374   3.457
 3945SOL    HW112734   5.526   0.414   3.504
 3945SOL    HW212735   5.686   0.382   3.515
 3946SOL     OW12736   0.395   3.317   0.288
 3946SOL    HW112737   0.388   3.404   0.240
 3946SOL    HW212738   0.329   3.252   0.249
 3947SOL     OW12739   5.318   6.204   2.095
 3947SOL    HW112740   5.281   6.238   2.181
 3947SOL    HW212741   5.246   6.206   2.025
 3948SOL     OW12742   1.491   2.355   5.157
 3948SOL    HW112743   1.407   2.346   5.210
 3948SOL    HW212744   1.506   2.271   5.104
 3949SOL     OW12745   6.715   6.961   2.399
 3949SOL    HW112746   6.752   0.018   2.354
 3949SOL    HW212747   6.616   6.969   2.408
 3950SOL     OW12748   2.905   4.346   1.588
 3950SOL    HW112749   2.874   4.253   1.610
 3950SOL    HW212750   2.911   4.400   1.672
 3951SOL     OW12751   0.129   2.991   4.412
 3951SOL    HW112752   0.213   2.938   4.427
 3951SOL    HW212753   0.142   3.053   4.335
 3952SOL     OW12754   5.664   3.995   6.869
 3952SOL    HW112755   5.747   3.991   6.812
 3952SOL    HW212756   5.663   3.917   6.932
 3953SOL     OW12757   3.141   3.776   5.884
 3953SOL    HW112758   3.061   3.775   5.944
 3953SOL    HW212759   3.114   3.746   5.792
 3954SOL     OW12760   0.574   3.318   5.048
 3954SOL    HW112761   0.623   3.348   5.130
 3954SOL    HW212762   0.573   3.218   5.044
 3955SOL     OW12763   5.748   3.654   0.210
 3955SOL    HW112764   5.668   3.595   0.197
 3955SOL    HW212765   5.733   3.714   0.288
 3956SOL     OW12766   6.179   3.304   5.494
 3956SOL    HW112767   6.271   3.341   5.480
 3956SOL    HW212768   6.129   3.306   5.408
 3957SOL     OW12769   0.833   1.994   1.892
 3957SOL    HW112770   0.897   2.071   1.897
 3957SOL    HW212771   0.855   1.928   1.964
 3958SOL     OW12772   5.250   6.796   0.465
 3958SOL    HW112773   5.260   6.895   0.457
 3958SOL    HW212774   5.339   6.756   0.488
 3959SOL     OW12775   2.224   5.040   1.653
 3959SOL    HW112776   2.168   5.018   1.733
 3959SOL    HW212777   2.294   4.970   1.640
 3960SOL     OW12778   4.797   3.441   1.025
 3960SOL    HW112779   4.784   3.414   1.121
 3960SOL    HW212780   4.712   3.427   0.975
 3961SOL     OW12781   6.431   0.170   1.533
 3961SOL    HW112782   6.455   0.144   1.626
 3961SOL    HW212783   6.338   0.207   1.531
 3962SOL     OW12784   0.702   6.944   5.755
 3962SOL    HW112785   0.789   6.954   5.804
 3962SOL    HW212786   0.691   6.849   5.727
 3963SOL     OW12787   4.826   4.444   3.829
 3963SOL    HW112788   4.887   4.376   3.869
 3963SOL    HW212789   4.867   4.480   3.745
 3964SOL     OW12790   5.510   6.147   0.108
 3964SOL    HW112791   5.491   6.077   0.177
 3964SOL    HW212792   5.494   6.237   0.148
 3965SOL     OW12793   3.564   3.608   0.752
 3965SOL    HW112794   3.566   3.607   0.652
 3965SOL    HW212795   3.476   3.573   0.784
 3966SOL     OW12796   6.606   4.377   5.487
 3966SOL    HW112797   6.545   4.316   5.435
 3966SOL    HW212798   6.551   4.440   5.541
 3967SOL     OW12799   1.982   6.416   0.022
 3967SOL    HW112800   1.938   6.433   6.957
 3967SOL    HW212801   2.074   6.381   0.007
 3968SOL     OW12802   5.247   2.029   1.049
 3968SOL    HW112803   5.176   1.976   1.096
 3968SOL    HW212804   5.263   2.114   1.099
 3969SOL     OW12805   0.205   5.536   0.979
 3969SOL    HW112806   0.217   5.597   1.057
 3969SOL    HW212807   0.294   5.507   0.945
 3970SOL     OW12808   5.051   4.673   3.907
 3970SOL    HW112809   4.955   4.700   3.913
 3970SOL    HW212810   5.108   4.738   3.957
 3971SOL     OW12811   6.909   6.329   3.890
 3971SOL    HW112812   6.922   6.230   3.878
 3971SOL    HW212813   6.814   6.352   3.871
 3972SOL     OW12814   1.033   0.389   6.473
 3972SOL    HW112815   1.075   0.477   6.451
 3972SOL    HW212816   0.947   0.379   6.422
 3973SOL     OW12817   3.327   2.955   3.441
 3973SOL    HW112818   3.274   2.874   3.467
 3973SOL    HW212819   3.422   2.928   3.424
 3974SOL     OW12820   5.799   1.022   6.604
 3974SOL    HW112821   5.849   0.991   6.523
 3974SOL    HW212822   5.702   1.028   6.582
 3975SOL     OW12823   0.026   6.269   5.383
 3975SOL    HW112824   6.989   6.339   5.346
 3975SOL    HW212825   0.022   6.188   5.326
 3976SOL     OW12826   0.566   3.000   6.683
 3976SOL    HW112827   0.559   2.903   6.708
 3976SOL    HW212828   0.647   3.040   6.728
 3977SOL     OW12829   2.980   6.031   4.832
 3977SOL    HW112830   2.957   5.973   4.753
 3977SOL    HW212831   3.079   6.040   4.838
 3978SOL     OW12832   6.544   3.862   6.844
 3978SOL    HW112833   6.511   3.855   6.938
 3978SOL    HW212834   6.488   3.805   6.784
 3979SOL     OW12835   1.336   6.869   2.983
 3979SOL    HW112836   1.310   6.795   3.046
 3979SOL    HW212837   1.435   6.878   2.982
 3980SOL     OW12838   4.799   4.135   3.985
 3980SOL    HW112839   4.794   4.039   4.013
 3980SOL    HW212840   4.755   4.146   3.896
 3981SOL     OW12841   7.022   1.707   6.090
 3981SOL    HW112842   0.040   1.745   6.173
 3981SOL    HW212843   0.069   1.685   6.023
 3982SOL     OW12844   2.287   3.007   4.133
 3982SOL    HW112845   2.282   3.013   4.033
 3982SOL    HW212846   2.264   3.095   4.174
 3983SOL     OW12847   2.862   6.789   4.240
 3983SOL    HW112848   2.810   6.792   4.154
 3983SOL    HW212849   2.802   6.758   4.314
 3984SOL     OW12850   1.872   6.292   1.599
 3984SOL    HW112851   1.936   6.364   1.572
 3984SOL    HW212852   1.795   6.332   1.648
 3985SOL     OW12853   2.167   2.949   1.938
 3985SOL    HW112854   2.159   3.035   1.990
 3985SOL    HW212855   2.261   2.940   1.903
 3986SOL     OW12856   1.317   2.151   2.145
 3986SOL    HW112857   1.405   2.193   2.167
 3986SOL    HW212858   1.311   2.137   2.046
 3987SOL     OW12859   1.518   3.979   5.237
 3987SOL    HW112860   1.473   4.066   5.217
 3987SOL    HW212861   1.449   3.908   5.251
 3988SOL     OW12862   5.173   0.504   0.795
 3988SOL    HW112863   5.137   0.413   0.814
 3988SOL    HW212864   5.197   0.511   0.698
 3989SOL     OW12865   4.226   0.912   5.912
 3989SOL    HW112866   4.278   0.871   5.836
 3989SOL    HW212867   4.174   0.840   5.958
 3990SOL     OW12868   0.635   2.174   3.503
 3990SOL    HW112869   0.636   2.080   3.470
 3990SOL    HW212870   0.703   2.184   3.577
 3991SOL     OW12871   0.946   1.562   3.716
 3991SOL    HW112872   1.044   1.557   3.731
 3991SOL    HW212873   0.924   1.646   3.667
 3992SOL     OW12874   5.897   3.900   6.715
 3992SOL    HW112875   5.834   3.833   6.675
 3992SOL    HW212876   5.925   3.966   6.645
 3993SOL     OW12877   1.660   0.543   3.990
 3993SOL    HW112878   1.727   0.500   4.051
 3993SOL    HW212879   1.601   0.472   3.950
 3994SOL     OW12880   2.845   2.029   3.261
 3994SOL    HW112881   2.748   2.034   3.282
 3994SOL    HW212882   2.858   1.981   3.174
 3995SOL     OW12883   1.634   3.227   2.207
 3995SOL    HW112884   1.644   3.142   2.258
 3995SOL    HW212885   1.677   3.302   2.257
 3996SOL     OW12886   5.588   5.775   4.738
 3996SOL    HW112887   5.554   5.864   4.706
 3996SOL    HW212888   5.541   5.751   4.823
 3997SOL     OW12889   4.896   3.581   2.955
 3997SOL    HW112890   4.851   3.657   2.908
 3997SOL    HW212891   4.903   3.503   2.893
 3998SOL     OW12892   4.855   2.162   3.302
 3998SOL    HW112893   4.776   2.185   3.245
 3998SOL    HW212894   4.825   2.149   3.397
 3999SOL     OW12895   4.006   3.196   1.327
 3999SOL    HW112896   3.983   3.239   1.240
 3999SOL    HW212897   4.104   3.177   1.331
 4000SOL     OW12898   2.696   4.925   2.687
 4000SOL    HW112899   2.672   4.909   2.591
 4000SOL    HW212900   2.775   4.986   2.692
 4001SOL     OW12901   6.900   5.415   4.524
 4001SOL    HW112902   6.888   5.412   4.425
 4001SOL    HW212903   6.942   5.329   4.555
 4002SOL     OW12904   4.033   3.850   4.156
 4002SOL    HW112905   4.106   3.804   4.206
 4002SOL    HW212906   3.970   3.893   4.220
 4003SOL     OW12907   1.716   0.924   4.944
 4003SOL    HW112908   1.659   0.902   4.865
 4003SOL    HW212909   1.744   1.020   4.939
 4004SOL     OW12910   1.358   3.809   4.129
 4004SOL    HW112911   1.337   3.719   4.168
 4004SOL    HW212912   1.282   3.871   4.147
 4005SOL     OW12913   4.773   3.518   6.961
 4005SOL    HW112914   4.720   3.459   7.022
 4005SOL    HW212915   4.716   3.597   6.934
 4006SOL     OW12916   6.725   5.816   2.119
 4006SOL    HW112917   6.723   5.816   2.019
 4006SOL    HW212918   6.820   5.822   2.150
 4007SOL     OW12919   0.019   0.804   1.809
 4007SOL    HW112920   6.961   0.750   1.827
 4007SOL    HW212921   0.096   0.765   1.859
 4008SOL     OW12922   3.359   0.874   1.142
 4008SOL    HW112923   3.291   0.935   1.101
 4008SOL    HW212924   3.325   0.841   1.230
 4009SOL     OW12925   4.970   2.225   0.548
 4009SOL    HW112926   4.904   2.171   0.495
 4009SOL    HW212927   4.936   2.237   0.642
 4010SOL     OW12928   2.104   4.838   1.303
 4010SOL    HW112929   2.164   4.918   1.305
 4010SOL    HW212930   2.033   4.852   1.234
 4011SOL     OW12931   5.714   5.819   5.575
 4011SOL    HW112932   5.759   5.897   5.620
 4011SOL    HW212933   5.768   5.736   5.590
 4012SOL     OW12934   5.126   6.212   2.888
 4012SOL    HW112935   5.074   6.282   2.937
 4012SOL    HW212936   5.078   6.189   2.803
 4013SOL     OW12937   0.225   1.400   6.171
 4013SOL    HW112938   0.305   1.390   6.231
 4013SOL    HW212939   0.222   1.324   6.106
 4014SOL     OW12940   2.858   4.993   2.264
 4014SOL    HW112941   2.765   5.009   2.230
 4014SOL    HW212942   2.883   4.898   2.250
 4015SOL     OW12943   4.350   5.082   6.483
 4015SOL    HW112944   4.252   5.099   6.487
 4015SOL    HW212945   4.367   4.984   6.477
 4016SOL     OW12946   5.299   5.010   4.611
 4016SOL    HW112947   5.256   5.053   4.532
 4016SOL    HW212948   5.386   5.056   4.631
 4017SOL     OW12949   1.083   4.738   5.991
 4017SOL    HW112950   1.140   4.818   6.009
 4017SOL    HW212951   1.141   4.663   5.957
 4018SOL     OW12952   4.173   6.146   1.238
 4018SOL    HW112953   4.127   6.078   1.182
 4018SOL    HW212954   4.126   6.234   1.229
 4019SOL     OW12955   6.177   4.074   2.312
 4019SOL    HW112956   6.120   4.137   2.260
 4019SOL    HW212957   6.261   4.119   2.341
 4020SOL     OW12958   6.369   5.442   4.358
 4020SOL    HW112959   6.399   5.505   4.430
 4020SOL    HW212960   6.281   5.402   4.384
 4021SOL     OW12961   4.674   4.258   6.181
 4021SOL    HW112962   4.753   4.254   6.120
 4021SOL    HW212963   4.595   4.217   6.135
 4022SOL     OW12964   2.897   6.804   1.430
 4022SOL    HW112965   2.983   6.757   1.410
 4022SOL    HW212966   2.904   6.850   1.519
 4023SOL     OW12967   0.561   1.413   4.008
 4023SOL    HW112968   0.517   1.327   3.981
 4023SOL    HW212969   0.650   1.393   4.050
 4024SOL     OW12970   0.506   6.779   4.580
 4024SOL    HW112971   0.448   6.841   4.527
 4024SOL    HW212972   0.449   6.709   4.623
 4025SOL     OW12973   6.820   5.810   3.415
 4025SOL    HW112974   6.849   5.889   3.360
 4025SOL    HW212975   6.727   5.826   3.450
 4026SOL     OW12976   0.776   7.017   4.148
 4026SOL    HW112977   0.753   6.929   4.106
 4026SOL    HW212978   0.693   0.036   4.182
 4027SOL     OW12979   3.206   4.770   5.316
 4027SOL    HW112980   3.187   4.674   5.295
 4027SOL    HW212981   3.289   4.776   5.370
 4028SOL     OW12982   4.644   0.736   3.390
 4028SOL    HW112983   4.639   0.811   3.324
 4028SOL    HW212984   4.573   0.669   3.370
 4029SOL     OW12985   1.896   6.019   0.224
 4029SOL    HW112986   1.859   5.969   0.146
 4029SOL    HW212987   1.834   6.009   0.302
 4030SOL     OW12988   0.661   1.803   2.388
 4030SOL    HW112989   0.710   1.818   2.474
 4030SOL    HW212990   0.715   1.842   2.313
 4031SOL     OW12991   5.866   6.322   0.130
 4031SOL    HW112992   5.940   6.264   0.095
 4031SOL    HW212993   5.905   6.397   0.182
 4032SOL     OW12994   4.860   0.532   2.460
 4032SOL    HW112995   4.951   0.540   2.421
 4032SOL    HW212996   4.846   0.604   2.528
 4033SOL     OW12997   1.761   2.615   2.541
 4033SOL    HW112998   1.767   2.635   2.639
 4033SOL    HW212999   1.666   2.605   2.514
 4034SOL     OW13000   0.584   2.979   5.303
 4034SOL    HW113001   0.656   3.041   5.274
 4034SOL    HW213002   0.506   2.985   5.240
 4035SOL     OW13003   4.528   1.927   1.794
 4035SOL    HW113004   4.502   1.915   1.698
 4035SOL    HW213005   4.502   2.018   1.825
 4036SOL     OW13006   2.840   5.742   3.526
 4036SOL    HW113007   2.884   5.813   3.472
 4036SOL    HW213008   2.887   5.732   3.614
 4037SOL     OW13009   2.638   1.655   5.556
 4037SOL    HW113010   2.627   1.754   5.562
 4037SOL    HW213011   2.585   1.611   5.628
 4038SOL     OW13012   3.341   4.759   5.724
 4038SOL    HW113013   3.356   4.667   5.760
 4038SOL    HW213014   3.373   4.763   5.629
 4039SOL     OW13015   5.406   5.299   1.326
 4039SOL    HW113016   5.434   5.366   1.257
 4039SOL    HW213017   5.403   5.342   1.416
 4040SOL     OW13018   2.823   6.735   5.100
 4040SOL    HW113019   2.794   6.782   5.183
 4040SOL    HW213020   2.918   6.760   5.079
 4041SOL     OW13021   2.386   6.622   1.433
 4041SOL    HW113022   2.383   6.718   1.462
 4041SOL    HW213023   2.416   6.617   1.337
 4042SOL     OW13024   6.829   1.469   2.642
 4042SOL    HW113025   6.816   1.402   2.569
 4042SOL    HW213026   6.901   1.533   2.616
 4043SOL     OW13027   5.312   3.518   6.144
 4043SOL    HW113028   5.219   3.493   6.120
 4043SOL    HW213029   5.324   3.617   6.133
 4044SOL     OW13030   4.942   4.461   3.207
 4044SOL    HW113031   4.952   4.367   3.239
 4044SOL    HW213032   4.847   4.490   3.219
 4045SOL     OW13033   5.254   1.239   5.462
 4045SOL    HW113034   5.174   1.222   5.520
 4045SOL    HW213035   5.245   1.189   5.377
 4046SOL     OW13036   5.840   1.808   3.210
 4046SOL    HW113037   5.845   1.709   3.223
 4046SOL    HW213038   5.874   1.831   3.118
 4047SOL     OW13039   2.551   3.069   6.613
 4047SOL    HW113040   2.641   3.050   6.575
 4047SOL    HW213041   2.481   3.049   6.544
 4048SOL     OW13042   4.400   2.116   2.460
 4048SOL    HW113043   4.364   2.042   2.517
 4048SOL    HW213044   4.368   2.204   2.496
 4049SOL     OW13045   4.354   4.324   0.689
 4049SOL    HW113046   4.321   4.311   0.595
 4049SOL    HW213047   4.276   4.345   0.748
 4050SOL     OW13048   1.262   5.445   2.106
 4050SOL    HW113049   1.333   5.436   2.176
 4050SOL    HW213050   1.268   5.536   2.064
 4051SOL     OW13051   5.558   1.137   4.590
 4051SOL    HW113052   5.579   1.225   4.632
 4051SOL    HW213053   5.505   1.081   4.654
 4052SOL     OW13054   5.998   1.853   2.974
 4052SOL    HW113055   6.030   1.766   2.936
 4052SOL    HW213056   6.077   1.910   2.998
 4053SOL     OW13057   1.183   5.268   4.216
 4053SOL    HW113058   1.094   5.224   4.207
 4053SOL    HW213059   1.252   5.218   4.164
 4054SOL     OW13060   4.222   3.866   1.448
 4054SOL    HW113061   4.206   3.846   1.545
 4054SOL    HW213062   4.165   3.944   1.421
 4055SOL     OW13063   0.781   4.030   0.149
 4055SOL    HW113064   0.842   4.035   0.070
 4055SOL    HW213065   0.691   4.000   0.120
 4056SOL     OW13066   5.335   3.600   0.703
 4056SOL    HW113067   5.348   3.563   0.611
 4056SOL    HW213068   5.369   3.535   0.771
 4057SOL     OW13069   0.466   3.732   0.293
 4057SOL    HW113070   0.440   3.692   0.206
 4057SOL    HW213071   0.559   3.705   0.316
 4058SOL     OW13072   2.234   0.673   5.091
 4058SOL    HW113073   2.286   0.616   5.028
 4058SOL    HW213074   2.231   0.767   5.058
 4059SOL     OW13075   0.221   1.549   3.426
 4059SOL    HW113076   0.160   1.625   3.405
 4059SOL    HW213077   0.234   1.543   3.525
 4060SOL     OW13078   6.620   6.256   4.696
 4060SOL    HW113079   6.550   6.196   4.656
 4060SOL    HW213080   6.704   6.248   4.644
 4061SOL     OW13081   1.199   5.315   0.639
 4061SOL    HW113082   1.200   5.377   0.717
 4061SOL    HW213083   1.293   5.297   0.609
 4062SOL     OW13084   1.909   2.882   1.434
 4062SOL    HW113085   1.989   2.940   1.449
 4062SOL    HW213086   1.892   2.874   1.335
 4063SOL     OW13087   4.036   0.578   0.231
 4063SOL    HW113088   4.014   0.653   0.168
 4063SOL    HW213089   4.125   0.596   0.274
 4064SOL     OW13090   1.832   1.498   5.929
 4064SOL    HW113091   1.853   1.413   5.978
 4064SOL    HW213092   1.861   1.576   5.984
 4065SOL     OW13093   2.707   6.410   0.898
 4065SOL    HW113094   2.688   6.432   0.994
 4065SOL    HW213095   2.710   6.495   0.845
 4066SOL     OW13096   0.483   3.806   3.600
 4066SOL    HW113097   0.421   3.847   3.533
 4066SOL    HW213098   0.577   3.828   3.575
 4067SOL     OW13099   5.298   5.348   0.556
 4067SOL    HW113100   5.393   5.360   0.586
 4067SOL    HW213101   5.269   5.254   0.575
 4068SOL     OW13102   2.322   2.866   4.814
 4068SOL    HW113103   2.335   2.924   4.894
 4068SOL    HW213104   2.290   2.775   4.842
 4069SOL     OW13105   4.240   6.717   6.607
 4069SOL    HW113106   4.306   6.657   6.654
 4069SOL    HW213107   4.194   6.775   6.675
 4070SOL     OW13108   1.222   3.251   3.679
 4070SOL    HW113109   1.182   3.160   3.674
 4070SOL    HW213110   1.193   3.296   3.763
 4071SOL     OW13111   1.262   0.413   3.365
 4071SOL    HW113112   1.343   0.469   3.383
 4071SOL    HW213113   1.189   0.471   3.328
 4072SOL     OW13114   2.752   5.031   3.034
 4072SOL    HW113115   2.708   5.069   2.953
 4072SOL    HW213116   2.803   4.949   3.009
 4073SOL     OW13117   3.654   4.737   0.385
 4073SOL    HW113118   3.629   4.733   0.288
 4073SOL    HW213119   3.572   4.756   0.439
 4074SOL     OW13120   1.969   5.391   3.023
 4074SOL    HW113121   1.869   5.392   3.024
 4074SOL    HW213122   2.002   5.305   3.063
 4075SOL     OW13123   6.892   1.285   1.063
 4075SOL    HW113124   6.829   1.310   0.990
 4075SOL    HW213125   6.984   1.316   1.040
 4076SOL     OW13126   2.311   4.091   5.420
 4076SOL    HW113127   2.365   4.042   5.352
 4076SOL    HW213128   2.237   4.140   5.376
 4077SOL     OW13129   2.798   0.762   1.942
 4077SOL    HW113130   2.753   0.715   2.017
 4077SOL    HW213131   2.892   0.729   1.933
 4078SOL     OW13132   3.310   5.084   2.777
 4078SOL    HW113133   3.284   5.050   2.686
 4078SOL    HW213134   3.228   5.094   2.833
 4079SOL     OW13135   0.895   2.136   4.098
 4079SOL    HW113136   0.990   2.125   4.069
 4079SOL    HW213137   0.846   2.050   4.084
 4080SOL     OW13138   6.196   1.999   5.074
 4080SOL    HW113139   6.117   2.011   5.014
 4080SOL    HW213140   6.251   1.922   5.042
 4081SOL     OW13141   1.691   3.287   3.987
 4081SOL    HW113142   1.619   3.347   3.951
 4081SOL    HW213143   1.650   3.205   4.027
 4082SOL     OW13144   0.934   3.205   1.078
 4082SOL    HW113145   0.928   3.251   1.167
 4082SOL    HW213146   0.872   3.127   1.077
 4083SOL     OW13147   5.542   2.849   4.614
 4083SOL    HW113148   5.557   2.760   4.657
 4083SOL    HW213149   5.474   2.840   4.542
 4084SOL     OW13150   0.388   1.629   4.080
 4084SOL    HW113151   0.423   1.566   4.010
 4084SOL    HW213152   0.450   1.631   4.158
 4085SOL     OW13153   2.897   6.096   0.686
 4085SOL    HW113154   2.859   6.115   0.777
 4085SOL    HW213155   2.827   6.108   0.617
 4086SOL     OW13156   1.295   5.407   0.341
 4086SOL    HW113157   1.275   5.365   0.429
 4086SOL    HW213158   1.246   5.494   0.333
 4087SOL     OW13159   1.520   1.713   2.489
 4087SOL    HW113160   1.557   1.798   2.526
 4087SOL    HW213161   1.485   1.729   2.397
 4088SOL     OW13162   6.962   1.903   0.857
 4088SOL    HW113163   7.008   1.866   0.938
 4088SOL    HW213164   7.000   1.860   0.775
 4089SOL     OW13165   1.108   1.145   5.104
 4089SOL    HW113166   1.109   1.244   5.089
 4089SOL    HW213167   1.193   1.117   5.148
 4090SOL     OW13168   1.794   4.506   5.555
 4090SOL    HW113169   1.870   4.485   5.495
 4090SOL    HW213170   1.821   4.491   5.650
 4091SOL     OW13171   4.856   6.088   0.537
 4091SOL    HW113172   4.878   6.032   0.458
 4091SOL    HW213173   4.799   6.036   0.600
 4092SOL     OW13174   0.038   2.605   4.521
 4092SOL    HW113175   7.015   2.659   4.591
 4092SOL    HW213176   0.056   2.663   4.442
 4093SOL     OW13177   5.768   0.822   4.323
 4093SOL    HW113178   5.786   0.901   4.382
 4093SOL    HW213179   5.853   0.794   4.278
 4094SOL     OW13180   2.553   4.409   5.224
 4094SOL    HW113181   2.630   4.464   5.255
 4094SOL    HW213182   2.556   4.319   5.267
 4095SOL     OW13183   1.296   3.526   6.430
 4095SOL    HW113184   1.235   3.587   6.481
 4095SOL    HW213185   1.349   3.471   6.494
 4096SOL     OW13186   4.133   4.723   1.870
 4096SOL    HW113187   4.187   4.721   1.786
 4096SOL    HW213188   4.158   4.645   1.928
 4097SOL     OW13189   3.254   3.448   5.030
 4097SOL    HW113190   3.176   3.400   4.990
 4097SOL    HW213191   3.302   3.499   4.959
 4098SOL     OW13192   0.246   2.271   2.725
 4098SOL    HW113193   0.277   2.204   2.658
 4098SOL    HW213194   0.148   2.259   2.742
 4099SOL     OW13195   4.349   5.996   2.009
 4099SOL    HW113196   4.277   5.954   2.065
 4099SOL    HW213197   4.372   5.934   1.934
 4100SOL     OW13198   3.944   5.688   3.134
 4100SOL    HW113199   3.848   5.675   3.111
 4100SOL    HW213200   3.981   5.604   3.174
 4101SOL     OW13201   5.527   1.066   6.152
 4101SOL    HW113202   5.440   1.018   6.145
 4101SOL    HW213203   5.603   1.001   6.148
 4102SOL     OW13204   6.092   1.396   0.501
 4102SOL    HW113205   6.024   1.350   0.558
 4102SOL    HW213206   6.155   1.328   0.463
 4103SOL     OW13207   0.567   0.339   2.383
 4103SOL    HW113208   0.611   0.415   2.336
 4103SOL    HW213209   0.617   0.318   2.467
 4104SOL     OW13210   1.536   5.014   3.080
 4104SOL    HW113211   1.530   5.029   3.179
 4104SOL    HW213212   1.596   5.082   3.039
 4105SOL     OW13213   4.972   4.740   0.087
 4105SOL    HW113214   5.044   4.743   0.017
 4105SOL    HW213215   4.886   4.772   0.048
 4106SOL     OW13216   6.720   3.711   5.299
 4106SOL    HW113217   6.658   3.789   5.287
 4106SOL    HW213218   6.689   3.656   5.377
 4107SOL     OW13219   0.132   0.753   0.818
 4107SOL    HW113220   0.080   0.690   0.760
 4107SOL    HW213221   0.074   0.832   0.842
 4108SOL     OW13222   6.422   3.380   5.752
 4108SOL    HW113223   6.497   3.332   5.706
 4108SOL    HW213224   6.391   3.327   5.830
 4109SOL     OW13225   3.338   6.080   3.672
 4109SOL    HW113226   3.305   5.986   3.668
 4109SOL    HW213227   3.415   6.092   3.609
 4110SOL     OW13228   4.961   3.504   5.902
 4110SOL    HW113229   4.962   3.498   6.002
 4110SOL    HW213230   4.989   3.416   5.863
 4111SOL     OW13231   4.762   3.021   6.622
 4111SOL    HW113232   4.763   2.987   6.716
 4111SOL    HW213233   4.855   3.039   6.592
 4112SOL     OW13234   3.591   1.295   4.323
 4112SOL    HW113235   3.600   1.292   4.224
 4112SOL    HW213236   3.628   1.212   4.364
 4113SOL     OW13237   3.396   5.347   4.591
 4113SOL    HW113238   3.469   5.399   4.634
 4113SOL    HW213239   3.380   5.262   4.641
 4114SOL     OW13240   2.990   1.910   2.245
 4114SOL    HW113241   2.998   2.008   2.263
 4114SOL    HW213242   2.938   1.867   2.319
 4115SOL     OW13243   5.314   4.566   1.838
 4115SOL    HW113244   5.383   4.545   1.908
 4115SOL    HW213245   5.358   4.607   1.758
 4116SOL     OW13246   3.052   1.342   2.023
 4116SOL    HW113247   2.968   1.339   2.076
 4116SOL    HW213248   3.131   1.335   2.084
 4117SOL     OW13249   1.204   5.808   1.441
 4117SOL    HW113250   1.118   5.817   1.390
 4117SOL    HW213251   1.197   5.730   1.503
 4118SOL     OW13252   2.172   6.458   0.434
 4118SOL    HW113253   2.248   6.504   0.480
 4118SOL    HW213254   2.149   6.373   0.481
 4119SOL     OW13255   4.061   0.658   3.713
 4119SOL    HW113256   4.065   0.690   3.808
 4119SOL    HW213257   4.111   0.722   3.655
 4120SOL     OW13258   3.892   0.538   1.563
 4120SOL    HW113259   3.867   0.621   1.612
 4120SOL    HW213260   3.956   0.485   1.618
 4121SOL     OW13261   6.457   3.023   5.171
 4121SOL    HW113262   6.393   3.061   5.105
 4121SOL    HW213263   6.407   2.965   5.236
 4122SOL     OW13264   1.655   6.026   5.859
 4122SOL    HW113265   1.664   5.933   5.895
 4122SOL    HW213266   1.561   6.057   5.869
 4123SOL     OW13267   5.129   3.839   6.397
 4123SOL    HW113268   5.066   3.917   6.399
 4123SOL    HW213269   5.198   3.850   6.469
 4124SOL     OW13270   5.173   0.075   3.952
 4124SOL    HW113271   5.220   0.161   3.970
 4124SOL    HW213272   5.101   0.089   3.885
 4125SOL     OW13273   4.763   1.265   1.000
 4125SOL    HW113274   4.718   1.263   0.911
 4125SOL    HW213275   4.726   1.194   1.059
 4126SOL     OW13276   2.020   4.355   4.388
 4126SOL    HW113277   2.116   4.334   4.369
 4126SOL    HW213278   1.990   4.431   4.330
 4127SOL     OW13279   6.402   3.659   5.659
 4127SOL    HW113280   6.342   3.719   5.712
 4127SOL    HW213281   6.380   3.564   5.679
 4128SOL     OW13282   0.842   2.025   2.776
 4128SOL    HW113283   0.941   2.018   2.786
 4128SOL    HW213284   0.814   2.120   2.785
 4129SOL     OW13285   5.524   2.361   5.792
 4129SOL    HW113286   5.466   2.370   5.711
 4129SOL    HW213287   5.617   2.338   5.763
 4130SOL     OW13288   5.890   4.072   0.733
 4130SOL    HW113289   5.908   4.043   0.827
 4130SOL    HW213290   5.973   4.062   0.678
 4131SOL     OW13291   6.652   4.566   3.465
 4131SOL    HW113292   6.602   4.551   3.551
 4131SOL    HW213293   6.750   4.566   3.483
 4132SOL     OW13294   5.191   2.415   3.890
 4132SOL    HW113295   5.161   2.507   3.867
 4132SOL    HW213296   5.168   2.396   3.986
 4133SOL     OW13297   3.450   1.329   1.071
 4133SOL    HW113298   3.485   1.319   1.164
 4133SOL    HW213299   3.527   1.330   1.007
 4134SOL     OW13300   1.141   1.471   7.015
 4134SOL    HW113301   1.093   1.431   0.069
 4134SOL    HW213302   1.077   1.523   6.959
 4135SOL     OW13303   1.311   0.594   1.508
 4135SOL    HW113304   1.283   0.668   1.569
 4135SOL    HW213305   1.236   0.572   1.445
 4136SOL     OW13306   1.196   2.203   3.555
 4136SOL    HW113307   1.108   2.237   3.523
 4136SOL    HW213308   1.248   2.168   3.477
 4137SOL     OW13309   3.168   4.685   6.405
 4137SOL    HW113310   3.124   4.718   6.321
 4137SOL    HW213311   3.137   4.741   6.482
 4138SOL     OW13312   4.201   4.951   3.373
 4138SOL    HW113313   4.189   4.960   3.274
 4138SOL    HW213314   4.259   5.026   3.406
 4139SOL     OW13315   2.109   1.318   0.016
 4139SOL    HW113316   2.068   1.227   0.019
 4139SOL    HW213317   2.205   1.313   0.045
 4140SOL     OW13318   4.816   1.398   5.142
 4140SOL    HW113319   4.799   1.299   5.141
 4140SOL    HW213320   4.821   1.430   5.237
 4141SOL     OW13321   5.205   5.792   0.618
 4141SOL    HW113322   5.211   5.802   0.717
 4141SOL    HW213323   5.273   5.726   0.587
 4142SOL     OW13324   6.273   3.892   1.438
 4142SOL    HW113325   6.213   3.849   1.371
 4142SOL    HW213326   6.253   3.990   1.442
 4143SOL     OW13327   0.356   2.797   1.133
 4143SOL    HW113328   0.322   2.830   1.221
 4143SOL    HW213329   0.283   2.804   1.064
 4144SOL     OW13330   4.639   0.922   2.685
 4144SOL    HW113331   4.681   1.008   2.713
 4144SOL    HW213332   4.572   0.940   2.613
 4145SOL     OW13333   2.143   6.714   2.557
 4145SOL    HW113334   2.113   6.679   2.646
 4145SOL    HW213335   2.122   6.648   2.486
 4146SOL     OW13336   5.090   6.591   0.387
 4146SOL    HW113337   5.143   6.670   0.419
 4146SOL    HW213338   5.031   6.620   0.311
 4147SOL     OW13339   3.329   2.050   5.334
 4147SOL    HW113340   3.260   2.034   5.405
 4147SOL    HW213341   3.373   1.964   5.309
 4148SOL     OW13342   6.526   0.557   3.529
 4148SOL    HW113343   6.524   0.589   3.434
 4148SOL    HW213344   6.587   0.615   3.582
 4149SOL     OW13345   5.716   3.874   1.892
 4149SOL    HW113346   5.734   3.782   1.858
 4149SOL    HW213347   5.675   3.929   1.818
 4150SOL     OW13348   5.179   0.484   6.619
 4150SOL    HW113349   5.230   0.477   6.705
 4150SOL    HW213350   5.088   0.522   6.638
 4151SOL     OW13351   0.741   5.367   0.669
 4151SOL    HW113352   0.698   5.281   0.697
 4151SOL    HW213353   0.692   5.406   0.591
 4152SOL     OW13354   3.747   4.229   1.453
 4152SOL    HW113355   3.728   4.236   1.550
 4152SOL    HW213356   3.708   4.145   1.416
 4153SOL     OW13357   6.253   4.902   5.746
 4153SOL    HW113358   6.168   4.936   5.788
 4153SOL    HW213359   6.296   4.835   5.807
 4154SOL     OW13360   5.449   2.937   6.089
 4154SOL    HW113361   5.352   2.933   6.113
 4154SOL    HW213362   5.461   2.918   5.992
 4155SOL     OW13363   0.855   3.196   1.822
 4155SOL    HW113364   0.900   3.191   1.733
 4155SOL    HW213365   0.878   3.283   1.866
 4156SOL     OW13366   6.032   6.704   5.471
 4156SOL    HW113367   6.107   6.643   5.443
 4156SOL    HW213368   6.070   6.790   5.505
 4157SOL     OW13369   3.556   1.040   5.083
 4157SOL    HW113370   3.520   1.134   5.074
 4157SOL    HW213371   3.554   1.013   5.179
 4158SOL     OW13372   0.905   6.608   3.885
 4158SOL    HW113373   0.944   6.548   3.955
 4158SOL    HW213374   0.939   6.579   3.795
 4159SOL     OW13375   0.964   2.800   4.896
 4159SOL    HW113376   0.992   2.864   4.968
 4159SOL    HW213377   0.881   2.835   4.851
 4160SOL     OW13378   1.456   1.108   0.836
 4160SOL    HW113379   1.369   1.060   0.845
 4160SOL    HW213380   1.530   1.049   0.867
 4161SOL     OW13381   6.284   1.591   0.511
 4161SOL    HW113382   6.321   1.562   0.599
 4161SOL    HW213383   6.216   1.526   0.478
 4162SOL     OW13384   6.144   0.038   5.394
 4162SOL    HW113385   6.138   0.104   5.320
 4162SOL    HW213386   6.211   6.991   5.371
 4163SOL     OW13387   5.538   1.576   4.020
 4163SOL    HW113388   5.611   1.509   4.005
 4163SOL    HW213389   5.530   1.596   4.117
 4164SOL     OW13390   2.049   0.453   5.925
 4164SOL    HW113391   1.975   0.521   5.918
 4164SOL    HW213392   2.129   0.486   5.875
 4165SOL     OW13393   4.003   6.630   2.286
 4165SOL    HW113394   3.971   6.572   2.360
 4165SOL    HW213395   4.103   6.624   2.279
 4166SOL     OW13396   5.727   2.601   0.991
 4166SOL    HW113397   5.772   2.662   1.055
 4166SOL    HW213398   5.792   2.534   0.956
 4167SOL     OW13399   1.941   2.771   1.699
 4167SOL    HW113400   1.935   2.790   1.601
 4167SOL    HW213401   1.900   2.847   1.750
 4168SOL     OW13402   1.293   5.236   0.950
 4168SOL    HW113403   1.323   5.162   0.889
 4168SOL    HW213404   1.361   5.309   0.948
 4169SOL     OW13405   5.890   3.745   4.415
 4169SOL    HW113406   5.812   3.807   4.422
 4169SOL    HW213407   5.880   3.690   4.332
 4170SOL     OW13408   4.601   2.347   5.751
 4170SOL    HW113409   4.616   2.249   5.765
 4170SOL    HW213410   4.537   2.360   5.675
 4171SOL     OW13411   5.967   3.895   1.906
 4171SOL    HW113412   5.868   3.902   1.893
 4171SOL    HW213413   6.014   3.914   1.820
 4172SOL     OW13414   1.872   1.960   0.272
 4172SOL    HW113415   1.859   1.875   0.222
 4172SOL    HW213416   1.799   2.024   0.248
 4173SOL     OW13417   5.377   3.708   4.925
 4173SOL    HW113418   5.289   3.755   4.927
 4173SOL    HW213419   5.429   3.731   5.007
 4174SOL     OW13420   4.547   1.312   4.401
 4174SOL    HW113421   4.602   1.297   4.319
 4174SOL    HW213422   4.453   1.282   4.385
 4175SOL     OW13423   2.971   0.964   2.692
 4175SOL    HW113424   2.878   0.936   2.718
 4175SOL    HW213425   3.028   0.882   2.681
 4176SOL     OW13426   5.782   6.328   2.723
 4176SOL    HW113427   5.828   6.410   2.758
 4176SOL    HW213428   5.848   6.253   2.721
 4177SOL     OW13429   6.883   5.958   2.690
 4177SOL    HW113430   6.904   5.936   2.786
 4177SOL    HW213431   6.803   5.906   2.661
 4178SOL     OW13432   3.767   2.525   5.775
 4178SOL    HW113433   3.731   2.519   5.869
 4178SOL    HW213434   3.757   2.618   5.741
 4179SOL     OW13435   5.563   3.210   6.229
 4179SOL    HW113436   5.573   3.216   6.129
 4179SOL    HW213437   5.559   3.114   6.256
 4180SOL     OW13438   4.295   3.775   1.727
 4180SOL    HW113439   4.349   3.858   1.740
 4180SOL    HW213440   4.353   3.703   1.689
 4181SOL     OW13441   0.391   1.106   6.733
 4181SOL    HW113442   0.358   1.012   6.720
 4181SOL    HW213443   0.457   1.107   6.809
 4182SOL     OW13444   5.486   1.305   3.333
 4182SOL    HW113445   5.495   1.292   3.431
 4182SOL    HW213446   5.496   1.218   3.286
 4183SOL     OW13447   1.238   1.690   1.344
 4183SOL    HW113448   1.323   1.693   1.397
 4183SOL    HW213449   1.260   1.683   1.247
 4184SOL     OW13450   4.659   5.491   0.331
 4184SOL    HW113451   4.700   5.460   0.417
 4184SOL    HW213452   4.559   5.492   0.341
 4185SOL     OW13453   6.966   0.357   4.217
 4185SOL    HW113454   0.014   0.425   4.229
 4185SOL    HW213455   6.977   0.311   4.129
 4186SOL     OW13456   2.944   4.288   0.956
 4186SOL    HW113457   2.899   4.279   1.045
 4186SOL    HW213458   2.881   4.335   0.893
 4187SOL     OW13459   4.346   3.946   6.881
 4187SOL    HW113460   4.274   3.963   6.948
 4187SOL    HW213461   4.408   4.024   6.878
 4188SOL     OW13462   4.844   6.623   4.595
 4188SOL    HW113463   4.928   6.607   4.647
 4188SOL    HW213464   4.867   6.643   4.500
 4189SOL     OW13465   2.234   2.422   3.943
 4189SOL    HW113466   2.290   2.458   4.018
 4189SOL    HW213467   2.200   2.331   3.968
 4190SOL     OW13468   3.206   0.217   1.327
 4190SOL    HW113469   3.274   0.174   1.267
 4190SOL    HW213470   3.175   0.303   1.287
 4191SOL     OW13471   6.398   1.830   2.218
 4191SOL    HW113472   6.358   1.859   2.305
 4191SOL    HW213473   6.354   1.880   2.143
 4192SOL     OW13474   6.391   1.569   2.933
 4192SOL    HW113475   6.428   1.662   2.935
 4192SOL    HW213476   6.303   1.569   2.887
 4193SOL     OW13477   1.524   0.142   1.982
 4193SOL    HW113478   1.614   0.166   1.946
 4193SOL    HW213479   1.535   0.080   2.059
 4194SOL     OW13480   0.448   0.748   4.442
 4194SOL    HW113481   0.433   0.668   4.500
 4194SOL    HW213482   0.362   0.776   4.400
 4195SOL     OW13483   4.756   0.752   2.172
 4195SOL    HW113484   4.853   0.753   2.145
 4195SOL    HW213485   4.704   0.806   2.106
 4196SOL     OW13486   4.526   2.557   3.553
 4196SOL    HW113487   4.452   2.623   3.552
 4196SOL    HW213488   4.570   2.554   3.463
 4197SOL     OW13489   4.390   4.639   3.882
 4197SOL    HW113490   4.452   4.687   3.944
 4197SOL    HW213491   4.298   4.676   3.892
 4198SOL     OW13492   5.734   3.617   5.819
 4198SOL    HW113493   5.696   3.657   5.735
 4198SOL    HW213494   5.660   3.578   5.874
 4199SOL     OW13495   3.086   4.230   5.321
 4199SOL    HW113496   3.045   4.165   5.257
 4199SOL    HW213497   3.149   4.182   5.382
 4200SOL     OW13498   2.300   0.078   6.150
 4200SOL    HW113499   2.305   0.177   6.158
 4200SOL    HW213500   2.246   0.041   6.225
 4201SOL     OW13501   5.648   6.274   4.303
 4201SOL    HW113502   5.585   6.341   4.263
 4201SOL    HW213503   5.735   6.276   4.253
 4202SOL     OW13504   5.089   4.326   4.200
 4202SOL    HW113505   5.122   4.257   4.263
 4202SOL    HW213506   5.136   4.412   4.217
 4203SOL     OW13507   5.490   5.743   3.707
 4203SOL    HW113508   5.582   5.735   3.746
 4203SOL    HW213509   5.490   5.706   3.614
 4204SOL     OW13510   3.398   3.837   0.698
 4204SOL    HW113511   3.311   3.868   0.736
 4204SOL    HW213512   3.433   3.761   0.753
 4205SOL     OW13513   2.720   5.449   2.985
 4205SOL    HW113514   2.716   5.437   3.084
 4205SOL    HW213515   2.706   5.360   2.940
 4206SOL     OW13516   5.833   6.753   4.363
 4206SOL    HW113517   5.892   6.742   4.283
 4206SOL    HW213518   5.865   6.831   4.417
 4207SOL     OW13519   1.090   0.610   1.359
 4207SOL    HW113520   1.063   0.533   1.301
 4207SOL    HW213521   1.010   0.646   1.406
 4208SOL     OW13522   0.797   3.311   1.314
 4208SOL    HW113523   0.846   3.397   1.317
 4208SOL    HW213524   0.727   3.315   1.242
 4209SOL     OW13525   2.890   0.291   4.918
 4209SOL    HW113526   2.915   0.387   4.911
 4209SOL    HW213527   2.853   0.272   5.009
 4210SOL     OW13528   5.013   2.504   0.585
 4210SOL    HW113529   5.098   2.523   0.635
 4210SOL    HW213530   5.008   2.407   0.562
 4211SOL     OW13531   4.756   4.179   3.377
 4211SOL    HW113532   4.839   4.196   3.430
 4211SOL    HW213533   4.755   4.083   3.347
 4212SOL     OW13534   6.457   7.020   2.422
 4212SOL    HW113535   6.416   6.967   2.348
 4212SOL    HW213536   6.452   0.093   2.401
 4213SOL     OW13537   0.920   0.645   2.263
 4213SOL    HW113538   0.859   0.589   2.320
 4213SOL    HW213539   0.909   0.741   2.287
 4214SOL     OW13540   1.641   3.615   4.608
 4214SOL    HW113541   1.590   3.613   4.694
 4214SOL    HW213542   1.580   3.646   4.534
 4215SOL     OW13543   0.679   5.279   4.675
 4215SOL    HW113544   0.766   5.326   4.660
 4215SOL    HW213545   0.630   5.322   4.751
 4216SOL     OW13546   1.699   3.391   5.414
 4216SOL    HW113547   1.637   3.468   5.398
 4216SOL    HW213548   1.731   3.356   5.326
 4217SOL     OW13549   6.885   0.391   3.435
 4217SOL    HW113550   6.821   0.430   3.369
 4217SOL    HW213551   6.890   0.451   3.515
 4218SOL     OW13552   3.515   6.708   3.019
 4218SOL    HW113553   3.582   6.708   2.944
 4218SOL    HW213554   3.423   6.708   2.981
 4219SOL     OW13555   4.855   6.281   3.479
 4219SOL    HW113556   4.943   6.328   3.476
 4219SOL    HW213557   4.859   6.205   3.543
 4220SOL     OW13558   0.504   3.420   3.155
 4220SOL    HW113559   0.557   3.373   3.225
 4220SOL    HW213560   0.406   3.404   3.170
 4221SOL     OW13561   5.391   5.511   6.161
 4221SOL    HW113562   5.354   5.435   6.107
 4221SOL    HW213563   5.356   5.505   6.254
 4222SOL     OW13564   3.967   2.654   0.196
 4222SOL    HW113565   4.052   2.608   0.169
 4222SOL    HW213566   3.989   2.745   0.232
 4223SOL     OW13567   3.841   3.986   2.641
 4223SOL    HW113568   3.807   3.976   2.548
 4223SOL    HW213569   3.767   4.015   2.701
 4224SOL     OW13570   4.249   2.263   4.911
 4224SOL    HW113571   4.187   2.191   4.941
 4224SOL    HW213572   4.231   2.346   4.964
 4225SOL     OW13573   5.421   0.419   4.885
 4225SOL    HW113574   5.330   0.452   4.913
 4225SOL    HW213575   5.414   0.380   4.793
 4226SOL     OW13576   1.540   1.185   3.429
 4226SOL    HW113577   1.512   1.281   3.427
 4226SOL    HW213578   1.516   1.145   3.517
 4227SOL     OW13579   5.920   4.348   0.446
 4227SOL    HW113580   5.908   4.337   0.348
 4227SOL    HW213581   5.908   4.444   0.471
 4228SOL     OW13582   6.274   5.514   2.391
 4228SOL    HW113583   6.188   5.482   2.351
 4228SOL    HW213584   6.268   5.506   2.491
 4229SOL     OW13585   4.643   4.775   5.706
 4229SOL    HW113586   4.570   4.838   5.680
 4229SOL    HW213587   4.656   4.778   5.805
 4230SOL     OW13588   3.185   0.124   4.400
 4230SOL    HW113589   3.231   0.110   4.313
 4230SOL    HW213590   3.252   0.153   4.469
 4231SOL     OW13591   3.941   6.423   5.657
 4231SOL    HW113592   4.037   6.398   5.656
 4231SOL    HW213593   3.921   6.479   5.577
 4232SOL     OW13594   2.257   3.898   1.969
 4232SOL    HW113595   2.199   3.833   1.920
 4232SOL    HW213596   2.332   3.927   1.910
 4233SOL     OW13597   5.578   6.951   1.090
 4233SOL    HW113598   5.674   6.922   1.099
 4233SOL    HW213599   5.535   6.900   1.016
 4234SOL     OW13600   3.227   4.043   5.464
 4234SOL    HW113601   3.175   3.960   5.444
 4234SOL    HW213602   3.319   4.018   5.494
 4235SOL     OW13603   6.724   3.440   5.765
 4235SOL    HW113604   6.738   3.488   5.851
 4235SOL    HW213605   6.757   3.346   5.774
 4236SOL     OW13606   1.222   4.099   4.786
 4236SOL    HW113607   1.220   4.079   4.688
 4236SOL    HW213608   1.308   4.145   4.809
 4237SOL     OW13609   5.178   4.225   4.434
 4237SOL    HW113610   5.222   4.283   4.503
 4237SOL    HW213611   5.081   4.212   4.458
 4238SOL     OW13612   4.090   5.157   3.757
 4238SOL    HW113613   4.098   5.150   3.658
 4238SOL    HW213614   3.994   5.170   3.783
 4239SOL     OW13615   4.990   5.657   5.887
 4239SOL    HW113616   4.978   5.584   5.955
 4239SOL    HW213617   4.905   5.709   5.878
 4240SOL     OW13618   2.711   4.504   6.377
 4240SOL    HW113619   2.622   4.470   6.409
 4240SOL    HW213620   2.713   4.604   6.384
 4241SOL     OW13621   3.560   0.794   7.002
 4241SOL    HW113622   3.616   0.823   0.056
 4241SOL    HW213623   3.555   0.695   7.000
 4242SOL     OW13624   1.355   0.190   2.268
 4242SOL    HW113625   1.332   0.209   2.173
 4242SOL    HW213626   1.416   0.261   2.303
 4243SOL     OW13627   1.585   3.059   3.562
 4243SOL    HW113628   1.611   3.007   3.643
 4243SOL    HW213629   1.509   3.013   3.516
 4244SOL     OW13630   3.519   6.186   1.533
 4244SOL    HW113631   3.580   6.117   1.573
 4244SOL    HW213632   3.433   6.188   1.583
 4245SOL     OW13633   6.747   3.127   2.043
 4245SOL    HW113634   6.798   3.088   1.967
 4245SOL    HW213635   6.674   3.064   2.070
 4246SOL     OW13636   4.279   2.363   4.128
 4246SOL    HW113637   4.181   2.356   4.147
 4246SOL    HW213638   4.330   2.313   4.198
 4247SOL     OW13639   1.794   4.745   6.304
 4247SOL    HW113640   1.800   4.653   6.343
 4247SOL    HW213641   1.834   4.811   6.367
 4248SOL     OW13642   1.615   0.264   2.927
 4248SOL    HW113643   1.616   0.346   2.868
 4248SOL    HW213644   1.594   0.184   2.871
 4249SOL     OW13645   6.342   6.866   5.340
 4249SOL    HW113646   6.425   6.899   5.295
 4249SOL    HW213647   6.312   6.782   5.295
 4250SOL     OW13648   6.285   5.694   4.224
 4250SOL    HW113649   6.240   5.689   4.313
 4250SOL    HW213650   6.338   5.611   4.208
 4251SOL     OW13651   6.168   2.505   5.443
 4251SOL    HW113652   6.194   2.560   5.364
 4251SOL    HW213653   6.173   2.408   5.421
 4252SOL     OW13654   0.235   6.431   6.956
 4252SOL    HW113655   0.328   6.406   6.980
 4252SOL    HW213656   0.207   6.511   7.008
 4253SOL     OW13657   4.456   5.620   2.810
 4253SOL    HW113658   4.480   5.524   2.819
 4253SOL    HW213659   4.413   5.652   2.895
 4254SOL     OW13660   2.164   3.040   6.207
 4254SOL    HW113661   2.140   3.073   6.116
 4254SOL    HW213662   2.081   3.019   6.258
 4255SOL     OW13663   1.239   3.395   3.318
 4255SOL    HW113664   1.278   3.417   3.229
 4255SOL    HW213665   1.312   3.372   3.382
 4256SOL     OW13666   0.563   6.076   1.281
 4256SOL    HW113667   0.488   6.095   1.344
 4256SOL    HW213668   0.542   5.994   1.228
 4257SOL     OW13669   6.444   6.923   4.139
 4257SOL    HW113670   6.377   6.889   4.073
 4257SOL    HW213671   6.514   6.976   4.091
 4258SOL     OW13672   3.221   5.658   0.903
 4258SOL    HW113673   3.163   5.737   0.886
 4258SOL    HW213674   3.170   5.574   0.886
 4259SOL     OW13675   1.322   0.494   0.422
 4259SOL    HW113676   1.391   0.525   0.487
 4259SOL    HW213677   1.244   0.557   0.425
 4260SOL     OW13678   5.293   1.247   4.573
 4260SOL    HW113679   5.286   1.299   4.658
 4260SOL    HW213680   5.374   1.188   4.577
 4261SOL     OW13681   2.733   6.188   4.366
 4261SOL    HW113682   2.754   6.286   4.365
 4261SOL    HW213683   2.793   6.140   4.303
 4262SOL     OW13684   2.467   4.418   6.477
 4262SOL    HW113685   2.422   4.386   6.560
 4262SOL    HW213686   2.435   4.363   6.399
 4263SOL     OW13687   1.552   2.126   3.642
 4263SOL    HW113688   1.647   2.156   3.645
 4263SOL    HW213689   1.529   2.078   3.727
 4264SOL     OW13690   4.843   1.675   5.443
 4264SOL    HW113691   4.806   1.732   5.370
 4264SOL    HW213692   4.942   1.690   5.450
 4265SOL     OW13693   2.484   0.157   5.919
 4265SOL    HW113694   2.445   0.113   5.999
 4265SOL    HW213695   2.544   0.092   5.872
 4266SOL     OW13696   1.600   5.094   1.558
 4266SOL    HW113697   1.630   5.164   1.493
 4266SOL    HW213698   1.574   5.137   1.644
 4267SOL     OW13699   1.399   4.439   4.525
 4267SOL    HW113700   1.473   4.378   4.495
 4267SOL    HW213701   1.315   4.386   4.536
 4268SOL     OW13702   1.169   4.090   6.533
 4268SOL    HW113703   1.260   4.128   6.546
 4268SOL    HW213704   1.107   4.162   6.501
 4269SOL     OW13705   2.870   1.439   5.089
 4269SOL    HW113706   2.913   1.501   5.155
 4269SOL    HW213707   2.865   1.347   5.128
 4270SOL     OW13708   3.522   2.980   7.010
 4270SOL    HW113709   3.519   2.880   7.005
 4270SOL    HW213710   3.580   3.015   6.936
 4271SOL     OW13711   6.617   1.033   1.398
 4271SOL    HW113712   6.679   0.965   1.437
 4271SOL    HW213713   6.532   0.987   1.369
 4272SOL     OW13714   6.807   0.933   6.574
 4272SOL    HW113715   6.897   0.954   6.613
 4272SOL    HW213716   6.736   0.957   6.640
 4273SOL     OW13717   3.008   6.147   4.514
 4273SOL    HW113718   2.921   6.194   4.500
 4273SOL    HW213719   3.042   6.112   4.427
 4274SOL     OW13720   6.786   1.402   2.213
 4274SOL    HW113721   6.863   1.435   2.158
 4274SOL    HW213722   6.737   1.481   2.252
 4275SOL     OW13723   0.292   2.306   3.349
 4275SOL    HW113724   0.209   2.308   3.405
 4275SOL    HW213725   0.362   2.363   3.391
 4276SOL     OW13726   2.075   6.198   3.129
 4276SOL    HW113727   2.086   6.235   3.036
 4276SOL    HW213728   2.161   6.158   3.159
 4277SOL     OW13729   6.655   5.548   3.043
 4277SOL    HW113730   6.666   5.603   2.960
 4277SOL    HW213731   6.600   5.598   3.109
 4278SOL     OW13732   1.248   6.733   1.373
 4278SOL    HW113733   1.261   6.828   1.347
 4278SOL    HW213734   1.257   6.724   1.473
 4279SOL     OW13735   1.191   1.772   3.974
 4279SOL    HW113736   1.211   1.758   3.877
 4279SOL    HW213737   1.151   1.689   4.012
 4280SOL     OW13738   2.111   6.550   6.411
 4280SOL    HW113739   2.145   6.496   6.334
 4280SOL    HW213740   2.013   6.566   6.401
 4281SOL     OW13741   5.516   5.903   3.128
 4281SOL    HW113742   5.594   5.843   3.114
 4281SOL    HW213743   5.435   5.864   3.084
 4282SOL     OW13744   4.423   4.993   1.689
 4282SOL    HW113745   4.466   4.982   1.779
 4282SOL    HW213746   4.338   5.045   1.699
 4283SOL     OW13747   4.847   1.629   4.423
 4283SOL    HW113748   4.879   1.535   4.411
 4283SOL    HW213749   4.761   1.627   4.475
 4284SOL     OW13750   4.690   5.179   6.185
 4284SOL    HW113751   4.710   5.187   6.087
 4284SOL    HW213752   4.592   5.163   6.198
 4285SOL     OW13753   3.585   1.270   6.117
 4285SOL    HW113754   3.538   1.227   6.040
 4285SOL    HW213755   3.546   1.236   6.203
 4286SOL     OW13756   6.015   0.463   6.503
 4286SOL    HW113757   5.988   0.419   6.417
 4286SOL    HW213758   6.004   0.562   6.494
 4287SOL     OW13759   3.598   0.742   1.115
 4287SOL    HW113760   3.620   0.735   1.212
 4287SOL    HW213761   3.499   0.741   1.103
 4288SOL     OW13762   0.066   6.008   2.028
 4288SOL    HW113763   0.084   5.911   2.013
 4288SOL    HW213764   0.132   6.045   2.093
 4289SOL     OW13765   0.328   4.895   4.726
 4289SOL    HW113766   0.369   4.971   4.675
 4289SOL    HW213767   0.309   4.819   4.664
 4290SOL     OW13768   0.349   1.273   3.090
 4290SOL    HW113769   0.408   1.325   3.029
 4290SOL    HW213770   0.256   1.308   3.084
 4291SOL     OW13771   3.952   4.357   6.411
 4291SOL    HW113772   3.878   4.290   6.418
 4291SOL    HW213773   3.987   4.378   6.502
 4292SOL     OW13774   6.340   1.453   1.901
 4292SOL    HW113775   6.415   1.389   1.884
 4292SOL    HW213776   6.306   1.440   1.995
 4293SOL     OW13777   3.795   2.899   6.805
 4293SOL    HW113778   3.704   2.857   6.798
 4293SOL    HW213779   3.864   2.835   6.770
 4294SOL     OW13780   2.654   1.643   6.609
 4294SOL    HW113781   2.558   1.623   6.588
 4294SOL    HW213782   2.676   1.610   6.701
 4295SOL     OW13783   4.307   6.099   2.936
 4295SOL    HW113784   4.259   6.014   2.915
 4295SOL    HW213785   4.392   6.103   2.883
 4296SOL     OW13786   2.490   6.565   2.815
 4296SOL    HW113787   2.558   6.586   2.885
 4296SOL    HW213788   2.531   6.506   2.746
 4297SOL     OW13789   5.299   5.555   0.400
 4297SOL    HW113790   5.284   5.467   0.444
 4297SOL    HW213791   5.211   5.592   0.369
 4298SOL     OW13792   1.836   0.277   0.807
 4298SOL    HW113793   1.904   0.348   0.787
 4298SOL    HW213794   1.817   0.225   0.724
 4299SOL     OW13795   0.983   2.608   6.994
 4299SOL    HW113796   0.960   2.588   0.066
 4299SOL    HW213797   0.970   2.526   6.939
 4300SOL     OW13798   3.076   0.068   1.624
 4300SOL    HW113799   3.073   7.011   1.683
 4300SOL    HW213800   3.126   0.047   1.541
 4301SOL     OW13801   2.397   5.961   6.901
 4301SOL    HW113802   2.309   5.999   6.872
 4301SOL    HW213803   2.383   5.873   6.946
 4302SOL     OW13804   2.706   4.849   5.701
 4302SOL    HW113805   2.669   4.876   5.612
 4302SOL    HW213806   2.725   4.751   5.701
 4303SOL     OW13807   5.043   5.744   3.287
 4303SOL    HW113808   5.110   5.788   3.346
 4303SOL    HW213809   5.066   5.647   3.278
 4304SOL     OW13810   3.250   3.951   1.576
 4304SOL    HW113811   3.282   3.936   1.669
 4304SOL    HW213812   3.253   4.049   1.555
 4305SOL     OW13813   1.067   6.446   6.022
 4305SOL    HW113814   1.091   6.452   5.925
 4305SOL    HW213815   0.985   6.501   6.039
 4306SOL     OW13816   5.515   4.215   4.890
 4306SOL    HW113817   5.471   4.298   4.857
 4306SOL    HW213818   5.481   4.136   4.838
 4307SOL     OW13819   0.451   0.910   5.762
 4307SOL    HW113820   0.547   0.882   5.766
 4307SOL    HW213821   0.393   0.830   5.750
 4308SOL     OW13822   4.905   5.770   6.435
 4308SOL    HW113823   4.870   5.855   6.474
 4308SOL    HW213824   4.849   5.693   6.468
 4309SOL     OW13825   1.297   1.034   0.222
 4309SOL    HW113826   1.394   1.048   0.204
 4309SOL    HW213827   1.253   0.996   0.141
 4310SOL     OW13828   6.599   2.245   2.820
 4310SOL    HW113829   6.592   2.342   2.797
 4310SOL    HW213830   6.661   2.234   2.898
 4311SOL     OW13831   0.626   6.957   1.710
 4311SOL    HW113832   0.717   6.987   1.737
 4311SOL    HW213833   0.629   6.919   1.617
 4312SOL     OW13834   6.691   4.519   2.274
 4312SOL    HW113835   6.724   4.506   2.368
 4312SOL    HW213836   6.645   4.608   2.268
 4313SOL     OW13837   0.135   2.894   6.531
 4313SOL    HW113838   0.086   2.925   6.449
 4313SOL    HW213839   0.101   2.944   6.611
 4314SOL     OW13840   0.986   1.492   6.315
 4314SOL    HW113841   0.902   1.529   6.354
 4314SOL    HW213842   0.963   1.426   6.244
 4315SOL     OW13843   2.473   1.087   5.129
 4315SOL    HW113844   2.477   1.040   5.041
 4315SOL    HW213845   2.499   1.182   5.118
 4316SOL     OW13846   4.820   6.038   1.588
 4316SOL    HW113847   4.800   6.037   1.686
 4316SOL    HW213848   4.916   6.014   1.573
 4317SOL     OW13849   4.782   0.678   6.054
 4317SOL    HW113850   4.825   0.633   5.976
 4317SOL    HW213851   4.710   0.740   6.021
 4318SOL     OW13852   0.871   6.647   4.278
 4318SOL    HW113853   0.926   6.628   4.197
 4318SOL    HW213854   0.931   6.670   4.354
 4319SOL     OW13855   1.234   4.202   2.530
 4319SOL    HW113856   1.224   4.200   2.630
 4319SOL    HW213857   1.170   4.269   2.491
 4320SOL     OW13858   3.517   0.127   0.443
 4320SOL    HW113859   3.516   0.145   0.542
 4320SOL    HW213860   3.425   0.105   0.412
 4321SOL     OW13861   6.693   6.652   3.300
 4321SOL    HW113862   6.653   6.735   3.261
 4321SOL    HW213863   6.620   6.597   3.342
 4322SOL     OW13864   1.490   2.628   5.157
 4322SOL    HW113865   1.517   2.679   5.239
 4322SOL    HW213866   1.542   2.543   5.152
 4323SOL     OW13867   4.551   4.875   0.315
 4323SOL    HW113868   4.459   4.834   0.317
 4323SOL    HW213869   4.568   4.915   0.226
 4324SOL     OW13870   0.935   4.794   5.480
 4324SOL    HW113871   0.879   4.810   5.561
 4324SOL    HW213872   0.942   4.696   5.463
 4325SOL     OW13873   2.082   6.926   2.355
 4325SOL    HW113874   2.111   6.876   2.436
 4325SOL    HW213875   2.155   6.988   2.326
 4326SOL     OW13876   5.086   2.000   1.748
 4326SOL    HW113877   5.118   1.912   1.715
 4326SOL    HW213878   5.041   1.988   1.836
 4327SOL     OW13879   2.593   5.674   3.663
 4327SOL    HW113880   2.532   5.608   3.621
 4327SOL    HW213881   2.677   5.682   3.608
 4328SOL     OW13882   6.605   0.192   4.130
 4328SOL    HW113883   6.630   0.112   4.184
 4328SOL    HW213884   6.620   0.275   4.184
 4329SOL     OW13885   6.658   2.337   6.757
 4329SOL    HW113886   6.582   2.387   6.717
 4329SOL    HW213887   6.647   2.333   6.856
 4330SOL     OW13888   2.753   5.384   4.543
 4330SOL    HW113889   2.835   5.426   4.504
 4330SOL    HW213890   2.688   5.455   4.570
 4331SOL     OW13891   5.861   1.954   2.051
 4331SOL    HW113892   5.847   1.966   2.149
 4331SOL    HW213893   5.788   2.000   2.001
 4332SOL     OW13894   1.227   5.270   1.897
 4332SOL    HW113895   1.225   5.342   1.967
 4332SOL    HW213896   1.136   5.229   1.890
 4333SOL     OW13897   4.402   2.317   6.230
 4333SOL    HW113898   4.421   2.309   6.132
 4333SOL    HW213899   4.482   2.354   6.277
 4334SOL     OW13900   6.958   2.834   4.331
 4334SOL    HW113901   6.863   2.864   4.343
 4334SOL    HW213902   7.019   2.898   4.379
 4335SOL     OW13903   2.676   3.849   1.637
 4335SOL    HW113904   2.691   3.846   1.538
 4335SOL    HW213905   2.726   3.774   1.680
 4336SOL     OW13906   2.690   6.029   5.301
 4336SOL    HW113907   2.614   5.964   5.296
 4336SOL    HW213908   2.679   6.098   5.229
 4337SOL     OW13909   0.994   5.205   3.854
 4337SOL    HW113910   0.963   5.195   3.948
 4337SOL    HW213911   0.915   5.202   3.792
 4338SOL     OW13912   3.247   2.271   5.874
 4338SOL    HW113913   3.170   2.237   5.929
 4338SOL    HW213914   3.258   2.214   5.793
 4339SOL     OW13915   3.961   4.862   5.876
 4339SOL    HW113916   4.035   4.796   5.888
 4339SOL    HW213917   3.964   4.899   5.782
 4340SOL     OW13918   6.480   3.977   1.660
 4340SOL    HW113919   6.404   3.935   1.610
 4340SOL    HW213920   6.462   4.074   1.673
 4341SOL     OW13921   6.453   6.137   1.485
 4341SOL    HW113922   6.431   6.048   1.525
 4341SOL    HW213923   6.395   6.208   1.527
 4342SOL     OW13924   5.034   3.722   2.479
 4342SOL    HW113925   5.080   3.809   2.497
 4342SOL    HW213926   5.002   3.719   2.384
 4343SOL     OW13927   3.828   6.643   5.842
 4343SOL    HW113928   3.887   6.565   5.818
 4343SOL    HW213929   3.819   6.703   5.762
 4344SOL     OW13930   6.998   3.779   3.005
 4344SOL    HW113931   0.006   3.868   2.975
 4344SOL    HW213932   6.993   3.717   2.927
 4345SOL     OW13933   3.262   3.271   2.846
 4345SOL    HW113934   3.245   3.227   2.758
 4345SOL    HW213935   3.256   3.203   2.919
 4346SOL     OW13936   1.203   2.897   2.615
 4346SOL    HW113937   1.129   2.853   2.564
 4346SOL    HW213938   1.167   2.931   2.702
 4347SOL     OW13939   6.858   5.491   0.425
 4347SOL    HW113940   6.942   5.478   0.478
 4347SOL    HW213941   6.833   5.404   0.381
 4348SOL     OW13942   6.050   5.108   4.566
 4348SOL    HW113943   5.969   5.079   4.516
 4348SOL    HW213944   6.028   5.119   4.663
 4349SOL     OW13945   0.368   3.257   4.405
 4349SOL    HW113946   0.293   3.230   4.344
 4349SOL    HW213947   0.340   3.244   4.500
 4350SOL     OW13948   3.347   1.040   3.962
 4350SOL    HW113949   3.266   1.098   3.973
 4350SOL    HW213950   3.384   1.017   4.052
 4351SOL     OW13951   0.706   5.841   0.433
 4351SOL    HW113952   0.610   5.852   0.409
 4351SOL    HW213953   0.754   5.796   0.357
 4352SOL     OW13954   3.221   4.721   1.437
 4352SOL    HW113955   3.147   4.655   1.424
 4352SOL    HW213956   3.217   4.757   1.531
 4353SOL     OW13957   2.472   2.862   0.972
 4353SOL    HW113958   2.466   2.824   0.880
 4353SOL    HW213959   2.562   2.903   0.984
 4354SOL     OW13960   5.871   6.553   2.843
 4354SOL    HW113961   5.878   6.568   2.941
 4354SOL    HW213962   5.800   6.612   2.805
 4355SOL     OW13963   1.741   5.166   2.545
 4355SOL    HW113964   1.743   5.160   2.645
 4355SOL    HW213965   1.647   5.155   2.513
 4356SOL     OW13966   6.288   2.773   5.356
 4356SOL    HW113967   6.233   2.851   5.387
 4356SOL    HW213968   6.261   2.747   5.263
 4357SOL     OW13969   5.611   0.396   1.932
 4357SOL    HW113970   5.667   0.451   1.994
 4357SOL    HW213971   5.533   0.449   1.901
 4358SOL     OW13972   3.088   0.298   0.441
 4358SOL    HW113973   3.007   0.348   0.411
 4358SOL    HW213974   3.109   0.323   0.536
 4359SOL     OW13975   2.994   1.827   0.837
 4359SOL    HW113976   2.980   1.748   0.777
 4359SOL    HW213977   2.992   1.797   0.932
 4360SOL     OW13978   2.419   4.738   4.007
 4360SOL    HW113979   2.405   4.714   3.911
 4360SOL    HW213980   2.365   4.678   4.065
 4361SOL     OW13981   6.968   1.944   0.199
 4361SOL    HW113982   7.010   1.891   0.125
 4361SOL    HW213983   0.000   2.025   0.216
 4362SOL     OW13984   1.064   5.438   3.379
 4362SOL    HW113985   1.103   5.512   3.324
 4362SOL    HW213986   1.013   5.375   3.320
 4363SOL     OW13987   4.084   1.077   2.595
 4363SOL    HW113988   4.122   1.029   2.516
 4363SOL    HW213989   4.125   1.168   2.602
 4364SOL     OW13990   3.989   3.171   2.887
 4364SOL    HW113991   4.085   3.192   2.871
 4364SOL    HW213992   3.940   3.256   2.908
 4365SOL     OW13993   1.693   1.099   1.244
 4365SOL    HW113994   1.749   1.045   1.306
 4365SOL    HW213995   1.715   1.196   1.253
 4366SOL     OW13996   4.626   6.961   4.740
 4366SOL    HW113997   4.702   7.019   4.709
 4366SOL    HW213998   4.581   7.005   4.818
 4367SOL     OW13999   3.042   6.281   3.087
 4367SOL    HW114000   3.058   6.293   3.185
 4367SOL    HW214001   2.950   6.312   3.064
 4368SOL     OW14002   4.775   4.142   3.707
 4368SOL    HW114003   4.846   4.202   3.670
 4368SOL    HW214004   4.697   4.141   3.645
 4369SOL     OW14005   5.281   3.989   3.620
 4369SOL    HW114006   5.195   4.001   3.570
 4369SOL    HW214007   5.358   4.004   3.558
 4370SOL     OW14008   3.829   4.474   1.723
 4370SOL    HW114009   3.771   4.395   1.743
 4370SOL    HW214010   3.781   4.536   1.660
 4371SOL     OW14011   2.151   0.689   1.635
 4371SOL    HW114012   2.170   0.756   1.564
 4371SOL    HW214013   2.237   0.661   1.678
 4372SOL     OW14014   1.540   3.284   4.743
 4372SOL    HW114015   1.611   3.294   4.813
 4372SOL    HW214016   1.464   3.230   4.779
 4373SOL     OW14017   3.120   0.960   6.395
 4373SOL    HW114018   3.093   0.868   6.368
 4373SOL    HW214019   3.202   0.956   6.452
 4374SOL     OW14020   2.665   6.733   0.739
 4374SOL    HW114021   2.635   6.826   0.756
 4374SOL    HW214022   2.697   6.725   0.645
 4375SOL     OW14023   4.538   1.586   5.248
 4375SOL    HW114024   4.521   1.563   5.152
 4375SOL    HW214025   4.522   1.684   5.262
 4376SOL     OW14026   2.242   6.034   6.535
 4376SOL    HW114027   2.172   5.995   6.595
 4376SOL    HW214028   2.267   6.125   6.568
 4377SOL     OW14029   5.464   0.063   6.183
 4377SOL    HW114030   5.500   6.994   6.186
 4377SOL    HW214031   5.367   0.060   6.158
 4378SOL     OW14032   2.761   5.436   2.353
 4378SOL    HW114033   2.825   5.386   2.412
 4378SOL    HW214034   2.808   5.511   2.308
 4379SOL     OW14035   1.026   0.217   1.458
 4379SOL    HW114036   1.010   0.276   1.379
 4379SOL    HW214037   0.960   0.239   1.530
 4380SOL     OW14038   2.029   4.969   4.477
 4380SOL    HW114039   2.016   4.875   4.510
 4380SOL    HW214040   2.115   5.005   4.512
 4381SOL     OW14041   4.937   6.341   5.452
 4381SOL    HW114042   5.010   6.383   5.506
 4381SOL    HW214043   4.958   6.348   5.355
 4382SOL     OW14044   4.905   3.332   3.347
 4382SOL    HW114045   4.928   3.340   3.444
 4382SOL    HW214046   4.966   3.392   3.294
 4383SOL     OW14047   0.945   1.805   7.006
 4383SOL    HW114048   0.869   1.802   0.046
 4383SOL    HW214049   0.950   1.718   6.956
 4384SOL     OW14050   3.922   6.637   1.426
 4384SOL    HW114051   4.009   6.590   1.409
 4384SOL    HW214052   3.864   6.629   1.345
 4385SOL     OW14053   6.098   1.695   2.239
 4385SOL    HW114054   6.110   1.742   2.152
 4385SOL    HW214055   6.095   1.762   2.313
 4386SOL     OW14056   1.049   3.659   6.667
 4386SOL    HW114057   0.998   3.618   6.591
 4386SOL    HW214058   1.037   3.603   6.749
 4387SOL     OW14059   6.866   2.978   1.875
 4387SOL    HW114060   6.891   2.985   1.778
 4387SOL    HW214061   6.948   2.984   1.932
 4388SOL     OW14062   3.005   1.654   5.209
 4388SOL    HW114063   3.079   1.703   5.164
 4388SOL    HW214064   2.989   1.694   5.300
 4389SOL     OW14065   5.394   1.860   2.037
 4389SOL    HW114066   5.298   1.869   2.062
 4389SOL    HW214067   5.407   1.889   1.942
 4390SOL     OW14068   4.341   2.603   1.717
 4390SOL    HW114069   4.324   2.701   1.723
 4390SOL    HW214070   4.253   2.555   1.706
 4391SOL     OW14071   0.541   5.856   1.126
 4391SOL    HW114072   0.533   5.773   1.180
 4391SOL    HW214073   0.563   5.833   1.031
 4392SOL     OW14074   5.330   3.444   4.325
 4392SOL    HW114075   5.338   3.394   4.411
 4392SOL    HW214076   5.288   3.533   4.343
 4393SOL     OW14077   4.641   5.666   3.645
 4393SOL    HW114078   4.712   5.689   3.577
 4393SOL    HW214079   4.576   5.742   3.651
 4394SOL     OW14080   4.706   1.144   2.465
 4394SOL    HW114081   4.612   1.121   2.489
 4394SOL    HW214082   4.746   1.071   2.411
 4395SOL     OW14083   4.778   1.822   1.439
 4395SOL    HW114084   4.821   1.907   1.471
 4395SOL    HW214085   4.691   1.809   1.487
 4396SOL     OW14086   1.196   0.980   4.183
 4396SOL    HW114087   1.137   1.058   4.161
 4396SOL    HW214088   1.250   1.002   4.264
 4397SOL     OW14089   6.609   0.300   6.520
 4397SOL    HW114090   6.639   0.244   6.443
 4397SOL    HW214091   6.555   0.378   6.487
 4398SOL     OW14092   0.157   4.819   4.177
 4398SOL    HW114093   0.095   4.791   4.105
 4398SOL    HW214094   0.133   4.911   4.209
 4399SOL     OW14095   2.764   1.417   1.424
 4399SOL    HW114096   2.743   1.327   1.464
 4399SOL    HW214097   2.694   1.440   1.356
 4400SOL     OW14098   3.565   5.706   3.919
 4400SOL    HW114099   3.470   5.697   3.890
 4400SOL    HW214100   3.606   5.786   3.874
 4401SOL     OW14101   5.583   6.727   4.260
 4401SOL    HW114102   5.525   6.685   4.330
 4401SOL    HW214103   5.670   6.754   4.300
 4402SOL     OW14104   6.601   0.747   3.301
 4402SOL    HW114105   6.547   0.804   3.363
 4402SOL    HW214106   6.675   0.801   3.261
 4403SOL     OW14107   0.965   6.762   2.784
 4403SOL    HW114108   0.944   6.726   2.875
 4403SOL    HW214109   0.881   6.771   2.731
 4404SOL     OW14110   1.423   4.153   3.543
 4404SOL    HW114111   1.495   4.091   3.511
 4404SOL    HW214112   1.365   4.106   3.610
 4405SOL     OW14113   3.589   4.140   6.604
 4405SOL    HW114114   3.538   4.222   6.632
 4405SOL    HW214115   3.525   4.066   6.584
 4406SOL     OW14116   5.562   3.571   1.909
 4406SOL    HW114117   5.622   3.513   1.852
 4406SOL    HW214118   5.468   3.563   1.876
 4407SOL     OW14119   0.211   6.674   0.051
 4407SOL    HW114120   0.129   6.703   0.002
 4407SOL    HW214121   0.287   6.736   0.029
 4408SOL     OW14122   5.081   6.277   0.690
 4408SOL    HW114123   5.111   6.195   0.642
 4408SOL    HW214124   5.012   6.252   0.759
 4409SOL     OW14125   2.344   1.324   2.238
 4409SOL    HW114126   2.259   1.377   2.248
 4409SOL    HW214127   2.360   1.304   2.141
 4410SOL     OW14128   2.640   5.652   1.433
 4410SOL    HW114129   2.722   5.612   1.472
 4410SOL    HW214130   2.580   5.579   1.399
 4411SOL     OW14131   3.718   2.991   2.518
 4411SOL    HW114132   3.772   2.908   2.529
 4411SOL    HW214133   3.621   2.969   2.519
 4412SOL     OW14134   3.663   1.792   6.198
 4412SOL    HW114135   3.691   1.856   6.270
 4412SOL    HW214136   3.645   1.702   6.237
 4413SOL     OW14137   4.105   5.556   4.683
 4413SOL    HW114138   4.014   5.520   4.704
 4413SOL    HW214139   4.108   5.588   4.588
 4414SOL     OW14140   3.309   5.585   1.709
 4414SOL    HW114141   3.310   5.574   1.610
 4414SOL    HW214142   3.289   5.497   1.752
 4415SOL     OW14143   4.630   2.153   1.092
 4415SOL    HW114144   4.658   2.236   1.043
 4415SOL    HW214145   4.642   2.073   1.033
 4416SOL     OW14146   3.678   1.287   3.732
 4416SOL    HW114147   3.754   1.269   3.670
 4416SOL    HW214148   3.608   1.217   3.719
 4417SOL     OW14149   0.698   0.568   0.776
 4417SOL    HW114150   0.680   0.635   0.848
 4417SOL    HW214151   0.622   0.503   0.771
 4418SOL     OW14152   4.128   0.401   3.625
 4418SOL    HW114153   4.051   0.380   3.685
 4418SOL    HW214154   4.131   0.500   3.609
 4419SOL     OW14155   0.168   5.502   0.441
 4419SOL    HW114156   0.227   5.422   0.430
 4419SOL    HW214157   0.191   5.569   0.370
 4420SOL     OW14158   4.226   0.610   6.816
 4420SOL    HW114159   4.242   0.707   6.831
 4420SOL    HW214160   4.253   0.559   6.898
 4421SOL     OW14161   1.573   1.954   3.454
 4421SOL    HW114162   1.613   1.962   3.363
 4421SOL    HW214163   1.580   2.042   3.502
 4422SOL     OW14164   2.061   4.000   6.001
 4422SOL    HW114165   2.024   3.944   5.927
 4422SOL    HW214166   2.123   4.069   5.964
 4423SOL     OW14167   6.828   1.354   6.604
 4423SOL    HW114168   6.863   1.390   6.690
 4423SOL    HW214169   6.731   1.329   6.615
 4424SOL     OW14170   0.072   6.574   3.801
 4424SOL    HW114171   0.111   6.508   3.866
 4424SOL    HW214172   7.005   6.600   3.832
 4425SOL     OW14173   4.454   4.480   0.410
 4425SOL    HW114174   4.409   4.516   0.328
 4425SOL    HW214175   4.459   4.380   0.404
 4426SOL     OW14176   0.718   0.307   4.937
 4426SOL    HW114177   0.806   0.353   4.928
 4426SOL    HW214178   0.686   0.279   4.847
 4427SOL     OW14179   1.283   6.373   3.272
 4427SOL    HW114180   1.305   6.385   3.369
 4427SOL    HW214181   1.325   6.288   3.239
 4428SOL     OW14182   2.959   5.935   3.343
 4428SOL    HW114183   2.882   5.949   3.280
 4428SOL    HW214184   3.042   5.918   3.290
 4429SOL     OW14185   3.634   0.754   3.106
 4429SOL    HW114186   3.601   0.838   3.148
 4429SOL    HW214187   3.606   0.751   3.011
 4430SOL     OW14188   1.447   0.359   1.589
 4430SOL    HW114189   1.404   0.329   1.674
 4430SOL    HW214190   1.394   0.434   1.550
 4431SOL     OW14191   1.840   2.093   3.567
 4431SOL    HW114192   1.812   2.066   3.475
 4431SOL    HW214193   1.902   2.171   3.561
 4432SOL     OW14194   2.926   3.418   4.052
 4432SOL    HW114195   2.937   3.319   4.048
 4432SOL    HW214196   2.920   3.455   3.959
 4433SOL     OW14197   6.919   0.574   3.636
 4433SOL    HW114198   6.829   0.615   3.651
 4433SOL    HW214199   6.970   0.629   3.570
 4434SOL     OW14200   5.150   2.106   4.448
 4434SOL    HW114201   5.077   2.053   4.491
 4434SOL    HW214202   5.113   2.155   4.369
 4435SOL     OW14203   3.404   3.143   2.386
 4435SOL    HW114204   3.404   3.063   2.325
 4435SOL    HW214205   3.417   3.226   2.331
 4436SOL     OW14206   4.923   0.654   0.437
 4436SOL    HW114207   4.917   0.719   0.512
 4436SOL    HW214208   4.839   0.656   0.384
 4437SOL     OW14209   3.334   0.484   4.436
 4437SOL    HW114210   3.294   0.476   4.344
 4437SOL    HW214211   3.414   0.545   4.432
 4438SOL     OW14212   3.690   3.804   6.461
 4438SOL    HW114213   3.645   3.749   6.532
 4438SOL    HW214214   3.747   3.746   6.404
 4439SOL     OW14215   2.570   4.922   2.430
 4439SOL    HW114216   2.590   4.988   2.358
 4439SOL    HW214217   2.471   4.912   2.440
 4440SOL     OW14218   6.883   0.394   6.545
 4440SOL    HW114219   6.859   0.354   6.456
 4440SOL    HW214220   6.804   0.391   6.606
 4441SOL     OW14221   5.589   2.326   3.691
 4441SOL    HW114222   5.524   2.396   3.719
 4441SOL    HW214223   5.574   2.243   3.745
 4442SOL     OW14224   2.099   6.474   2.178
 4442SOL    HW114225   2.041   6.441   2.252
 4442SOL    HW214226   2.148   6.556   2.208
 4443SOL     OW14227   2.587   1.605   5.903
 4443SOL    HW114228   2.497   1.572   5.932
 4443SOL    HW214229   2.637   1.531   5.859
 4444SOL     OW14230   5.446   0.786   2.706
 4444SOL    HW114231   5.373   0.846   2.738
 4444SOL    HW214232   5.455   0.794   2.607
 4445SOL     OW14233   1.649   1.296   6.171
 4445SOL    HW114234   1.602   1.365   6.117
 4445SOL    HW214235   1.748   1.306   6.160
 4446SOL     OW14236   5.697   5.817   3.992
 4446SOL    HW114237   5.604   5.848   3.971
 4446SOL    HW214238   5.712   5.824   4.091
 4447SOL     OW14239   4.929   3.375   5.064
 4447SOL    HW114240   4.925   3.303   5.133
 4447SOL    HW214241   4.860   3.444   5.084
 4448SOL     OW14242   2.870   2.682   6.386
 4448SOL    HW114243   2.848   2.640   6.299
 4448SOL    HW214244   2.840   2.623   6.461
 4449SOL     OW14245   0.784   1.408   5.226
 4449SOL    HW114246   0.827   1.349   5.294
 4449SOL    HW214247   0.696   1.440   5.260
 4450SOL     OW14248   4.084   3.771   3.373
 4450SOL    HW114249   4.027   3.843   3.334
 4450SOL    HW214250   4.104   3.792   3.469
 4451SOL     OW14251   6.985   4.267   1.665
 4451SOL    HW114252   7.022   4.336   1.727
 4451SOL    HW214253   6.933   4.199   1.718
 4452SOL     OW14254   6.367   4.588   6.232
 4452SOL    HW114255   6.365   4.639   6.146
 4452SOL    HW214256   6.407   4.497   6.216
 4453SOL     OW14257   5.135   2.003   1.430
 4453SOL    HW114258   5.197   1.934   1.469
 4453SOL    HW214259   5.128   2.080   1.493
 4454SOL     OW14260   5.659   2.938   1.398
 4454SOL    HW114261   5.645   2.843   1.428
 4454SOL    HW214262   5.572   2.988   1.406
 4455SOL     OW14263   4.468   1.580   1.475
 4455SOL    HW114264   4.452   1.587   1.377
 4455SOL    HW214265   4.416   1.652   1.522
 4456SOL     OW14266   1.418   5.603   2.869
 4456SOL    HW114267   1.478   5.674   2.906
 4456SOL    HW214268   1.468   5.547   2.803
 4457SOL     OW14269   5.156   1.861   6.783
 4457SOL    HW114270   5.170   1.802   6.703
 4457SOL    HW214271   5.240   1.864   6.837
 4458SOL     OW14272   3.942   1.897   6.783
 4458SOL    HW114273   3.913   1.907   6.878
 4458SOL    HW214274   4.037   1.867   6.780
 4459SOL     OW14275   5.265   6.245   5.731
 4459SOL    HW114276   5.348   6.278   5.689
 4459SOL    HW214277   5.270   6.145   5.742
 4460SOL     OW14278   1.277   1.522   5.933
 4460SOL    HW114279   1.368   1.481   5.941
 4460SOL    HW214280   1.241   1.541   6.024
 4461SOL     OW14281   2.579   0.546   2.409
 4461SOL    HW114282   2.487   0.522   2.442
 4461SOL    HW214283   2.642   0.471   2.430
 4462SOL     OW14284   6.738   5.605   1.321
 4462SOL    HW114285   6.781   5.515   1.323
 4462SOL    HW214286   6.784   5.665   1.386
 4463SOL     OW14287   1.335   3.604   5.770
 4463SOL    HW114288   1.382   3.603   5.682
 4463SOL    HW214289   1.396   3.570   5.842
 4464SOL     OW14290   6.007   3.311   6.739
 4464SOL    HW114291   5.930   3.248   6.729
 4464SOL    HW214292   6.066   3.303   6.658
 4465SOL     OW14293   1.384   5.778   1.646
 4465SOL    HW114294   1.326   5.815   1.573
 4465SOL    HW214295   1.461   5.840   1.662
 4466SOL     OW14296   0.537   2.435   3.483
 4466SOL    HW114297   0.630   2.473   3.478
 4466SOL    HW214298   0.542   2.336   3.500
 4467SOL     OW14299   1.188   0.196   3.037
 4467SOL    HW114300   1.144   0.195   3.127
 4467SOL    HW214301   1.154   0.120   2.982
 4468SOL     OW14302   1.321   2.341   0.167
 4468SOL    HW114303   1.222   2.351   0.153
 4468SOL    HW214304   1.338   2.288   0.249
 4469SOL     OW14305   4.321   6.907   0.311
 4469SOL    HW114306   4.317   6.875   0.217
 4469SOL    HW214307   4.258   6.985   0.322
 4470SOL     OW14308   4.695   5.278   1.058
 4470SOL    HW114309   4.738   5.368   1.055
 4470SOL    HW214310   4.611   5.283   1.112
 4471SOL     OW14311   6.251   3.500   0.355
 4471SOL    HW114312   6.172   3.561   0.369
 4471SOL    HW214313   6.333   3.544   0.391
 4472SOL     OW14314   1.992   4.724   1.627
 4472SOL    HW114315   1.935   4.644   1.609
 4472SOL    HW214316   1.942   4.789   1.684
 4473SOL     OW14317   0.787   0.275   5.646
 4473SOL    HW114318   0.714   0.274   5.577
 4473SOL    HW214319   0.876   0.271   5.601
 4474SOL     OW14320   5.962   0.772   3.690
 4474SOL    HW114321   5.872   0.770   3.646
 4474SOL    HW214322   6.031   0.793   3.621
 4475SOL     OW14323   1.328   4.188   6.849
 4475SOL    HW114324   1.266   4.111   6.866
 4475SOL    HW214325   1.350   4.233   6.935
 4476SOL     OW14326   5.063   6.281   2.621
 4476SOL    HW114327   5.146   6.334   2.609
 4476SOL    HW214328   5.030   6.250   2.532
 4477SOL     OW14329   1.767   1.271   6.961
 4477SOL    HW114330   1.720   1.282   6.874
 4477SOL    HW214331   1.700   1.265   0.011
 4478SOL     OW14332   1.537   5.277   1.762
 4478SOL    HW114333   1.491   5.351   1.714
 4478SOL    HW214334   1.598   5.315   1.832
 4479SOL     OW14335   0.123   0.275   5.652
 4479SOL    HW114336   0.188   0.230   5.591
 4479SOL    HW214337   0.122   0.373   5.634
 4480SOL     OW14338   1.072   4.759   3.825
 4480SOL    HW114339   1.073   4.844   3.772
 4480SOL    HW214340   1.002   4.697   3.788
 4481SOL     OW14341   1.073   6.940   3.662
 4481SOL    HW114342   1.104   6.980   3.576
 4481SOL    HW214343   0.976   6.960   3.676
 4482SOL     OW14344   0.628   4.274   3.988
 4482SOL    HW114345   0.669   4.365   3.990
 4482SOL    HW214346   0.574   4.260   4.071
 4483SOL     OW14347   5.095   2.624   1.916
 4483SOL    HW114348   5.038   2.577   1.983
 4483SOL    HW214349   5.057   2.714   1.897
 4484SOL     OW14350   4.247   2.762   6.336
 4484SOL    HW114351   4.242   2.857   6.366
 4484SOL    HW214352   4.231   2.757   6.237
 4485SOL     OW14353   4.706   0.792   6.601
 4485SOL    HW114354   4.794   0.838   6.585
 4485SOL    HW214355   4.701   0.760   6.695
 4486SOL     OW14356   6.737   2.549   3.958
 4486SOL    HW114357   6.715   2.623   4.021
 4486SOL    HW214358   6.835   2.550   3.939
 4487SOL     OW14359   3.162   2.837   5.868
 4487SOL    HW114360   3.128   2.743   5.856
 4487SOL    HW214361   3.133   2.871   5.957
 4488SOL     OW14362   7.019   1.337   5.803
 4488SOL    HW114363   0.009   1.288   5.718
 4488SOL    HW214364   0.062   1.411   5.811
 4489SOL     OW14365   6.577   0.674   3.006
 4489SOL    HW114366   6.632   0.729   2.943
 4489SOL    HW214367   6.544   0.731   3.081
 4490SOL     OW14368   6.970   2.224   3.348
 4490SOL    HW114369   7.002   2.277   3.426
 4490SOL    HW214370   7.013   2.257   3.264
 4491SOL     OW14371   2.008   2.922   3.008
 4491SOL    HW114372   2.085   2.974   3.046
 4491SOL    HW214373   2.000   2.940   2.910
 4492SOL     OW14374   4.218   3.632   6.543
 4492SOL    HW114375   4.286   3.574   6.499
 4492SOL    HW214376   4.145   3.575   6.581
 4493SOL     OW14377   5.975   5.106   3.196
 4493SOL    HW114378   5.996   5.015   3.159
 4493SOL    HW214379   5.933   5.162   3.125
 4494SOL     OW14380   6.243   3.518   3.916
 4494SOL    HW114381   6.176   3.459   3.960
 4494SOL    HW214382   6.307   3.462   3.863
 4495SOL     OW14383   4.488   6.212   1.901
 4495SOL    HW114384   4.418   6.145   1.924
 4495SOL    HW214385   4.487   6.286   1.969
 4496SOL     OW14386   4.950   4.424   5.633
 4496SOL    HW114387   4.851   4.410   5.630
 4496SOL    HW214388   4.993   4.343   5.673
 4497SOL     OW14389   6.584   5.410   0.712
 4497SOL    HW114390   6.678   5.385   0.688
 4497SOL    HW214391   6.585   5.470   0.792
 4498SOL     OW14392   0.228   4.191   6.934
 4498SOL    HW114393   0.250   4.106   6.981
 4498SOL    HW214394   0.243   4.180   6.835
 4499SOL     OW14395   6.530   2.834   6.497
 4499SOL    HW114396   6.534   2.932   6.516
 4499SOL    HW214397   6.607   2.789   6.542
 4500SOL     OW14398   3.341   3.814   4.637
 4500SOL    HW114399   3.293   3.731   4.609
 4500SOL    HW214400   3.439   3.796   4.641
 4501SOL     OW14401   1.141   4.527   4.985
 4501SOL    HW114402   1.054   4.492   4.950
 4501SOL    HW214403   1.206   4.537   4.909
 4502SOL     OW14404   6.409   2.998   6.999
 4502SOL    HW114405   6.439   3.049   0.056
 4502SOL    HW214406   6.446   3.041   6.917
 4503SOL     OW14407   1.417   1.926   2.802
 4503SOL    HW114408   1.425   1.829   2.825
 4503SOL    HW214409   1.490   1.952   2.738
 4504SOL     OW14410   4.602   2.627   4.820
 4504SOL    HW114411   4.543   2.623   4.901
 4504SOL    HW214412   4.632   2.721   4.806
 4505SOL     OW14413   1.886   5.211   5.932
 4505SOL    HW114414   1.807   5.186   5.876
 4505SOL    HW214415   1.970   5.179   5.889
 4506SOL     OW14416   4.002   0.126   5.342
 4506SOL    HW114417   4.026   0.151   5.248
 4506SOL    HW214418   4.054   0.044   5.369
 4507SOL     OW14419   6.267   4.398   1.406
 4507SOL    HW114420   6.195   4.453   1.449
 4507SOL    HW214421   6.334   4.372   1.475
 4508SOL     OW14422   1.189   4.536   0.431
 4508SOL    HW114423   1.136   4.468   0.481
 4508SOL    HW214424   1.212   4.500   0.340
 4509SOL     OW14425   1.162   2.018   4.071
 4509SOL    HW114426   1.205   2.054   3.989
 4509SOL    HW214427   1.176   1.919   4.075
 4510SOL     OW14428   3.857   6.804   5.144
 4510SOL    HW114429   3.834   6.865   5.220
 4510SOL    HW214430   3.883   6.714   5.181
 4511SOL     OW14431   6.202   3.050   6.493
 4511SOL    HW114432   6.284   3.084   6.539
 4511SOL    HW214433   6.178   2.961   6.532
 4512SOL     OW14434   2.997   4.673   0.409
 4512SOL    HW114435   2.925   4.741   0.419
 4512SOL    HW214436   2.957   4.582   0.409
 4513SOL     OW14437   5.223   0.739   1.937
 4513SOL    HW114438   5.165   0.773   1.862
 4513SOL    HW214439   5.275   0.660   1.905
 4514SOL     OW14440   3.612   1.599   5.667
 4514SOL    HW114441   3.544   1.571   5.599
 4514SOL    HW214442   3.663   1.519   5.698
 4515SOL     OW14443   0.226   5.196   1.034
 4515SOL    HW114444   0.290   5.137   1.085
 4515SOL    HW214445   0.181   5.259   1.097
 4516SOL     OW14446   1.292   6.911   4.763
 4516SOL    HW114447   1.214   6.903   4.701
 4516SOL    HW214448   1.261   6.897   4.857
 4517SOL     OW14449   3.784   6.995   5.308
 4517SOL    HW114450   3.743   6.969   5.395
 4517SOL    HW214451   3.849   0.046   5.322
 4518SOL     OW14452   1.096   1.284   4.193
 4518SOL    HW114453   1.182   1.307   4.146
 4518SOL    HW214454   1.115   1.266   4.289
 4519SOL     OW14455   6.213   2.621   4.582
 4519SOL    HW114456   6.252   2.709   4.556
 4519SOL    HW214457   6.117   2.633   4.609
 4520SOL     OW14458   0.628   4.383   3.352
 4520SOL    HW114459   0.568   4.440   3.296
 4520SOL    HW214460   0.706   4.353   3.297
 4521SOL     OW14461   5.766   2.356   5.682
 4521SOL    HW114462   5.815   2.435   5.645
 4521SOL    HW214463   5.832   2.282   5.699
 4522SOL     OW14464   5.837   0.316   3.626
 4522SOL    HW114465   5.818   0.235   3.682
 4522SOL    HW214466   5.816   0.399   3.678
 4523SOL     OW14467   3.717   3.375   6.710
 4523SOL    HW114468   3.690   3.282   6.684
 4523SOL    HW214469   3.806   3.396   6.671
 4524SOL     OW14470   6.005   0.458   5.198
 4524SOL    HW114471   5.991   0.359   5.194
 4524SOL    HW214472   5.956   0.502   5.123
 4525SOL     OW14473   6.600   1.645   5.371
 4525SOL    HW114474   6.549   1.694   5.441
 4525SOL    HW214475   6.661   1.709   5.323
 4526SOL     OW14476   3.824   0.946   0.508
 4526SOL    HW114477   3.840   1.004   0.428
 4526SOL    HW214478   3.855   0.853   0.488
 4527SOL     OW14479   3.861   1.418   3.504
 4527SOL    HW114480   3.841   1.340   3.445
 4527SOL    HW214481   3.866   1.501   3.448
 4528SOL     OW14482   5.834   0.354   6.295
 4528SOL    HW114483   5.838   0.411   6.213
 4528SOL    HW214484   5.738   0.333   6.316
 4529SOL     OW14485   3.794   6.843   3.435
 4529SOL    HW114486   3.810   6.920   3.497
 4529SOL    HW214487   3.749   6.769   3.485
 4530SOL     OW14488   0.373   2.951   4.861
 4530SOL    HW114489   0.372   2.863   4.908
 4530SOL    HW214490   0.441   2.948   4.787
 4531SOL     OW14491   0.270   3.283   3.585
 4531SOL    HW114492   0.274   3.382   3.571
 4531SOL    HW214493   0.233   3.264   3.677
 4532SOL     OW14494   6.567   1.743   0.410
 4532SOL    HW114495   6.472   1.767   0.393
 4532SOL    HW214496   6.599   1.792   0.491
 4533SOL     OW14497   2.826   5.966   2.885
 4533SOL    HW114498   2.770   6.017   2.949
 4533SOL    HW214499   2.792   5.872   2.878
 4534SOL     OW14500   6.564   3.870   5.569
 4534SOL    HW114501   6.484   3.817   5.595
 4534SOL    HW214502   6.640   3.847   5.629
 4535SOL     OW14503   4.994   2.673   2.602
 4535SOL    HW114504   5.044   2.604   2.550
 4535SOL    HW214505   5.009   2.763   2.562
 4536SOL     OW14506   6.739   1.364   4.194
 4536SOL    HW114507   6.690   1.338   4.277
 4536SOL    HW214508   6.675   1.375   4.119
 4537SOL     OW14509   3.847   3.151   5.786
 4537SOL    HW114510   3.862   3.061   5.745
 4537SOL    HW214511   3.800   3.141   5.873
 4538SOL     OW14512   3.310   1.419   2.562
 4538SOL    HW114513   3.249   1.483   2.610
 4538SOL    HW214514   3.274   1.326   2.570
 4539SOL     OW14515   1.142   1.863   2.500
 4539SOL    HW114516   1.230   1.908   2.507
 4539SOL    HW214517   1.136   1.816   2.411
 4540SOL     OW14518   3.088   3.109   4.444
 4540SOL    HW114519   3.154   3.095   4.370
 4540SOL    HW214520   3.121   3.063   4.526
 4541SOL     OW14521   5.969   1.352   1.213
 4541SOL    HW114522   5.894   1.315   1.157
 4541SOL    HW214523   6.042   1.284   1.220
 4542SOL     OW14524   4.640   0.366   3.904
 4542SOL    HW114525   4.610   0.385   3.810
 4542SOL    HW214526   4.563   0.378   3.966
 4543SOL     OW14527   5.542   1.673   1.795
 4543SOL    HW114528   5.567   1.696   1.890
 4543SOL    HW214529   5.494   1.751   1.754
 4544SOL     OW14530   3.581   4.624   6.551
 4544SOL    HW114531   3.625   4.695   6.495
 4544SOL    HW214532   3.650   4.558   6.581
 4545SOL     OW14533   4.044   2.712   5.857
 4545SOL    HW114534   4.131   2.685   5.816
 4545SOL    HW214535   4.007   2.636   5.910
 4546SOL     OW14536   0.857   6.599   6.117
 4546SOL    HW114537   0.882   6.643   6.203
 4546SOL    HW214538   0.767   6.632   6.087
 4547SOL     OW14539   4.565   1.940   1.261
 4547SOL    HW114540   4.590   2.033   1.234
 4547SOL    HW214541   4.645   1.881   1.256
 4548SOL     OW14542   1.571   3.021   4.045
 4548SOL    HW114543   1.475   3.028   4.071
 4548SOL    HW214544   1.618   2.957   4.105
 4549SOL     OW14545   5.085   2.136   2.686
 4549SOL    HW114546   5.040   2.225   2.684
 4549SOL    HW214547   5.036   2.076   2.750
 4550SOL     OW14548   1.313   6.302   4.775
 4550SOL    HW114549   1.394   6.249   4.800
 4550SOL    HW214550   1.254   6.248   4.715
 4551SOL     OW14551   0.554   2.502   5.826
 4551SOL    HW114552   0.503   2.560   5.890
 4551SOL    HW214553   0.652   2.517   5.837
 4552SOL     OW14554   0.052   2.966   4.068
 4552SOL    HW114555   0.042   2.955   3.970
 4552SOL    HW214556   7.003   2.917   4.115
 4553SOL     OW14557   5.107   4.837   0.524
 4553SOL    HW114558   5.162   4.920   0.514
 4553SOL    HW214559   5.097   4.816   0.621
 4554SOL     OW14560   5.653   0.093   3.143
 4554SOL    HW114561   5.680   0.099   3.239
 4554SOL    HW214562   5.694   0.168   3.091
 4555SOL     OW14563   5.518   1.742   0.117
 4555SOL    HW114564   5.592   1.676   0.106
 4555SOL    HW214565   5.528   1.791   0.204
 4556SOL     OW14566   4.889   1.356   4.450
 4556SOL    HW114567   4.798   1.317   4.436
 4556SOL    HW214568   4.954   1.283   4.471
 4557SOL     OW14569   5.106   0.241   5.793
 4557SOL    HW114570   5.011   0.217   5.774
 4557SOL    HW214571   5.133   0.319   5.736
 4558SOL     OW14572   6.750   3.181   6.085
 4558SOL    HW114573   6.705   3.102   6.044
 4558SOL    HW214574   6.767   3.163   6.182
 4559SOL     OW14575   0.791   6.729   1.562
 4559SOL    HW114576   0.716   6.686   1.613
 4559SOL    HW214577   0.794   6.692   1.470
 4560SOL     OW14578   5.053   2.889   3.119
 4560SOL    HW114579   5.111   2.969   3.140
 4560SOL    HW214580   5.007   2.859   3.202
 4561SOL     OW14581   3.007   0.215   6.253
 4561SOL    HW114582   3.094   0.230   6.205
 4561SOL    HW214583   2.960   0.137   6.213
 4562SOL     OW14584   3.442   5.222   5.518
 4562SOL    HW114585   3.364   5.187   5.569
 4562SOL    HW214586   3.475   5.151   5.456
 4563SOL     OW14587   5.489   2.084   6.546
 4563SOL    HW114588   5.407   2.110   6.496
 4563SOL    HW214589   5.514   2.158   6.609
 4564SOL     OW14590   1.866   5.746   6.830
 4564SOL    HW114591   1.810   5.828   6.814
 4564SOL    HW214592   1.826   5.669   6.782
 4565SOL     OW14593   2.131   0.715   4.201
 4565SOL    HW114594   2.094   0.771   4.127
 4565SOL    HW214595   2.062   0.705   4.273
 4566SOL     OW14596   0.645   2.015   0.262
 4566SOL    HW114597   0.621   1.923   0.230
 4566SOL    HW214598   0.734   2.012   0.306
 4567SOL     OW14599   6.672   0.756   0.448
 4567SOL    HW114600   6.695   0.790   0.539
 4567SOL    HW214601   6.648   0.659   0.454
 4568SOL     OW14602   3.567   5.008   4.935
 4568SOL    HW114603   3.510   5.075   4.888
 4568SOL    HW214604   3.512   4.958   5.001
 4569SOL     OW14605   0.359   1.874   4.422
 4569SOL    HW114606   0.341   1.930   4.341
 4569SOL    HW214607   0.458   1.864   4.434
 4570SOL     OW14608   6.909   5.016   4.463
 4570SOL    HW114609   6.955   5.068   4.534
 4570SOL    HW214610   6.810   5.035   4.466
 4571SOL     OW14611   3.640   3.360   4.143
 4571SOL    HW114612   3.640   3.265   4.112
 4571SOL    HW214613   3.554   3.379   4.191
 4572SOL     OW14614   2.234   6.307   1.697
 4572SOL    HW114615   2.329   6.321   1.667
 4572SOL    HW214616   2.218   6.357   1.782
 4573SOL     OW14617   5.635   6.863   0.648
 4573SOL    HW114618   5.717   6.831   0.697
 4573SOL    HW214619   5.570   6.900   0.714
 4574SOL     OW14620   0.956   4.599   2.331
 4574SOL    HW114621   1.040   4.614   2.278
 4574SOL    HW214622   0.877   4.601   2.269
 4575SOL     OW14623   6.685   0.089   2.034
 4575SOL    HW114624   6.773   0.134   2.051
 4575SOL    HW214625   6.681   0.004   2.087
 4576SOL     OW14626   3.244   5.923   4.933
 4576SOL    HW114627   3.283   5.885   5.017
 4576SOL    HW214628   3.234   5.850   4.865
 4577SOL     OW14629   0.811   2.678   4.162
 4577SOL    HW114630   0.754   2.729   4.226
 4577SOL    HW214631   0.823   2.585   4.195
 4578SOL     OW14632   0.251   3.971   3.651
 4578SOL    HW114633   0.159   4.009   3.658
 4578SOL    HW214634   0.309   4.011   3.722
 4579SOL     OW14635   5.364   2.033   4.312
 4579SOL    HW114636   5.293   2.090   4.355
 4579SOL    HW214637   5.427   2.000   4.383
 4580SOL     OW14638   0.043   5.428   0.691
 4580SOL    HW114639   0.016   5.513   0.736
 4580SOL    HW214640   0.097   5.449   0.609
 4581SOL     OW14641   3.665   5.676   3.038
 4581SOL    HW114642   3.611   5.753   3.073
 4581SOL    HW214643   3.604   5.607   2.999
 4582SOL     OW14644   4.493   6.724   3.038
 4582SOL    HW114645   4.515   6.814   3.000
 4582SOL    HW214646   4.497   6.656   2.966
 4583SOL     OW14647   4.652   1.794   5.640
 4583SOL    HW114648   4.722   1.770   5.572
 4583SOL    HW214649   4.592   1.716   5.655
 4584SOL     OW14650   0.512   4.544   5.558
 4584SOL    HW114651   0.473   4.591   5.479
 4584SOL    HW214652   0.472   4.453   5.567
 4585SOL     OW14653   3.897   6.460   2.732
 4585SOL    HW114654   3.888   6.523   2.810
 4585SOL    HW214655   3.964   6.390   2.754
 4586SOL     OW14656   3.312   6.121   2.257
 4586SOL    HW114657   3.256   6.058   2.312
 4586SOL    HW214658   3.356   6.071   2.183
 4587SOL     OW14659   2.266   4.318   0.968
 4587SOL    HW114660   2.214   4.234   0.950
 4587SOL    HW214661   2.202   4.394   0.983
 4588SOL     OW14662   4.380   3.859   5.400
 4588SOL    HW114663   4.334   3.788   5.347
 4588SOL    HW214664   4.313   3.910   5.454
 4589SOL     OW14665   0.274   1.453   3.678
 4589SOL    HW114666   0.338   1.376   3.677
 4589SOL    HW214667   0.185   1.422   3.712
 4590SOL     OW14668   4.431   5.820   2.622
 4590SOL    HW114669   4.427   5.749   2.692
 4590SOL    HW214670   4.527   5.840   2.601
 4591SOL     OW14671   6.150   5.852   4.742
 4591SOL    HW114672   6.229   5.795   4.767
 4591SOL    HW214673   6.100   5.877   4.826
 4592SOL     OW14674   2.963   2.239   5.921
 4592SOL    HW114675   2.965   2.307   5.995
 4592SOL    HW214676   2.917   2.278   5.841
 4593SOL     OW14677   3.827   6.550   1.676
 4593SOL    HW114678   3.865   6.548   1.584
 4593SOL    HW214679   3.730   6.527   1.673
 4594SOL     OW14680   3.003   1.273   2.431
 4594SOL    HW114681   2.987   1.365   2.467
 4594SOL    HW214682   3.080   1.231   2.479
 4595SOL     OW14683   4.303   2.256   5.932
 4595SOL    HW114684   4.208   2.244   5.902
 4595SOL    HW214685   4.348   2.167   5.935
 4596SOL     OW14686   6.279   0.154   1.961
 4596SOL    HW114687   6.209   0.082   1.963
 4596SOL    HW214688   6.308   0.169   1.866
 4597SOL     OW14689   6.675   4.663   6.942
 4597SOL    HW114690   6.602   4.622   6.996
 4597SOL    HW214691   6.762   4.619   6.964
 4598SOL     OW14692   3.393   4.562   0.584
 4598SOL    HW114693   3.355   4.597   0.670
 4598SOL    HW214694   3.402   4.636   0.518
 4599SOL     OW14695   1.675   5.269   0.079
 4599SOL    HW114696   1.641   5.176   0.064
 4599SOL    HW214697   1.621   5.312   0.151
 4600SOL     OW14698   3.674   5.099   1.426
 4600SOL    HW114699   3.709   5.015   1.386
 4600SOL    HW214700   3.664   5.169   1.355
 4601SOL     OW14701   2.024   5.895   4.878
 4601SOL    HW114702   1.954   5.869   4.811
 4601SOL    HW214703   2.069   5.813   4.912
 4602SOL     OW14704   1.859   1.103   0.793
 4602SOL    HW114705   1.849   1.065   0.885
 4602SOL    HW214706   1.859   1.029   0.726
 4603SOL     OW14707   3.191   0.788   2.231
 4603SOL    HW114708   3.103   0.750   2.202
 4603SOL    HW214709   3.178   0.882   2.263
 4604SOL     OW14710   2.775   0.364   2.450
 4604SOL    HW114711   2.862   0.402   2.418
 4604SOL    HW214712   2.787   0.266   2.469
 4605SOL     OW14713   5.227   0.015   5.621
 4605SOL    HW114714   5.158   0.000   5.550
 4605SOL    HW214715   5.189   0.074   5.692
 4606SOL     OW14716   7.015   6.576   5.594
 4606SOL    HW114717   0.081   6.546   5.626
 4606SOL    HW214718   6.944   6.540   5.654
 4607SOL     OW14719   2.349   2.223   1.514
 4607SOL    HW114720   2.385   2.216   1.607
 4607SOL    HW214721   2.305   2.312   1.502
 4608SOL     OW14722   1.472   3.614   5.520
 4608SOL    HW114723   1.534   3.667   5.463
 4608SOL    HW214724   1.378   3.623   5.485
 4609SOL     OW14725   3.979   6.939   6.363
 4609SOL    HW114726   4.067   6.983   6.343
 4609SOL    HW214727   3.940   6.905   6.277
 4610SOL     OW14728   0.684   3.408   6.764
 4610SOL    HW114729   0.698   3.459   6.848
 4610SOL    HW214730   0.694   3.310   6.782
 4611SOL     OW14731   0.703   3.547   7.000
 4611SOL    HW114732   0.735   3.640   6.984
 4611SOL    HW214733   0.778   3.490   0.011
 4612SOL     OW14734   2.236   0.347   6.149
 4612SOL    HW114735   2.324   0.346   6.102
 4612SOL    HW214736   2.167   0.388   6.090
 4613SOL     OW14737   2.848   5.692   2.215
 4613SOL    HW114738   2.784   5.743   2.157
 4613SOL    HW214739   2.942   5.720   2.195
 4614SOL     OW14740   1.869   5.409   0.478
 4614SOL    HW114741   1.953   5.451   0.444
 4614SOL    HW214742   1.837   5.340   0.413
 4615SOL     OW14743   6.896   2.786   0.297
 4615SOL    HW114744   6.822   2.829   0.244
 4615SOL    HW214745   6.917   2.843   0.377
 4616SOL     OW14746   5.757   1.040   6.925
 4616SOL    HW114747   5.782   1.051   7.021
 4616SOL    HW214748   5.819   1.093   6.867
 4617SOL     OW14749   0.335   3.210   2.094
 4617SOL    HW114750   0.376   3.130   2.050
 4617SOL    HW214751   0.307   3.187   2.187
 4618SOL     OW14752   0.993   2.184   6.103
 4618SOL    HW114753   0.937   2.263   6.080
 4618SOL    HW214754   1.061   2.210   6.172
 4619SOL     OW14755   3.316   0.601   3.693
 4619SOL    HW114756   3.402   0.607   3.643
 4619SOL    HW214757   3.323   0.653   3.778
 4620SOL     OW14758   2.281   4.319   6.291
 4620SOL    HW114759   2.359   4.281   6.240
 4620SOL    HW214760   2.211   4.249   6.302
 4621SOL     OW14761   0.386   6.518   6.218
 4621SOL    HW114762   0.468   6.505   6.274
 4621SOL    HW214763   0.410   6.569   6.135
 4622SOL     OW14764   2.614   3.550   1.090
 4622SOL    HW114765   2.543   3.586   1.151
 4622SOL    HW214766   2.690   3.515   1.144
 4623SOL     OW14767   6.203   4.308   2.126
 4623SOL    HW114768   6.235   4.369   2.199
 4623SOL    HW214769   6.280   4.284   2.068
 4624SOL     OW14770   4.722   6.895   5.467
 4624SOL    HW114771   4.626   6.924   5.460
 4624SOL    HW214772   4.735   6.813   5.410
 4625SOL     OW14773   1.024   2.915   6.835
 4625SOL    HW114774   1.105   2.857   6.844
 4625SOL    HW214775   0.950   2.862   6.794
 4626SOL     OW14776   6.042   5.123   1.948
 4626SOL    HW114777   5.994   5.136   1.862
 4626SOL    HW214778   6.128   5.175   1.947
 4627SOL     OW14779   2.290   0.780   5.940
 4627SOL    HW114780   2.328   0.701   5.986
 4627SOL    HW214781   2.195   0.762   5.915
 4628SOL     OW14782   0.057   3.895   1.787
 4628SOL    HW114783   0.105   3.922   1.704
 4628SOL    HW214784   0.101   3.814   1.827
 4629SOL     OW14785   3.383   5.334   5.168
 4629SOL    HW114786   3.315   5.370   5.103
 4629SOL    HW214787   3.446   5.407   5.194
 4630SOL     OW14788   2.194   0.387   2.784
 4630SOL    HW114789   2.230   0.433   2.865
 4630SOL    HW214790   2.129   0.316   2.812
 4631SOL     OW14791   2.488   0.821   2.615
 4631SOL    HW114792   2.526   0.774   2.535
 4631SOL    HW214793   2.391   0.798   2.624
 4632SOL     OW14794   5.091   5.220   4.050
 4632SOL    HW114795   5.046   5.132   4.064
 4632SOL    HW214796   5.190   5.205   4.040
 4633SOL     OW14797   5.898   2.558   5.546
 4633SOL    HW114798   5.913   2.593   5.638
 4633SOL    HW214799   5.986   2.547   5.499
 4634SOL     OW14800   3.645   4.482   0.950
 4634SOL    HW114801   3.611   4.460   0.859
 4634SOL    HW214802   3.584   4.546   0.995
 4635SOL     OW14803   5.279   4.362   1.235
 4635SOL    HW114804   5.226   4.318   1.163
 4635SOL    HW214805   5.270   4.310   1.320
 4636SOL     OW14806   1.676   5.040   0.737
 4636SOL    HW114807   1.713   4.956   0.776
 4636SOL    HW214808   1.752   5.103   0.716
 4637SOL     OW14809   1.482   0.880   5.260
 4637SOL    HW114810   1.423   0.961   5.256
 4637SOL    HW214811   1.498   0.855   5.356
 4638SOL     OW14812   5.549   3.597   6.447
 4638SOL    HW114813   5.548   3.658   6.368
 4638SOL    HW214814   5.458   3.593   6.488
 4639SOL     OW14815   6.715   3.308   5.493
 4639SOL    HW114816   6.669   3.224   5.520
 4639SOL    HW214817   6.657   3.387   5.514
 4640SOL     OW14818   5.792   4.065   2.461
 4640SOL    HW114819   5.775   3.971   2.432
 4640SOL    HW214820   5.756   4.128   2.393
 4641SOL     OW14821   2.804   4.583   5.614
 4641SOL    HW114822   2.868   4.551   5.684
 4641SOL    HW214823   2.723   4.524   5.614
 4642SOL     OW14824   5.405   5.668   4.495
 4642SOL    HW114825   5.419   5.582   4.447
 4642SOL    HW214826   5.451   5.666   4.583
 4643SOL     OW14827   3.680   2.910   1.506
 4643SOL    HW114828   3.748   2.973   1.543
 4643SOL    HW214829   3.665   2.930   1.409
 4644SOL     OW14830   2.498   4.973   4.973
 4644SOL    HW114831   2.535   4.985   4.881
 4644SOL    HW214832   2.558   4.911   5.025
 4645SOL     OW14833   1.783   6.138   4.946
 4645SOL    HW114834   1.861   6.077   4.964
 4645SOL    HW214835   1.711   6.119   5.012
 4646SOL     OW14836   3.654   0.369   1.648
 4646SOL    HW114837   3.732   0.410   1.602
 4646SOL    HW214838   3.612   0.436   1.710
 4647SOL     OW14839   6.854   0.462   4.581
 4647SOL    HW114840   6.946   0.500   4.586
 4647SOL    HW214841   6.815   0.457   4.673
 4648SOL     OW14842   1.908   4.997   2.925
 4648SOL    HW114843   1.866   4.920   2.975
 4648SOL    HW214844   1.970   5.046   2.987
 4649SOL     OW14845   5.574   6.818   6.213
 4649SOL    HW114846   5.579   6.803   6.312
 4649SOL    HW214847   5.653   6.777   6.169
 4650SOL     OW14848   7.005   4.760   1.937
 4650SOL    HW114849   6.955   4.675   1.953
 4650SOL    HW214850   0.079   4.741   1.933
 4651SOL     OW14851   0.140   1.948   1.247
 4651SOL    HW114852   0.094   1.900   1.323
 4651SOL    HW214853   0.164   2.040   1.276
 4652SOL     OW14854   6.975   6.228   5.959
 4652SOL    HW114855   6.905   6.268   6.017
 4652SOL    HW214856   6.951   6.243   5.863
 4653SOL     OW14857   0.908   5.801   6.792
 4653SOL    HW114858   0.851   5.883   6.801
 4653SOL    HW214859   0.868   5.739   6.724
 4654SOL     OW14860   1.076   1.516   6.605
 4654SOL    HW114861   1.162   1.554   6.641
 4654SOL    HW214862   1.067   1.541   6.508
 4655SOL     OW14863   0.565   5.567   3.528
 4655SOL    HW114864   0.652   5.519   3.536
 4655SOL    HW214865   0.570   5.653   3.579
 4656SOL     OW14866   1.986   0.146   3.120
 4656SOL    HW114867   2.073   0.150   3.071
 4656SOL    HW214868   1.928   0.076   3.079
 4657SOL     OW14869   6.047   0.094   6.691
 4657SOL    HW114870   6.102   0.014   6.668
 4657SOL    HW214871   6.034   0.098   6.790
 4658SOL     OW14872   5.111   0.933   3.502
 4658SOL    HW114873   5.060   0.847   3.496
 4658SOL    HW214874   5.112   0.965   3.597
 4659SOL     OW14875   2.151   2.325   4.351
 4659SOL    HW114876   2.130   2.319   4.449
 4659SOL    HW214877   2.126   2.415   4.317
 4660SOL     OW14878   6.543   1.009   5.764
 4660SOL    HW114879   6.570   1.064   5.686
 4660SOL    HW214880   6.543   0.912   5.738
 4661SOL     OW14881   4.101   3.391   3.571
 4661SOL    HW114882   4.074   3.299   3.541
 4661SOL    HW214883   4.126   3.445   3.491
 4662SOL     OW14884   5.224   0.410   4.259
 4662SOL    HW114885   5.216   0.398   4.160
 4662SOL    HW214886   5.257   0.325   4.300
 4663SOL     OW14887   6.985   1.563   2.064
 4663SOL    HW114888   6.969   1.637   1.999
 4663SOL    HW214889   0.038   1.586   2.123
 4664SOL     OW14890   3.338   2.730   0.085
 4664SOL    HW114891   3.257   2.719   0.027
 4664SOL    HW214892   3.410   2.667   0.054
 4665SOL     OW14893   5.542   0.678   0.002
 4665SOL    HW114894   5.638   0.652   7.023
 4665SOL    HW214895   5.511   0.683   0.098
 4666SOL     OW14896   2.339   1.394   0.379
 4666SOL    HW114897   2.258   1.447   0.355
 4666SOL    HW214898   2.421   1.449   0.363
 4667SOL     OW14899   0.645   5.376   5.643
 4667SOL    HW114900   0.710   5.441   5.680
 4667SOL    HW214901   0.605   5.412   5.559
 4668SOL     OW14902   5.658   1.654   4.912
 4668SOL    HW114903   5.578   1.683   4.965
 4668SOL    HW214904   5.728   1.725   4.914
 4669SOL     OW14905   2.846   0.405   0.939
 4669SOL    HW114906   2.899   0.321   0.934
 4669SOL    HW214907   2.854   0.455   0.852
 4670SOL     OW14908   1.964   1.025   4.353
 4670SOL    HW114909   1.906   0.980   4.285
 4670SOL    HW214910   1.953   0.980   4.442
 4671SOL     OW14911   5.624   3.552   0.795
 4671SOL    HW114912   5.608   3.651   0.799
 4671SOL    HW214913   5.686   3.531   0.720
 4672SOL     OW14914   2.261   3.606   5.852
 4672SOL    HW114915   2.310   3.581   5.769
 4672SOL    HW214916   2.172   3.561   5.853
 4673SOL     OW14917   3.674   0.551   2.488
 4673SOL    HW114918   3.629   0.494   2.419
 4673SOL    HW214919   3.613   0.562   2.567
 4674SOL     OW14920   4.376   5.986   6.303
 4674SOL    HW114921   4.461   6.017   6.345
 4674SOL    HW214922   4.299   6.013   6.361
 4675SOL     OW14923   1.372   4.250   6.357
 4675SOL    HW114924   1.442   4.261   6.285
 4675SOL    HW214925   1.293   4.202   6.319
 4676SOL     OW14926   1.022   5.655   4.079
 4676SOL    HW114927   0.943   5.711   4.055
 4676SOL    HW214928   1.024   5.573   4.022
 4677SOL     OW14929   0.894   3.049   0.719
 4677SOL    HW114930   0.839   3.127   0.690
 4677SOL    HW214931   0.983   3.081   0.751
 4678SOL     OW14932   2.362   4.360   2.260
 4678SOL    HW114933   2.369   4.410   2.173
 4678SOL    HW214934   2.439   4.383   2.319
 4679SOL     OW14935   4.366   7.010   1.576
 4679SOL    HW114936   4.403   0.031   1.658
 4679SOL    HW214937   4.275   0.022   1.557
 4680SOL     OW14938   1.738   0.963   1.007
 4680SOL    HW114939   1.729   1.028   1.083
 4680SOL    HW214940   1.833   0.931   1.001
 4681SOL     OW14941   4.781   5.518   2.096
 4681SOL    HW114942   4.743   5.495   2.006
 4681SOL    HW214943   4.876   5.548   2.085
 4682SOL     OW14944   3.554   4.212   0.174
 4682SOL    HW114945   3.652   4.193   0.178
 4682SOL    HW214946   3.540   4.311   0.168
 4683SOL     OW14947   6.423   4.633   4.008
 4683SOL    HW114948   6.493   4.564   3.990
 4683SOL    HW214949   6.334   4.599   3.977
 4684SOL     OW14950   5.503   6.647   0.519
 4684SOL    HW114951   5.578   6.590   0.487
 4684SOL    HW214952   5.539   6.720   0.578
 4685SOL     OW14953   3.243   3.914   5.094
 4685SOL    HW114954   3.240   3.939   4.997
 4685SOL    HW214955   3.154   3.935   5.136
 4686SOL     OW14956   3.613   6.030   0.658
 4686SOL    HW114957   3.548   5.972   0.706
 4686SOL    HW214958   3.666   5.975   0.593
 4687SOL     OW14959   3.012   0.795   2.993
 4687SOL    HW114960   3.070   0.823   2.917
 4687SOL    HW214961   2.945   0.867   3.012
 4688SOL     OW14962   5.766   3.329   5.624
 4688SOL    HW114963   5.685   3.386   5.612
 4688SOL    HW214964   5.740   3.232   5.619
 4689SOL     OW14965   6.341   0.969   2.531
 4689SOL    HW114966   6.257   0.930   2.495
 4689SOL    HW214967   6.349   0.948   2.629
 4690SOL     OW14968   2.224   2.255   1.065
 4690SOL    HW114969   2.236   2.259   0.966
 4690SOL    HW214970   2.266   2.171   1.100
 4691SOL     OW14971   6.771   4.020   1.596
 4691SOL    HW114972   6.671   4.015   1.594
 4691SOL    HW214973   6.806   4.009   1.503
 4692SOL     OW14974   5.159   3.129   2.066
 4692SOL    HW114975   5.183   3.046   2.015
 4692SOL    HW214976   5.221   3.138   2.145
 4693SOL     OW14977   1.550   0.850   3.549
 4693SOL    HW114978   1.479   0.809   3.492
 4693SOL    HW214979   1.601   0.777   3.596
 4694SOL     OW14980   1.816   0.737   7.016
 4694SOL    HW114981   1.784   0.654   0.037
 4694SOL    HW214982   1.846   0.715   6.923
 4695SOL     OW14983   1.293   6.393   1.508
 4695SOL    HW114984   1.279   6.431   1.417
 4695SOL    HW214985   1.303   6.294   1.502
 4696SOL     OW14986   2.370   5.273   5.819
 4696SOL    HW114987   2.447   5.254   5.758
 4696SOL    HW214988   2.394   5.347   5.881
 4697SOL     OW14989   3.958   5.293   1.386
 4697SOL    HW114990   4.016   5.218   1.354
 4697SOL    HW214991   3.974   5.308   1.484
 4698SOL     OW14992   4.951   1.336   4.104
 4698SOL    HW114993   5.014   1.271   4.147
 4698SOL    HW214994   4.970   1.428   4.137
 4699SOL     OW14995   1.547   6.974   2.187
 4699SOL    HW114996   1.515   7.007   2.276
 4699SOL    HW214997   1.646   6.982   2.182
 4700SOL     OW14998   6.108   1.963   1.970
 4700SOL    HW114999   6.123   1.908   1.888
 4700SOL    HW215000   6.012   1.958   1.996
 4701SOL     OW15001   2.942   2.211   1.747
 4701SOL    HW115002   2.956   2.128   1.801
 4701SOL    HW215003   2.948   2.291   1.808
 4702SOL     OW15004   5.372   5.060   6.770
 4702SOL    HW115005   5.373   4.960   6.764
 4702SOL    HW215006   5.439   5.090   6.837
 4703SOL     OW15007   0.928   5.628   3.739
 4703SOL    HW115008   0.856   5.560   3.753
 4703SOL    HW215009   0.928   5.658   3.644
 4704SOL     OW15010   1.223   5.247   5.150
 4704SOL    HW115011   1.312   5.216   5.183
 4704SOL    HW215012   1.200   5.199   5.065
 4705SOL     OW15013   3.512   1.977   1.640
 4705SOL    HW115014   3.470   1.916   1.573
 4705SOL    HW215015   3.445   2.046   1.668
 4706SOL     OW15016   2.823   1.264   0.438
 4706SOL    HW115017   2.799   1.360   0.451
 4706SOL    HW215018   2.871   1.253   0.351
 4707SOL     OW15019   1.658   6.359   1.795
 4707SOL    HW115020   1.591   6.291   1.824
 4707SOL    HW215021   1.611   6.434   1.748
 4708SOL     OW15022   1.045   2.585   4.391
 4708SOL    HW115023   0.972   2.615   4.451
 4708SOL    HW215024   1.015   2.505   4.339
 4709SOL     OW15025   4.767   4.120   5.247
 4709SOL    HW115026   4.798   4.061   5.172
 4709SOL    HW215027   4.840   4.130   5.314
 4710SOL     OW15028   6.601   5.878   4.832
 4710SOL    HW115029   6.675   5.857   4.767
 4710SOL    HW215030   6.632   5.855   4.925
 4711SOL     OW15031   5.143   3.722   2.785
 4711SOL    HW115032   5.129   3.666   2.866
 4711SOL    HW215033   5.107   3.674   2.705
 4712SOL     OW15034   4.693   4.352   5.686
 4712SOL    HW115035   4.615   4.404   5.651
 4712SOL    HW215036   4.696   4.262   5.643
 4713SOL     OW15037   6.140   4.307   0.991
 4713SOL    HW115038   6.143   4.339   1.085
 4713SOL    HW215039   6.046   4.286   0.965
 4714SOL     OW15040   4.757   1.569   6.717
 4714SOL    HW115041   4.811   1.634   6.772
 4714SOL    HW215042   4.696   1.518   6.777
 4715SOL     OW15043   5.985   1.419   2.041
 4715SOL    HW115044   6.074   1.374   2.032
 4715SOL    HW215045   5.981   1.466   2.129
 4716SOL     OW15046   3.856   4.974   6.094
 4716SOL    HW115047   3.898   4.946   6.008
 4716SOL    HW215048   3.769   5.020   6.075
 4717SOL     OW15049   2.947   5.075   5.258
 4717SOL    HW115050   3.037   5.113   5.279
 4717SOL    HW215051   2.915   5.018   5.333
 4718SOL     OW15052   4.704   4.706   1.184
 4718SOL    HW115053   4.802   4.686   1.179
 4718SOL    HW215054   4.690   4.804   1.198
 4719SOL     OW15055   0.367   4.100   3.883
 4719SOL    HW115056   0.403   4.044   3.958
 4719SOL    HW215057   0.431   4.174   3.863
 4720SOL     OW15058   2.174   3.168   6.692
 4720SOL    HW115059   2.214   3.255   6.661
 4720SOL    HW215060   2.179   3.163   6.791
 4721SOL     OW15061   6.815   2.579   2.855
 4721SOL    HW115062   6.822   2.674   2.825
 4721SOL    HW215063   6.748   2.573   2.929
 4722SOL     OW15064   1.343   5.573   6.942
 4722SOL    HW115065   1.352   5.528   0.006
 4722SOL    HW215066   1.391   5.520   6.872
 4723SOL     OW15067   3.784   4.173   0.433
 4723SOL    HW115068   3.794   4.171   0.533
 4723SOL    HW215069   3.715   4.106   0.405
 4724SOL     OW15070   0.681   6.792   4.838
 4724SOL    HW115071   0.641   6.812   4.748
 4724SOL    HW215072   0.731   6.705   4.833
 4725SOL     OW15073   5.215   5.595   1.169
 4725SOL    HW115074   5.188   5.657   1.095
 4725SOL    HW215075   5.296   5.543   1.141
 4726SOL     OW15076   1.015   3.313   5.793
 4726SOL    HW115077   1.003   3.214   5.799
 4726SOL    HW215078   0.946   3.359   5.849
 4727SOL     OW15079   0.222   4.874   1.464
 4727SOL    HW115080   0.173   4.797   1.425
 4727SOL    HW215081   0.262   4.930   1.390
 4728SOL     OW15082   6.687   1.588   4.713
 4728SOL    HW115083   6.686   1.612   4.616
 4728SOL    HW215084   6.765   1.528   4.730
 4729SOL     OW15085   5.861   1.654   1.900
 4729SOL    HW115086   5.785   1.649   1.965
 4729SOL    HW215087   5.907   1.566   1.895
 4730SOL     OW15088   3.098   6.941   4.539
 4730SOL    HW115089   3.107   7.000   4.459
 4730SOL    HW215090   3.187   6.902   4.562
 4731SOL     OW15091   3.207   6.566   0.448
 4731SOL    HW115092   3.192   6.605   0.539
 4731SOL    HW215093   3.233   6.470   0.457
 4732SOL     OW15094   0.501   4.909   4.405
 4732SOL    HW115095   0.444   4.984   4.441
 4732SOL    HW215096   0.596   4.924   4.432
 4733SOL     OW15097   2.010   3.810   3.084
 4733SOL    HW115098   2.036   3.713   3.076
 4733SOL    HW215099   1.943   3.832   3.013
 4734SOL     OW15100   4.914   3.545   6.715
 4734SOL    HW115101   4.861   3.536   6.799
 4734SOL    HW215102   4.982   3.618   6.725
 4735SOL     OW15103   0.245   0.682   4.911
 4735SOL    HW115104   0.252   0.732   4.997
 4735SOL    HW215105   0.186   0.732   4.848
 4736SOL     OW15106   6.052   2.139   3.546
 4736SOL    HW115107   6.093   2.197   3.476
 4736SOL    HW215108   6.012   2.196   3.618
 4737SOL     OW15109   2.273   4.973   6.871
 4737SOL    HW115110   2.232   4.884   6.890
 4737SOL    HW215111   2.218   5.044   6.914
 4738SOL     OW15112   1.255   6.788   3.382
 4738SOL    HW115113   1.315   6.795   3.461
 4738SOL    HW215114   1.218   6.878   3.360
 4739SOL     OW15115   6.473   2.954   3.054
 4739SOL    HW115116   6.452   2.857   3.042
 4739SOL    HW215117   6.400   2.998   3.106
 4740SOL     OW15118   0.826   0.713   1.454
 4740SOL    HW115119   0.777   0.799   1.465
 4740SOL    HW215120   0.877   0.693   1.538
 4741SOL     OW15121   4.662   4.415   1.795
 4741SOL    HW115122   4.614   4.361   1.865
 4741SOL    HW215123   4.630   4.510   1.799
 4742SOL     OW15124   2.382   5.973   2.218
 4742SOL    HW115125   2.353   6.067   2.207
 4742SOL    HW215126   2.480   5.966   2.201
 4743SOL     OW15127   2.494   2.650   0.337
 4743SOL    HW115128   2.567   2.659   0.269
 4743SOL    HW215129   2.485   2.736   0.387
 4744SOL     OW15130   1.733   2.939   4.834
 4744SOL    HW115131   1.634   2.946   4.822
 4744SOL    HW215132   1.755   2.945   4.932
 4745SOL     OW15133   2.975   6.022   5.116
 4745SOL    HW115134   3.074   6.024   5.101
 4745SOL    HW215135   2.928   6.040   5.030
 4746SOL     OW15136   6.186   0.478   0.377
 4746SOL    HW115137   6.118   0.552   0.386
 4746SOL    HW215138   6.210   0.444   0.467
 4747SOL     OW15139   6.476   2.486   1.495
 4747SOL    HW115140   6.404   2.555   1.495
 4747SOL    HW215141   6.444   2.404   1.543
 4748SOL     OW15142   1.697   0.556   1.711
 4748SOL    HW115143   1.604   0.529   1.686
 4748SOL    HW215144   1.719   0.643   1.668
 4749SOL     OW15145   1.768   0.266   6.406
 4749SOL    HW115146   1.790   0.223   6.494
 4749SOL    HW215147   1.751   0.363   6.420
 4750SOL     OW15148   0.524   1.251   4.585
 4750SOL    HW115149   0.571   1.219   4.667
 4750SOL    HW215150   0.590   1.261   4.510
 4751SOL     OW15151   1.177   3.754   6.135
 4751SOL    HW115152   1.158   3.661   6.103
 4751SOL    HW215153   1.164   3.758   6.234
 4752SOL     OW15154   2.899   6.295   1.844
 4752SOL    HW115155   2.951   6.344   1.914
 4752SOL    HW215156   2.962   6.250   1.781
 4753SOL     OW15157   0.015   0.145   4.696
 4753SOL    HW115158   0.111   0.125   4.714
 4753SOL    HW215159   0.008   0.198   4.611
 4754SOL     OW15160   0.574   0.266   5.463
 4754SOL    HW115161   0.614   0.292   5.375
 4754SOL    HW215162   0.591   0.169   5.480
 4755SOL     OW15163   2.337   1.900   0.857
 4755SOL    HW115164   2.348   1.834   0.782
 4755SOL    HW215165   2.328   1.992   0.819
 4756SOL     OW15166   5.201   2.883   1.195
 4756SOL    HW115167   5.150   2.839   1.269
 4756SOL    HW215168   5.267   2.819   1.157
 4757SOL     OW15169   1.986   1.958   1.683
 4757SOL    HW115170   1.903   1.911   1.654
 4757SOL    HW215171   1.963   2.050   1.716
 4758SOL     OW15172   5.058   4.501   5.076
 4758SOL    HW115173   5.065   4.463   5.168
 4758SOL    HW215174   4.965   4.535   5.061
 4759SOL     OW15175   5.999   4.760   5.195
 4759SOL    HW115176   6.050   4.714   5.267
 4759SOL    HW215177   6.039   4.850   5.178
 4760SOL     OW15178   1.539   2.265   0.674
 4760SOL    HW115179   1.579   2.197   0.735
 4760SOL    HW215180   1.585   2.261   0.585
 4761SOL     OW15181   1.319   5.766   5.352
 4761SOL    HW115182   1.319   5.667   5.360
 4761SOL    HW215183   1.409   5.802   5.374
 4762SOL     OW15184   3.106   0.118   2.690
 4762SOL    HW115185   3.115   0.164   2.602
 4762SOL    HW215186   3.144   0.026   2.684
 4763SOL     OW15187   5.773   5.428   4.775
 4763SOL    HW115188   5.755   5.458   4.681
 4763SOL    HW215189   5.692   5.384   4.813
 4764SOL     OW15190   4.085   3.326   4.827
 4764SOL    HW115191   4.047   3.413   4.857
 4764SOL    HW215192   4.083   3.321   4.727
 4765SOL     OW15193   6.444   4.906   4.910
 4765SOL    HW115194   6.475   4.816   4.938
 4765SOL    HW215195   6.371   4.897   4.842
 4766SOL     OW15196   2.874   0.250   3.667
 4766SOL    HW115197   2.947   0.187   3.643
 4766SOL    HW215198   2.880   0.333   3.610
 4767SOL     OW15199   4.240   5.662   6.336
 4767SOL    HW115200   4.216   5.711   6.252
 4767SOL    HW215201   4.199   5.570   6.333
 4768SOL     OW15202   0.336   1.056   4.929
 4768SOL    HW115203   0.420   1.018   4.967
 4768SOL    HW215204   0.337   1.048   4.829
 4769SOL     OW15205   3.333   6.960   1.607
 4769SOL    HW115206   3.374   0.012   1.657
 4769SOL    HW215207   3.383   6.945   1.523
 4770SOL     OW15208   2.500   0.257   3.958
 4770SOL    HW115209   2.585   0.294   3.920
 4770SOL    HW215210   2.422   0.298   3.911
 4771SOL     OW15211   3.767   4.104   5.376
 4771SOL    HW115212   3.787   4.152   5.291
 4771SOL    HW215213   3.760   4.169   5.451
 4772SOL     OW15214   2.218   2.563   1.515
 4772SOL    HW115215   2.301   2.551   1.461
 4772SOL    HW215216   2.139   2.539   1.460
 4773SOL     OW15217   6.173   5.942   3.506
 4773SOL    HW115218   6.247   6.003   3.477
 4773SOL    HW215219   6.124   5.983   3.583
 4774SOL     OW15220   1.014   4.336   0.521
 4774SOL    HW115221   0.991   4.333   0.618
 4774SOL    HW215222   0.934   4.365   0.469
 4775SOL     OW15223   2.735   1.162   2.286
 4775SOL    HW115224   2.783   1.247   2.264
 4775SOL    HW215225   2.688   1.128   2.205
 4776SOL     OW15226   3.531   5.167   1.650
 4776SOL    HW115227   3.574   5.142   1.563
 4776SOL    HW215228   3.586   5.236   1.696
 4777SOL     OW15229   2.698   4.485   1.483
 4777SOL    HW115230   2.761   4.409   1.501
 4777SOL    HW215231   2.676   4.532   1.569
 4778SOL     OW15232   4.982   3.971   1.794
 4778SOL    HW115233   4.956   3.878   1.768
 4778SOL    HW215234   4.905   4.016   1.839
 4779SOL     OW15235   4.985   0.875   3.091
 4779SOL    HW115236   5.076   0.859   3.052
 4779SOL    HW215237   4.994   0.933   3.173
 4780SOL     OW15238   1.747   6.606   5.856
 4780SOL    HW115239   1.791   6.526   5.816
 4780SOL    HW215240   1.813   6.680   5.864
 4781SOL     OW15241   2.163   5.308   2.014
 4781SOL    HW115242   2.103   5.375   1.970
 4781SOL    HW215243   2.135   5.295   2.109
 4782SOL     OW15244   5.660   6.214   6.676
 4782SOL    HW115245   5.588   6.161   6.721
 4782SOL    HW215246   5.733   6.233   6.741
 4783SOL     OW15247   6.524   4.284   1.644
 4783SOL    HW115248   6.573   4.279   1.731
 4783SOL    HW215249   6.471   4.369   1.640
 4784SOL     OW15250   6.243   4.355   5.116
 4784SOL    HW115251   6.172   4.378   5.049
 4784SOL    HW215252   6.249   4.255   5.124
 4785SOL     OW15253   6.230   0.377   0.611
 4785SOL    HW115254   6.272   0.411   0.695
 4785SOL    HW215255   6.141   0.336   0.631
 4786SOL     OW15256   1.425   3.134   2.628
 4786SOL    HW115257   1.446   3.210   2.566
 4786SOL    HW215258   1.369   3.066   2.581
 4787SOL     OW15259   3.483   2.063   2.232
 4787SOL    HW115260   3.507   1.971   2.263
 4787SOL    HW215261   3.547   2.093   2.162
 4788SOL     OW15262   0.869   5.690   5.162
 4788SOL    HW115263   0.851   5.685   5.260
 4788SOL    HW215264   0.941   5.625   5.137
 4789SOL     OW15265   6.270   0.108   0.534
 4789SOL    HW115266   6.332   0.063   0.598
 4789SOL    HW215267   6.264   0.205   0.557
 4790SOL     OW15268   5.087   1.018   0.358
 4790SOL    HW115269   5.092   0.919   0.364
 4790SOL    HW215270   5.067   1.045   0.264
 4791SOL     OW15271   4.861   0.325   2.684
 4791SOL    HW115272   4.855   0.344   2.586
 4791SOL    HW215273   4.800   0.386   2.734
 4792SOL     OW15274   2.575   2.419   1.632
 4792SOL    HW115275   2.556   2.494   1.568
 4792SOL    HW215276   2.585   2.333   1.581
 4793SOL     OW15277   0.951   6.749   6.329
 4793SOL    HW115278   1.037   6.752   6.277
 4793SOL    HW215279   0.910   6.840   6.328
 4794SOL     OW15280   3.781   0.561   2.189
 4794SOL    HW115281   3.856   0.615   2.228
 4794SOL    HW215282   3.695   0.590   2.231
 4795SOL     OW15283   6.362   2.878   4.485
 4795SOL    HW115284   6.339   2.940   4.559
 4795SOL    HW215285   6.289   2.878   4.417
 4796SOL     OW15286   6.001   3.862   0.912
 4796SOL    HW115287   6.092   3.834   0.941
 4796SOL    HW215288   5.932   3.807   0.959
 4797SOL     OW15289   0.285   5.012   5.223
 4797SOL    HW115290   0.312   4.982   5.314
 4797SOL    HW215291   0.339   4.964   5.154
 4798SOL     OW15292   6.807   4.030   4.993
 4798SOL    HW115293   6.780   4.103   4.930
 4798SOL    HW215294   6.851   4.071   5.074
 4799SOL     OW15295   4.108   1.331   4.824
 4799SOL    HW115296   4.182   1.271   4.793
 4799SOL    HW215297   4.045   1.279   4.882
 4800SOL     OW15298   1.869   1.784   4.502
 4800SOL    HW115299   1.810   1.729   4.442
 4800SOL    HW215300   1.882   1.875   4.461
 4801SOL     OW15301   0.570   2.461   0.996
 4801SOL    HW115302   0.661   2.495   0.972
 4801SOL    HW215303   0.578   2.367   1.030
 4802SOL     OW15304   2.022   0.753   2.365
 4802SOL    HW115305   2.006   0.760   2.266
 4802SOL    HW215306   2.118   0.768   2.384
 4803SOL     OW15307   0.874   7.017   0.984
 4803SOL    HW115308   0.896   6.984   0.891
 4803SOL    HW215309   0.921   6.959   1.051
 4804SOL     OW15310   4.329   5.585   0.258
 4804SOL    HW115311   4.341   5.628   0.347
 4804SOL    HW215312   4.336   5.654   0.186
 4805SOL     OW15313   0.853   1.981   0.441
 4805SOL    HW115314   0.930   1.925   0.411
 4805SOL    HW215315   0.837   1.966   0.538
 4806SOL     OW15316   0.921   3.007   3.284
 4806SOL    HW115317   0.854   2.997   3.357
 4806SOL    HW215318   0.961   2.918   3.262
 4807SOL     OW15319   0.208   6.489   0.791
 4807SOL    HW115320   0.264   6.443   0.723
 4807SOL    HW215321   0.163   6.568   0.750
 4808SOL     OW15322   5.116   3.335   1.431
 4808SOL    HW115323   5.075   3.287   1.354
 4808SOL    HW215324   5.053   3.405   1.465
 4809SOL     OW15325   4.451   6.029   6.918
 4809SOL    HW115326   4.463   6.101   6.987
 4809SOL    HW215327   4.491   6.059   6.831
 4810SOL     OW15328   0.943   0.553   0.958
 4810SOL    HW115329   0.871   0.530   1.024
 4810SOL    HW215330   0.902   0.578   0.871
 4811SOL     OW15331   4.953   5.929   2.505
 4811SOL    HW115332   5.030   5.909   2.565
 4811SOL    HW215333   4.929   6.026   2.511
 4812SOL     OW15334   6.503   5.263   4.197
 4812SOL    HW115335   6.435   5.227   4.133
 4812SOL    HW215336   6.459   5.327   4.259
 4813SOL     OW15337   5.796   2.920   2.414
 4813SOL    HW115338   5.790   2.850   2.344
 4813SOL    HW215339   5.749   3.003   2.383
 4814SOL     OW15340   0.131   3.154   1.600
 4814SOL    HW115341   0.062   3.215   1.636
 4814SOL    HW215342   0.200   3.206   1.550
 4815SOL     OW15343   3.958   6.347   2.379
 4815SOL    HW115344   4.050   6.381   2.401
 4815SOL    HW215345   3.962   6.296   2.292
 4816SOL     OW15346   5.461   5.625   3.199
 4816SOL    HW115347   5.511   5.542   3.174
 4816SOL    HW215348   5.363   5.608   3.193
 4817SOL     OW15349   6.788   1.595   6.793
 4817SOL    HW115350   6.693   1.577   6.765
 4817SOL    HW215351   6.808   1.692   6.779
 4818SOL     OW15352   0.624   6.398   4.224
 4818SOL    HW115353   0.655   6.486   4.259
 4818SOL    HW215354   0.605   6.336   4.300
 4819SOL     OW15355   1.410   2.798   0.644
 4819SOL    HW115356   1.367   2.723   0.693
 4819SOL    HW215357   1.480   2.841   0.702
 4820SOL     OW15358   0.430   3.050   2.757
 4820SOL    HW115359   0.412   3.140   2.797
 4820SOL    HW215360   0.525   3.025   2.774
 4821SOL     OW15361   6.546   5.881   3.521
 4821SOL    HW115362   6.489   5.839   3.592
 4821SOL    HW215363   6.557   5.979   3.541
 4822SOL     OW15364   1.861   3.724   4.998
 4822SOL    HW115365   1.887   3.785   4.922
 4822SOL    HW215366   1.885   3.767   5.085
 4823SOL     OW15367   1.690   2.592   1.859
 4823SOL    HW115368   1.612   2.557   1.808
 4823SOL    HW215369   1.756   2.633   1.795
 4824SOL     OW15370   6.006   1.403   6.293
 4824SOL    HW115371   6.092   1.390   6.343
 4824SOL    HW215372   6.023   1.461   6.213
 4825SOL     OW15373   1.451   6.734   3.626
 4825SOL    HW115374   1.466   6.776   3.715
 4825SOL    HW215375   1.357   6.701   3.619
 4826SOL     OW15376   4.358   0.657   1.404
 4826SOL    HW115377   4.349   0.573   1.458
 4826SOL    HW215378   4.369   0.735   1.466
 4827SOL     OW15379   6.935   1.945   0.473
 4827SOL    HW115380   6.921   1.957   0.374
 4827SOL    HW215381   6.850   1.966   0.521
 4828SOL     OW15382   5.076   1.101   4.496
 4828SOL    HW115383   5.137   1.150   4.558
 4828SOL    HW215384   5.069   1.005   4.525
 4829SOL     OW15385   4.084   6.955   5.033
 4829SOL    HW115386   4.013   6.893   5.064
 4829SOL    HW215387   4.046   0.023   5.024
 4830SOL     OW15388   2.718   6.058   3.128
 4830SOL    HW115389   2.707   6.154   3.153
 4830SOL    HW215390   2.627   6.017   3.114
 4831SOL     OW15391   3.095   4.505   5.328
 4831SOL    HW115392   3.013   4.536   5.281
 4831SOL    HW215393   3.091   4.406   5.341
 4832SOL     OW15394   3.452   3.686   4.315
 4832SOL    HW115395   3.443   3.598   4.267
 4832SOL    HW215396   3.538   3.730   4.289
 4833SOL     OW15397   6.193   3.322   4.529
 4833SOL    HW115398   6.167   3.369   4.444
 4833SOL    HW215399   6.239   3.387   4.590
 4834SOL     OW15400   1.179   4.825   1.191
 4834SOL    HW115401   1.177   4.729   1.219
 4834SOL    HW215402   1.161   4.883   1.271
 4835SOL     OW15403   6.981   2.493   5.626
 4835SOL    HW115404   7.018   2.405   5.655
 4835SOL    HW215405   7.013   2.565   5.688
 4836SOL     OW15406   4.849   1.527   5.874
 4836SOL    HW115407   4.873   1.608   5.821
 4836SOL    HW215408   4.933   1.478   5.899
 4837SOL     OW15409   0.222   3.747   4.007
 4837SOL    HW115410   0.207   3.667   4.065
 4837SOL    HW215411   0.270   3.817   4.058
 4838SOL     OW15412   2.328   3.855   5.996
 4838SOL    HW115413   2.255   3.923   5.987
 4838SOL    HW215414   2.307   3.776   5.937
 4839SOL     OW15415   2.481   1.335   0.758
 4839SOL    HW115416   2.536   1.266   0.711
 4839SOL    HW215417   2.398   1.352   0.706
 4840SOL     OW15418   6.016   3.969   4.247
 4840SOL    HW115419   6.106   3.960   4.203
 4840SOL    HW215420   6.008   3.902   4.321
 4841SOL     OW15421   3.153   6.478   3.318
 4841SOL    HW115422   3.157   6.400   3.381
 4841SOL    HW215423   3.223   6.467   3.248
 4842SOL     OW15424   3.621   5.345   2.957
 4842SOL    HW115425   3.632   5.258   2.908
 4842SOL    HW215426   3.707   5.368   3.002
 4843SOL     OW15427   6.887   1.303   6.882
 4843SOL    HW115428   6.862   1.355   6.964
 4843SOL    HW215429   6.980   1.327   6.854
 4844SOL     OW15430   2.110   5.759   5.206
 4844SOL    HW115431   2.093   5.767   5.108
 4844SOL    HW215432   2.058   5.682   5.243
 4845SOL     OW15433   4.898   3.678   4.863
 4845SOL    HW115434   4.923   3.590   4.822
 4845SOL    HW215435   4.836   3.663   4.939
 4846SOL     OW15436   6.314   3.530   4.620
 4846SOL    HW115437   6.304   3.627   4.601
 4846SOL    HW215438   6.411   3.509   4.633
 4847SOL     OW15439   2.828   6.230   6.319
 4847SOL    HW115440   2.908   6.290   6.324
 4847SOL    HW215441   2.752   6.271   6.368
 4848SOL     OW15442   4.483   1.095   4.149
 4848SOL    HW115443   4.559   1.159   4.162
 4848SOL    HW215444   4.519   1.005   4.125
 4849SOL     OW15445   2.478   6.142   1.445
 4849SOL    HW115446   2.530   6.095   1.516
 4849SOL    HW215447   2.442   6.228   1.482
 4850SOL     OW15448   3.991   0.154   0.939
 4850SOL    HW115449   3.902   0.130   0.900
 4850SOL    HW215450   3.984   0.242   0.985
 4851SOL     OW15451   3.308   4.582   6.638
 4851SOL    HW115452   3.254   4.592   6.554
 4851SOL    HW215453   3.403   4.606   6.619
 4852SOL     OW15454   5.701   4.817   5.573
 4852SOL    HW115455   5.669   4.882   5.641
 4852SOL    HW215456   5.674   4.848   5.482
 4853SOL     OW15457   4.124   6.915   2.676
 4853SOL    HW115458   4.217   6.926   2.640
 4853SOL    HW215459   4.086   6.828   2.642
 4854SOL     OW15460   4.995   6.090   2.219
 4854SOL    HW115461   5.077   6.081   2.277
 4854SOL    HW215462   5.002   6.026   2.142
 4855SOL     OW15463   4.786   4.912   5.984
 4855SOL    HW115464   4.761   4.994   5.934
 4855SOL    HW215465   4.704   4.875   6.029
 4856SOL     OW15466   0.613   4.085   2.951
 4856SOL    HW115467   0.621   4.157   2.882
 4856SOL    HW215468   0.548   4.016   2.920
 4857SOL     OW15469   2.154   2.581   5.544
 4857SOL    HW115470   2.127   2.503   5.600
 4857SOL    HW215471   2.242   2.561   5.499
 4858SOL     OW15472   1.632   6.107   4.481
 4858SOL    HW115473   1.560   6.173   4.457
 4858SOL    HW215474   1.638   6.098   4.580
 4859SOL     OW15475   6.972   6.222   2.651
 4859SOL    HW115476   6.916   6.154   2.698
 4859SOL    HW215477   6.913   6.282   2.597
 4860SOL     OW15478   4.057   5.476   1.803
 4860SOL    HW115479   4.139   5.423   1.783
 4860SOL    HW215480   4.074   5.536   1.882
 4861SOL     OW15481   0.212   3.752   6.090
 4861SOL    HW115482   0.296   3.734   6.040
 4861SOL    HW215483   0.231   3.748   6.189
 4862SOL     OW15484   1.965   5.912   4.230
 4862SOL    HW115485   1.873   5.896   4.267
 4862SOL    HW215486   2.033   5.873   4.292
 4863SOL     OW15487   5.265   2.379   2.633
 4863SOL    HW115488   5.292   2.283   2.636
 4863SOL    HW215489   5.206   2.400   2.711
 4864SOL     OW15490   2.060   1.529   0.915
 4864SOL    HW115491   2.095   1.592   0.985
 4864SOL    HW215492   1.962   1.544   0.902
 4865SOL     OW15493   3.673   5.626   5.005
 4865SOL    HW115494   3.758   5.601   4.959
 4865SOL    HW215495   3.626   5.697   4.953
 4866SOL     OW15496   0.477   4.556   2.053
 4866SOL    HW115497   0.483   4.456   2.056
 4866SOL    HW215498   0.521   4.590   1.970
 4867SOL     OW15499   5.352   4.696   3.788
 4867SOL    HW115500   5.353   4.670   3.692
 4867SOL    HW215501   5.265   4.669   3.829
 4868SOL     OW15502   1.607   6.508   1.321
 4868SOL    HW115503   1.618   6.541   1.415
 4868SOL    HW215504   1.580   6.584   1.263
 4869SOL     OW15505   6.223   1.457   1.047
 4869SOL    HW115506   6.180   1.501   1.126
 4869SOL    HW215507   6.164   1.384   1.013
 4870SOL     OW15508   6.754   6.963   0.649
 4870SOL    HW115509   6.843   6.937   0.688
 4870SOL    HW215510   6.768   0.001   0.573
 4871SOL     OW15511   1.370   3.049   4.563
 4871SOL    HW115512   1.439   3.017   4.628
 4871SOL    HW215513   1.407   3.125   4.510
 4872SOL     OW15514   0.884   0.555   4.296
 4872SOL    HW115515   0.814   0.510   4.240
 4872SOL    HW215516   0.974   0.540   4.255
 4873SOL     OW15517   1.088   6.377   4.941
 4873SOL    HW115518   1.088   6.305   5.010
 4873SOL    HW215519   1.169   6.369   4.884
 4874SOL     OW15520   5.570   2.874   3.710
 4874SOL    HW115521   5.527   2.868   3.620
 4874SOL    HW215522   5.500   2.892   3.780
 4875SOL     OW15523   6.365   2.886   6.251
 4875SOL    HW115524   6.422   2.889   6.333
 4875SOL    HW215525   6.312   2.801   6.249
 4876SOL     OW15526   0.115   1.526   0.017
 4876SOL    HW115527   0.143   1.442   6.994
 4876SOL    HW215528   0.196   1.580   0.037
 4877SOL     OW15529   6.198   1.190   1.304
 4877SOL    HW115530   6.205   1.145   1.393
 4877SOL    HW215531   6.270   1.259   1.296
 4878SOL     OW15532   0.104   2.837   1.888
 4878SOL    HW115533   0.065   2.897   1.958
 4878SOL    HW215534   0.141   2.893   1.813
 4879SOL     OW15535   4.526   5.849   3.336
 4879SOL    HW115536   4.583   5.898   3.270
 4879SOL    HW215537   4.515   5.905   3.418
 4880SOL     OW15538   5.953   2.445   6.013
 4880SOL    HW115539   6.039   2.470   6.056
 4880SOL    HW215540   5.880   2.444   6.081
 4881SOL     OW15541   3.021   5.243   6.794
 4881SOL    HW115542   3.011   5.338   6.767
 4881SOL    HW215543   3.117   5.224   6.815
 4882SOL     OW15544   4.753   6.872   6.735
 4882SOL    HW115545   4.691   6.922   6.675
 4882SOL    HW215546   4.829   6.931   6.761
 4883SOL     OW15547   6.362   5.454   0.587
 4883SOL    HW115548   6.310   5.372   0.611
 4883SOL    HW215549   6.458   5.441   0.614
 4884SOL     OW15550   3.724   6.482   2.043
 4884SOL    HW115551   3.821   6.488   2.065
 4884SOL    HW215552   3.700   6.553   1.977
 4885SOL     OW15553   1.975   6.773   2.786
 4885SOL    HW115554   1.964   6.824   2.701
 4885SOL    HW215555   2.037   6.823   2.847
 4886SOL     OW15556   6.245   0.917   6.070
 4886SOL    HW115557   6.180   0.841   6.079
 4886SOL    HW215558   6.201   1.001   6.102
 4887SOL     OW15559   0.427   1.557   5.786
 4887SOL    HW115560   0.460   1.648   5.760
 4887SOL    HW215561   0.460   1.534   5.877
 4888SOL     OW15562   3.155   5.615   2.014
 4888SOL    HW115563   3.198   5.537   2.059
 4888SOL    HW215564   3.103   5.583   1.935
 4889SOL     OW15565   1.388   2.990   6.519
 4889SOL    HW115566   1.428   2.947   6.600
 4889SOL    HW215567   1.310   2.936   6.488
 4890SOL     OW15568   1.239   0.193   4.361
 4890SOL    HW115569   1.307   0.130   4.398
 4890SOL    HW215570   1.171   0.214   4.432
 4891SOL     OW15571   1.929   3.307   0.918
 4891SOL    HW115572   2.003   3.250   0.953
 4891SOL    HW215573   1.960   3.402   0.912
 4892SOL     OW15574   1.449   5.502   1.552
 4892SOL    HW115575   1.407   5.582   1.594
 4892SOL    HW215576   1.526   5.530   1.494
 4893SOL     OW15577   1.158   3.497   6.030
 4893SOL    HW115578   1.234   3.460   5.976
 4893SOL    HW215579   1.163   3.461   6.124
 4894SOL     OW15580   1.630   1.210   3.174
 4894SOL    HW115581   1.561   1.252   3.114
 4894SOL    HW215582   1.610   1.234   3.269
 4895SOL     OW15583   5.673   4.260   6.990
 4895SOL    HW115584   5.610   4.246   0.042
 4895SOL    HW215585   5.676   4.178   6.933
 4896SOL     OW15586   4.294   5.774   3.191
 4896SOL    HW115587   4.219   5.781   3.256
 4896SOL    HW215588   4.373   5.825   3.225
 4897SOL     OW15589   3.141   5.789   6.091
 4897SOL    HW115590   3.137   5.732   6.009
 4897SOL    HW215591   3.228   5.838   6.093
 4898SOL     OW15592   5.955   2.344   4.960
 4898SOL    HW115593   6.000   2.327   5.047
 4898SOL    HW215594   6.020   2.330   4.885
 4899SOL     OW15595   5.197   4.566   4.324
 4899SOL    HW115596   5.109   4.556   4.371
 4899SOL    HW215597   5.270   4.527   4.380
 4900SOL     OW15598   0.595   6.551   5.447
 4900SOL    HW115599   0.631   6.573   5.357
 4900SOL    HW215600   0.497   6.530   5.440
 4901SOL     OW15601   0.274   6.705   3.149
 4901SOL    HW115602   0.240   6.616   3.181
 4901SOL    HW215603   0.362   6.724   3.193
 4902SOL     OW15604   3.025   4.976   1.977
 4902SOL    HW115605   3.033   4.889   1.928
 4902SOL    HW215606   3.025   4.960   2.075
 4903SOL     OW15607   5.522   5.875   5.785
 4903SOL    HW115608   5.570   5.850   5.700
 4903SOL    HW215609   5.512   5.794   5.842
 4904SOL     OW15610   3.518   6.108   3.467
 4904SOL    HW115611   3.587   6.049   3.426
 4904SOL    HW215612   3.436   6.109   3.409
 4905SOL     OW15613   6.719   3.508   3.396
 4905SOL    HW115614   6.628   3.525   3.357
 4905SOL    HW215615   6.752   3.419   3.365
 4906SOL     OW15616   5.108   0.602   1.320
 4906SOL    HW115617   5.156   0.597   1.232
 4906SOL    HW215618   5.036   0.672   1.314
 4907SOL     OW15619   2.290   1.854   2.404
 4907SOL    HW115620   2.323   1.910   2.328
 4907SOL    HW215621   2.296   1.906   2.489
 4908SOL     OW15622   3.834   5.327   0.179
 4908SOL    HW115623   3.901   5.389   0.222
 4908SOL    HW215624   3.757   5.314   0.240
 4909SOL     OW15625   5.829   0.175   5.727
 4909SOL    HW115626   5.803   0.202   5.634
 4909SOL    HW215627   5.929   0.171   5.734
 4910SOL     OW15628   6.022   0.170   6.424
 4910SOL    HW115629   5.993   0.145   6.516
 4910SOL    HW215630   5.941   0.192   6.369
 4911SOL     OW15631   0.857   2.993   6.157
 4911SOL    HW115632   0.810   2.999   6.068
 4911SOL    HW215633   0.817   2.919   6.210
 4912SOL     OW15634   2.556   2.393   2.115
 4912SOL    HW115635   2.614   2.466   2.078
 4912SOL    HW215636   2.591   2.305   2.084
 4913SOL     OW15637   3.051   3.592   2.338
 4913SOL    HW115638   3.114   3.576   2.262
 4913SOL    HW215639   2.968   3.537   2.326
 4914SOL     OW15640   1.658   6.444   2.476
 4914SOL    HW115641   1.650   6.543   2.489
 4914SOL    HW215642   1.567   6.404   2.477
 4915SOL     OW15643   3.080   6.046   2.959
 4915SOL    HW115644   3.055   6.136   2.994
 4915SOL    HW215645   2.997   5.993   2.941
 4916SOL     OW15646   1.891   1.508   2.419
 4916SOL    HW115647   1.892   1.600   2.459
 4916SOL    HW215648   1.799   1.489   2.382
 4917SOL     OW15649   2.332   5.454   6.331
 4917SOL    HW115650   2.302   5.359   6.323
 4917SOL    HW215651   2.336   5.479   6.428
 4918SOL     OW15652   2.162   0.599   3.864
 4918SOL    HW115653   2.087   0.661   3.884
 4918SOL    HW215654   2.143   0.510   3.907
 4919SOL     OW15655   2.632   3.210   1.472
 4919SOL    HW115656   2.578   3.251   1.545
 4919SOL    HW215657   2.572   3.165   1.406
 4920SOL     OW15658   4.171   0.909   0.425
 4920SOL    HW115659   4.229   0.933   0.503
 4920SOL    HW215660   4.088   0.965   0.428
 4921SOL     OW15661   1.544   4.149   2.045
 4921SOL    HW115662   1.466   4.197   2.086
 4921SOL    HW215663   1.605   4.215   2.003
 4922SOL     OW15664   0.685   2.639   5.476
 4922SOL    HW115665   0.720   2.545   5.481
 4922SOL    HW215666   0.685   2.669   5.381
 4923SOL     OW15667   3.151   2.235   0.602
 4923SOL    HW115668   3.088   2.261   0.674
 4923SOL    HW215669   3.138   2.139   0.579
 4924SOL     OW15670   0.417   3.978   4.511
 4924SOL    HW115671   0.512   4.007   4.513
 4924SOL    HW215672   0.391   3.944   4.601
 4925SOL     OW15673   4.603   5.569   6.146
 4925SOL    HW115674   4.559   5.582   6.235
 4925SOL    HW215675   4.695   5.532   6.159
 4926SOL     OW15676   3.802   2.612   1.646
 4926SOL    HW115677   3.859   2.656   1.576
 4926SOL    HW215678   3.783   2.518   1.619
 4927SOL     OW15679   4.082   3.839   3.014
 4927SOL    HW115680   4.175   3.865   3.039
 4927SOL    HW215681   4.020   3.857   3.090
 4928SOL     OW15682   0.729   6.365   0.594
 4928SOL    HW115683   0.681   6.296   0.647
 4928SOL    HW215684   0.825   6.369   0.623
 4929SOL     OW15685   0.707   5.156   4.159
 4929SOL    HW115686   0.633   5.102   4.119
 4929SOL    HW215687   0.679   5.189   4.250
 4930SOL     OW15688   0.147   2.436   0.434
 4930SOL    HW115689   0.235   2.438   0.480
 4930SOL    HW215690   0.076   2.469   0.495
 4931SOL     OW15691   6.727   0.216   1.105
 4931SOL    HW115692   6.776   0.135   1.072
 4931SOL    HW215693   6.783   0.297   1.092
 4932SOL     OW15694   4.396   2.247   1.158
 4932SOL    HW115695   4.483   2.197   1.153
 4932SOL    HW215696   4.412   2.337   1.200
 4933SOL     OW15697   2.777   1.045   5.022
 4933SOL    HW115698   2.866   1.051   4.978
 4933SOL    HW215699   2.788   1.006   5.114
 4934SOL     OW15700   1.594   5.658   5.216
 4934SOL    HW115701   1.608   5.673   5.118
 4934SOL    HW215702   1.673   5.693   5.267
 4935SOL     OW15703   1.676   1.263   0.401
 4935SOL    HW115704   1.759   1.276   0.456
 4935SOL    HW215705   1.631   1.179   0.429
 4936SOL     OW15706   4.616   5.763   1.335
 4936SOL    HW115707   4.669   5.801   1.259
 4936SOL    HW215708   4.545   5.828   1.361
 4937SOL     OW15709   0.939   3.011   5.445
 4937SOL    HW115710   0.859   2.976   5.494
 4937SOL    HW215711   0.990   3.074   5.504
 4938SOL     OW15712   3.327   4.728   1.686
 4938SOL    HW115713   3.329   4.823   1.654
 4938SOL    HW215714   3.410   4.709   1.739
 4939SOL     OW15715   0.688   1.452   1.775
 4939SOL    HW115716   0.666   1.373   1.832
 4939SOL    HW215717   0.777   1.440   1.733
 4940SOL     OW15718   0.302   1.457   5.352
 4940SOL    HW115719   0.333   1.419   5.440
 4940SOL    HW215720   0.284   1.555   5.362
 4941SOL     OW15721   4.379   2.369   5.595
 4941SOL    HW115722   4.326   2.434   5.650
 4941SOL    HW215723   4.329   2.283   5.588
 4942SOL     OW15724   0.593   1.292   3.355
 4942SOL    HW115725   0.557   1.383   3.336
 4942SOL    HW215726   0.521   1.235   3.394
 4943SOL     OW15727   5.342   2.574   6.976
 4943SOL    HW115728   5.253   2.612   6.953
 4943SOL    HW215729   5.351   2.483   6.937
 4944SOL     OW15730   0.891   5.447   6.914
 4944SOL    HW115731   0.938   5.451   6.826
 4944SOL    HW215732   0.795   5.471   6.902
 4945SOL     OW15733   2.057   0.632   5.523
 4945SOL    HW115734   2.013   0.718   5.499
 4945SOL    HW215735   2.123   0.607   5.452
 4946SOL     OW15736   2.880   5.348   0.116
 4946SOL    HW115737   2.924   5.258   0.108
 4946SOL    HW215738   2.841   5.358   0.208
 4947SOL     OW15739   1.391   0.496   1.086
 4947SOL    HW115740   1.314   0.446   1.048
 4947SOL    HW215741   1.476   0.466   1.042
 4948SOL     OW15742   1.927   2.227   1.843
 4948SOL    HW115743   2.009   2.239   1.899
 4948SOL    HW215744   1.930   2.293   1.767
 4949SOL     OW15745   6.997   4.378   6.366
 4949SOL    HW115746   6.980   4.444   6.439
 4949SOL    HW215747   6.941   4.402   6.286
 4950SOL     OW15748   3.391   4.460   5.759
 4950SOL    HW115749   3.421   4.400   5.832
 4950SOL    HW215750   3.388   4.410   5.672
 4951SOL     OW15751   4.909   5.575   2.888
 4951SOL    HW115752   4.922   5.639   2.812
 4951SOL    HW215753   4.928   5.482   2.858
 4952SOL     OW15754   0.537   0.075   6.416
 4952SOL    HW115755   0.577   7.011   6.393
 4952SOL    HW215756   0.605   0.130   6.466
 4953SOL     OW15757   0.866   2.489   4.727
 4953SOL    HW115758   0.965   2.497   4.739
 4953SOL    HW215759   0.821   2.502   4.815
 4954SOL     OW15760   3.085   3.664   4.881
 4954SOL    HW115761   3.048   3.596   4.817
 4954SOL    HW215762   3.183   3.676   4.865
 4955SOL     OW15763   4.174   5.538   5.880
 4955SOL    HW115764   4.235   5.471   5.922
 4955SOL    HW215765   4.109   5.490   5.821
 4956SOL     OW15766   2.972   0.218   5.370
 4956SOL    HW115767   3.022   0.305   5.372
 4956SOL    HW215768   3.024   0.152   5.317
 4957SOL     OW15769   5.783   4.668   6.485
 4957SOL    HW115770   5.758   4.600   6.554
 4957SOL    HW215771   5.792   4.625   6.396
 4958SOL     OW15772   4.442   6.043   0.638
 4958SOL    HW115773   4.452   6.141   0.655
 4958SOL    HW215774   4.349   6.014   0.660
 4959SOL     OW15775   0.486   2.374   2.821
 4959SOL    HW115776   0.403   2.324   2.796
 4959SOL    HW215777   0.488   2.389   2.920
 4960SOL     OW15778   5.078   5.025   3.604
 4960SOL    HW115779   5.072   5.112   3.555
 4960SOL    HW215780   5.174   4.998   3.611
 4961SOL     OW15781   3.253   2.006   1.377
 4961SOL    HW115782   3.275   2.097   1.410
 4961SOL    HW215783   3.154   1.995   1.373
 4962SOL     OW15784   1.057   4.026   0.681
 4962SOL    HW115785   1.113   3.982   0.751
 4962SOL    HW215786   1.115   4.087   0.627
 4963SOL     OW15787   0.508   3.931   6.448
 4963SOL    HW115788   0.606   3.912   6.456
 4963SOL    HW215789   0.493   4.029   6.453
 4964SOL     OW15790   2.468   6.638   4.542
 4964SOL    HW115791   2.436   6.549   4.575
 4964SOL    HW215792   2.417   6.711   4.587
 4965SOL     OW15793   1.289   6.078   2.909
 4965SOL    HW115794   1.323   6.159   2.861
 4965SOL    HW215795   1.295   5.999   2.848
 4966SOL     OW15796   3.100   6.648   4.215
 4966SOL    HW115797   3.010   6.692   4.218
 4966SOL    HW215798   3.156   6.691   4.145
 4967SOL     OW15799   4.439   4.751   4.805
 4967SOL    HW115800   4.503   4.819   4.841
 4967SOL    HW215801   4.406   4.694   4.880
 4968SOL     OW15802   0.131   2.930   3.404
 4968SOL    HW115803   0.216   2.937   3.456
 4968SOL    HW215804   0.149   2.892   3.314
 4969SOL     OW15805   0.243   6.026   4.007
 4969SOL    HW115806   0.178   6.025   4.083
 4969SOL    HW215807   0.196   6.055   3.923
 4970SOL     OW15808   1.319   1.738   1.082
 4970SOL    HW115809   1.384   1.715   1.010
 4970SOL    HW215810   1.296   1.835   1.076
 4971SOL     OW15811   0.174   6.140   2.503
 4971SOL    HW115812   0.112   6.191   2.563
 4971SOL    HW215813   0.136   6.050   2.483
 4972SOL     OW15814   0.397   4.584   0.725
 4972SOL    HW115815   0.410   4.654   0.795
 4972SOL    HW215816   0.484   4.566   0.679
 4973SOL     OW15817   6.289   1.170   0.787
 4973SOL    HW115818   6.233   1.249   0.813
 4973SOL    HW215819   6.345   1.142   0.866
 4974SOL     OW15820   3.829   6.523   5.217
 4974SOL    HW115821   3.885   6.465   5.158
 4974SOL    HW215822   3.746   6.550   5.167
 4975SOL     OW15823   5.230   4.945   0.880
 4975SOL    HW115824   5.262   4.908   0.967
 4975SOL    HW215825   5.183   4.874   0.829
 4976SOL     OW15826   1.781   0.029   3.587
 4976SOL    HW115827   1.706   0.081   3.546
 4976SOL    HW215828   1.860   0.031   3.525
 4977SOL     OW15829   1.198   4.351   5.607
 4977SOL    HW115830   1.143   4.396   5.537
 4977SOL    HW215831   1.295   4.362   5.585
 4978SOL     OW15832   5.735   4.449   4.423
 4978SOL    HW115833   5.640   4.417   4.425
 4978SOL    HW215834   5.736   4.548   4.434
 4979SOL     OW15835   2.546   6.850   6.011
 4979SOL    HW115836   2.637   6.855   6.052
 4979SOL    HW215837   2.479   6.824   6.081
 4980SOL     OW15838   5.412   3.017   3.892
 4980SOL    HW115839   5.345   3.090   3.881
 4980SOL    HW215840   5.503   3.056   3.904
 4981SOL     OW15841   2.977   4.786   2.629
 4981SOL    HW115842   2.955   4.872   2.676
 4981SOL    HW215843   3.071   4.792   2.593
 4982SOL     OW15844   3.931   1.967   5.764
 4982SOL    HW115845   3.835   1.939   5.769
 4982SOL    HW215846   3.943   2.032   5.689
 4983SOL     OW15847   5.696   5.485   2.980
 4983SOL    HW115848   5.717   5.517   3.072
 4983SOL    HW215849   5.757   5.410   2.956
 4984SOL     OW15850   4.892   3.669   3.613
 4984SOL    HW115851   4.917   3.709   3.701
 4984SOL    HW215852   4.794   3.652   3.610
 4985SOL     OW15853   5.653   0.684   2.365
 4985SOL    HW115854   5.742   0.685   2.411
 4985SOL    HW215855   5.667   0.690   2.266
 4986SOL     OW15856   0.908   4.788   1.396
 4986SOL    HW115857   1.007   4.805   1.396
 4986SOL    HW215858   0.860   4.873   1.418
 4987SOL     OW15859   0.571   1.307   2.297
 4987SOL    HW115860   0.609   1.214   2.292
 4987SOL    HW215861   0.518   1.317   2.381
 4988SOL     OW15862   6.482   5.955   3.872
 4988SOL    HW115863   6.459   5.864   3.837
 4988SOL    HW215864   6.400   5.999   3.908
 4989SOL     OW15865   4.618   0.391   3.383
 4989SOL    HW115866   4.520   0.406   3.378
 4989SOL    HW215867   4.660   0.407   3.294
 4990SOL     OW15868   4.658   2.420   5.190
 4990SOL    HW115869   4.742   2.376   5.222
 4990SOL    HW215870   4.594   2.428   5.266
 4991SOL     OW15871   1.211   4.502   5.851
 4991SOL    HW115872   1.192   4.431   5.783
 4991SOL    HW215873   1.250   4.459   5.933
 4992SOL     OW15874   0.903   3.465   3.679
 4992SOL    HW115875   0.839   3.507   3.615
 4992SOL    HW215876   0.874   3.486   3.773
 4993SOL     OW15877   2.987   6.314   3.849
 4993SOL    HW115878   2.936   6.295   3.764
 4993SOL    HW215879   3.018   6.228   3.889
 4994SOL     OW15880   3.464   4.725   5.464
 4994SOL    HW115881   3.545   4.674   5.492
 4994SOL    HW215882   3.490   4.819   5.439
 4995SOL     OW15883   0.233   0.865   6.056
 4995SOL    HW115884   0.315   0.808   6.067
 4995SOL    HW215885   0.197   0.855   5.964
 4996SOL     OW15886   0.156   1.491   4.014
 4996SOL    HW115887   0.209   1.568   4.050
 4996SOL    HW215888   0.187   1.407   4.057
 4997SOL     OW15889   4.301   1.763   1.602
 4997SOL    HW115890   4.315   1.848   1.551
 4997SOL    HW215891   4.265   1.785   1.693
 4998SOL     OW15892   0.890   3.563   3.276
 4998SOL    HW115893   0.960   3.572   3.348
 4998SOL    HW215894   0.830   3.643   3.278
 4999SOL     OW15895   0.578   3.023   4.479
 4999SOL    HW115896   0.490   2.975   4.473
 4999SOL    HW215897   0.611   3.044   4.388
 5000SOL     OW15898   3.346   5.818   3.052
 5000SOL    HW115899   3.374   5.723   3.039
 5000SOL    HW215900   3.346   5.865   2.964
 5001SOL     OW15901   0.423   6.244   3.703
 5001SOL    HW115902   0.436   6.330   3.753
 5001SOL    HW215903   0.510   6.196   3.695
 5002SOL     OW15904   1.466   3.980   3.899
 5002SOL    HW115905   1.502   4.073   3.903
 5002SOL    HW215906   1.368   3.981   3.918
 5003SOL     OW15907   4.376   0.662   3.617
 5003SOL    HW115908   4.377   0.682   3.519
 5003SOL    HW215909   4.317   0.728   3.664
 5004SOL     OW15910   3.395   5.474   0.230
 5004SOL    HW115911   3.437   5.524   0.306
 5004SOL    HW215912   3.464   5.457   0.160
 5005SOL     OW15913   3.017   2.817   0.130
 5005SOL    HW115914   3.015   2.765   0.215
 5005SOL    HW215915   3.044   2.758   0.054
 5006SOL     OW15916   4.794   1.876   1.817
 5006SOL    HW115917   4.697   1.890   1.835
 5006SOL    HW215918   4.847   1.951   1.859
 5007SOL     OW15919   5.933   6.587   1.990
 5007SOL    HW115920   5.946   6.613   1.894
 5007SOL    HW215921   5.983   6.502   2.008
 5008SOL     OW15922   5.423   6.793   2.488
 5008SOL    HW115923   5.502   6.761   2.541
 5008SOL    HW215924   5.454   6.861   2.421
 5009SOL     OW15925   6.400   2.218   0.625
 5009SOL    HW115926   6.415   2.147   0.556
 5009SOL    HW215927   6.461   2.202   0.703
 5010SOL     OW15928   3.483   3.608   1.270
 5010SOL    HW115929   3.480   3.688   1.210
 5010SOL    HW215930   3.564   3.553   1.249
 5011SOL     OW15931   2.201   2.907   6.975
 5011SOL    HW115932   2.257   2.829   7.001
 5011SOL    HW215933   2.250   2.992   6.995
 5012SOL     OW15934   6.197   1.649   5.894
 5012SOL    HW115935   6.198   1.686   5.801
 5012SOL    HW215936   6.280   1.596   5.910
 5013SOL     OW15937   5.807   6.918   5.755
 5013SOL    HW115938   5.837   7.012   5.737
 5013SOL    HW215939   5.887   6.863   5.779
 5014SOL     OW15940   6.392   3.256   1.722
 5014SOL    HW115941   6.308   3.274   1.669
 5014SOL    HW215942   6.423   3.342   1.764
 5015SOL     OW15943   5.724   6.905   4.092
 5015SOL    HW115944   5.725   6.992   4.141
 5015SOL    HW215945   5.653   6.846   4.130
 5016SOL     OW15946   1.976   3.478   5.875
 5016SOL    HW115947   1.930   3.468   5.787
 5016SOL    HW215948   1.908   3.496   5.947
 5017SOL     OW15949   0.684   3.288   2.276
 5017SOL    HW115950   0.700   3.210   2.215
 5017SOL    HW215951   0.649   3.366   2.223
 5018SOL     OW15952   1.326   0.189   0.331
 5018SOL    HW115953   1.251   0.133   0.296
 5018SOL    HW215954   1.288   0.272   0.373
 5019SOL     OW15955   1.731   5.176   4.893
 5019SOL    HW115956   1.821   5.197   4.856
 5019SOL    HW215957   1.689   5.259   4.929
 5020SOL     OW15958   2.630   6.984   4.301
 5020SOL    HW115959   2.645   6.988   4.202
 5020SOL    HW215960   2.665   6.897   4.336
 5021SOL     OW15961   2.250   0.829   0.395
 5021SOL    HW115962   2.268   0.919   0.355
 5021SOL    HW215963   2.334   0.792   0.432
 5022SOL     OW15964   6.615   3.034   1.272
 5022SOL    HW115965   6.634   2.963   1.203
 5022SOL    HW215966   6.662   3.011   1.357
 5023SOL     OW15967   7.013   4.192   2.224
 5023SOL    HW115968   7.002   4.235   2.314
 5023SOL    HW215969   6.946   4.118   2.214
 5024SOL     OW15970   4.095   3.511   1.349
 5024SOL    HW115971   4.023   3.580   1.355
 5024SOL    HW215972   4.057   3.422   1.374
 5025SOL     OW15973   4.226   1.159   4.141
 5025SOL    HW115974   4.320   1.127   4.127
 5025SOL    HW215975   4.199   1.217   4.064
 5026SOL     OW15976   4.076   6.810   4.793
 5026SOL    HW115977   4.019   6.876   4.744
 5026SOL    HW215978   4.122   6.856   4.869
 5027SOL     OW15979   5.123   6.757   0.137
 5027SOL    HW115980   5.034   6.762   0.091
 5027SOL    HW215981   5.174   6.679   0.101
 5028SOL     OW15982   6.163   1.930   2.413
 5028SOL    HW115983   6.181   1.860   2.482
 5028SOL    HW215984   6.165   2.020   2.456
 5029SOL     OW15985   5.927   2.090   2.758
 5029SOL    HW115986   5.864   2.080   2.835
 5029SOL    HW215987   6.021   2.094   2.792
 5030SOL     OW15988   0.232   4.442   6.636
 5030SOL    HW115989   0.146   4.471   6.678
 5030SOL    HW215990   0.262   4.357   6.679
 5031SOL     OW15991   6.609   6.697   6.062
 5031SOL    HW115992   6.509   6.699   6.061
 5031SOL    HW215993   6.641   6.643   6.140
 5032SOL     OW15994   2.497   3.422   5.326
 5032SOL    HW115995   2.560   3.495   5.298
 5032SOL    HW215996   2.548   3.339   5.345
 5033SOL     OW15997   2.160   0.513   6.914
 5033SOL    HW115998   2.236   0.579   6.920
 5033SOL    HW215999   2.106   0.516   6.998
 5034SOL     OW16000   4.439   6.525   4.736
 5034SOL    HW116001   4.513   6.584   4.767
 5034SOL    HW216002   4.472   6.431   4.728
 5035SOL     OW16003   1.945   3.382   3.890
 5035SOL    HW116004   1.861   3.372   3.943
 5035SOL    HW216005   1.932   3.453   3.820
 5036SOL     OW16006   6.757   2.185   5.243
 5036SOL    HW116007   6.813   2.186   5.160
 5036SOL    HW216008   6.804   2.238   5.314
 5037SOL     OW16009   4.643   3.919   1.042
 5037SOL    HW116010   4.660   3.988   1.113
 5037SOL    HW216011   4.545   3.918   1.019
 5038SOL     OW16012   3.906   3.425   4.133
 5038SOL    HW116013   3.807   3.417   4.130
 5038SOL    HW216014   3.936   3.494   4.067
 5039SOL     OW16015   1.125   3.473   6.915
 5039SOL    HW116016   1.224   3.456   6.915
 5039SOL    HW216017   1.081   3.417   6.845
 5040SOL     OW16018   0.321   0.665   5.758
 5040SOL    HW116019   0.281   0.594   5.699
 5040SOL    HW216020   0.382   0.623   5.824
 5041SOL     OW16021   6.974   3.291   1.723
 5041SOL    HW116022   6.948   3.383   1.751
 5041SOL    HW216023   6.898   3.248   1.674
 5042SOL     OW16024   0.430   2.732   6.005
 5042SOL    HW116025   0.485   2.723   6.089
 5042SOL    HW216026   0.350   2.789   6.024
 5043SOL     OW16027   4.155   6.458   1.352
 5043SOL    HW116028   4.217   6.416   1.418
 5043SOL    HW216029   4.207   6.500   1.278
 5044SOL     OW16030   5.896   4.808   0.674
 5044SOL    HW116031   5.937   4.898   0.685
 5044SOL    HW216032   5.804   4.818   0.636
 5045SOL     OW16033   6.295   3.298   6.642
 5045SOL    HW116034   6.278   3.363   6.715
 5045SOL    HW216035   6.306   3.346   6.555
 5046SOL     OW16036   3.795   3.356   3.106
 5046SOL    HW116037   3.867   3.413   3.065
 5046SOL    HW216038   3.721   3.344   3.040
 5047SOL     OW16039   0.739   3.776   3.261
 5047SOL    HW116040   0.785   3.850   3.210
 5047SOL    HW216041   0.661   3.743   3.208
 5048SOL     OW16042   1.735   1.202   5.791
 5048SOL    HW116043   1.767   1.267   5.722
 5048SOL    HW216044   1.668   1.140   5.749
 5049SOL     OW16045   4.994   1.316   6.407
 5049SOL    HW116046   5.063   1.356   6.467
 5049SOL    HW216047   4.905   1.359   6.426
 5050SOL     OW16048   1.594   0.435   0.923
 5050SOL    HW116049   1.669   0.395   0.870
 5050SOL    HW216050   1.528   0.476   0.861
 5051SOL     OW16051   4.315   5.138   1.401
 5051SOL    HW116052   4.385   5.208   1.418
 5051SOL    HW216053   4.319   5.110   1.305
 5052SOL     OW16054   2.652   1.205   5.536
 5052SOL    HW116055   2.643   1.303   5.517
 5052SOL    HW216056   2.621   1.153   5.457
 5053SOL     OW16057   0.075   6.915   1.795
 5053SOL    HW116058   0.040   6.924   1.701
 5053SOL    HW216059   0.001   6.884   1.855
 5054SOL     OW16060   3.576   5.156   3.895
 5054SOL    HW116061   3.483   5.120   3.888
 5054SOL    HW216062   3.573   5.255   3.908
 5055SOL     OW16063   6.511   3.102   6.762
 5055SOL    HW116064   6.436   3.163   6.739
 5055SOL    HW216065   6.587   3.117   6.698
 5056SOL     OW16066   4.982   4.291   4.858
 5056SOL    HW116067   4.963   4.342   4.941
 5056SOL    HW216068   5.009   4.354   4.785
 5057SOL     OW16069   0.902   5.753   2.422
 5057SOL    HW116070   0.824   5.772   2.363
 5057SOL    HW216071   0.938   5.662   2.401
 5058SOL     OW16072   3.223   5.136   5.320
 5058SOL    HW116073   3.230   5.125   5.419
 5058SOL    HW216074   3.281   5.213   5.291
 5059SOL     OW16075   0.655   0.255   2.016
 5059SOL    HW116076   0.700   0.282   2.102
 5059SOL    HW216077   0.687   0.314   1.942
 5060SOL     OW16078   6.462   1.768   5.544
 5060SOL    HW116079   6.526   1.842   5.566
 5060SOL    HW216080   6.376   1.807   5.510
 5061SOL     OW16081   5.242   4.127   6.990
 5061SOL    HW116082   5.297   4.073   0.031
 5061SOL    HW216083   5.192   4.198   0.016
 5062SOL     OW16084   0.457   0.427   0.825
 5062SOL    HW116085   0.418   0.488   0.895
 5062SOL    HW216086   0.469   0.336   0.863
 5063SOL     OW16087   1.289   6.503   1.192
 5063SOL    HW116088   1.281   6.591   1.239
 5063SOL    HW216089   1.233   6.504   1.109
 5064SOL     OW16090   4.911   3.055   0.081
 5064SOL    HW116091   4.987   2.989   0.088
 5064SOL    HW216092   4.936   3.140   0.128
 5065SOL     OW16093   2.252   6.133   5.412
 5065SOL    HW116094   2.226   6.154   5.318
 5065SOL    HW216095   2.345   6.166   5.429
 5066SOL     OW16096   4.991   5.016   1.352
 5066SOL    HW116097   4.988   5.014   1.252
 5066SOL    HW216098   4.904   4.981   1.389
 5067SOL     OW16099   4.822   0.853   0.014
 5067SOL    HW116100   4.912   0.891   7.015
 5067SOL    HW216101   4.782   0.907   0.088
 5068SOL     OW16102   2.815   4.898   1.212
 5068SOL    HW116103   2.773   4.810   1.234
 5068SOL    HW216104   2.913   4.893   1.231
 5069SOL     OW16105   0.813   5.159   3.466
 5069SOL    HW116106   0.731   5.132   3.416
 5069SOL    HW216107   0.895   5.135   3.413
 5070SOL     OW16108   5.070   3.161   4.420
 5070SOL    HW116109   5.095   3.163   4.323
 5070SOL    HW216110   4.980   3.118   4.430
 5071SOL     OW16111   4.277   0.882   6.817
 5071SOL    HW116112   4.227   0.907   6.734
 5071SOL    HW216113   4.362   0.933   6.822
 5072SOL     OW16114   1.465   4.224   1.244
 5072SOL    HW116115   1.432   4.231   1.150
 5072SOL    HW216116   1.447   4.131   1.279
 5073SOL     OW16117   4.100   1.922   3.795
 5073SOL    HW116118   4.019   1.892   3.745
 5073SOL    HW216119   4.092   2.019   3.818
 5074SOL     OW16120   3.130   4.257   6.156
 5074SOL    HW116121   3.140   4.328   6.225
 5074SOL    HW216122   3.046   4.205   6.174
 5075SOL     OW16123   6.985   5.679   4.522
 5075SOL    HW116124   0.059   5.696   4.535
 5075SOL    HW216125   6.971   5.581   4.506
 5076SOL     OW16126   3.522   7.010   1.394
 5076SOL    HW116127   3.494   6.974   1.305
 5076SOL    HW216128   3.560   0.078   1.382
 5077SOL     OW16129   0.388   2.228   2.139
 5077SOL    HW116130   0.403   2.322   2.170
 5077SOL    HW216131   0.384   2.226   2.039
 5078SOL     OW16132   1.232   1.035   3.797
 5078SOL    HW116133   1.171   1.110   3.771
 5078SOL    HW216134   1.177   0.955   3.820
 5079SOL     OW16135   3.953   5.028   5.288
 5079SOL    HW116136   3.855   5.037   5.307
 5079SOL    HW216137   3.970   4.945   5.236
 5080SOL     OW16138   5.782   6.598   5.481
 5080SOL    HW116139   5.874   6.618   5.448
 5080SOL    HW216140   5.788   6.562   5.574
 5081SOL     OW16141   3.158   3.454   3.566
 5081SOL    HW116142   3.070   3.407   3.551
 5081SOL    HW216143   3.141   3.540   3.614
 5082SOL     OW16144   6.185   5.717   4.484
 5082SOL    HW116145   6.140   5.761   4.562
 5082SOL    HW216146   6.278   5.692   4.509
 5083SOL     OW16147   1.626   5.907   1.698
 5083SOL    HW116148   1.683   5.951   1.629
 5083SOL    HW216149   1.638   5.953   1.786
 5084SOL     OW16150   2.012   6.089   3.739
 5084SOL    HW116151   1.920   6.118   3.713
 5084SOL    HW216152   2.009   6.046   3.829
 5085SOL     OW16153   6.573   2.946   6.023
 5085SOL    HW116154   6.521   2.951   5.938
 5085SOL    HW216155   6.515   2.910   6.096
 5086SOL     OW16156   6.945   5.372   3.556
 5086SOL    HW116157   6.951   5.470   3.576
 5086SOL    HW216158   6.850   5.347   3.540
 5087SOL     OW16159   0.483   5.680   5.627
 5087SOL    HW116160   0.493   5.663   5.529
 5087SOL    HW216161   0.395   5.644   5.658
 5088SOL     OW16162   5.438   0.322   7.016
 5088SOL    HW116163   5.445   0.222   7.015
 5088SOL    HW216164   5.476   0.357   0.077
 5089SOL     OW16165   5.197   2.996   3.593
 5089SOL    HW116166   5.275   2.969   3.536
 5089SOL    HW216167   5.189   3.095   3.594
 5090SOL     OW16168   1.445   4.884   1.158
 5090SOL    HW116169   1.500   4.816   1.109
 5090SOL    HW216170   1.348   4.862   1.148
 5091SOL     OW16171   1.683   5.729   2.338
 5091SOL    HW116172   1.637   5.816   2.358
 5091SOL    HW216173   1.637   5.656   2.388
 5092SOL     OW16174   3.536   2.520   1.728
 5092SOL    HW116175   3.559   2.615   1.752
 5092SOL    HW216176   3.603   2.459   1.770
 5093SOL     OW16177   0.386   2.133   1.106
 5093SOL    HW116178   0.327   2.114   1.028
 5093SOL    HW216179   0.481   2.138   1.075
 5094SOL     OW16180   7.018   0.158   6.385
 5094SOL    HW116181   0.004   0.065   6.420
 5094SOL    HW216182   0.054   0.170   6.306
 5095SOL     OW16183   2.799   0.110   5.528
 5095SOL    HW116184   2.702   0.132   5.513
 5095SOL    HW216185   2.855   0.157   5.460
 5096SOL     OW16186   4.138   5.013   1.835
 5096SOL    HW116187   4.146   5.002   1.736
 5096SOL    HW216188   4.096   4.932   1.874
 5097SOL     OW16189   0.799   0.381   6.325
 5097SOL    HW116190   0.720   0.443   6.324
 5097SOL    HW216191   0.783   0.306   6.261
 5098SOL     OW16192   0.386   2.496   2.308
 5098SOL    HW116193   0.441   2.447   2.375
 5098SOL    HW216194   0.424   2.587   2.293
 5099SOL     OW16195   0.615   6.698   4.334
 5099SOL    HW116196   0.715   6.690   4.331
 5099SOL    HW216197   0.585   6.704   4.429
 5100SOL     OW16198   5.205   6.427   6.174
 5100SOL    HW116199   5.162   6.456   6.089
 5100SOL    HW216200   5.253   6.504   6.215
 5101SOL     OW16201   4.690   5.943   0.677
 5101SOL    HW116202   4.605   5.994   0.669
 5101SOL    HW216203   4.687   5.862   0.618
 5102SOL     OW16204   3.547   6.347   4.918
 5102SOL    HW116205   3.551   6.398   5.004
 5102SOL    HW216206   3.481   6.272   4.927
 5103SOL     OW16207   1.203   0.598   4.643
 5103SOL    HW116208   1.153   0.520   4.681
 5103SOL    HW216209   1.140   0.656   4.590
 5104SOL     OW16210   1.560   6.801   1.290
 5104SOL    HW116211   1.563   6.896   1.259
 5104SOL    HW216212   1.507   6.795   1.374
 5105SOL     OW16213   2.333   3.370   6.536
 5105SOL    HW116214   2.431   3.384   6.524
 5105SOL    HW216215   2.290   3.357   6.447
 5106SOL     OW16216   3.095   0.378   2.149
 5106SOL    HW116217   3.112   0.283   2.125
 5106SOL    HW216218   3.080   0.432   2.066
 5107SOL     OW16219   1.319   6.936   5.599
 5107SOL    HW116220   1.378   6.871   5.649
 5107SOL    HW216221   1.341   6.933   5.502
 5108SOL     OW16222   2.908   3.560   3.813
 5108SOL    HW116223   2.908   3.474   3.762
 5108SOL    HW216224   2.887   3.636   3.751
 5109SOL     OW16225   0.113   0.974   1.181
 5109SOL    HW116226   0.183   1.037   1.147
 5109SOL    HW216227   0.025   1.022   1.187
 5110SOL     OW16228   2.251   5.800   5.412
 5110SOL    HW116229   2.206   5.883   5.446
 5110SOL    HW216230   2.199   5.763   5.335
 5111SOL     OW16231   1.901   1.104   0.220
 5111SOL    HW116232   1.888   1.045   0.140
 5111SOL    HW216233   1.828   1.172   0.223
 5112SOL     OW16234   0.266   6.768   3.692
 5112SOL    HW116235   0.188   6.736   3.745
 5112SOL    HW216236   0.262   6.867   3.682
 5113SOL     OW16237   0.998   6.590   6.570
 5113SOL    HW116238   1.095   6.590   6.547
 5113SOL    HW216239   0.947   6.637   6.499
 5114SOL     OW16240   4.038   5.103   0.033
 5114SOL    HW116241   4.052   5.082   0.130
 5114SOL    HW216242   3.967   5.043   7.020
 5115SOL     OW16243   2.114   3.732   5.503
 5115SOL    HW116244   2.107   3.632   5.499
 5115SOL    HW216245   2.127   3.769   5.411
 5116SOL     OW16246   0.526   3.674   1.429
 5116SOL    HW116247   0.463   3.688   1.506
 5116SOL    HW216248   0.481   3.618   1.359
 5117SOL     OW16249   2.431   4.469   4.161
 5117SOL    HW116250   2.395   4.416   4.085
 5117SOL    HW216251   2.523   4.503   4.138
 5118SOL     OW16252   4.542   6.506   1.359
 5118SOL    HW116253   4.548   6.527   1.261
 5118SOL    HW216254   4.628   6.527   1.403
 5119SOL     OW16255   6.279   0.233   2.530
 5119SOL    HW116256   6.331   0.317   2.544
 5119SOL    HW216257   6.231   0.237   2.443
 5120SOL     OW16258   4.600   1.161   2.956
 5120SOL    HW116259   4.687   1.118   2.932
 5120SOL    HW216260   4.613   1.259   2.971
 5121SOL     OW16261   0.749   3.570   5.022
 5121SOL    HW116262   0.843   3.537   5.027
 5121SOL    HW216263   0.694   3.507   4.968
 5122SOL     OW16264   1.995   6.189   3.411
 5122SOL    HW116265   2.025   6.189   3.316
 5122SOL    HW216266   2.074   6.203   3.471
 5123SOL     OW16267   5.883   4.400   2.323
 5123SOL    HW116268   5.967   4.419   2.375
 5123SOL    HW216269   5.847   4.485   2.285
 5124SOL     OW16270   2.958   5.913   0.129
 5124SOL    HW116271   2.911   5.899   0.216
 5124SOL    HW216272   2.893   5.901   0.053
 5125SOL     OW16273   6.853   2.344   6.141
 5125SOL    HW116274   6.850   2.410   6.065
 5125SOL    HW216275   6.815   2.257   6.111
 5126SOL     OW16276   4.611   3.215   6.535
 5126SOL    HW116277   4.569   3.267   6.610
 5126SOL    HW216278   4.650   3.130   6.572
 5127SOL     OW16279   5.590   2.985   6.785
 5127SOL    HW116280   5.517   3.054   6.787
 5127SOL    HW216281   5.673   3.025   6.747
 5128SOL     OW16282   0.705   6.943   6.751
 5128SOL    HW116283   0.787   6.991   6.721
 5128SOL    HW216284   0.726   6.883   6.828
 5129SOL     OW16285   4.053   2.151   2.449
 5129SOL    HW116286   4.078   2.185   2.358
 5129SOL    HW216287   4.108   2.198   2.518
 5130SOL     OW16288   0.909   6.600   4.863
 5130SOL    HW116289   0.975   6.536   4.901
 5130SOL    HW216290   0.952   6.653   4.789
 5131SOL     OW16291   3.454   5.074   3.400
 5131SOL    HW116292   3.511   5.108   3.325
 5131SOL    HW216293   3.514   5.037   3.472
 5132SOL     OW16294   3.453   1.071   6.684
 5132SOL    HW116295   3.384   1.001   6.667
 5132SOL    HW216296   3.409   1.153   6.721
 5133SOL     OW16297   4.714   4.580   6.794
 5133SOL    HW116298   4.651   4.658   6.793
 5133SOL    HW216299   4.808   4.613   6.796
 5134SOL     OW16300   6.162   5.919   0.451
 5134SOL    HW116301   6.101   5.848   0.487
 5134SOL    HW216302   6.256   5.884   0.449
 5135SOL     OW16303   0.031   3.007   2.760
 5135SOL    HW116304   0.115   2.958   2.782
 5135SOL    HW216305   6.983   2.941   2.739
 5136SOL     OW16306   1.183   1.262   6.058
 5136SOL    HW116307   1.259   1.210   6.096
 5136SOL    HW216308   1.216   1.350   6.025
 5137SOL     OW16309   5.346   0.688   4.081
 5137SOL    HW116310   5.271   0.654   4.025
 5137SOL    HW216311   5.315   0.767   4.134
 5138SOL     OW16312   3.231   3.201   3.327
 5138SOL    HW116313   3.273   3.110   3.335
 5138SOL    HW216314   3.279   3.264   3.388
 5139SOL     OW16315   2.858   0.707   5.582
 5139SOL    HW116316   2.820   0.716   5.490
 5139SOL    HW216317   2.915   0.787   5.602
 5140SOL     OW16318   3.240   3.599   6.428
 5140SOL    HW116319   3.212   3.508   6.396
 5140SOL    HW216320   3.168   3.665   6.406
 5141SOL     OW16321   6.667   2.818   1.104
 5141SOL    HW116322   6.691   2.769   1.019
 5141SOL    HW216323   6.661   2.753   1.179
 5142SOL     OW16324   0.309   7.002   2.208
 5142SOL    HW116325   0.398   0.010   2.241
 5142SOL    HW216326   0.302   7.021   2.110
 5143SOL     OW16327   6.896   6.509   2.242
 5143SOL    HW116328   6.858   6.459   2.319
 5143SOL    HW216329   6.996   6.514   2.252
 5144SOL     OW16330   2.072   3.060   5.286
 5144SOL    HW116331   2.066   3.054   5.186
 5144SOL    HW216332   2.167   3.076   5.312
 5145SOL     OW16333   2.511   5.565   5.693
 5145SOL    HW116334   2.545   5.659   5.699
 5145SOL    HW216335   2.512   5.523   5.783
 5146SOL     OW16336   5.719   6.062   6.962
 5146SOL    HW116337   5.641   6.095   7.014
 5146SOL    HW216338   5.804   6.090   7.007
 5147SOL     OW16339   4.482   2.394   3.187
 5147SOL    HW116340   4.534   2.479   3.190
 5147SOL    HW216341   4.389   2.412   3.157
 5148SOL     OW16342   0.414   0.349   6.254
 5148SOL    HW116343   0.380   0.360   6.160
 5148SOL    HW216344   0.422   0.252   6.275
 5149SOL     OW16345   4.465   5.314   4.428
 5149SOL    HW116346   4.365   5.312   4.420
 5149SOL    HW216347   4.501   5.221   4.425
 5150SOL     OW16348   6.200   6.862   3.375
 5150SOL    HW116349   6.178   6.959   3.378
 5150SOL    HW216350   6.126   6.813   3.328
 5151SOL     OW16351   6.081   6.054   2.116
 5151SOL    HW116352   6.071   6.030   2.213
 5151SOL    HW216353   6.107   6.150   2.108
 5152SOL     OW16354   2.025   1.468   6.801
 5152SOL    HW116355   2.054   1.422   6.885
 5152SOL    HW216356   2.017   1.401   6.728
 5153SOL     OW16357   0.903   1.958   0.697
 5153SOL    HW116358   0.928   1.868   0.732
 5153SOL    HW216359   0.855   2.010   0.768
 5154SOL     OW16360   6.990   3.010   0.899
 5154SOL    HW116361   6.916   3.070   0.869
 5154SOL    HW216362   6.997   3.014   0.999
 5155SOL     OW16363   1.555   1.630   6.923
 5155SOL    HW116364   1.638   1.604   6.874
 5155SOL    HW216365   1.523   1.552   6.977
 5156SOL     OW16366   5.851   6.110   5.023
 5156SOL    HW116367   5.799   6.105   4.937
 5156SOL    HW216368   5.946   6.134   5.002
 5157SOL     OW16369   3.533   0.121   1.704
 5157SOL    HW116370   3.588   0.203   1.686
 5157SOL    HW216371   3.592   0.050   1.744
 5158SOL     OW16372   1.313   2.037   1.860
 5158SOL    HW116373   1.334   2.069   1.768
 5158SOL    HW216374   1.357   1.948   1.875
 5159SOL     OW16375   5.893   3.145   5.890
 5159SOL    HW116376   5.954   3.203   5.836
 5159SOL    HW216377   5.947   3.094   5.957
 5160SOL     OW16378   6.215   6.765   3.040
 5160SOL    HW116379   6.237   6.783   3.135
 5160SOL    HW216380   6.272   6.823   2.981
 5161SOL     OW16381   1.552   3.140   0.738
 5161SOL    HW116382   1.533   3.042   0.724
 5161SOL    HW216383   1.642   3.162   0.700
 5162SOL     OW16384   6.269   0.145   4.239
 5162SOL    HW116385   6.197   0.086   4.203
 5162SOL    HW216386   6.354   0.093   4.248
 5163SOL     OW16387   3.389   0.469   2.089
 5163SOL    HW116388   3.312   0.410   2.113
 5163SOL    HW216389   3.393   0.546   2.152
 5164SOL     OW16390   2.831   3.565   0.120
 5164SOL    HW116391   2.854   3.474   0.083
 5164SOL    HW216392   2.834   3.562   0.220
 5165SOL     OW16393   1.803   4.195   6.377
 5165SOL    HW116394   1.853   4.166   6.295
 5165SOL    HW216395   1.814   4.125   6.449
 5166SOL     OW16396   0.697   4.633   0.657
 5166SOL    HW116397   0.741   4.585   0.582
 5166SOL    HW216398   0.724   4.729   0.656
 5167SOL     OW16399   5.565   3.497   5.547
 5167SOL    HW116400   5.587   3.594   5.535
 5167SOL    HW216401   5.466   3.485   5.549
 5168SOL     OW16402   4.049   2.112   2.793
 5168SOL    HW116403   4.099   2.110   2.880
 5168SOL    HW216404   3.955   2.143   2.809
 5169SOL     OW16405   4.734   5.792   4.815
 5169SOL    HW116406   4.644   5.826   4.844
 5169SOL    HW216407   4.729   5.693   4.802
 5170SOL     OW16408   1.867   3.520   6.505
 5170SOL    HW116409   1.893   3.423   6.502
 5170SOL    HW216410   1.882   3.556   6.597
 5171SOL     OW16411   2.296   5.909   5.708
 5171SOL    HW116412   2.237   5.835   5.676
 5171SOL    HW216413   2.388   5.874   5.725
 5172SOL     OW16414   5.831   5.133   5.208
 5172SOL    HW116415   5.865   5.118   5.115
 5172SOL    HW216416   5.906   5.123   5.273
 5173SOL     OW16417   4.547   5.396   5.501
 5173SOL    HW116418   4.561   5.449   5.584
 5173SOL    HW216419   4.451   5.398   5.476
 5174SOL     OW16420   2.289   6.499   3.239
 5174SOL    HW116421   2.297   6.599   3.239
 5174SOL    HW216422   2.347   6.461   3.168
 5175SOL     OW16423   2.817   2.946   6.980
 5175SOL    HW116424   2.737   2.991   6.942
 5175SOL    HW216425   2.790   2.896   0.039
 5176SOL     OW16426   6.193   5.746   6.553
 5176SOL    HW116427   6.269   5.801   6.518
 5176SOL    HW216428   6.185   5.662   6.500
 5177SOL     OW16429   6.313   6.916   0.845
 5177SOL    HW116430   6.388   6.858   0.877
 5177SOL    HW216431   6.350   6.992   0.792
 5178SOL     OW16432   1.262   4.147   1.834
 5178SOL    HW116433   1.187   4.195   1.788
 5178SOL    HW216434   1.302   4.207   1.904
 5179SOL     OW16435   4.611   5.789   2.946
 5179SOL    HW116436   4.561   5.709   2.914
 5179SOL    HW216437   4.658   5.833   2.870
 5180SOL     OW16438   1.704   5.163   2.826
 5180SOL    HW116439   1.689   5.238   2.890
 5180SOL    HW216440   1.792   5.119   2.847
 5181SOL     OW16441   6.465   0.429   5.902
 5181SOL    HW116442   6.429   0.342   5.866
 5181SOL    HW216443   6.555   0.447   5.862
 5182SOL     OW16444   2.615   6.220   2.875
 5182SOL    HW116445   2.580   6.150   2.937
 5182SOL    HW216446   2.608   6.187   2.780
 5183SOL     OW16447   4.364   2.265   3.906
 5183SOL    HW116448   4.333   2.317   3.826
 5183SOL    HW216449   4.326   2.306   3.989
 5184SOL     OW16450   2.265   1.389   3.185
 5184SOL    HW116451   2.195   1.345   3.129
 5184SOL    HW216452   2.343   1.327   3.195
 5185SOL     OW16453   6.636   0.600   2.139
 5185SOL    HW116454   6.684   0.514   2.154
 5185SOL    HW216455   6.702   0.671   2.114
 5186SOL     OW16456   6.691   4.064   6.721
 5186SOL    HW116457   6.640   3.986   6.759
 5186SOL    HW216458   6.715   4.127   6.794
 5187SOL     OW16459   1.289   4.784   5.213
 5187SOL    HW116460   1.286   4.694   5.256
 5187SOL    HW216461   1.383   4.805   5.186
 5188SOL     OW16462   5.681   0.086   2.509
 5188SOL    HW116463   5.699   7.015   2.483
 5188SOL    HW216464   5.768   0.133   2.520
 5189SOL     OW16465   5.024   6.672   6.387
 5189SOL    HW116466   5.063   6.624   6.465
 5189SOL    HW216467   4.951   6.617   6.347
 5190SOL     OW16468   1.825   4.672   7.011
 5190SOL    HW116469   1.855   4.651   6.917
 5190SOL    HW216470   1.854   4.765   0.011
 5191SOL     OW16471   2.750   4.853   1.994
 5191SOL    HW116472   2.783   4.759   1.995
 5191SOL    HW216473   2.827   4.916   1.984
 5192SOL     OW16474   1.379   4.595   2.361
 5192SOL    HW116475   1.407   4.532   2.434
 5192SOL    HW216476   1.457   4.653   2.335
 5193SOL     OW16477   5.776   1.104   5.344
 5193SOL    HW116478   5.806   1.159   5.266
 5193SOL    HW216479   5.840   1.115   5.420
 5194SOL     OW16480   4.938   1.205   5.853
 5194SOL    HW116481   4.979   1.144   5.921
 5194SOL    HW216482   4.853   1.243   5.891
 5195SOL     OW16483   0.554   0.722   5.278
 5195SOL    HW116484   0.496   0.783   5.225
 5195SOL    HW216485   0.622   0.680   5.217
 5196SOL     OW16486   5.990   6.611   3.530
 5196SOL    HW116487   6.081   6.611   3.488
 5196SOL    HW216488   5.969   6.703   3.564
 5197SOL     OW16489   0.900   2.947   4.604
 5197SOL    HW116490   0.905   2.900   4.516
 5197SOL    HW216491   0.984   2.999   4.619
 5198SOL     OW16492   6.141   4.803   3.380
 5198SOL    HW116493   6.229   4.762   3.402
 5198SOL    HW216494   6.152   4.872   3.309
 5199SOL     OW16495   0.593   4.628   1.200
 5199SOL    HW116496   0.619   4.723   1.213
 5199SOL    HW216497   0.675   4.573   1.180
 5200SOL     OW16498   6.602   3.581   4.980
 5200SOL    HW116499   6.698   3.551   4.979
 5200SOL    HW216500   6.599   3.680   4.965
 5201SOL     OW16501   0.656   5.256   4.411
 5201SOL    HW116502   0.737   5.307   4.380
 5201SOL    HW216503   0.675   5.217   4.501
 5202SOL     OW16504   0.888   4.549   2.026
 5202SOL    HW116505   0.976   4.590   2.051
 5202SOL    HW216506   0.903   4.458   1.987
 5203SOL     OW16507   0.444   2.841   0.187
 5203SOL    HW116508   0.373   2.862   0.254
 5203SOL    HW216509   0.430   2.897   0.105
 5204SOL     OW16510   4.485   4.392   6.892
 5204SOL    HW116511   4.555   4.456   6.862
 5204SOL    HW216512   4.399   4.441   6.908
 5205SOL     OW16513   1.546   0.070   0.783
 5205SOL    HW116514   1.537   0.079   0.683
 5205SOL    HW216515   1.550   6.997   0.807
 5206SOL     OW16516   0.206   4.522   4.909
 5206SOL    HW116517   0.284   4.583   4.895
 5206SOL    HW216518   0.154   4.515   4.824
 5207SOL     OW16519   1.765   4.393   3.809
 5207SOL    HW116520   1.766   4.401   3.909
 5207SOL    HW216521   1.689   4.447   3.772
 5208SOL     OW16522   4.692   0.673   0.283
 5208SOL    HW116523   4.693   0.715   0.193
 5208SOL    HW216524   4.603   0.687   0.326
 5209SOL     OW16525   5.416   5.814   2.565
 5209SOL    HW116526   5.483   5.743   2.586
 5209SOL    HW216527   5.463   5.897   2.533
 5210SOL     OW16528   4.441   4.790   3.330
 5210SOL    HW116529   4.424   4.722   3.401
 5210SOL    HW216530   4.364   4.855   3.327
 5211SOL     OW16531   3.514   3.722   2.251
 5211SOL    HW116532   3.555   3.632   2.263
 5211SOL    HW216533   3.492   3.762   2.340
 5212SOL     OW16534   1.029   1.136   0.242
 5212SOL    HW116535   0.962   1.063   0.256
 5212SOL    HW216536   1.120   1.097   0.237
 5213SOL     OW16537   4.627   2.673   6.562
 5213SOL    HW116538   4.718   2.645   6.593
 5213SOL    HW216539   4.568   2.687   6.641
 5214SOL     OW16540   5.829   1.765   6.533
 5214SOL    HW116541   5.872   1.829   6.596
 5214SOL    HW216542   5.891   1.749   6.455
 5215SOL     OW16543   5.832   5.012   2.555
 5215SOL    HW116544   5.775   5.090   2.581
 5215SOL    HW216545   5.926   5.028   2.584
 5216SOL     OW16546   4.675   5.501   1.423
 5216SOL    HW116547   4.770   5.472   1.412
 5216SOL    HW216548   4.669   5.600   1.409
 5217SOL     OW16549   2.862   5.178   3.735
 5217SOL    HW116550   2.844   5.084   3.764
 5217SOL    HW216551   2.899   5.229   3.812
 5218SOL     OW16552   1.525   6.800   4.700
 5218SOL    HW116553   1.444   6.856   4.714
 5218SOL    HW216554   1.523   6.722   4.763
 5219SOL     OW16555   2.360   5.782   0.574
 5219SOL    HW116556   2.316   5.855   0.627
 5219SOL    HW216557   2.459   5.795   0.575
 5220SOL     OW16558   0.797   6.995   2.249
 5220SOL    HW116559   0.828   6.908   2.211
 5220SOL    HW216560   0.698   7.004   2.238
 5221SOL     OW16561   5.181   1.954   5.148
 5221SOL    HW116562   5.132   1.867   5.147
 5221SOL    HW216563   5.123   2.026   5.111
 5222SOL     OW16564   0.977   6.633   2.534
 5222SOL    HW116565   0.938   6.670   2.450
 5222SOL    HW216566   0.969   6.702   2.607
 5223SOL     OW16567   5.442   6.953   0.818
 5223SOL    HW116568   5.345   6.931   0.816
 5223SOL    HW216569   5.455   0.026   0.838
 5224SOL     OW16570   5.477   1.725   3.094
 5224SOL    HW116571   5.530   1.661   3.149
 5224SOL    HW216572   5.390   1.743   3.139
 5225SOL     OW16573   5.567   6.070   5.129
 5225SOL    HW116574   5.567   6.011   5.209
 5225SOL    HW216575   5.660   6.099   5.109
 5226SOL     OW16576   1.724   6.106   3.984
 5226SOL    HW116577   1.649   6.107   3.917
 5226SOL    HW216578   1.710   6.029   4.047
 5227SOL     OW16579   5.591   3.767   3.245
 5227SOL    HW116580   5.550   3.684   3.281
 5227SOL    HW216581   5.682   3.745   3.207
 5228SOL     OW16582   5.472   0.272   1.101
 5228SOL    HW116583   5.441   0.365   1.118
 5228SOL    HW216584   5.398   0.208   1.118
 5229SOL     OW16585   1.354   4.602   4.767
 5229SOL    HW116586   1.425   4.649   4.820
 5229SOL    HW216587   1.396   4.544   4.697
 5230SOL     OW16588   1.411   6.115   6.426
 5230SOL    HW116589   1.341   6.173   6.468
 5230SOL    HW216590   1.426   6.144   6.332
 5231SOL     OW16591   3.771   2.993   3.878
 5231SOL    HW116592   3.864   3.028   3.890
 5231SOL    HW216593   3.709   3.068   3.855
 5232SOL     OW16594   5.267   3.005   5.699
 5232SOL    HW116595   5.259   3.104   5.696
 5232SOL    HW216596   5.177   2.965   5.719
 5233SOL     OW16597   0.616   1.030   2.325
 5233SOL    HW116598   0.544   0.981   2.277
 5233SOL    HW216599   0.581   1.064   2.413
 5234SOL     OW16600   4.444   6.159   1.174
 5234SOL    HW116601   4.470   6.065   1.196
 5234SOL    HW216602   4.351   6.176   1.206
 5235SOL     OW16603   1.271   3.501   1.353
 5235SOL    HW116604   1.172   3.508   1.366
 5235SOL    HW216605   1.293   3.418   1.301
 5236SOL     OW16606   5.062   3.053   1.033
 5236SOL    HW116607   5.118   2.977   1.066
 5236SOL    HW216608   5.044   3.041   0.935
 5237SOL     OW16609   2.268   1.850   4.602
 5237SOL    HW116610   2.321   1.772   4.633
 5237SOL    HW216611   2.225   1.895   4.680
 5238SOL     OW16612   1.752   4.223   1.203
 5238SOL    HW116613   1.654   4.206   1.196
 5238SOL    HW216614   1.792   4.160   1.269
 5239SOL     OW16615   3.100   3.242   4.884
 5239SOL    HW116616   3.014   3.292   4.887
 5239SOL    HW216617   3.144   3.258   4.795
 5240SOL     OW16618   3.066   1.993   5.011
 5240SOL    HW116619   2.990   1.968   4.952
 5240SOL    HW216620   3.105   2.080   4.979
 5241SOL     OW16621   2.797   5.370   5.740
 5241SOL    HW116622   2.822   5.284   5.783
 5241SOL    HW216623   2.707   5.360   5.696
 5242SOL     OW16624   5.139   1.032   6.040
 5242SOL    HW116625   5.106   1.093   6.112
 5242SOL    HW216626   5.121   0.937   6.066
 5243SOL     OW16627   0.761   4.097   0.542
 5243SOL    HW116628   0.803   4.057   0.624
 5243SOL    HW216629   0.662   4.095   0.552
 5244SOL     OW16630   5.319   3.910   6.571
 5244SOL    HW116631   5.368   3.941   6.652
 5244SOL    HW216632   5.312   3.985   6.505
 5245SOL     OW16633   4.927   4.035   6.337
 5245SOL    HW116634   4.928   3.962   6.269
 5245SOL    HW216635   4.860   4.014   6.408
 5246SOL     OW16636   0.846   3.524   2.851
 5246SOL    HW116637   0.854   3.461   2.928
 5246SOL    HW216638   0.919   3.505   2.785
 5247SOL     OW16639   0.784   5.140   1.226
 5247SOL    HW116640   0.873   5.123   1.184
 5247SOL    HW216641   0.735   5.210   1.173
 5248SOL     OW16642   4.655   0.922   6.352
 5248SOL    HW116643   4.664   0.853   6.424
 5248SOL    HW216644   4.660   1.013   6.392
 5249SOL     OW16645   1.482   5.465   5.342
 5249SOL    HW116646   1.474   5.378   5.294
 5249SOL    HW216647   1.515   5.535   5.279
 5250SOL     OW16648   0.493   1.479   6.537
 5250SOL    HW116649   0.486   1.394   6.588
 5250SOL    HW216650   0.431   1.477   6.459
 5251SOL     OW16651   6.929   2.631   1.045
 5251SOL    HW116652   6.933   2.648   1.144
 5251SOL    HW216653   7.012   2.668   1.002
 5252SOL     OW16654   3.967   6.174   0.562
 5252SOL    HW116655   3.960   6.137   0.469
 5252SOL    HW216656   4.058   6.214   0.575
 5253SOL     OW16657   5.998   2.936   3.570
 5253SOL    HW116658   5.913   2.988   3.558
 5253SOL    HW216659   6.062   2.989   3.625
 5254SOL     OW16660   4.357   1.053   3.803
 5254SOL    HW116661   4.369   1.049   3.704
 5254SOL    HW216662   4.386   1.143   3.836
 5255SOL     OW16663   3.447   6.760   4.862
 5255SOL    HW116664   3.449   6.836   4.927
 5255SOL    HW216665   3.440   6.796   4.769
 5256SOL     OW16666   5.785   6.566   3.118
 5256SOL    HW116667   5.735   6.497   3.066
 5256SOL    HW216668   5.739   6.582   3.205
 5257SOL     OW16669   3.336   1.529   1.598
 5257SOL    HW116670   3.379   1.586   1.667
 5257SOL    HW216671   3.299   1.446   1.641
 5258SOL     OW16672   6.147   2.274   1.866
 5258SOL    HW116673   6.125   2.279   1.964
 5258SOL    HW216674   6.157   2.179   1.839
 5259SOL     OW16675   5.171   4.338   2.620
 5259SOL    HW116676   5.083   4.291   2.623
 5259SOL    HW216677   5.162   4.423   2.567
 5260SOL     OW16678   5.448   3.368   1.388
 5260SOL    HW116679   5.411   3.373   1.295
 5260SOL    HW216680   5.389   3.310   1.444
 5261SOL     OW16681   2.004   2.220   4.917
 5261SOL    HW116682   1.928   2.283   4.902
 5261SOL    HW216683   2.055   2.248   4.999
 5262SOL     OW16684   2.362   0.337   1.841
 5262SOL    HW116685   2.263   0.344   1.846
 5262SOL    HW216686   2.403   0.426   1.863
 5263SOL     OW16687   1.220   6.421   0.429
 5263SOL    HW116688   1.196   6.327   0.451
 5263SOL    HW216689   1.141   6.466   0.386
 5264SOL     OW16690   0.375   2.413   0.602
 5264SOL    HW116691   0.470   2.383   0.609
 5264SOL    HW216692   0.352   2.470   0.681
 5265SOL     OW16693   5.106   4.470   2.384
 5265SOL    HW116694   5.101   4.441   2.289
 5265SOL    HW216695   5.034   4.538   2.402
 5266SOL     OW16696   2.219   6.912   1.155
 5266SOL    HW116697   2.216   6.984   1.086
 5266SOL    HW216698   2.145   6.847   1.138
 5267SOL     OW16699   5.074   4.421   4.620
 5267SOL    HW116700   5.011   4.396   4.546
 5267SOL    HW216701   5.075   4.521   4.631
 5268SOL     OW16702   5.982   4.594   4.984
 5268SOL    HW116703   5.920   4.516   4.995
 5268SOL    HW216704   5.994   4.640   5.073
 5269SOL     OW16705   1.322   5.456   4.355
 5269SOL    HW116706   1.275   5.372   4.328
 5269SOL    HW216707   1.264   5.535   4.335
 5270SOL     OW16708   6.508   3.127   2.838
 5270SOL    HW116709   6.485   3.048   2.895
 5270SOL    HW216710   6.425   3.163   2.796
 5271SOL     OW16711   5.251   4.635   4.946
 5271SOL    HW116712   5.182   4.599   5.009
 5271SOL    HW216713   5.206   4.666   4.862
 5272SOL     OW16714   1.575   1.276   4.060
 5272SOL    HW116715   1.657   1.322   4.026
 5272SOL    HW216716   1.582   1.264   4.159
 5273SOL     OW16717   0.670   0.818   4.587
 5273SOL    HW116718   0.590   0.819   4.526
 5273SOL    HW216719   0.678   0.727   4.629
 5274SOL     OW16720   6.407   5.728   3.684
 5274SOL    HW116721   6.444   5.636   3.671
 5274SOL    HW216722   6.328   5.725   3.745
 5275SOL     OW16723   2.458   6.834   6.685
 5275SOL    HW116724   2.370   6.798   6.651
 5275SOL    HW216725   2.484   6.914   6.630
 5276SOL     OW16726   0.195   0.085   1.133
 5276SOL    HW116727   0.141   0.168   1.147
 5276SOL    HW216728   0.187   0.055   1.038
 5277SOL     OW16729   1.054   1.660   2.652
 5277SOL    HW116730   1.072   1.747   2.606
 5277SOL    HW216731   0.967   1.665   2.701
 5278SOL     OW16732   0.968   4.629   6.201
 5278SOL    HW116733   1.028   4.666   6.272
 5278SOL    HW216734   0.995   4.665   6.112
 5279SOL     OW16735   2.597   6.069   6.414
 5279SOL    HW116736   2.650   6.071   6.330
 5279SOL    HW216737   2.619   5.986   6.465
 5280SOL     OW16738   4.412   6.740   5.194
 5280SOL    HW116739   4.340   6.675   5.219
 5280SOL    HW216740   4.440   6.791   5.276
 5281SOL     OW16741   2.780   0.322   5.203
 5281SOL    HW116742   2.691   0.275   5.205
 5281SOL    HW216743   2.839   0.283   5.274
 5282SOL     OW16744   1.411   6.964   1.550
 5282SOL    HW116745   1.398   0.031   1.510
 5282SOL    HW216746   1.387   6.967   1.647
 5283SOL     OW16747   0.996   0.729   4.505
 5283SOL    HW116748   0.936   0.805   4.530
 5283SOL    HW216749   0.949   0.670   4.439
 5284SOL     OW16750   4.268   2.663   1.401
 5284SOL    HW116751   4.287   2.682   1.304
 5284SOL    HW216752   4.230   2.571   1.409
 5285SOL     OW16753   1.599   1.809   4.137
 5285SOL    HW116754   1.631   1.809   4.043
 5285SOL    HW216755   1.605   1.902   4.175
 5286SOL     OW16756   6.120   3.351   1.258
 5286SOL    HW116757   6.141   3.253   1.269
 5286SOL    HW216758   6.202   3.404   1.278
 5287SOL     OW16759   2.499   5.019   1.407
 5287SOL    HW116760   2.416   5.058   1.366
 5287SOL    HW216761   2.580   5.060   1.364
 5288SOL     OW16762   4.235   0.491   1.607
 5288SOL    HW116763   4.213   0.443   1.522
 5288SOL    HW216764   4.187   0.448   1.683
 5289SOL     OW16765   2.416   4.802   6.359
 5289SOL    HW116766   2.365   4.716   6.352
 5289SOL    HW216767   2.363   4.876   6.319
 5290SOL     OW16768   1.203   2.881   5.074
 5290SOL    HW116769   1.265   2.941   5.125
 5290SOL    HW216770   1.233   2.786   5.083
 5291SOL     OW16771   2.897   4.822   4.510
 5291SOL    HW116772   2.870   4.807   4.605
 5291SOL    HW216773   2.849   4.756   4.452
 5292SOL     OW16774   6.685   3.725   6.166
 5292SOL    HW116775   6.785   3.723   6.163
 5292SOL    HW216776   6.654   3.698   6.258
 5293SOL     OW16777   2.287   6.316   4.275
 5293SOL    HW116778   2.333   6.240   4.229
 5293SOL    HW216779   2.188   6.311   4.257
 5294SOL     OW16780   3.801   0.561   5.446
 5294SOL    HW116781   3.829   0.649   5.485
 5294SOL    HW216782   3.854   0.488   5.488
 5295SOL     OW16783   2.570   1.869   2.540
 5295SOL    HW116784   2.544   1.780   2.503
 5295SOL    HW216785   2.570   1.937   2.467
 5296SOL     OW16786   5.052   4.947   1.895
 5296SOL    HW116787   4.993   4.965   1.973
 5296SOL    HW216788   5.143   4.985   1.913
 5297SOL     OW16789   3.160   5.183   0.437
 5297SOL    HW116790   3.115   5.180   0.526
 5297SOL    HW216791   3.095   5.154   0.366
 5298SOL     OW16792   2.039   0.519   0.128
 5298SOL    HW116793   1.949   0.510   0.087
 5298SOL    HW216794   2.034   0.584   0.205
 5299SOL     OW16795   2.957   1.728   1.092
 5299SOL    HW116796   2.967   1.649   1.152
 5299SOL    HW216797   2.887   1.790   1.129
 5300SOL     OW16798   2.201   4.716   0.182
 5300SOL    HW116799   2.108   4.693   0.213
 5300SOL    HW216800   2.204   4.714   0.082
 5301SOL     OW16801   5.416   0.361   5.814
 5301SOL    HW116802   5.321   0.329   5.820
 5301SOL    HW216803   5.473   0.308   5.876
 5302SOL     OW16804   5.618   6.202   3.104
 5302SOL    HW116805   5.698   6.214   3.163
 5302SOL    HW216806   5.593   6.106   3.101
 5303SOL     OW16807   0.684   5.109   5.951
 5303SOL    HW116808   0.637   5.049   5.886
 5303SOL    HW216809   0.634   5.195   5.959
 5304SOL     OW16810   6.791   0.671   1.867
 5304SOL    HW116811   6.772   0.624   1.954
 5304SOL    HW216812   6.721   0.647   1.800
 5305SOL     OW16813   1.366   5.222   3.287
 5305SOL    HW116814   1.364   5.254   3.193
 5305SOL    HW216815   1.336   5.296   3.348
 5306SOL     OW16816   0.153   3.179   5.961
 5306SOL    HW116817   0.206   3.265   5.961
 5306SOL    HW216818   0.099   3.174   5.877
 5307SOL     OW16819   6.281   1.496   1.573
 5307SOL    HW116820   6.201   1.515   1.517
 5307SOL    HW216821   6.313   1.581   1.616
 5308SOL     OW16822   1.731   4.056   3.170
 5308SOL    HW116823   1.707   4.152   3.181
 5308SOL    HW216824   1.699   4.022   3.082
 5309SOL     OW16825   6.180   6.165   2.542
 5309SOL    HW116826   6.269   6.194   2.507
 5309SOL    HW216827   6.146   6.232   2.608
 5310SOL     OW16828   5.516   2.870   2.540
 5310SOL    HW116829   5.550   2.929   2.467
 5310SOL    HW216830   5.468   2.791   2.499
 5311SOL     OW16831   5.937   0.137   0.438
 5311SOL    HW116832   5.966   0.206   0.504
 5311SOL    HW216833   6.016   0.089   0.401
 5312SOL     OW16834   6.968   6.520   0.494
 5312SOL    HW116835   0.034   6.496   0.458
 5312SOL    HW216836   6.897   6.472   0.441
 5313SOL     OW16837   0.762   5.202   5.358
 5313SOL    HW116838   0.860   5.200   5.339
 5313SOL    HW216839   0.745   5.169   5.451
 5314SOL     OW16840   6.270   0.917   1.792
 5314SOL    HW116841   6.252   0.894   1.697
 5314SOL    HW216842   6.194   0.973   1.828
 5315SOL     OW16843   4.269   1.281   4.376
 5315SOL    HW116844   4.278   1.248   4.283
 5315SOL    HW216845   4.179   1.324   4.388
 5316SOL     OW16846   0.483   2.299   4.512
 5316SOL    HW116847   0.427   2.216   4.503
 5316SOL    HW216848   0.578   2.274   4.527
 5317SOL     OW16849   6.788   2.181   6.427
 5317SOL    HW116850   6.887   2.186   6.415
 5317SOL    HW216851   6.748   2.271   6.412
 5318SOL     OW16852   6.850   3.519   6.745
 5318SOL    HW116853   6.843   3.598   6.807
 5318SOL    HW216854   6.826   3.547   6.652
 5319SOL     OW16855   4.588   6.592   1.099
 5319SOL    HW116856   4.573   6.606   1.001
 5319SOL    HW216857   4.658   6.656   1.132
 5320SOL     OW16858   2.985   5.835   0.838
 5320SOL    HW116859   2.985   5.931   0.868
 5320SOL    HW216860   2.946   5.778   0.910
 5321SOL     OW16861   1.625   3.581   5.067
 5321SOL    HW116862   1.572   3.579   4.982
 5321SOL    HW216863   1.710   3.631   5.053
 5322SOL     OW16864   5.312   6.739   2.208
 5322SOL    HW116865   5.352   6.747   2.300
 5322SOL    HW216866   5.217   6.708   2.216
 5323SOL     OW16867   3.981   1.280   5.540
 5323SOL    HW116868   4.053   1.338   5.579
 5323SOL    HW216869   4.022   1.194   5.509
 5324SOL     OW16870   2.077   1.740   0.678
 5324SOL    HW116871   2.169   1.706   0.658
 5324SOL    HW216872   2.011   1.666   0.670
 5325SOL     OW16873   2.178   2.058   4.795
 5325SOL    HW116874   2.230   2.021   4.872
 5325SOL    HW216875   2.091   2.094   4.829
 5326SOL     OW16876   6.146   6.905   2.306
 5326SOL    HW116877   6.133   6.948   2.396
 5326SOL    HW216878   6.066   6.849   2.284
 5327SOL     OW16879   5.957   2.577   5.138
 5327SOL    HW116880   5.967   2.482   5.165
 5327SOL    HW216881   5.875   2.615   5.181
 5328SOL     OW16882   4.080   4.777   0.079
 5328SOL    HW116883   4.009   4.832   0.035
 5328SOL    HW216884   4.041   4.691   0.111
 5329SOL     OW16885   1.822   6.567   6.417
 5329SOL    HW116886   1.807   6.474   6.385
 5329SOL    HW216887   1.786   6.577   6.510
 5330SOL     OW16888   2.571   3.573   0.559
 5330SOL    HW116889   2.591   3.603   0.652
 5330SOL    HW216890   2.501   3.633   0.519
 5331SOL     OW16891   6.207   0.746   6.410
 5331SOL    HW116892   6.177   0.692   6.331
 5331SOL    HW216893   6.137   0.744   6.481
 5332SOL     OW16894   1.170   4.883   2.260
 5332SOL    HW116895   1.081   4.849   2.227
 5332SOL    HW216896   1.231   4.897   2.182
 5333SOL     OW16897   0.853   6.058   4.201
 5333SOL    HW116898   0.814   6.101   4.283
 5333SOL    HW216899   0.808   5.971   4.184
 5334SOL     OW16900   2.865   0.171   4.178
 5334SOL    HW116901   2.807   0.105   4.130
 5334SOL    HW216902   2.859   0.260   4.132
 5335SOL     OW16903   6.950   5.891   0.717
 5335SOL    HW116904   7.002   5.808   0.735
 5335SOL    HW216905   6.858   5.883   0.757
 5336SOL     OW16906   1.635   3.749   2.287
 5336SOL    HW116907   1.667   3.705   2.204
 5336SOL    HW216908   1.713   3.781   2.341
 5337SOL     OW16909   4.764   4.502   1.388
 5337SOL    HW116910   4.767   4.575   1.456
 5337SOL    HW216911   4.746   4.542   1.298
 5338SOL     OW16912   6.328   2.309   6.305
 5338SOL    HW116913   6.319   2.210   6.298
 5338SOL    HW216914   6.356   2.346   6.217
 5339SOL     OW16915   6.610   2.112   3.591
 5339SOL    HW116916   6.662   2.195   3.569
 5339SOL    HW216917   6.567   2.123   3.681
 5340SOL     OW16918   5.345   2.350   6.837
 5340SOL    HW116919   5.296   2.303   6.911
 5340SOL    HW216920   5.297   2.334   6.750
 5341SOL     OW16921   4.264   0.232   0.124
 5341SOL    HW116922   4.337   0.165   0.116
 5341SOL    HW216923   4.192   0.197   0.183
 5342SOL     OW16924   3.676   0.913   5.710
 5342SOL    HW116925   3.717   0.857   5.637
 5342SOL    HW216926   3.687   0.866   5.798
 5343SOL     OW16927   3.994   3.883   2.258
 5343SOL    HW116928   4.035   3.970   2.233
 5343SOL    HW216929   4.034   3.851   2.344
 5344SOL     OW16930   2.213   2.211   2.948
 5344SOL    HW116931   2.164   2.291   2.982
 5344SOL    HW216932   2.268   2.236   2.868
 5345SOL     OW16933   4.476   6.782   1.753
 5345SOL    HW116934   4.518   6.850   1.693
 5345SOL    HW216935   4.441   6.706   1.698
 5346SOL     OW16936   3.059   6.536   2.899
 5346SOL    HW116937   2.982   6.472   2.903
 5346SOL    HW216938   3.143   6.489   2.924
 5347SOL     OW16939   0.553   1.904   1.220
 5347SOL    HW116940   0.626   1.895   1.151
 5347SOL    HW216941   0.493   1.980   1.195
 5348SOL     OW16942   0.789   0.882   6.667
 5348SOL    HW116943   0.743   0.795   6.654
 5348SOL    HW216944   0.778   0.939   6.586
 5349SOL     OW16945   6.335   0.568   1.246
 5349SOL    HW116946   6.429   0.543   1.221
 5349SOL    HW216947   6.271   0.517   1.188
 5350SOL     OW16948   2.200   1.657   6.329
 5350SOL    HW116949   2.213   1.753   6.306
 5350SOL    HW216950   2.248   1.636   6.415
 5351SOL     OW16951   4.325   6.961   1.902
 5351SOL    HW116952   4.250   7.006   1.852
 5351SOL    HW216953   4.370   6.895   1.842
 5352SOL     OW16954   3.307   5.685   3.838
 5352SOL    HW116955   3.278   5.683   3.934
 5352SOL    HW216956   3.260   5.760   3.791
 5353SOL     OW16957   5.668   5.639   5.077
 5353SOL    HW116958   5.642   5.718   5.132
 5353SOL    HW216959   5.710   5.669   4.992
 5354SOL     OW16960   0.993   3.875   1.318
 5354SOL    HW116961   1.021   3.962   1.276
 5354SOL    HW216962   0.909   3.889   1.370
 5355SOL     OW16963   4.698   2.396   4.725
 5355SOL    HW116964   4.679   2.490   4.754
 5355SOL    HW216965   4.633   2.334   4.769
 5356SOL     OW16966   6.348   3.689   1.199
 5356SOL    HW116967   6.345   3.650   1.291
 5356SOL    HW216968   6.434   3.663   1.155
 5357SOL     OW16969   3.891   0.078   0.215
 5357SOL    HW116970   3.857   7.016   0.251
 5357SOL    HW216971   3.880   0.080   0.115
 5358SOL     OW16972   4.673   3.015   0.629
 5358SOL    HW116973   4.651   2.963   0.712
 5358SOL    HW216974   4.761   2.984   0.593
 5359SOL     OW16975   2.194   1.002   6.877
 5359SOL    HW116976   2.236   1.078   6.828
 5359SOL    HW216977   2.098   1.023   6.896
 5360SOL     OW16978   3.404   6.810   6.678
 5360SOL    HW116979   3.483   6.818   6.740
 5360SOL    HW216980   3.321   6.837   6.727
 5361SOL     OW16981   2.278   1.054   5.950
 5361SOL    HW116982   2.280   0.954   5.948
 5361SOL    HW216983   2.231   1.088   5.868
 5362SOL     OW16984   4.967   5.338   2.762
 5362SOL    HW116985   4.910   5.334   2.680
 5362SOL    HW216986   4.963   5.250   2.809
 5363SOL     OW16987   0.739   5.610   6.264
 5363SOL    HW116988   0.765   5.617   6.167
 5363SOL    HW216989   0.747   5.514   6.293
 5364SOL     OW16990   0.586   6.272   0.813
 5364SOL    HW116991   0.664   6.226   0.855
 5364SOL    HW216992   0.516   6.291   0.882
 5365SOL     OW16993   4.442   2.015   5.948
 5365SOL    HW116994   4.400   1.924   5.947
 5365SOL    HW216995   4.536   2.008   5.913
 5366SOL     OW16996   3.927   3.304   0.008
 5366SOL    HW116997   3.834   3.309   0.045
 5366SOL    HW216998   3.943   3.213   6.994
 5367SOL     OW16999   0.367   5.004   1.273
 5367SOL    HW117000   0.405   5.047   1.355
 5367SOL    HW217001   0.438   4.999   1.202
 5368SOL     OW17002   6.447   1.894   3.586
 5368SOL    HW117003   6.385   1.927   3.656
 5368SOL    HW217004   6.514   1.966   3.563
 5369SOL     OW17005   1.953   4.208   3.169
 5369SOL    HW117006   1.883   4.137   3.180
 5369SOL    HW217007   2.028   4.171   3.114
 5370SOL     OW17008   3.633   3.040   1.270
 5370SOL    HW117009   3.678   2.968   1.217
 5370SOL    HW217010   3.534   3.030   1.261
 5371SOL     OW17011   0.908   4.418   4.857
 5371SOL    HW117012   0.894   4.471   4.773
 5371SOL    HW217013   0.900   4.321   4.837
 5372SOL     OW17014   2.680   5.244   2.821
 5372SOL    HW117015   2.642   5.295   2.745
 5372SOL    HW217016   2.758   5.190   2.789
 5373SOL     OW17017   3.296   5.116   3.850
 5373SOL    HW117018   3.224   5.063   3.894
 5373SOL    HW217019   3.298   5.208   3.889
 5374SOL     OW17020   2.944   2.150   0.264
 5374SOL    HW117021   2.897   2.127   0.179
 5374SOL    HW217022   2.960   2.067   0.316
 5375SOL     OW17023   1.461   4.384   4.136
 5375SOL    HW117024   1.535   4.447   4.157
 5375SOL    HW217025   1.376   4.419   4.176
 5376SOL     OW17026   1.591   3.372   0.990
 5376SOL    HW117027   1.529   3.413   0.924
 5376SOL    HW217028   1.659   3.316   0.942
 5377SOL     OW17029   0.436   0.859   0.807
 5377SOL    HW117030   0.515   0.834   0.864
 5377SOL    HW217031   0.355   0.809   0.838
 5378SOL     OW17032   5.525   0.547   0.396
 5378SOL    HW117033   5.501   0.626   0.340
 5378SOL    HW217034   5.535   0.466   0.338
 5379SOL     OW17035   0.299   6.151   2.129
 5379SOL    HW117036   0.393   6.119   2.143
 5379SOL    HW217037   0.280   6.227   2.192
 5380SOL     OW17038   3.172   0.368   3.779
 5380SOL    HW117039   3.248   0.432   3.772
 5380SOL    HW217040   3.109   0.381   3.702
 5381SOL     OW17041   5.945   4.341   1.208
 5381SOL    HW117042   5.959   4.243   1.218
 5381SOL    HW217043   5.862   4.358   1.155
 5382SOL     OW17044   1.864   0.462   1.233
 5382SOL    HW117045   1.939   0.503   1.285
 5382SOL    HW217046   1.806   0.534   1.196
 5383SOL     OW17047   2.508   2.242   5.024
 5383SOL    HW117048   2.600   2.277   5.038
 5383SOL    HW217049   2.455   2.254   5.108
 5384SOL     OW17050   5.984   6.662   3.905
 5384SOL    HW117051   5.897   6.622   3.931
 5384SOL    HW217052   6.052   6.590   3.895
 5385SOL     OW17053   3.401   3.947   2.481
 5385SOL    HW117054   3.482   4.000   2.457
 5385SOL    HW217055   3.417   3.898   2.567
 5386SOL     OW17056   5.574   6.338   4.565
 5386SOL    HW117057   5.588   6.316   4.468
 5386SOL    HW217058   5.662   6.357   4.607
 5387SOL     OW17059   2.923   5.365   1.877
 5387SOL    HW117060   2.876   5.316   1.803
 5387SOL    HW217061   2.897   5.324   1.965
 5388SOL     OW17062   5.600   0.080   2.807
 5388SOL    HW117063   5.627   0.072   2.711
 5388SOL    HW217064   5.675   0.051   2.866
 5389SOL     OW17065   4.882   2.234   0.858
 5389SOL    HW117066   4.901   2.180   0.940
 5389SOL    HW217067   4.802   2.291   0.874
 5390SOL     OW17068   5.952   4.955   5.670
 5390SOL    HW117069   5.942   4.920   5.763
 5390SOL    HW217070   5.891   4.904   5.609
 5391SOL     OW17071   2.740   2.681   0.190
 5391SOL    HW117072   2.767   2.663   0.095
 5391SOL    HW217073   2.821   2.689   0.247
 5392SOL     OW17074   6.335   3.285   2.317
 5392SOL    HW117075   6.333   3.293   2.417
 5392SOL    HW217076   6.245   3.308   2.280
 5393SOL     OW17077   0.047   6.938   6.502
 5393SOL    HW117078   0.006   6.847   6.513
 5393SOL    HW217079   0.140   6.936   6.537
 5394SOL     OW17080   0.817   4.115   6.037
 5394SOL    HW117081   0.875   4.143   5.960
 5394SOL    HW217082   0.761   4.193   6.066
 5395SOL     OW17083   3.785   1.404   0.039
 5395SOL    HW117084   3.848   1.328   0.053
 5395SOL    HW217085   3.718   1.406   0.114
 5396SOL     OW17086   4.908   3.479   2.030
 5396SOL    HW117087   4.933   3.459   1.936
 5396SOL    HW217088   4.865   3.398   2.071
 5397SOL     OW17089   0.178   3.525   1.611
 5397SOL    HW117090   0.103   3.583   1.642
 5397SOL    HW217091   0.212   3.471   1.688
 5398SOL     OW17092   2.948   2.542   1.648
 5398SOL    HW117093   3.038   2.584   1.639
 5398SOL    HW217094   2.935   2.510   1.742
 5399SOL     OW17095   1.821   5.977   1.528
 5399SOL    HW117096   1.853   6.038   1.456
 5399SOL    HW217097   1.879   5.896   1.532
 5400SOL     OW17098   3.046   4.377   0.495
 5400SOL    HW117099   3.065   4.285   0.529
 5400SOL    HW217100   3.075   4.444   0.563
 5401SOL     OW17101   6.410   3.025   1.849
 5401SOL    HW117102   6.313   3.024   1.875
 5401SOL    HW217103   6.430   3.109   1.799
 5402SOL     OW17104   0.977   6.267   1.730
 5402SOL    HW117105   0.991   6.308   1.640
 5402SOL    HW217106   0.942   6.336   1.794
 5403SOL     OW17107   0.271   2.681   6.645
 5403SOL    HW117108   0.200   2.652   6.709
 5403SOL    HW217109   0.232   2.742   6.577
 5404SOL     OW17110   1.999   2.797   3.538
 5404SOL    HW117111   1.989   2.895   3.522
 5404SOL    HW217112   2.048   2.782   3.623
 5405SOL     OW17113   6.265   5.229   5.897
 5405SOL    HW117114   6.207   5.149   5.882
 5405SOL    HW217115   6.268   5.251   5.994
 5406SOL     OW17116   2.019   0.827   5.822
 5406SOL    HW117117   1.938   0.770   5.806
 5406SOL    HW217118   2.025   0.897   5.751
 5407SOL     OW17119   4.141   3.314   6.765
 5407SOL    HW117120   4.069   3.249   6.790
 5407SOL    HW217121   4.157   3.376   6.841
 5408SOL     OW17122   2.537   0.428   6.598
 5408SOL    HW117123   2.491   0.377   6.671
 5408SOL    HW217124   2.586   0.363   6.539
 5409SOL     OW17125   3.742   0.781   2.615
 5409SOL    HW117126   3.722   0.731   2.530
 5409SOL    HW217127   3.758   0.877   2.594
 5410SOL     OW17128   2.697   2.001   2.180
 5410SOL    HW117129   2.679   2.048   2.266
 5410SOL    HW217130   2.698   2.068   2.105
 5411SOL     OW17131   0.473   5.629   5.371
 5411SOL    HW117132   0.399   5.668   5.316
 5411SOL    HW217133   0.478   5.530   5.354
 5412SOL     OW17134   6.353   2.707   0.834
 5412SOL    HW117135   6.379   2.803   0.820
 5412SOL    HW217136   6.435   2.653   0.853
 5413SOL     OW17137   2.210   0.871   1.427
 5413SOL    HW117138   2.154   0.938   1.378
 5413SOL    HW217139   2.297   0.914   1.453
 5414SOL     OW17140   3.878   1.250   5.093
 5414SOL    HW117141   3.878   1.330   5.154
 5414SOL    HW217142   3.793   1.248   5.041
 5415SOL     OW17143   6.323   5.009   2.093
 5415SOL    HW117144   6.411   4.970   2.070
 5415SOL    HW217145   6.283   5.053   2.013
 5416SOL     OW17146   4.597   5.319   4.718
 5416SOL    HW117147   4.639   5.382   4.784
 5416SOL    HW217148   4.507   5.354   4.692
 5417SOL     OW17149   3.413   6.969   4.645
 5417SOL    HW117150   3.370   7.021   4.719
 5417SOL    HW217151   3.442   0.007   4.572
 5418SOL     OW17152   3.511   0.325   3.023
 5418SOL    HW117153   3.582   0.393   3.008
 5418SOL    HW217154   3.535   0.268   3.102
 5419SOL     OW17155   3.630   4.839   6.874
 5419SOL    HW117156   3.549   4.781   6.871
 5419SOL    HW217157   3.613   4.923   6.823
 5420SOL     OW17158   1.324   1.563   2.660
 5420SOL    HW117159   1.229   1.586   2.640
 5420SOL    HW217160   1.385   1.611   2.596
 5421SOL     OW17161   1.613   3.601   2.059
 5421SOL    HW117162   1.554   3.610   1.979
 5421SOL    HW217163   1.709   3.595   2.029
 5422SOL     OW17164   2.434   3.302   1.219
 5422SOL    HW117165   2.428   3.344   1.129
 5422SOL    HW217166   2.387   3.360   1.286
 5423SOL     OW17167   5.636   3.189   0.103
 5423SOL    HW117168   5.605   3.099   0.075
 5423SOL    HW217169   5.713   3.180   0.167
 5424SOL     OW17170   5.274   3.816   4.187
 5424SOL    HW117171   5.233   3.729   4.216
 5424SOL    HW217172   5.322   3.803   4.101
 5425SOL     OW17173   4.990   0.962   5.230
 5425SOL    HW117174   5.073   1.014   5.245
 5425SOL    HW217175   4.967   0.964   5.132
 5426SOL     OW17176   6.129   0.161   4.799
 5426SOL    HW117177   6.106   0.258   4.799
 5426SOL    HW217178   6.062   0.110   4.853
 5427SOL     OW17179   3.861   5.761   6.462
 5427SOL    HW117180   3.938   5.701   6.487
 5427SOL    HW217181   3.889   5.823   6.389
 5428SOL     OW17182   1.530   0.192   0.138
 5428SOL    HW117183   1.491   0.243   0.062
 5428SOL    HW217184   1.460   0.177   0.208
 5429SOL     OW17185   0.970   2.702   6.508
 5429SOL    HW117186   1.045   2.639   6.527
 5429SOL    HW217187   0.934   2.738   6.594
 5430SOL     OW17188   2.019   2.895   5.914
 5430SOL    HW117189   2.086   2.850   5.972
 5430SOL    HW217190   1.998   2.836   5.835
 5431SOL     OW17191   3.712   6.037   5.038
 5431SOL    HW117192   3.663   6.116   5.074
 5431SOL    HW217193   3.756   6.060   4.952
 5432SOL     OW17194   5.104   6.884   1.162
 5432SOL    HW117195   5.045   6.935   1.100
 5432SOL    HW217196   5.061   6.878   1.252
 5433SOL     OW17197   0.637   1.621   4.771
 5433SOL    HW117198   0.665   1.562   4.695
 5433SOL    HW217199   0.705   1.693   4.783
 5434SOL     OW17200   2.691   0.457   5.586
 5434SOL    HW117201   2.775   0.511   5.590
 5434SOL    HW217202   2.656   0.457   5.493
 5435SOL     OW17203   4.424   0.490   1.804
 5435SOL    HW117204   4.413   0.422   1.877
 5435SOL    HW217205   4.385   0.454   1.719
 5436SOL     OW17206   4.815   3.983   2.996
 5436SOL    HW117207   4.872   3.983   2.914
 5436SOL    HW217208   4.811   4.075   3.034
 5437SOL     OW17209   3.089   3.634   0.032
 5437SOL    HW117210   3.133   3.612   6.969
 5437SOL    HW217211   3.001   3.588   0.037
 5438SOL     OW17212   6.271   1.875   1.100
 5438SOL    HW117213   6.345   1.836   1.155
 5438SOL    HW217214   6.185   1.867   1.151
 5439SOL     OW17215   0.969   2.373   1.479
 5439SOL    HW117216   1.020   2.378   1.565
 5439SOL    HW217217   1.028   2.340   1.406
 5440SOL     OW17218   0.673   1.613   0.981
 5440SOL    HW117219   0.575   1.603   0.963
 5440SOL    HW217220   0.724   1.546   0.927
 5441SOL     OW17221   3.619   2.039   3.072
 5441SOL    HW117222   3.631   1.942   3.050
 5441SOL    HW217223   3.529   2.053   3.112
 5442SOL     OW17224   3.900   0.413   2.457
 5442SOL    HW117225   3.817   0.463   2.481
 5442SOL    HW217226   3.976   0.477   2.447
 5443SOL     OW17227   3.289   6.959   5.447
 5443SOL    HW117228   3.274   0.021   5.397
 5443SOL    HW217229   3.202   6.927   5.485
 5444SOL     OW17230   6.929   0.061   3.439
 5444SOL    HW117231   6.989   0.126   3.487
 5444SOL    HW217232   6.951   6.992   3.467
 5445SOL     OW17233   5.658   3.704   2.113
 5445SOL    HW117234   5.751   3.681   2.087
 5445SOL    HW217235   5.595   3.680   2.039
 5446SOL     OW17236   6.069   5.549   5.892
 5446SOL    HW117237   6.067   5.461   5.940
 5446SOL    HW217238   6.009   5.614   5.938
 5447SOL     OW17239   3.805   2.229   6.964
 5447SOL    HW117240   3.832   2.276   6.881
 5447SOL    HW217241   3.819   2.289   0.019
 5448SOL     OW17242   5.633   2.193   5.394
 5448SOL    HW117243   5.678   2.282   5.400
 5448SOL    HW217244   5.628   2.165   5.298
 5449SOL     OW17245   0.832   3.498   6.512
 5449SOL    HW117246   0.833   3.504   6.612
 5449SOL    HW217247   0.851   3.404   6.484
 5450SOL     OW17248   2.171   0.101   0.924
 5450SOL    HW117249   2.150   0.191   0.965
 5450SOL    HW217250   2.086   0.058   0.895
 5451SOL     OW17251   0.855   6.237   3.130
 5451SOL    HW117252   0.903   6.154   3.160
 5451SOL    HW217253   0.914   6.290   3.069
 5452SOL     OW17254   2.351   3.976   6.693
 5452SOL    HW117255   2.379   3.890   6.735
 5452SOL    HW217256   2.358   3.969   6.593
 5453SOL     OW17257   6.178   4.933   6.829
 5453SOL    HW117258   6.172   4.856   6.765
 5453SOL    HW217259   6.249   4.915   6.897
 5454SOL     OW17260   6.893   4.540   0.006
 5454SOL    HW117261   6.924   4.616   0.062
 5454SOL    HW217262   6.951   4.460   0.024
 5455SOL     OW17263   6.799   3.231   0.777
 5455SOL    HW117264   6.734   3.178   0.722
 5455SOL    HW217265   6.858   3.285   0.717
 5456SOL     OW17266   3.222   6.820   0.325
 5456SOL    HW117267   3.125   6.831   0.302
 5456SOL    HW217268   3.238   6.726   0.356
 5457SOL     OW17269   5.888   2.887   0.840
 5457SOL    HW117270   5.796   2.868   0.876
 5457SOL    HW217271   5.882   2.957   0.769
 5458SOL     OW17272   1.952   4.274   6.807
 5458SOL    HW117273   2.006   4.268   6.891
 5458SOL    HW217274   1.864   4.227   6.820
 5459SOL     OW17275   1.582   4.762   6.454
 5459SOL    HW117276   1.540   4.671   6.461
 5459SOL    HW217277   1.632   4.769   6.368
 5460SOL     OW17278   3.093   0.456   1.245
 5460SOL    HW117279   3.092   0.443   1.146
 5460SOL    HW217280   3.011   0.506   1.273
 5461SOL     OW17281   4.737   0.184   4.924
 5461SOL    HW117282   4.785   0.179   4.836
 5461SOL    HW217283   4.639   0.180   4.908
 5462SOL     OW17284   1.273   0.326   0.747
 5462SOL    HW117285   1.249   0.270   0.668
 5462SOL    HW217286   1.292   0.420   0.718
 5463SOL     OW17287   6.586   2.536   0.889
 5463SOL    HW117288   6.651   2.460   0.880
 5463SOL    HW217289   6.632   2.621   0.863
 5464SOL     OW17290   1.881   6.815   4.516
 5464SOL    HW117291   1.961   6.786   4.463
 5464SOL    HW217292   1.885   6.776   4.607
 5465SOL     OW17293   2.576   0.141   5.248
 5465SOL    HW117294   2.499   0.150   5.185
 5465SOL    HW217295   2.545   0.097   5.333
 5466SOL     OW17296   4.615   4.515   4.446
 5466SOL    HW117297   4.583   4.489   4.537
 5466SOL    HW217298   4.544   4.568   4.399
 5467SOL     OW17299   5.380   1.540   2.436
 5467SOL    HW117300   5.447   1.495   2.495
 5467SOL    HW217301   5.290   1.498   2.449
 5468SOL     OW17302   4.261   1.834   5.014
 5468SOL    HW117303   4.192   1.865   4.948
 5468SOL    HW217304   4.242   1.739   5.040
 5469SOL     OW17305   4.130   4.168   6.806
 5469SOL    HW117306   4.045   4.114   6.806
 5469SOL    HW217307   4.206   4.109   6.831
 5470SOL     OW17308   1.832   5.007   3.929
 5470SOL    HW117309   1.861   5.102   3.939
 5470SOL    HW217310   1.770   4.983   4.004
 5471SOL     OW17311   6.883   5.739   1.882
 5471SOL    HW117312   6.860   5.644   1.860
 5471SOL    HW217313   6.951   5.741   1.955
 5472SOL     OW17314   3.708   4.697   5.984
 5472SOL    HW117315   3.658   4.715   6.069
 5472SOL    HW217316   3.776   4.768   5.969
 5473SOL     OW17317   1.291   3.763   3.463
 5473SOL    HW117318   1.238   3.678   3.461
 5473SOL    HW217319   1.388   3.741   3.466
 5474SOL     OW17320   1.394   5.726   3.816
 5474SOL    HW117321   1.421   5.635   3.848
 5474SOL    HW217322   1.365   5.781   3.895
 5475SOL     OW17323   2.652   2.197   1.484
 5475SOL    HW117324   2.735   2.252   1.487
 5475SOL    HW217325   2.676   2.100   1.493
 5476SOL     OW17326   1.220   3.143   6.117
 5476SOL    HW117327   1.166   3.219   6.153
 5476SOL    HW217328   1.167   3.059   6.121
 5477SOL     OW17329   2.204   3.057   3.143
 5477SOL    HW117330   2.193   3.155   3.160
 5477SOL    HW217331   2.267   3.019   3.212
 5478SOL     OW17332   5.992   5.874   5.283
 5478SOL    HW117333   6.037   5.846   5.367
 5478SOL    HW217334   6.046   5.846   5.204
 5479SOL     OW17335   4.890   0.827   4.717
 5479SOL    HW117336   4.794   0.853   4.722
 5479SOL    HW217337   4.902   0.738   4.760
 5480SOL     OW17338   0.572   3.768   4.313
 5480SOL    HW117339   0.597   3.833   4.385
 5480SOL    HW217340   0.546   3.681   4.355
 5481SOL     OW17341   4.314   6.676   3.818
 5481SOL    HW117342   4.279   6.678   3.725
 5481SOL    HW217343   4.271   6.602   3.869
 5482SOL     OW17344   1.817   4.469   1.297
 5482SOL    HW117345   1.916   4.460   1.303
 5482SOL    HW217346   1.777   4.379   1.277
 5483SOL     OW17347   0.202   2.463   5.735
 5483SOL    HW117348   0.166   2.380   5.693
 5483SOL    HW217349   0.259   2.439   5.814
 5484SOL     OW17350   4.585   0.809   4.884
 5484SOL    HW117351   4.626   0.742   4.946
 5484SOL    HW217352   4.506   0.852   4.929
 5485SOL     OW17353   2.530   0.458   5.375
 5485SOL    HW117354   2.517   0.359   5.379
 5485SOL    HW217355   2.448   0.500   5.335
 5486SOL     OW17356   2.894   6.442   5.201
 5486SOL    HW117357   2.855   6.520   5.250
 5486SOL    HW217358   2.991   6.433   5.224
 5487SOL     OW17359   3.652   5.339   5.745
 5487SOL    HW117360   3.583   5.374   5.681
 5487SOL    HW217361   3.729   5.301   5.694
 5488SOL     OW17362   6.061   1.312   0.876
 5488SOL    HW117363   5.981   1.255   0.862
 5488SOL    HW217364   6.042   1.404   0.842
 5489SOL     OW17365   6.877   4.209   3.040
 5489SOL    HW117366   6.878   4.118   3.081
 5489SOL    HW217367   6.866   4.277   3.113
 5490SOL     OW17368   1.694   6.556   3.012
 5490SOL    HW117369   1.678   6.649   2.980
 5490SOL    HW217370   1.746   6.559   3.098
 5491SOL     OW17371   6.417   4.188   0.504
 5491SOL    HW117372   6.352   4.245   0.555
 5491SOL    HW217373   6.510   4.221   0.521
 5492SOL     OW17374   0.004   2.384   6.328
 5492SOL    HW117375   0.076   2.436   6.283
 5492SOL    HW217376   6.952   2.370   6.265
 5493SOL     OW17377   3.543   3.788   1.058
 5493SOL    HW117378   3.491   3.724   1.002
 5493SOL    HW217379   3.640   3.785   1.031
 5494SOL     OW17380   5.922   3.932   5.196
 5494SOL    HW117381   5.971   3.890   5.272
 5494SOL    HW217382   5.927   3.872   5.116
 5495SOL     OW17383   5.859   6.728   0.723
 5495SOL    HW117384   5.927   6.780   0.775
 5495SOL    HW217385   5.868   6.631   0.743
 5496SOL     OW17386   3.702   0.340   4.140
 5496SOL    HW117387   3.618   0.366   4.091
 5496SOL    HW217388   3.689   0.355   4.238
 5497SOL     OW17389   1.446   0.690   5.803
 5497SOL    HW117390   1.479   0.712   5.895
 5497SOL    HW217391   1.384   0.763   5.772
 5498SOL     OW17392   0.841   5.208   1.700
 5498SOL    HW117393   0.892   5.146   1.760
 5498SOL    HW217394   0.751   5.225   1.739
 5499SOL     OW17395   2.134   0.304   4.843
 5499SOL    HW117396   2.213   0.358   4.872
 5499SOL    HW217397   2.068   0.364   4.799
 5500SOL     OW17398   2.905   0.850   0.796
 5500SOL    HW117399   3.005   0.850   0.802
 5500SOL    HW217400   2.867   0.917   0.860
 5501SOL     OW17401   3.580   3.654   6.673
 5501SOL    HW117402   3.621   3.605   6.750
 5501SOL    HW217403   3.568   3.591   6.597
 5502SOL     OW17404   4.578   2.506   0.264
 5502SOL    HW117405   4.625   2.590   0.291
 5502SOL    HW217406   4.515   2.478   0.336
 5503SOL     OW17407   6.298   4.051   0.886
 5503SOL    HW117408   6.347   4.034   0.971
 5503SOL    HW217409   6.249   3.968   0.858
 5504SOL     OW17410   3.670   1.660   6.921
 5504SOL    HW117411   3.703   1.679   6.828
 5504SOL    HW217412   3.725   1.588   6.962
 5505SOL     OW17413   2.818   5.075   3.468
 5505SOL    HW117414   2.727   5.037   3.487
 5505SOL    HW217415   2.844   5.137   3.542
 5506SOL     OW17416   0.644   3.318   6.136
 5506SOL    HW117417   0.636   3.330   6.235
 5506SOL    HW217418   0.594   3.391   6.089
 5507SOL     OW17419   2.605   6.896   0.160
 5507SOL    HW117420   2.556   6.873   0.076
 5507SOL    HW217421   2.619   6.995   0.165
 5508SOL     OW17422   6.830   0.835   6.306
 5508SOL    HW117423   6.834   0.852   6.405
 5508SOL    HW217424   6.766   0.760   6.288
 5509SOL     OW17425   6.969   5.088   1.105
 5509SOL    HW117426   6.909   5.138   1.043
 5509SOL    HW217427   6.938   4.992   1.110
 5510SOL     OW17428   4.258   4.831   0.315
 5510SOL    HW117429   4.170   4.835   0.268
 5510SOL    HW217430   4.247   4.782   0.402
 5511SOL     OW17431   0.292   1.875   5.630
 5511SOL    HW117432   0.257   1.906   5.542
 5511SOL    HW217433   0.391   1.863   5.623
 5512SOL     OW17434   2.647   0.992   2.061
 5512SOL    HW117435   2.669   1.074   2.008
 5512SOL    HW217436   2.711   0.919   2.035
 5513SOL     OW17437   4.225   4.274   0.441
 5513SOL    HW117438   4.160   4.331   0.491
 5513SOL    HW217439   4.176   4.218   0.374
 5514SOL     OW17440   3.149   1.180   0.249
 5514SOL    HW117441   3.177   1.132   0.166
 5514SOL    HW217442   3.159   1.119   0.328
 5515SOL     OW17443   2.454   6.020   2.498
 5515SOL    HW117444   2.493   5.928   2.492
 5515SOL    HW217445   2.374   6.026   2.439
 5516SOL     OW17446   1.509   2.288   5.522
 5516SOL    HW117447   1.516   2.317   5.617
 5516SOL    HW217448   1.579   2.333   5.467
 5517SOL     OW17449   0.892   2.637   3.238
 5517SOL    HW117450   0.854   2.633   3.145
 5517SOL    HW217451   0.960   2.709   3.243
 5518SOL     OW17452   4.539   4.793   6.863
 5518SOL    HW117453   4.454   4.810   6.913
 5518SOL    HW217454   4.565   4.876   6.813
 5519SOL     OW17455   4.542   2.525   4.043
 5519SOL    HW117456   4.472   2.467   4.085
 5519SOL    HW217457   4.631   2.480   4.048
 5520SOL     OW17458   5.003   6.929   1.428
 5520SOL    HW117459   5.032   6.866   1.501
 5520SOL    HW217460   5.043   7.019   1.444
 5521SOL     OW17461   5.005   5.893   2.041
 5521SOL    HW117462   5.024   5.799   2.069
 5521SOL    HW217463   5.050   5.911   1.953
 5522SOL     OW17464   6.219   5.665   1.103
 5522SOL    HW117465   6.270   5.606   1.166
 5522SOL    HW217466   6.243   5.760   1.119
 5523SOL     OW17467   5.339   0.742   1.038
 5523SOL    HW117468   5.366   0.835   1.015
 5523SOL    HW217469   5.256   0.718   0.987
 5524SOL     OW17470   2.218   1.891   3.901
 5524SOL    HW117471   2.132   1.875   3.950
 5524SOL    HW217472   2.227   1.988   3.879
 5525SOL     OW17473   5.743   1.082   1.738
 5525SOL    HW117474   5.752   1.021   1.817
 5525SOL    HW217475   5.647   1.085   1.709
 5526SOL     OW17476   5.588   4.665   3.986
 5526SOL    HW117477   5.541   4.708   3.909
 5526SOL    HW217478   5.553   4.572   3.998
 5527SOL     OW17479   5.671   1.358   3.943
 5527SOL    HW117480   5.706   1.385   4.032
 5527SOL    HW217481   5.597   1.291   3.956
 5528SOL     OW17482   0.895   0.986   6.913
 5528SOL    HW117483   0.825   0.948   6.973
 5528SOL    HW217484   0.879   0.955   6.820
 5529SOL     OW17485   3.550   0.478   1.862
 5529SOL    HW117486   3.484   0.445   1.930
 5529SOL    HW217487   3.642   0.474   1.900
 5530SOL     OW17488   6.313   2.132   0.950
 5530SOL    HW117489   6.409   2.129   0.924
 5530SOL    HW217490   6.282   2.040   0.974
 5531SOL     OW17491   2.208   3.959   1.108
 5531SOL    HW117492   2.170   4.014   1.182
 5531SOL    HW217493   2.304   3.983   1.095
 5532SOL     OW17494   1.496   2.856   0.394
 5532SOL    HW117495   1.459   2.924   0.331
 5532SOL    HW217496   1.462   2.874   0.486
 5533SOL     OW17497   3.084   1.652   2.327
 5533SOL    HW117498   3.184   1.664   2.327
 5533SOL    HW217499   3.048   1.673   2.236
 5534SOL     OW17500   1.830   0.394   4.994
 5534SOL    HW117501   1.873   0.428   4.910
 5534SOL    HW217502   1.898   0.394   5.068
 5535SOL     OW17503   0.329   1.770   2.956
 5535SOL    HW117504   0.278   1.846   2.996
 5535SOL    HW217505   0.274   1.687   2.963
 5536SOL     OW17506   3.936   6.283   4.207
 5536SOL    HW117507   3.868   6.308   4.138
 5536SOL    HW217508   3.949   6.359   4.270
 5537SOL     OW17509   2.757   1.507   3.536
 5537SOL    HW117510   2.662   1.481   3.516
 5537SOL    HW217511   2.784   1.584   3.478
 5538SOL     OW17512   4.430   5.082   4.861
 5538SOL    HW117513   4.483   5.151   4.811
 5538SOL    HW217514   4.332   5.098   4.845
 5539SOL     OW17515   2.630   4.503   0.468
 5539SOL    HW117516   2.554   4.453   0.511
 5539SOL    HW217517   2.669   4.447   0.395
 5540SOL     OW17518   5.080   5.223   1.783
 5540SOL    HW117519   5.162   5.198   1.833
 5540SOL    HW217520   5.105   5.253   1.691
 5541SOL     OW17521   4.664   1.302   5.780
 5541SOL    HW117522   4.701   1.394   5.797
 5541SOL    HW217523   4.669   1.282   5.683
 5542SOL     OW17524   5.312   4.460   6.842
 5542SOL    HW117525   5.380   4.414   6.785
 5542SOL    HW217526   5.352   4.541   6.884
 5543SOL     OW17527   0.029   2.103   5.976
 5543SOL    HW117528   0.056   2.059   5.890
 5543SOL    HW217529   6.957   2.128   5.972
 5544SOL     OW17530   6.009   0.834   6.824
 5544SOL    HW117531   6.076   0.899   6.786
 5544SOL    HW217532   5.933   0.885   6.863
 5545SOL     OW17533   2.684   2.502   1.863
 5545SOL    HW117534   2.783   2.492   1.858
 5545SOL    HW217535   2.642   2.476   1.776
 5546SOL     OW17536   3.103   4.932   5.519
 5546SOL    HW117537   3.118   4.872   5.440
 5546SOL    HW217538   3.013   4.912   5.558
 5547SOL     OW17539   3.858   6.107   4.454
 5547SOL    HW117540   3.791   6.161   4.505
 5547SOL    HW217541   3.913   6.169   4.398
 5548SOL     OW17542   0.137   2.891   5.280
 5548SOL    HW117543   0.105   2.812   5.331
 5548SOL    HW217544   0.075   2.909   5.204
 5549SOL     OW17545   3.219   4.663   0.245
 5549SOL    HW117546   3.133   4.659   0.296
 5549SOL    HW217547   3.211   4.609   0.161
 5550SOL     OW17548   3.592   6.926   2.495
 5550SOL    HW117549   3.525   6.855   2.517
 5550SOL    HW217550   3.681   6.883   2.478
 5551SOL     OW17551   0.155   1.554   2.903
 5551SOL    HW117552   0.141   1.467   2.855
 5551SOL    HW217553   0.089   1.562   2.978
 5552SOL     OW17554   0.814   2.708   1.257
 5552SOL    HW117555   0.828   2.803   1.228
 5552SOL    HW217556   0.717   2.686   1.255
 5553SOL     OW17557   4.979   6.402   6.791
 5553SOL    HW117558   4.995   6.360   6.881
 5553SOL    HW217559   4.979   6.502   6.801
 5554SOL     OW17560   3.155   1.372   4.252
 5554SOL    HW117561   3.068   1.397   4.294
 5554SOL    HW217562   3.230   1.417   4.300
 5555SOL     OW17563   0.891   5.965   1.945
 5555SOL    HW117564   0.850   5.941   1.857
 5555SOL    HW217565   0.980   6.007   1.929
 5556SOL     OW17566   0.446   0.974   4.248
 5556SOL    HW117567   0.465   0.950   4.152
 5556SOL    HW217568   0.532   0.984   4.298
 5557SOL     OW17569   2.955   0.715   3.461
 5557SOL    HW117570   2.921   0.735   3.370
 5557SOL    HW217571   3.055   0.723   3.462
 5558SOL     OW17572   4.887   2.496   4.544
 5558SOL    HW117573   4.816   2.465   4.607
 5558SOL    HW217574   4.959   2.544   4.595
 5559SOL     OW17575   2.979   0.620   1.034
 5559SOL    HW117576   2.922   0.654   1.108
 5559SOL    HW217577   2.942   0.533   1.001
 5560SOL     OW17578   6.909   1.189   4.529
 5560SOL    HW117579   6.829   1.248   4.515
 5560SOL    HW217580   6.935   1.191   4.626
 5561SOL     OW17581   1.841   3.804   2.874
 5561SOL    HW117582   1.851   3.729   2.808
 5561SOL    HW217583   1.759   3.790   2.929
 5562SOL     OW17584   2.938   2.235   6.561
 5562SOL    HW117585   2.911   2.165   6.629
 5562SOL    HW217586   3.002   2.195   6.496
 5563SOL     OW17587   4.279   4.247   1.581
 5563SOL    HW117588   4.194   4.299   1.585
 5563SOL    HW217589   4.310   4.226   1.674
 5564SOL     OW17590   6.222   3.920   2.039
 5564SOL    HW117591   6.130   3.900   2.005
 5564SOL    HW217592   6.216   3.987   2.113
 5565SOL     OW17593   2.981   2.933   5.625
 5565SOL    HW117594   3.025   2.921   5.714
 5565SOL    HW217595   3.034   2.884   5.555
 5566SOL     OW17596   1.851   4.859   0.521
 5566SOL    HW117597   1.766   4.824   0.482
 5566SOL    HW217598   1.843   4.957   0.537
 5567SOL     OW17599   2.045   5.588   3.262
 5567SOL    HW117600   2.003   5.561   3.175
 5567SOL    HW217601   2.138   5.550   3.267
 5568SOL     OW17602   3.748   2.524   1.025
 5568SOL    HW117603   3.780   2.443   1.074
 5568SOL    HW217604   3.650   2.534   1.037
 5569SOL     OW17605   5.590   2.293   6.695
 5569SOL    HW117606   5.631   2.375   6.655
 5569SOL    HW217607   5.528   2.319   6.769
 5570SOL     OW17608   0.553   3.378   5.477
 5570SOL    HW117609   0.503   3.372   5.564
 5570SOL    HW217610   0.508   3.446   5.418
 5571SOL     OW17611   6.407   4.472   6.691
 5571SOL    HW117612   6.360   4.428   6.614
 5571SOL    HW217613   6.504   4.485   6.668
 5572SOL     OW17614   5.729   2.675   5.235
 5572SOL    HW117615   5.667   2.690   5.158
 5572SOL    HW217616   5.767   2.762   5.265
 5573SOL     OW17617   0.470   4.004   0.292
 5573SOL    HW117618   0.491   3.910   0.264
 5573SOL    HW217619   0.464   4.009   0.391
 5574SOL     OW17620   0.199   6.162   4.668
 5574SOL    HW117621   0.166   6.202   4.583
 5574SOL    HW217622   0.298   6.174   4.675
 5575SOL     OW17623   0.940   1.049   1.373
 5575SOL    HW117624   0.929   1.093   1.463
 5575SOL    HW217625   0.855   1.001   1.349
 5576SOL     OW17626   6.118   5.864   0.129
 5576SOL    HW117627   6.114   5.764   0.132
 5576SOL    HW217628   6.106   5.901   0.221
 5577SOL     OW17629   2.174   3.862   4.838
 5577SOL    HW117630   2.190   3.928   4.911
 5577SOL    HW217631   2.248   3.794   4.838
 5578SOL     OW17632   3.203   1.823   6.141
 5578SOL    HW117633   3.119   1.852   6.096
 5578SOL    HW217634   3.199   1.846   6.238
 5579SOL     OW17635   4.811   5.059   1.682
 5579SOL    HW117636   4.749   5.101   1.749
 5579SOL    HW217637   4.903   5.056   1.720
 5580SOL     OW17638   5.100   0.906   1.526
 5580SOL    HW117639   5.189   0.881   1.488
 5580SOL    HW217640   5.027   0.868   1.470
 5581SOL     OW17641   2.489   2.908   0.488
 5581SOL    HW117642   2.469   2.998   0.528
 5581SOL    HW217643   2.585   2.885   0.506
 5582SOL     OW17644   3.593   2.874   3.412
 5582SOL    HW117645   3.653   2.840   3.485
 5582SOL    HW217646   3.624   2.964   3.382
 5583SOL     OW17647   4.323   0.480   0.028
 5583SOL    HW117648   4.291   0.393   0.065
 5583SOL    HW217649   4.412   0.502   0.068
 5584SOL     OW17650   5.139   3.144   3.177
 5584SOL    HW117651   5.049   3.185   3.163
 5584SOL    HW217652   5.166   3.154   3.273
 5585SOL     OW17653   0.087   6.870   4.638
 5585SOL    HW117654   0.043   6.932   4.574
 5585SOL    HW217655   0.167   6.828   4.595
 5586SOL     OW17656   2.358   1.416   6.601
 5586SOL    HW117657   2.375   1.514   6.608
 5586SOL    HW217658   2.383   1.384   6.510
 5587SOL     OW17659   3.598   6.700   4.235
 5587SOL    HW117660   3.504   6.686   4.265
 5587SOL    HW217661   3.660   6.654   4.298
 5588SOL     OW17662   4.508   0.551   5.844
 5588SOL    HW117663   4.461   0.638   5.832
 5588SOL    HW217664   4.452   0.490   5.899
 5589SOL     OW17665   3.237   4.138   6.829
 5589SOL    HW117666   3.250   4.151   6.731
 5589SOL    HW217667   3.324   4.153   6.876
 5590SOL     OW17668   6.765   6.848   3.685
 5590SOL    HW117669   6.668   6.859   3.661
 5590SOL    HW217670   6.821   6.851   3.603
 5591SOL     OW17671   5.396   0.019   6.946
 5591SOL    HW117672   5.454   6.961   6.952
 5591SOL    HW217673   5.410   0.063   6.858
 5592SOL     OW17674   1.661   1.901   2.651
 5592SOL    HW117675   1.706   1.869   2.734
 5592SOL    HW217676   1.677   1.999   2.640
 5593SOL     OW17677   1.901   3.923   4.785
 5593SOL    HW117678   1.993   3.933   4.747
 5593SOL    HW217679   1.840   3.988   4.739
 5594SOL     OW17680   2.807   1.677   6.144
 5594SOL    HW117681   2.799   1.621   6.227
 5594SOL    HW217682   2.718   1.684   6.099
 5595SOL     OW17683   0.473   1.753   6.148
 5595SOL    HW117684   0.442   1.750   6.243
 5595SOL    HW217685   0.558   1.807   6.143
 5596SOL     OW17686   4.802   2.117   3.550
 5596SOL    HW117687   4.754   2.203   3.565
 5596SOL    HW217688   4.803   2.065   3.636
 5597SOL     OW17689   0.317   1.691   6.378
 5597SOL    HW117690   0.264   1.619   6.334
 5597SOL    HW217691   0.264   1.775   6.381
 5598SOL     OW17692   6.942   1.872   4.200
 5598SOL    HW117693   6.920   1.855   4.104
 5598SOL    HW217694   6.972   1.786   4.243
 5599SOL     OW17695   5.334   2.401   2.984
 5599SOL    HW117696   5.251   2.391   2.930
 5599SOL    HW217697   5.352   2.317   3.035
 5600SOL     OW17698   1.808   2.351   2.515
 5600SOL    HW117699   1.802   2.325   2.419
 5600SOL    HW217700   1.792   2.449   2.524
 5601SOL     OW17701   5.544   3.489   5.969
 5601SOL    HW117702   5.489   3.470   6.050
 5601SOL    HW217703   5.602   3.410   5.949
 5602SOL     OW17704   6.370   2.335   2.218
 5602SOL    HW117705   6.347   2.339   2.315
 5602SOL    HW217706   6.364   2.426   2.179
 5603SOL     OW17707   3.565   2.144   5.846
 5603SOL    HW117708   3.630   2.151   5.922
 5603SOL    HW217709   3.472   2.139   5.882
 5604SOL     OW17710   1.008   6.478   3.669
 5604SOL    HW117711   0.980   6.485   3.573
 5604SOL    HW217712   1.065   6.397   3.680
 5605SOL     OW17713   4.314   6.797   4.076
 5605SOL    HW117714   4.217   6.770   4.071
 5605SOL    HW217715   4.358   6.782   3.988
 5606SOL     OW17716   4.698   2.761   0.309
 5606SOL    HW117717   4.773   2.751   0.375
 5606SOL    HW217718   4.665   2.855   0.310
 5607SOL     OW17719   0.145   2.551   3.194
 5607SOL    HW117720   0.200   2.469   3.180
 5607SOL    HW217721   0.195   2.617   3.249
 5608SOL     OW17722   4.901   0.726   3.792
 5608SOL    HW117723   4.893   0.693   3.697
 5608SOL    HW217724   4.939   0.818   3.792
 5609SOL     OW17725   6.924   0.599   7.015
 5609SOL    HW117726   6.989   0.541   6.966
 5609SOL    HW217727   6.842   0.612   6.959
 5610SOL     OW17728   6.007   6.101   6.969
 5610SOL    HW117729   6.024   6.112   6.871
 5610SOL    HW217730   6.045   6.014   6.999
 5611SOL     OW17731   6.346   4.163   1.925
 5611SOL    HW117732   6.444   4.151   1.910
 5611SOL    HW217733   6.304   4.074   1.944
 5612SOL     OW17734   3.895   1.799   0.583
 5612SOL    HW117735   3.910   1.828   0.677
 5612SOL    HW217736   3.886   1.879   0.524
 5613SOL     OW17737   5.857   5.198   5.819
 5613SOL    HW117738   5.814   5.271   5.766
 5613SOL    HW217739   5.896   5.130   5.757
 5614SOL     OW17740   5.286   2.954   4.457
 5614SOL    HW117741   5.252   3.046   4.480
 5614SOL    HW217742   5.209   2.897   4.427
 5615SOL     OW17743   0.800   3.215   3.660
 5615SOL    HW117744   0.704   3.232   3.636
 5615SOL    HW217745   0.847   3.302   3.675
 5616SOL     OW17746   2.138   3.382   2.781
 5616SOL    HW117747   2.138   3.290   2.741
 5616SOL    HW217748   2.098   3.378   2.873
 5617SOL     OW17749   1.396   4.663   6.108
 5617SOL    HW117750   1.340   4.580   6.107
 5617SOL    HW217751   1.344   4.739   6.147
 5618SOL     OW17752   4.806   6.571   2.685
 5618SOL    HW117753   4.903   6.551   2.697
 5618SOL    HW217754   4.790   6.669   2.701
 5619SOL     OW17755   3.513   3.239   3.221
 5619SOL    HW117756   3.495   3.146   3.190
 5619SOL    HW217757   3.536   3.297   3.142
 5620SOL     OW17758   4.943   4.998   4.077
 5620SOL    HW117759   4.882   4.996   3.998
 5620SOL    HW217760   4.889   5.006   4.161
 5621SOL     OW17761   1.533   2.895   6.725
 5621SOL    HW117762   1.584   2.945   6.796
 5621SOL    HW217763   1.500   2.809   6.763
 5622SOL     OW17764   4.661   5.256   4.085
 5622SOL    HW117765   4.718   5.276   4.164
 5622SOL    HW217766   4.720   5.243   4.005
 5623SOL     OW17767   4.465   4.910   3.776
 5623SOL    HW117768   4.422   4.822   3.794
 5623SOL    HW217769   4.535   4.927   3.846
 5624SOL     OW17770   5.100   4.711   3.241
 5624SOL    HW117771   5.039   4.635   3.218
 5624SOL    HW217772   5.192   4.677   3.256
 5625SOL     OW17773   3.000   6.440   6.355
 5625SOL    HW117774   3.023   6.529   6.394
 5625SOL    HW217775   3.047   6.429   6.268
 5626SOL     OW17776   0.587   4.887   6.497
 5626SOL    HW117777   0.513   4.851   6.554
 5626SOL    HW217778   0.602   4.826   6.420
 5627SOL     OW17779   1.328   5.892   0.118
 5627SOL    HW117780   1.291   5.960   0.055
 5627SOL    HW217781   1.253   5.842   0.161
 5628SOL     OW17782   2.149   3.598   0.480
 5628SOL    HW117783   2.235   3.624   0.437
 5628SOL    HW217784   2.120   3.509   0.445
 5629SOL     OW17785   0.067   3.521   3.624
 5629SOL    HW117786   0.003   3.563   3.560
 5629SOL    HW217787   0.127   3.591   3.662
 5630SOL     OW17788   0.710   3.597   0.425
 5630SOL    HW117789   0.771   3.519   0.441
 5630SOL    HW217790   0.762   3.682   0.435
 5631SOL     OW17791   3.854   1.426   1.529
 5631SOL    HW117792   3.767   1.474   1.514
 5631SOL    HW217793   3.929   1.491   1.522
 5632SOL     OW17794   4.942   6.648   5.818
 5632SOL    HW117795   4.882   6.602   5.752
 5632SOL    HW217796   4.890   6.673   5.900
 5633SOL     OW17797   1.240   5.617   5.600
 5633SOL    HW117798   1.231   5.640   5.697
 5633SOL    HW217799   1.215   5.521   5.586
 5634SOL     OW17800   3.253   0.542   1.705
 5634SOL    HW117801   3.347   0.561   1.733
 5634SOL    HW217802   3.230   0.447   1.726
 5635SOL     OW17803   3.210   0.877   1.823
 5635SOL    HW117804   3.291   0.819   1.821
 5635SOL    HW217805   3.226   0.956   1.883
 5636SOL     OW17806   4.896   0.588   5.659
 5636SOL    HW117807   4.830   0.654   5.624
 5636SOL    HW217808   4.970   0.637   5.706
 5637SOL     OW17809   5.131   7.004   4.605
 5637SOL    HW117810   5.103   7.013   4.510
 5637SOL    HW217811   5.223   6.964   4.609
 5638SOL     OW17812   6.797   5.201   0.923
 5638SOL    HW117813   6.830   5.219   0.830
 5638SOL    HW217814   6.729   5.128   0.920
 5639SOL     OW17815   2.458   0.620   1.955
 5639SOL    HW117816   2.467   0.650   1.860
 5639SOL    HW217817   2.522   0.670   2.012
 5640SOL     OW17818   3.030   6.708   3.720
 5640SOL    HW117819   3.104   6.675   3.660
 5640SOL    HW217820   2.984   6.785   3.676
 5641SOL     OW17821   6.930   4.052   4.367
 5641SOL    HW117822   6.874   4.133   4.383
 5641SOL    HW217823   0.001   4.072   4.389
 5642SOL     OW17824   2.419   3.701   6.735
 5642SOL    HW117825   2.422   3.712   6.834
 5642SOL    HW217826   2.331   3.661   6.708
 5643SOL     OW17827   6.219   2.522   4.322
 5643SOL    HW117828   6.216   2.553   4.417
 5643SOL    HW217829   6.138   2.555   4.273
 5644SOL     OW17830   3.878   0.628   5.037
 5644SOL    HW117831   3.951   0.573   5.077
 5644SOL    HW217832   3.811   0.652   5.108
 5645SOL     OW17833   6.644   6.255   3.836
 5645SOL    HW117834   6.666   6.164   3.870
 5645SOL    HW217835   6.546   6.262   3.818
 5646SOL     OW17836   6.625   6.530   3.990
 5646SOL    HW117837   6.598   6.508   4.084
 5646SOL    HW217838   6.544   6.535   3.932
 5647SOL     OW17839   7.022   4.313   7.011
 5647SOL    HW117840   0.013   4.313   0.086
 5647SOL    HW217841   0.076   4.272   6.965
 5648SOL     OW17842   2.464   0.979   4.850
 5648SOL    HW117843   2.501   1.052   4.794
 5648SOL    HW217844   2.483   0.891   4.807
 5649SOL     OW17845   1.124   6.932   4.969
 5649SOL    HW117846   1.045   6.876   4.996
 5649SOL    HW217847   1.158   6.981   5.050
 5650SOL     OW17848   6.290   5.165   6.256
 5650SOL    HW117849   6.242   5.243   6.215
 5650SOL    HW217850   6.366   5.138   6.197
 5651SOL     OW17851   5.997   1.329   2.517
 5651SOL    HW117852   6.005   1.265   2.440
 5651SOL    HW217853   6.025   1.283   2.601
 5652SOL     OW17854   5.566   3.820   0.773
 5652SOL    HW117855   5.563   3.820   0.673
 5652SOL    HW217856   5.479   3.853   0.809
 5653SOL     OW17857   2.468   6.353   6.748
 5653SOL    HW117858   2.371   6.342   6.729
 5653SOL    HW217859   2.481   6.403   6.834
 5654SOL     OW17860   1.238   6.386   6.298
 5654SOL    HW117861   1.141   6.370   6.317
 5654SOL    HW217862   1.284   6.415   6.382
 5655SOL     OW17863   0.420   5.447   3.313
 5655SOL    HW117864   0.471   5.503   3.378
 5655SOL    HW217865   0.379   5.506   3.243
 5656SOL     OW17866   3.490   5.848   6.350
 5656SOL    HW117867   3.514   5.757   6.383
 5656SOL    HW217868   3.415   5.885   6.406
 5657SOL     OW17869   3.848   5.427   2.028
 5657SOL    HW117870   3.935   5.435   2.075
 5657SOL    HW217871   3.864   5.418   1.929
 5658SOL     OW17872   5.632   6.847   5.105
 5658SOL    HW117873   5.626   6.756   5.064
 5658SOL    HW217874   5.696   6.844   5.182
 5659SOL     OW17875   3.612   4.082   2.775
 5659SOL    HW117876   3.612   4.087   2.875
 5659SOL    HW217877   3.535   4.136   2.740
 5660SOL     OW17878   6.413   6.585   0.969
 5660SOL    HW117879   6.413   6.625   1.061
 5660SOL    HW217880   6.327   6.535   0.954
 5661SOL     OW17881   6.382   5.483   4.981
 5661SOL    HW117882   6.334   5.440   4.904
 5661SOL    HW217883   6.420   5.413   5.041
 5662SOL     OW17884   2.100   4.200   4.650
 5662SOL    HW117885   2.157   4.274   4.614
 5662SOL    HW217886   2.049   4.234   4.729
 5663SOL     OW17887   2.228   3.982   0.456
 5663SOL    HW117888   2.253   3.992   0.359
 5663SOL    HW217889   2.128   3.982   0.465
 5664SOL     OW17890   0.410   5.889   2.632
 5664SOL    HW117891   0.438   5.981   2.604
 5664SOL    HW217892   0.433   5.875   2.729
 5665SOL     OW17893   1.555   1.410   5.927
 5665SOL    HW117894   1.609   1.327   5.911
 5665SOL    HW217895   1.602   1.489   5.887
 5666SOL     OW17896   6.401   5.867   0.078
 5666SOL    HW117897   6.422   5.826   7.013
 5666SOL    HW217898   6.307   5.901   0.079
 5667SOL     OW17899   6.301   6.053   3.113
 5667SOL    HW117900   6.276   6.117   3.040
 5667SOL    HW217901   6.392   6.075   3.147
 5668SOL     OW17902   5.734   3.035   5.688
 5668SOL    HW117903   5.740   2.945   5.644
 5668SOL    HW217904   5.812   3.047   5.750
 5669SOL     OW17905   6.844   3.512   4.906
 5669SOL    HW117906   6.905   3.543   4.979
 5669SOL    HW217907   6.892   3.448   4.847
 5670SOL     OW17908   1.810   3.573   2.695
 5670SOL    HW117909   1.904   3.541   2.701
 5670SOL    HW217910   1.748   3.501   2.725
 5671SOL     OW17911   1.625   1.401   5.489
 5671SOL    HW117912   1.656   1.345   5.412
 5671SOL    HW217913   1.532   1.373   5.516
 5672SOL     OW17914   5.353   4.011   5.595
 5672SOL    HW117915   5.311   4.088   5.643
 5672SOL    HW217916   5.287   3.973   5.530
 5673SOL     OW17917   1.420   0.698   1.261
 5673SOL    HW117918   1.386   0.700   1.355
 5673SOL    HW217919   1.402   0.609   1.220
 5674SOL     OW17920   6.799   3.336   1.326
 5674SOL    HW117921   6.776   3.427   1.362
 5674SOL    HW217922   6.783   3.267   1.396
 5675SOL     OW17923   4.005   1.455   5.938
 5675SOL    HW117924   3.923   1.513   5.942
 5675SOL    HW217925   4.074   1.490   6.000
 5676SOL     OW17926   3.356   6.624   1.782
 5676SOL    HW117927   3.323   6.693   1.846
 5676SOL    HW217928   3.278   6.574   1.743
 5677SOL     OW17929   0.033   1.358   3.798
 5677SOL    HW117930   0.065   1.398   3.885
 5677SOL    HW217931   0.007   1.263   3.813
 5678SOL     OW17932   2.029   5.127   3.602
 5678SOL    HW117933   2.052   5.191   3.675
 5678SOL    HW217934   2.031   5.034   3.638
 5679SOL     OW17935   2.793   5.620   5.500
 5679SOL    HW117936   2.779   5.697   5.438
 5679SOL    HW217937   2.746   5.539   5.463
 5680SOL     OW17938   2.138   6.978   5.961
 5680SOL    HW117939   2.213   7.014   6.017
 5680SOL    HW217940   2.072   0.026   5.944
 5681SOL     OW17941   1.903   3.927   0.243
 5681SOL    HW117942   1.888   3.888   0.333
 5681SOL    HW217943   1.815   3.944   0.198
 5682SOL     OW17944   0.775   3.859   3.858
 5682SOL    HW117945   0.801   3.825   3.767
 5682SOL    HW217946   0.680   3.833   3.877
 5683SOL     OW17947   3.754   3.256   4.673
 5683SOL    HW117948   3.760   3.179   4.737
 5683SOL    HW217949   3.717   3.224   4.586
 5684SOL     OW17950   3.070   3.922   3.425
 5684SOL    HW117951   3.084   4.012   3.384
 5684SOL    HW217952   3.143   3.904   3.491
 5685SOL     OW17953   0.969   5.481   1.719
 5685SOL    HW117954   0.935   5.388   1.729
 5685SOL    HW217955   1.041   5.498   1.786
 5686SOL     OW17956   3.817   5.670   0.305
 5686SOL    HW117957   3.886   5.598   0.302
 5686SOL    HW217958   3.780   5.685   0.214
 5687SOL     OW17959   4.140   5.417   6.202
 5687SOL    HW117960   4.209   5.415   6.130
 5687SOL    HW217961   4.065   5.355   6.178
 5688SOL     OW17962   5.800   1.919   2.599
 5688SOL    HW117963   5.760   1.841   2.647
 5688SOL    HW217964   5.842   1.981   2.666
 5689SOL     OW17965   4.338   2.991   5.990
 5689SOL    HW117966   4.297   3.068   6.039
 5689SOL    HW217967   4.437   3.004   5.984
 5690SOL     OW17968   4.914   6.472   2.341
 5690SOL    HW117969   4.944   6.392   2.393
 5690SOL    HW217970   4.893   6.445   2.247
 5691SOL     OW17971   2.264   0.107   3.081
 5691SOL    HW117972   2.321   0.188   3.070
 5691SOL    HW217973   2.255   0.087   3.179
 5692SOL     OW17974   5.847   3.185   0.269
 5692SOL    HW117975   5.883   3.145   0.354
 5692SOL    HW217976   5.877   3.280   0.262
 5693SOL     OW17977   4.745   2.638   2.690
 5693SOL    HW117978   4.701   2.597   2.611
 5693SOL    HW217979   4.839   2.662   2.667
 5694SOL     OW17980   1.222   2.027   4.533
 5694SOL    HW117981   1.305   2.078   4.511
 5694SOL    HW217982   1.226   1.996   4.629
 5695SOL     OW17983   1.872   3.571   3.691
 5695SOL    HW117984   1.800   3.556   3.624
 5695SOL    HW217985   1.858   3.658   3.738
 5696SOL     OW17986   3.668   6.973   6.025
 5696SOL    HW117987   3.723   6.890   6.032
 5696SOL    HW217988   3.636   7.000   6.116
 5697SOL     OW17989   6.332   3.383   0.139
 5697SOL    HW117990   6.314   3.429   0.226
 5697SOL    HW217991   6.251   3.389   0.080
 5698SOL     OW17992   0.938   4.187   2.812
 5698SOL    HW117993   0.857   4.162   2.865
 5698SOL    HW217994   0.913   4.199   2.716
 5699SOL     OW17995   6.313   1.782   4.977
 5699SOL    HW117996   6.332   1.756   4.882
 5699SOL    HW217997   6.295   1.700   5.031
 5700SOL     OW17998   1.104   5.331   3.023
 5700SOL    HW117999   1.021   5.325   3.079
 5700SOL    HW218000   1.113   5.423   2.986
 5701SOL     OW18001   5.484   4.851   2.025
 5701SOL    HW118002   5.550   4.860   1.950
 5701SOL    HW218003   5.427   4.771   2.009
 5702SOL     OW18004   2.321   0.311   6.807
 5702SOL    HW118005   2.279   0.396   6.839
 5702SOL    HW218006   2.394   0.284   6.869
 5703SOL     OW18007   4.755   4.047   1.263
 5703SOL    HW118008   4.714   4.133   1.293
 5703SOL    HW218009   4.836   4.027   1.318
 5704SOL     OW18010   4.464   5.361   3.938
 5704SOL    HW118011   4.497   5.327   4.026
 5704SOL    HW218012   4.405   5.293   3.896
 5705SOL     OW18013   5.997   1.642   2.785
 5705SOL    HW118014   6.020   1.709   2.715
 5705SOL    HW218015   6.005   1.550   2.748
 5706SOL     OW18016   2.578   0.999   6.683
 5706SOL    HW118017   2.576   1.018   6.781
 5706SOL    HW218018   2.640   0.922   6.665
 5707SOL     OW18019   3.073   2.112   6.295
 5707SOL    HW118020   3.021   2.098   6.210
 5707SOL    HW218021   3.056   2.035   6.357
 5708SOL     OW18022   5.969   0.358   2.046
 5708SOL    HW118023   6.028   0.435   2.019
 5708SOL    HW218024   5.990   0.279   1.989
 5709SOL     OW18025   0.709   1.296   2.720
 5709SOL    HW118026   0.693   1.201   2.692
 5709SOL    HW218027   0.781   1.336   2.663
 5710SOL     OW18028   3.106   4.395   6.406
 5710SOL    HW118029   3.033   4.349   6.458
 5710SOL    HW218030   3.094   4.494   6.414
 5711SOL     OW18031   4.981   1.525   4.711
 5711SOL    HW118032   4.947   1.517   4.617
 5711SOL    HW218033   5.059   1.588   4.713
 5712SOL     OW18034   6.794   5.944   6.217
 5712SOL    HW118035   6.827   6.017   6.278
 5712SOL    HW218036   6.869   5.881   6.197
 5713SOL     OW18037   6.981   2.778   2.459
 5713SOL    HW118038   6.929   2.797   2.375
 5713SOL    HW218039   0.009   2.694   2.447
 5714SOL     OW18040   2.091   0.836   6.326
 5714SOL    HW118041   2.185   0.841   6.293
 5714SOL    HW218042   2.068   0.741   6.347
 5715SOL     OW18043   1.392   0.125   3.368
 5715SOL    HW118044   1.389   0.103   3.466
 5715SOL    HW218045   1.391   0.224   3.357
 5716SOL     OW18046   1.867   2.912   5.067
 5716SOL    HW118047   1.905   2.842   5.128
 5716SOL    HW218048   1.940   2.973   5.037
 5717SOL     OW18049   0.846   3.814   0.418
 5717SOL    HW118050   0.830   3.867   0.335
 5717SOL    HW218051   0.818   3.868   0.498
 5718SOL     OW18052   2.270   4.792   5.319
 5718SOL    HW118053   2.172   4.773   5.326
 5718SOL    HW218054   2.319   4.708   5.297
 5719SOL     OW18055   2.508   0.241   6.980
 5719SOL    HW118056   2.578   0.174   6.955
 5719SOL    HW218057   2.422   0.193   6.999
 5720SOL     OW18058   1.880   5.257   3.944
 5720SOL    HW118059   1.908   5.296   3.857
 5720SOL    HW218060   1.921   5.309   4.019
 5721SOL     OW18061   0.325   4.566   1.172
 5721SOL    HW118062   0.421   4.594   1.180
 5721SOL    HW218063   0.306   4.495   1.239
 5722SOL     OW18064   5.152   1.246   4.275
 5722SOL    HW118065   5.143   1.198   4.362
 5722SOL    HW218066   5.175   1.341   4.292
 5723SOL     OW18067   1.429   4.656   0.761
 5723SOL    HW118068   1.495   4.707   0.705
 5723SOL    HW218069   1.477   4.615   0.838
 5724SOL     OW18070   5.234   1.723   6.567
 5724SOL    HW118071   5.324   1.709   6.608
 5724SOL    HW218072   5.244   1.772   6.480
 5725SOL     OW18073   5.246   5.353   5.990
 5725SOL    HW118074   5.286   5.405   5.914
 5725SOL    HW218075   5.146   5.358   5.984
 5726SOL     OW18076   4.607   3.070   5.899
 5726SOL    HW118077   4.679   3.022   5.949
 5726SOL    HW218078   4.629   3.070   5.801
 5727SOL     OW18079   5.838   2.191   3.970
 5727SOL    HW118080   5.858   2.101   4.008
 5727SOL    HW218081   5.747   2.191   3.929
 5728SOL     OW18082   5.606   0.657   6.371
 5728SOL    HW118083   5.527   0.684   6.315
 5728SOL    HW218084   5.575   0.630   6.462
 5729SOL     OW18085   0.716   3.219   5.294
 5729SOL    HW118086   0.657   3.254   5.368
 5729SOL    HW218087   0.811   3.245   5.312
 5730SOL     OW18088   3.979   5.357   6.955
 5730SOL    HW118089   3.951   5.338   6.861
 5730SOL    HW218090   3.933   5.295   7.017
 5731SOL     OW18091   3.767   0.794   4.566
 5731SOL    HW118092   3.722   0.883   4.556
 5731SOL    HW218093   3.865   0.807   4.578
 5732SOL     OW18094   5.693   4.046   3.921
 5732SOL    HW118095   5.744   3.973   3.874
 5732SOL    HW218096   5.707   4.037   4.020
 5733SOL     OW18097   2.832   0.032   0.760
 5733SOL    HW118098   2.875   6.978   0.715
 5733SOL    HW218099   2.903   0.094   0.794
 5734SOL     OW18100   2.252   5.976   6.261
 5734SOL    HW118101   2.248   6.010   6.355
 5734SOL    HW218102   2.323   5.906   6.254
 5735SOL     OW18103   5.148   0.603   2.364
 5735SOL    HW118104   5.176   0.528   2.304
 5735SOL    HW218105   5.185   0.589   2.455
 5736SOL     OW18106   6.079   4.681   6.897
 5736SOL    HW118107   6.031   4.712   6.815
 5736SOL    HW218108   6.072   4.581   6.905
 5737SOL     OW18109   4.606   5.080   1.500
 5737SOL    HW118110   4.690   5.075   1.554
 5737SOL    HW218111   4.528   5.052   1.557
 5738SOL     OW18112   2.876   0.807   0.392
 5738SOL    HW118113   2.805   0.757   0.344
 5738SOL    HW218114   2.844   0.831   0.484
 5739SOL     OW18115   2.057   1.095   5.685
 5739SOL    HW118116   1.993   1.110   5.610
 5739SOL    HW218117   2.058   1.175   5.745
 5740SOL     OW18118   5.113   3.321   1.870
 5740SOL    HW118119   5.030   3.279   1.835
 5740SOL    HW218120   5.135   3.284   1.960
 5741SOL     OW18121   0.320   3.574   4.421
 5741SOL    HW118122   0.387   3.500   4.433
 5741SOL    HW218123   0.287   3.604   4.511
 5742SOL     OW18124   5.079   0.558   3.288
 5742SOL    HW118125   5.142   0.501   3.235
 5742SOL    HW218126   5.121   0.647   3.306
 5743SOL     OW18127   3.495   5.705   6.964
 5743SOL    HW118128   3.501   5.804   6.952
 5743SOL    HW218129   3.415   5.683   7.020
 5744SOL     OW18130   5.018   6.862   3.271
 5744SOL    HW118131   5.010   6.870   3.370
 5744SOL    HW218132   4.970   6.780   3.239
 5745SOL     OW18133   1.145   2.985   1.897
 5745SOL    HW118134   1.153   2.972   1.798
 5745SOL    HW218135   1.132   3.082   1.917
 5746SOL     OW18136   4.701   6.898   3.220
 5746SOL    HW118137   4.621   6.929   3.271
 5746SOL    HW218138   4.699   6.798   3.211
 5747SOL     OW18139   1.710   6.525   0.901
 5747SOL    HW118140   1.622   6.524   0.853
 5747SOL    HW218141   1.710   6.454   0.972
 5748SOL     OW18142   0.195   5.894   0.925
 5748SOL    HW118143   0.099   5.878   0.949
 5748SOL    HW218144   0.253   5.857   0.998
 5749SOL     OW18145   2.060   5.769   6.223
 5749SOL    HW118146   2.123   5.847   6.218
 5749SOL    HW218147   2.041   5.736   6.130
 5750SOL     OW18148   6.551   3.149   4.299
 5750SOL    HW118149   6.556   3.235   4.249
 5750SOL    HW218150   6.534   3.168   4.396
 5751SOL     OW18151   1.281   3.769   4.837
 5751SOL    HW118152   1.261   3.807   4.927
 5751SOL    HW218153   1.338   3.834   4.786
 5752SOL     OW18154   4.871   0.559   0.757
 5752SOL    HW118155   4.875   0.509   0.843
 5752SOL    HW218156   4.921   0.646   0.767
 5753SOL     OW18157   3.805   4.270   5.168
 5753SOL    HW118158   3.818   4.207   5.092
 5753SOL    HW218159   3.713   4.308   5.164
 5754SOL     OW18160   0.963   5.525   1.114
 5754SOL    HW118161   0.899   5.491   1.182
 5754SOL    HW218162   0.933   5.498   1.022
 5755SOL     OW18163   1.581   2.433   0.164
 5755SOL    HW118164   1.481   2.427   0.161
 5755SOL    HW218165   1.608   2.505   0.229
 5756SOL     OW18166   6.074   6.210   1.696
 5756SOL    HW118167   6.056   6.244   1.603
 5756SOL    HW218168   6.061   6.111   1.698
 5757SOL     OW18169   6.554   0.922   4.654
 5757SOL    HW118170   6.478   0.899   4.592
 5757SOL    HW218171   6.624   0.851   4.648
 5758SOL     OW18172   6.000   6.885   2.906
 5758SOL    HW118173   6.048   6.812   2.955
 5758SOL    HW218174   5.902   6.873   2.917
 5759SOL     OW18175   3.375   0.057   1.138
 5759SOL    HW118176   3.324   0.026   1.057
 5759SOL    HW218177   3.473   0.056   1.119
 5760SOL     OW18178   1.185   2.983   0.519
 5760SOL    HW118179   1.130   2.920   0.464
 5760SOL    HW218180   1.238   2.931   0.586
 5761SOL     OW18181   6.014   0.329   4.476
 5761SOL    HW118182   6.054   0.379   4.400
 5761SOL    HW218183   6.067   0.246   4.492
 5762SOL     OW18184   6.751   5.376   6.728
 5762SOL    HW118185   6.685   5.396   6.656
 5762SOL    HW218186   6.842   5.407   6.699
 5763SOL     OW18187   5.888   0.004   0.129
 5763SOL    HW118188   5.980   7.016   0.165
 5763SOL    HW218189   5.822   0.002   0.204
 5764SOL     OW18190   5.100   6.600   3.702
 5764SOL    HW118191   5.117   6.699   3.695
 5764SOL    HW218192   5.014   6.585   3.751
 5765SOL     OW18193   5.993   5.146   2.234
 5765SOL    HW118194   6.032   5.074   2.292
 5765SOL    HW218195   6.045   5.152   2.149
 5766SOL     OW18196   0.271   1.429   4.597
 5766SOL    HW118197   0.262   1.458   4.692
 5766SOL    HW218198   0.360   1.384   4.583
 5767SOL     OW18199   3.878   6.370   7.000
 5767SOL    HW118200   3.813   6.398   6.929
 5767SOL    HW218201   3.957   6.326   6.957
 5768SOL     OW18202   0.446   0.526   4.606
 5768SOL    HW118203   0.540   0.559   4.618
 5768SOL    HW218204   0.412   0.489   4.692
 5769SOL     OW18205   1.706   3.969   6.234
 5769SOL    HW118206   1.637   4.010   6.293
 5769SOL    HW218207   1.730   4.033   6.160
 5770SOL     OW18208   1.778   4.581   2.045
 5770SOL    HW118209   1.856   4.638   2.020
 5770SOL    HW218210   1.797   4.536   2.133
 5771SOL     OW18211   3.259   5.450   3.583
 5771SOL    HW118212   3.343   5.416   3.625
 5771SOL    HW218213   3.214   5.376   3.534
 5772SOL     OW18214   2.762   0.185   2.718
 5772SOL    HW118215   2.851   0.181   2.765
 5772SOL    HW218216   2.722   0.276   2.729
 5773SOL     OW18217   4.552   1.629   2.272
 5773SOL    HW118218   4.457   1.649   2.247
 5773SOL    HW218219   4.563   1.531   2.288
 5774SOL     OW18220   0.541   6.801   2.253
 5774SOL    HW118221   0.538   6.860   2.172
 5774SOL    HW218222   0.449   6.767   2.272
 5775SOL     OW18223   6.953   5.497   1.698
 5775SOL    HW118224   6.944   5.546   1.612
 5775SOL    HW218225   6.866   5.452   1.720
 5776SOL     OW18226   2.484   1.389   4.157
 5776SOL    HW118227   2.395   1.419   4.193
 5776SOL    HW218228   2.472   1.356   4.064
 5777SOL     OW18229   1.836   6.260   2.548
 5777SOL    HW118230   1.824   6.265   2.647
 5777SOL    HW218231   1.771   6.323   2.504
 5778SOL     OW18232   0.737   1.879   1.010
 5778SOL    HW118233   0.700   1.929   0.931
 5778SOL    HW218234   0.717   1.782   1.001
 5779SOL     OW18235   5.984   1.389   5.812
 5779SOL    HW118236   5.908   1.352   5.867
 5779SOL    HW218237   6.071   1.364   5.854
 5780SOL     OW18238   5.019   6.012   3.958
 5780SOL    HW118239   4.955   6.040   4.029
 5780SOL    HW218240   5.100   5.970   4.000
 5781SOL     OW18241   0.394   5.280   5.179
 5781SOL    HW118242   0.338   5.354   5.144
 5781SOL    HW218243   0.336   5.201   5.199
 5782SOL     OW18244   0.521   0.291   0.100
 5782SOL    HW118245   0.432   0.336   0.099
 5782SOL    HW218246   0.529   0.230   0.021
 5783SOL     OW18247   1.132   2.118   0.605
 5783SOL    HW118248   1.119   2.023   0.575
 5783SOL    HW218249   1.077   2.135   0.686
 5784SOL     OW18250   6.420   5.942   6.527
 5784SOL    HW118251   6.487   5.879   6.566
 5784SOL    HW218252   6.391   6.007   6.597
 5785SOL     OW18253   1.265   1.623   0.348
 5785SOL    HW118254   1.291   1.712   0.313
 5785SOL    HW218255   1.347   1.569   0.368
 5786SOL     OW18256   5.731   5.070   1.544
 5786SOL    HW118257   5.791   5.054   1.466
 5786SOL    HW218258   5.649   5.014   1.536
 5787SOL     OW18259   2.713   2.631   6.159
 5787SOL    HW118260   2.677   2.632   6.065
 5787SOL    HW218261   2.639   2.608   6.222
 5788SOL     OW18262   2.485   1.250   3.921
 5788SOL    HW118263   2.542   1.317   3.871
 5788SOL    HW218264   2.476   1.167   3.866
 5789SOL     OW18265   4.015   4.882   6.290
 5789SOL    HW118266   4.100   4.845   6.252
 5789SOL    HW218267   3.946   4.887   6.218
 5790SOL     OW18268   0.724   2.928   3.621
 5790SOL    HW118269   0.693   2.966   3.534
 5790SOL    HW218270   0.764   3.001   3.676
 5791SOL     OW18271   2.233   0.811   3.231
 5791SOL    HW118272   2.179   0.805   3.148
 5791SOL    HW218273   2.240   0.720   3.273
 5792SOL     OW18274   6.628   2.404   2.443
 5792SOL    HW118275   6.647   2.312   2.477
 5792SOL    HW218276   6.529   2.416   2.434
 5793SOL     OW18277   0.206   0.402   3.773
 5793SOL    HW118278   0.304   0.422   3.774
 5793SOL    HW218279   0.175   0.379   3.866
 5794SOL     OW18280   4.513   4.144   6.732
 5794SOL    HW118281   4.575   4.114   6.804
 5794SOL    HW218282   4.500   4.243   6.738
 5795SOL     OW18283   6.060   4.415   6.810
 5795SOL    HW118284   5.966   4.450   6.809
 5795SOL    HW218285   6.087   4.391   6.717
 5796SOL     OW18286   3.770   1.546   0.555
 5796SOL    HW118287   3.824   1.629   0.572
 5796SOL    HW218288   3.796   1.475   0.620
 5797SOL     OW18289   2.921   1.942   5.278
 5797SOL    HW118290   2.966   2.010   5.221
 5797SOL    HW218291   2.866   1.881   5.220
 5798SOL     OW18292   6.944   4.482   4.715
 5798SOL    HW118293   6.967   4.572   4.752
 5798SOL    HW218294   6.974   4.477   4.620
 5799SOL     OW18295   5.368   0.458   3.620
 5799SOL    HW118296   5.400   0.389   3.685
 5799SOL    HW218297   5.300   0.418   3.560
 5800SOL     OW18298   6.158   5.316   1.024
 5800SOL    HW118299   6.098   5.396   1.019
 5800SOL    HW218300   6.193   5.306   1.117
 5801SOL     OW18301   2.190   1.887   3.574
 5801SOL    HW118302   2.176   1.796   3.535
 5801SOL    HW218303   2.180   1.883   3.674
 5802SOL     OW18304   1.017   3.464   5.071
 5802SOL    HW118305   1.023   3.387   5.135
 5802SOL    HW218306   1.060   3.545   5.111
 5803SOL     OW18307   1.417   4.987   0.326
 5803SOL    HW118308   1.370   4.903   0.353
 5803SOL    HW218309   1.350   5.062   0.321
 5804SOL     OW18310   6.063   3.486   4.354
 5804SOL    HW118311   6.042   3.512   4.448
 5804SOL    HW218312   6.003   3.535   4.291
 5805SOL     OW18313   5.301   3.420   6.862
 5805SOL    HW118314   5.380   3.366   6.832
 5805SOL    HW218315   5.232   3.420   6.789
 5806SOL     OW18316   0.944   6.471   0.310
 5806SOL    HW118317   0.907   6.381   0.331
 5806SOL    HW218318   0.994   6.468   0.224
 5807SOL     OW18319   1.920   3.470   2.033
 5807SOL    HW118320   1.894   3.525   2.112
 5807SOL    HW218321   2.020   3.460   2.031
 5808SOL     OW18322   6.760   3.765   2.724
 5808SOL    HW118323   6.727   3.782   2.816
 5808SOL    HW218324   6.726   3.835   2.662
 5809SOL     OW18325   6.845   3.525   4.208
 5809SOL    HW118326   6.889   3.584   4.139
 5809SOL    HW218327   6.792   3.582   4.271
 5810SOL     OW18328   2.607   2.114   2.401
 5810SOL    HW118329   2.683   2.164   2.443
 5810SOL    HW218330   2.520   2.155   2.430
 5811SOL     OW18331   2.374   1.538   3.880
 5811SOL    HW118332   2.456   1.481   3.882
 5811SOL    HW218333   2.400   1.633   3.866
 5812SOL     OW18334   4.555   0.881   4.600
 5812SOL    HW118335   4.575   0.868   4.697
 5812SOL    HW218336   4.483   0.950   4.589
 5813SOL     OW18337   1.658   0.589   5.267
 5813SOL    HW118338   1.706   0.653   5.206
 5813SOL    HW218339   1.722   0.555   5.335
 5814SOL     OW18340   0.184   4.957   0.839
 5814SOL    HW118341   0.228   4.876   0.878
 5814SOL    HW218342   0.169   5.024   0.912
 5815SOL     OW18343   2.997   1.517   2.538
 5815SOL    HW118344   3.046   1.537   2.623
 5815SOL    HW218345   3.011   1.591   2.473
 5816SOL     OW18346   4.970   0.323   0.639
 5816SOL    HW118347   5.068   0.323   0.621
 5816SOL    HW218348   4.945   0.407   0.688
 5817SOL     OW18349   5.087   3.335   5.393
 5817SOL    HW118350   4.991   3.357   5.379
 5817SOL    HW218351   5.108   3.249   5.346
 5818SOL     OW18352   5.904   6.565   6.356
 5818SOL    HW118353   5.842   6.628   6.403
 5818SOL    HW218354   5.924   6.599   6.264
 5819SOL     OW18355   6.132   0.175   1.433
 5819SOL    HW118356   6.115   0.263   1.389
 5819SOL    HW218357   6.082   0.104   1.385
 5820SOL     OW18358   5.371   6.371   3.201
 5820SOL    HW118359   5.339   6.286   3.159
 5820SOL    HW218360   5.438   6.350   3.272
 5821SOL     OW18361   2.680   0.825   1.676
 5821SOL    HW118362   2.743   0.888   1.630
 5821SOL    HW218363   2.712   0.810   1.770
 5822SOL     OW18364   0.073   1.317   1.981
 5822SOL    HW118365   0.030   1.403   2.009
 5822SOL    HW218366   0.014   1.270   1.915
 5823SOL     OW18367   2.340   1.616   4.291
 5823SOL    HW118368   2.369   1.633   4.197
 5823SOL    HW218369   2.247   1.650   4.304
 5824SOL     OW18370   4.597   7.009   3.702
 5824SOL    HW118371   4.687   0.026   3.715
 5824SOL    HW218372   4.601   6.913   3.730
 5825SOL     OW18373   2.885   0.542   0.713
 5825SOL    HW118374   2.873   0.530   0.615
 5825SOL    HW218375   2.889   0.639   0.735
 5826SOL     OW18376   6.329   0.513   4.611
 5826SOL    HW118377   6.358   0.430   4.563
 5826SOL    HW218378   6.391   0.531   4.687
 5827SOL     OW18379   1.159   5.762   4.930
 5827SOL    HW118380   1.143   5.680   4.986
 5827SOL    HW218381   1.100   5.759   4.850
 5828SOL     OW18382   0.245   3.330   1.803
 5828SOL    HW118383   0.198   3.265   1.742
 5828SOL    HW218384   0.192   3.341   1.887
 5829SOL     OW18385   1.899   1.474   1.915
 5829SOL    HW118386   1.843   1.503   1.837
 5829SOL    HW218387   1.858   1.393   1.956
 5830SOL     OW18388   2.243   1.773   5.828
 5830SOL    HW118389   2.331   1.808   5.859
 5830SOL    HW218390   2.258   1.698   5.763
 5831SOL     OW18391   5.416   6.794   3.279
 5831SOL    HW118392   5.415   6.816   3.376
 5831SOL    HW218393   5.359   6.859   3.229
 5832SOL     OW18394   3.960   3.599   5.407
 5832SOL    HW118395   3.996   3.657   5.335
 5832SOL    HW218396   4.036   3.558   5.458
 5833SOL     OW18397   3.446   2.999   4.887
 5833SOL    HW118398   3.459   2.979   4.984
 5833SOL    HW218399   3.518   2.955   4.834
 5834SOL     OW18400   5.810   1.208   0.797
 5834SOL    HW118401   5.852   1.180   0.711
 5834SOL    HW218402   5.747   1.284   0.780
 5835SOL     OW18403   5.076   2.334   3.585
 5835SOL    HW118404   5.020   2.345   3.667
 5835SOL    HW218405   5.080   2.422   3.536
 5836SOL     OW18406   3.520   6.063   2.573
 5836SOL    HW118407   3.547   6.159   2.571
 5836SOL    HW218408   3.600   6.005   2.552
 5837SOL     OW18409   4.789   4.330   6.412
 5837SOL    HW118410   4.880   4.360   6.384
 5837SOL    HW218411   4.745   4.282   6.336
 5838SOL     OW18412   1.119   0.862   5.541
 5838SOL    HW118413   1.128   0.925   5.618
 5838SOL    HW218414   1.077   0.777   5.572
 5839SOL     OW18415   0.028   3.221   2.895
 5839SOL    HW118416   0.020   3.135   2.844
 5839SOL    HW218417   6.997   3.215   2.978
 5840SOL     OW18418   2.098   5.193   6.947
 5840SOL    HW118419   2.074   5.252   7.023
 5840SOL    HW218420   2.112   5.249   6.865
 5841SOL     OW18421   0.282   2.335   3.740
 5841SOL    HW118422   0.324   2.418   3.778
 5841SOL    HW218423   0.236   2.285   3.813
 5842SOL     OW18424   3.357   3.128   0.728
 5842SOL    HW118425   3.441   3.106   0.779
 5842SOL    HW218426   3.343   3.059   0.657
 5843SOL     OW18427   1.341   3.604   2.169
 5843SOL    HW118428   1.437   3.597   2.141
 5843SOL    HW218429   1.288   3.642   2.093
 5844SOL     OW18430   1.328   6.190   6.931
 5844SOL    HW118431   1.282   6.263   6.880
 5844SOL    HW218432   1.320   6.104   6.882
 5845SOL     OW18433   0.865   2.415   4.230
 5845SOL    HW118434   0.767   2.414   4.250
 5845SOL    HW218435   0.896   2.322   4.210
 5846SOL     OW18436   7.013   2.975   6.317
 5846SOL    HW118437   6.981   2.929   6.235
 5846SOL    HW218438   0.011   3.070   6.296
 5847SOL     OW18439   2.475   2.583   2.592
 5847SOL    HW118440   2.483   2.572   2.493
 5847SOL    HW218441   2.413   2.660   2.612
 5848SOL     OW18442   1.453   4.514   3.206
 5848SOL    HW118443   1.519   4.441   3.226
 5848SOL    HW218444   1.439   4.570   3.287
 5849SOL     OW18445   2.319   6.861   5.580
 5849SOL    HW118446   2.223   6.876   5.604
 5849SOL    HW218447   2.364   6.811   5.654
 5850SOL     OW18448   0.647   5.226   2.648
 5850SOL    HW118449   0.726   5.239   2.708
 5850SOL    HW218450   0.667   5.266   2.558
 5851SOL     OW18451   5.896   3.479   2.236
 5851SOL    HW118452   5.807   3.479   2.280
 5851SOL    HW218453   5.904   3.559   2.176
 5852SOL     OW18454   4.121   5.810   2.986
 5852SOL    HW118455   4.037   5.772   3.025
 5852SOL    HW218456   4.186   5.829   3.059
 5853SOL     OW18457   3.648   4.702   5.690
 5853SOL    HW118458   3.608   4.687   5.780
 5853SOL    HW218459   3.728   4.644   5.679
 5854SOL     OW18460   6.872   1.240   6.047
 5854SOL    HW118461   6.887   1.265   5.951
 5854SOL    HW218462   6.883   1.321   6.104
 5855SOL     OW18463   0.934   0.858   4.853
 5855SOL    HW118464   0.957   0.903   4.940
 5855SOL    HW218465   0.961   0.918   4.777
 5856SOL     OW18466   2.065   4.495   3.989
 5856SOL    HW118467   2.031   4.496   3.895
 5856SOL    HW218468   2.056   4.403   4.027
 5857SOL     OW18469   6.538   3.116   5.426
 5857SOL    HW118470   6.512   3.036   5.480
 5857SOL    HW218471   6.570   3.087   5.336
 5858SOL     OW18472   3.819   1.075   2.551
 5858SOL    HW118473   3.827   1.075   2.451
 5858SOL    HW218474   3.906   1.045   2.591
 5859SOL     OW18475   6.129   6.511   0.761
 5859SOL    HW118476   6.034   6.482   0.774
 5859SOL    HW218477   6.190   6.444   0.802
 5860SOL     OW18478   1.858   3.711   1.309
 5860SOL    HW118479   1.849   3.735   1.406
 5860SOL    HW218480   1.786   3.647   1.284
 5861SOL     OW18481   6.425   2.434   4.171
 5861SOL    HW118482   6.354   2.470   4.232
 5861SOL    HW218483   6.443   2.500   4.098
 5862SOL     OW18484   4.639   4.513   3.013
 5862SOL    HW118485   4.678   4.466   3.093
 5862SOL    HW218486   4.568   4.576   3.043
 5863SOL     OW18487   2.352   0.991   0.126
 5863SOL    HW118488   2.328   1.065   0.189
 5863SOL    HW218489   2.280   0.982   0.057
 5864SOL     OW18490   4.764   4.724   1.545
 5864SOL    HW118491   4.839   4.708   1.609
 5864SOL    HW218492   4.706   4.798   1.579
 5865SOL     OW18493   4.433   0.939   3.254
 5865SOL    HW118494   4.421   0.918   3.352
 5865SOL    HW218495   4.520   0.986   3.241
 5866SOL     OW18496   4.235   7.012   6.270
 5866SOL    HW118497   4.255   6.917   6.294
 5866SOL    HW218498   4.318   0.043   6.279
 5867SOL     OW18499   0.236   2.889   1.379
 5867SOL    HW118500   0.258   2.902   1.475
 5867SOL    HW218501   0.243   2.976   1.331
 5868SOL     OW18502   1.627   6.801   5.406
 5868SOL    HW118503   1.611   6.724   5.468
 5868SOL    HW218504   1.677   6.873   5.454
 5869SOL     OW18505   2.557   4.830   3.673
 5869SOL    HW118506   2.549   4.853   3.576
 5869SOL    HW218507   2.571   4.732   3.684
 5870SOL     OW18508   5.274   5.001   4.921
 5870SOL    HW118509   5.212   4.924   4.912
 5870SOL    HW218510   5.310   5.025   4.830
 5871SOL     OW18511   2.915   3.333   6.787
 5871SOL    HW118512   2.905   3.273   6.707
 5871SOL    HW218513   2.913   3.429   6.757
 5872SOL     OW18514   3.263   6.119   5.735
 5872SOL    HW118515   3.225   6.139   5.825
 5872SOL    HW218516   3.360   6.142   5.734
 5873SOL     OW18517   2.905   3.940   6.965
 5873SOL    HW118518   2.917   4.038   6.975
 5873SOL    HW218519   2.985   3.900   6.920
 5874SOL     OW18520   1.849   4.283   0.949
 5874SOL    HW118521   1.822   4.261   1.043
 5874SOL    HW218522   1.773   4.263   0.887
 5875SOL     OW18523   4.234   1.913   0.339
 5875SOL    HW118524   4.223   1.835   0.278
 5875SOL    HW218525   4.144   1.949   0.364
 5876SOL     OW18526   3.146   4.535   6.000
 5876SOL    HW118527   3.158   4.629   6.031
 5876SOL    HW218528   3.227   4.506   5.948
 5877SOL     OW18529   0.485   7.011   2.530
 5877SOL    HW118530   0.392   6.977   2.521
 5877SOL    HW218531   0.494   0.039   2.615
 5878SOL     OW18532   5.216   4.784   2.837
 5878SOL    HW118533   5.277   4.716   2.879
 5878SOL    HW218534   5.133   4.793   2.892
 5879SOL     OW18535   3.769   3.438   5.899
 5879SOL    HW118536   3.725   3.354   5.927
 5879SOL    HW218537   3.862   3.419   5.868
 5880SOL     OW18538   5.061   2.244   5.606
 5880SOL    HW118539   5.069   2.342   5.588
 5880SOL    HW218540   4.992   2.205   5.546
 5881SOL     OW18541   1.192   5.956   2.117
 5881SOL    HW118542   1.161   5.996   2.031
 5881SOL    HW218543   1.115   5.952   2.182
 5882SOL     OW18544   2.071   5.443   5.582
 5882SOL    HW118545   2.124   5.359   5.571
 5882SOL    HW218546   1.978   5.420   5.612
 5883SOL     OW18547   0.171   4.742   1.021
 5883SOL    HW118548   0.078   4.758   1.052
 5883SOL    HW218549   0.213   4.669   1.076
 5884SOL     OW18550   6.014   2.405   3.359
 5884SOL    HW118551   6.002   2.336   3.288
 5884SOL    HW218552   5.939   2.398   3.425
 5885SOL     OW18553   6.829   5.246   0.216
 5885SOL    HW118554   6.783   5.274   0.132
 5885SOL    HW218555   6.919   5.208   0.193
 5886SOL     OW18556   1.655   3.800   3.802
 5886SOL    HW118557   1.595   3.848   3.867
 5886SOL    HW218558   1.747   3.839   3.807
 5887SOL     OW18559   2.237   2.619   1.008
 5887SOL    HW118560   2.273   2.697   1.060
 5887SOL    HW218561   2.138   2.625   1.004
 5888SOL     OW18562   3.556   6.621   1.001
 5888SOL    HW118563   3.595   6.556   1.066
 5888SOL    HW218564   3.576   6.591   0.908
 5889SOL     OW18565   5.880   0.673   1.916
 5889SOL    HW118566   5.924   0.598   1.868
 5889SOL    HW218567   5.822   0.725   1.853
 5890SOL     OW18568   2.183   5.887   2.842
 5890SOL    HW118569   2.090   5.925   2.847
 5890SOL    HW218570   2.198   5.848   2.751
 5891SOL     OW18571   2.144   3.175   0.561
 5891SOL    HW118572   2.135   3.254   0.501
 5891SOL    HW218573   2.190   3.101   0.512
 5892SOL     OW18574   1.232   3.651   0.800
 5892SOL    HW118575   1.326   3.664   0.768
 5892SOL    HW218576   1.200   3.736   0.841
 5893SOL     OW18577   0.674   6.181   1.503
 5893SOL    HW118578   0.662   6.137   1.414
 5893SOL    HW218579   0.711   6.114   1.568
 5894SOL     OW18580   2.920   5.725   6.514
 5894SOL    HW118581   2.891   5.808   6.562
 5894SOL    HW218582   2.930   5.744   6.416
 5895SOL     OW18583   5.039   4.248   3.954
 5895SOL    HW118584   5.071   4.283   4.042
 5895SOL    HW218585   4.948   4.208   3.965
 5896SOL     OW18586   5.724   2.350   2.156
 5896SOL    HW118587   5.722   2.272   2.219
 5896SOL    HW218588   5.784   2.421   2.192
 5897SOL     OW18589   4.184   2.751   0.569
 5897SOL    HW118590   4.272   2.757   0.521
 5897SOL    HW218591   4.121   2.818   0.532
 5898SOL     OW18592   2.015   1.582   5.469
 5898SOL    HW118593   1.964   1.542   5.545
 5898SOL    HW218594   2.003   1.681   5.468
 5899SOL     OW18595   7.004   5.897   6.504
 5899SOL    HW118596   6.951   5.827   6.458
 5899SOL    HW218597   6.982   5.987   6.465
 5900SOL     OW18598   5.552   6.455   2.978
 5900SOL    HW118599   5.552   6.378   3.042
 5900SOL    HW218600   5.559   6.420   2.884
 5901SOL     OW18601   1.995   1.092   5.115
 5901SOL    HW118602   1.995   1.183   5.074
 5901SOL    HW218603   2.072   1.085   5.179
 5902SOL     OW18604   4.964   3.886   6.113
 5902SOL    HW118605   4.977   3.941   6.031
 5902SOL    HW218606   5.028   3.809   6.111
 5903SOL     OW18607   6.298   2.081   5.987
 5903SOL    HW118608   6.281   1.991   6.027
 5903SOL    HW218609   6.216   2.138   5.997
 5904SOL     OW18610   1.691   4.334   1.896
 5904SOL    HW118611   1.683   4.349   1.797
 5904SOL    HW218612   1.718   4.420   1.940
 5905SOL     OW18613   5.490   1.156   4.035
 5905SOL    HW118614   5.490   1.144   4.134
 5905SOL    HW218615   5.396   1.155   4.002
 5906SOL     OW18616   4.997   1.209   5.541
 5906SOL    HW118617   4.926   1.267   5.500
 5906SOL    HW218618   4.959   1.159   5.619
 5907SOL     OW18619   1.741   3.749   5.835
 5907SOL    HW118620   1.696   3.756   5.923
 5907SOL    HW218621   1.729   3.656   5.799
 5908SOL     OW18622   5.290   3.307   6.311
 5908SOL    HW118623   5.300   3.399   6.272
 5908SOL    HW218624   5.351   3.244   6.263
 5909SOL     OW18625   6.764   4.709   3.778
 5909SOL    HW118626   6.688   4.731   3.717
 5909SOL    HW218627   6.837   4.664   3.727
 5910SOL     OW18628   2.594   4.169   0.762
 5910SOL    HW118629   2.590   4.199   0.858
 5910SOL    HW218630   2.502   4.141   0.732
 5911SOL     OW18631   5.477   6.719   6.659
 5911SOL    HW118632   5.541   6.732   6.583
 5911SOL    HW218633   5.487   6.627   6.696
 5912SOL     OW18634   6.769   3.463   6.370
 5912SOL    HW118635   6.691   3.523   6.392
 5912SOL    HW218636   6.736   3.370   6.358
 5913SOL     OW18637   1.256   2.094   5.702
 5913SOL    HW118638   1.356   2.087   5.703
 5913SOL    HW218639   1.218   2.015   5.654
 5914SOL     OW18640   2.080   6.042   1.158
 5914SOL    HW118641   1.984   6.023   1.136
 5914SOL    HW218642   2.085   6.094   1.243
 5915SOL     OW18643   4.906   3.354   2.778
 5915SOL    HW118644   4.953   3.408   2.708
 5915SOL    HW218645   4.878   3.267   2.739
 5916SOL     OW18646   3.403   7.009   5.933
 5916SOL    HW118647   3.472   0.023   5.994
 5916SOL    HW218648   3.380   0.053   5.863
 5917SOL     OW18649   3.542   2.954   2.813
 5917SOL    HW118650   3.475   2.960   2.886
 5917SOL    HW218651   3.496   2.928   2.728
 5918SOL     OW18652   2.359   2.749   4.163
 5918SOL    HW118653   2.298   2.742   4.242
 5918SOL    HW218654   2.354   2.841   4.125
 5919SOL     OW18655   1.123   3.144   0.241
 5919SOL    HW118656   1.185   3.200   0.295
 5919SOL    HW218657   1.028   3.168   0.262
 5920SOL     OW18658   3.580   6.202   7.014
 5920SOL    HW118659   3.539   6.170   6.928
 5920SOL    HW218660   3.618   6.294   7.000
 5921SOL     OW18661   3.907   5.554   4.910
 5921SOL    HW118662   3.995   5.591   4.943
 5921SOL    HW218663   3.922   5.464   4.869
 5922SOL     OW18664   5.731   4.138   1.991
 5922SOL    HW118665   5.727   4.041   1.967
 5922SOL    HW218666   5.824   4.172   1.976
 5923SOL     OW18667   0.440   0.037   3.641
 5923SOL    HW118668   0.342   0.038   3.662
 5923SOL    HW218669   0.491   0.011   3.723
 5924SOL     OW18670   5.299   2.649   4.575
 5924SOL    HW118671   5.284   2.605   4.486
 5924SOL    HW218672   5.371   2.601   4.624
 5925SOL     OW18673   6.622   6.155   0.835
 5925SOL    HW118674   6.524   6.176   0.831
 5925SOL    HW218675   6.638   6.085   0.904
 5926SOL     OW18676   3.486   4.985   1.974
 5926SOL    HW118677   3.550   5.062   1.979
 5926SOL    HW218678   3.533   4.905   1.937
 5927SOL     OW18679   2.529   5.618   1.968
 5927SOL    HW118680   2.612   5.668   1.993
 5927SOL    HW218681   2.469   5.678   1.915
 5928SOL     OW18682   1.287   6.649   1.659
 5928SOL    HW118683   1.334   6.635   1.745
 5928SOL    HW218684   1.268   6.561   1.615
 5929SOL     OW18685   1.392   0.156   5.690
 5929SOL    HW118686   1.371   0.061   5.666
 5929SOL    HW218687   1.379   0.168   5.789
 5930SOL     OW18688   6.658   1.860   4.814
 5930SOL    HW118689   6.657   1.877   4.912
 5930SOL    HW218690   6.671   1.762   4.797
 5931SOL     OW18691   5.922   5.345   1.201
 5931SOL    HW118692   5.986   5.273   1.229
 5931SOL    HW218693   5.873   5.379   1.281
 5932SOL     OW18694   2.235   6.124   0.486
 5932SOL    HW118695   2.313   6.142   0.545
 5932SOL    HW218696   2.164   6.077   0.538
 5933SOL     OW18697   6.212   3.369   3.020
 5933SOL    HW118698   6.206   3.340   3.116
 5933SOL    HW218699   6.296   3.420   3.005
 5934SOL     OW18700   3.832   4.037   3.018
 5934SOL    HW118701   3.733   4.047   3.032
 5934SOL    HW218702   3.865   4.111   2.959
 5935SOL     OW18703   3.713   3.127   3.417
 5935SOL    HW118704   3.770   3.142   3.336
 5935SOL    HW218705   3.647   3.201   3.426
 5936SOL     OW18706   5.631   5.736   6.420
 5936SOL    HW118707   5.701   5.802   6.445
 5936SOL    HW218708   5.556   5.782   6.373
 5937SOL     OW18709   1.464   3.754   1.041
 5937SOL    HW118710   1.384   3.791   1.087
 5937SOL    HW218711   1.517   3.698   1.105
 5938SOL     OW18712   1.902   4.231   1.658
 5938SOL    HW118713   1.981   4.266   1.607
 5938SOL    HW218714   1.933   4.162   1.723
 5939SOL     OW18715   2.849   0.636   3.196
 5939SOL    HW118716   2.905   0.584   3.261
 5939SOL    HW218717   2.866   0.603   3.103
 5940SOL     OW18718   4.209   5.864   3.604
 5940SOL    HW118719   4.178   5.855   3.509
 5940SOL    HW218720   4.171   5.947   3.644
 5941SOL     OW18721   6.490   4.635   2.050
 5941SOL    HW118722   6.423   4.653   1.978
 5941SOL    HW218723   6.494   4.537   2.067
 5942SOL     OW18724   5.586   1.653   5.601
 5942SOL    HW118725   5.662   1.618   5.656
 5942SOL    HW218726   5.502   1.652   5.656
 5943SOL     OW18727   1.309   5.979   6.751
 5943SOL    HW118728   1.404   5.955   6.770
 5943SOL    HW218729   1.248   5.907   6.783
 5944SOL     OW18730   4.333   2.159   2.900
 5944SOL    HW118731   4.348   2.110   2.814
 5944SOL    HW218732   4.421   2.188   2.938
 5945SOL     OW18733   6.871   5.143   5.660
 5945SOL    HW118734   6.865   5.161   5.562
 5945SOL    HW218735   6.925   5.214   5.704
 5946SOL     OW18736   3.874   3.072   5.443
 5946SOL    HW118737   3.885   3.171   5.439
 5946SOL    HW218738   3.797   3.049   5.503
 5947SOL     OW18739   4.288   3.390   1.776
 5947SOL    HW118740   4.235   3.464   1.816
 5947SOL    HW218741   4.264   3.380   1.679
 5948SOL     OW18742   3.792   4.852   2.388
 5948SOL    HW118743   3.770   4.853   2.291
 5948SOL    HW218744   3.823   4.943   2.416
 5949SOL     OW18745   4.538   4.712   2.019
 5949SOL    HW118746   4.445   4.679   2.038
 5949SOL    HW218747   4.604   4.647   2.056
 5950SOL     OW18748   6.256   2.597   3.508
 5950SOL    HW118749   6.162   2.617   3.534
 5950SOL    HW218750   6.260   2.505   3.469
 5951SOL     OW18751   1.796   5.759   3.912
 5951SOL    HW118752   1.737   5.788   3.987
 5951SOL    HW218753   1.752   5.684   3.862
 5952SOL     OW18754   6.688   6.818   4.808
 5952SOL    HW118755   6.712   6.727   4.843
 5952SOL    HW218756   6.631   6.808   4.727
 5953SOL     OW18757   0.535   3.424   6.386
 5953SOL    HW118758   0.614   3.457   6.438
 5953SOL    HW218759   0.452   3.469   6.419
 5954SOL     OW18760   0.694   5.304   6.650
 5954SOL    HW118761   0.619   5.289   6.585
 5954SOL    HW218762   0.715   5.218   6.697
 5955SOL     OW18763   5.269   5.727   2.149
 5955SOL    HW118764   5.327   5.807   2.164
 5955SOL    HW218765   5.181   5.741   2.196
 5956SOL     OW18766   6.241   2.043   0.428
 5956SOL    HW118767   6.200   1.984   0.498
 5956SOL    HW218768   6.176   2.113   0.401
 5957SOL     OW18769   5.243   0.079   6.004
 5957SOL    HW118770   5.333   0.051   5.974
 5957SOL    HW218771   5.206   0.148   5.941
 5958SOL     OW18772   0.618   5.563   2.247
 5958SOL    HW118773   0.670   5.648   2.237
 5958SOL    HW218774   0.523   5.584   2.270
 5959SOL     OW18775   2.102   1.502   6.100
 5959SOL    HW118776   2.113   1.410   6.137
 5959SOL    HW218777   2.148   1.568   6.159
 5960SOL     OW18778   3.331   0.752   3.931
 5960SOL    HW118779   3.338   0.844   3.969
 5960SOL    HW218780   3.313   0.686   4.004
 5961SOL     OW18781   3.048   0.919   5.642
 5961SOL    HW118782   2.969   0.979   5.653
 5961SOL    HW218783   3.112   0.935   5.717
 5962SOL     OW18784   5.727   5.178   2.257
 5962SOL    HW118785   5.710   5.276   2.252
 5962SOL    HW218786   5.825   5.162   2.263
 5963SOL     OW18787   4.037   3.629   2.120
 5963SOL    HW118788   4.096   3.584   2.187
 5963SOL    HW218789   4.017   3.722   2.150
 5964SOL     OW18790   1.429   4.510   5.436
 5964SOL    HW118791   1.383   4.507   5.347
 5964SOL    HW218792   1.457   4.417   5.462
 5965SOL     OW18793   2.562   1.805   4.875
 5965SOL    HW118794   2.534   1.746   4.799
 5965SOL    HW218795   2.504   1.787   4.954
 5966SOL     OW18796   1.858   6.785   3.792
 5966SOL    HW118797   1.891   6.710   3.849
 5966SOL    HW218798   1.875   6.872   3.839
 5967SOL     OW18799   4.875   0.060   2.258
 5967SOL    HW118800   4.959   0.075   2.310
 5967SOL    HW218801   4.898   0.032   2.165
 5968SOL     OW18802   0.310   2.592   4.250
 5968SOL    HW118803   0.282   2.496   4.252
 5968SOL    HW218804   0.407   2.599   4.273
 5969SOL     OW18805   5.528   3.159   2.833
 5969SOL    HW118806   5.514   3.070   2.791
 5969SOL    HW218807   5.442   3.191   2.874
 5970SOL     OW18808   1.785   2.665   3.445
 5970SOL    HW118809   1.867   2.720   3.464
 5970SOL    HW218810   1.704   2.714   3.479
 5971SOL     OW18811   2.303   0.017   2.258
 5971SOL    HW118812   2.364   0.078   2.208
 5971SOL    HW218813   2.327   0.018   2.355
 5972SOL     OW18814   4.696   6.314   0.976
 5972SOL    HW118815   4.601   6.314   0.945
 5972SOL    HW218816   4.699   6.323   1.075
 5973SOL     OW18817   1.506   4.516   3.709
 5973SOL    HW118818   1.459   4.604   3.700
 5973SOL    HW218819   1.457   4.459   3.775
 5974SOL     OW18820   0.749   3.724   6.335
 5974SOL    HW118821   0.769   3.632   6.370
 5974SOL    HW218822   0.779   3.730   6.240
 5975SOL     OW18823   2.140   2.635   0.455
 5975SOL    HW118824   2.120   2.564   0.522
 5975SOL    HW218825   2.145   2.724   0.500
 5976SOL     OW18826   3.405   3.655   5.466
 5976SOL    HW118827   3.379   3.751   5.482
 5976SOL    HW218828   3.388   3.632   5.370
 5977SOL     OW18829   1.042   3.161   2.874
 5977SOL    HW118830   1.066   3.184   2.968
 5977SOL    HW218831   1.055   3.241   2.816
 5978SOL     OW18832   5.353   5.478   2.503
 5978SOL    HW118833   5.273   5.521   2.544
 5978SOL    HW218834   5.436   5.523   2.538
 5979SOL     OW18835   6.719   0.511   3.244
 5979SOL    HW118836   6.658   0.589   3.254
 5979SOL    HW218837   6.680   0.446   3.178
 5980SOL     OW18838   6.020   4.028   6.486
 5980SOL    HW118839   6.023   3.980   6.398
 5980SOL    HW218840   6.107   4.019   6.533
 5981SOL     OW18841   4.208   0.955   1.783
 5981SOL    HW118842   4.206   0.858   1.808
 5981SOL    HW218843   4.192   0.964   1.685
 5982SOL     OW18844   6.544   2.019   6.459
 5982SOL    HW118845   6.461   2.039   6.407
 5982SOL    HW218846   6.613   2.090   6.442
 5983SOL     OW18847   0.936   1.026   4.617
 5983SOL    HW118848   0.842   0.998   4.594
 5983SOL    HW218849   0.939   1.125   4.628
 5984SOL     OW18850   0.028   7.007   5.447
 5984SOL    HW118851   0.112   0.028   5.479
 5984SOL    HW218852   0.015   0.003   5.350
 5985SOL     OW18853   4.628   2.457   4.430
 5985SOL    HW118854   4.717   2.487   4.394
 5985SOL    HW218855   4.642   2.388   4.501
 5986SOL     OW18856   3.391   2.882   2.581
 5986SOL    HW118857   3.355   2.864   2.490
 5986SOL    HW218858   3.317   2.907   2.643
 5987SOL     OW18859   3.942   0.360   5.559
 5987SOL    HW118860   3.958   0.312   5.473
 5987SOL    HW218861   3.923   0.293   5.631
 5988SOL     OW18862   3.778   0.910   4.176
 5988SOL    HW118863   3.874   0.910   4.202
 5988SOL    HW218864   3.763   0.844   4.102
 5989SOL     OW18865   2.721   0.871   6.128
 5989SOL    HW118866   2.780   0.917   6.194
 5989SOL    HW218867   2.723   0.920   6.041
 5990SOL     OW18868   3.054   4.697   1.737
 5990SOL    HW118869   3.003   4.642   1.804
 5990SOL    HW218870   3.151   4.700   1.763
 5991SOL     OW18871   2.632   5.367   3.687
 5991SOL    HW118872   2.575   5.285   3.685
 5991SOL    HW218873   2.723   5.344   3.720
 5992SOL     OW18874   4.466   0.414   4.109
 5992SOL    HW118875   4.424   0.376   4.192
 5992SOL    HW218876   4.394   0.437   4.043
 5993SOL     OW18877   3.105   5.702   5.170
 5993SOL    HW118878   3.100   5.729   5.073
 5993SOL    HW218879   3.046   5.622   5.185
 5994SOL     OW18880   0.104   2.396   1.976
 5994SOL    HW118881   0.105   2.343   2.061
 5994SOL    HW218882   0.112   2.335   1.898
 5995SOL     OW18883   6.966   3.672   1.689
 5995SOL    HW118884   6.909   3.617   1.749
 5995SOL    HW218885   6.977   3.763   1.728
 5996SOL     OW18886   0.836   5.400   5.923
 5996SOL    HW118887   0.744   5.362   5.917
 5996SOL    HW218888   0.833   5.491   5.964
 5997SOL     OW18889   0.701   6.614   2.356
 5997SOL    HW118890   0.650   6.550   2.412
 5997SOL    HW218891   0.638   6.683   2.318
 5998SOL     OW18892   4.962   1.902   3.292
 5998SOL    HW118893   4.978   1.883   3.196
 5998SOL    HW218894   4.909   1.987   3.300
 5999SOL     OW18895   1.629   1.463   2.390
 5999SOL    HW118896   1.555   1.403   2.421
 5999SOL    HW218897   1.611   1.557   2.420
 6000SOL     OW18898   4.483   6.469   2.365
 6000SOL    HW118899   4.535   6.555   2.370
 6000SOL    HW218900   4.480   6.438   2.271
 6001SOL     OW18901   6.273   2.136   7.009
 6001SOL    HW118902   6.309   2.070   6.942
 6001SOL    HW218903   6.188   2.101   0.023
 6002SOL     OW18904   1.725   0.226   1.792
 6002SOL    HW118905   1.752   0.322   1.785
 6002SOL    HW218906   1.753   0.177   1.710
 6003SOL     OW18907   4.458   4.530   4.164
 6003SOL    HW118908   4.544   4.487   4.137
 6003SOL    HW218909   4.382   4.472   4.137
 6004SOL     OW18910   6.922   3.873   2.444
 6004SOL    HW118911   6.987   3.851   2.517
 6004SOL    HW218912   6.930   3.806   2.371
 6005SOL     OW18913   3.234   6.320   2.909
 6005SOL    HW118914   3.156   6.314   2.972
 6005SOL    HW218915   3.204   6.294   2.817
 6006SOL     OW18916   2.481   6.437   6.995
 6006SOL    HW118917   2.527   6.520   6.965
 6006SOL    HW218918   2.456   6.446   0.068
 6007SOL     OW18919   5.383   2.551   3.744
 6007SOL    HW118920   5.430   2.584   3.825
 6007SOL    HW218921   5.312   2.486   3.771
 6008SOL     OW18922   3.391   4.530   6.330
 6008SOL    HW118923   3.440   4.555   6.413
 6008SOL    HW218924   3.300   4.572   6.331
 6009SOL     OW18925   3.285   2.150   4.276
 6009SOL    HW118926   3.197   2.177   4.236
 6009SOL    HW218927   3.318   2.066   4.231
 6010SOL     OW18928   1.659   2.888   3.153
 6010SOL    HW118929   1.603   2.853   3.228
 6010SOL    HW218930   1.688   2.813   3.094
 6011SOL     OW18931   6.658   3.074   3.229
 6011SOL    HW118932   6.606   3.011   3.172
 6011SOL    HW218933   6.596   3.138   3.274
 6012SOL     OW18934   6.576   3.571   0.476
 6012SOL    HW118935   6.534   3.661   0.462
 6012SOL    HW218936   6.669   3.583   0.511
 6013SOL     OW18937   5.759   1.464   2.529
 6013SOL    HW118938   5.744   1.519   2.447
 6013SOL    HW218939   5.851   1.425   2.526
 6014SOL     OW18940   5.814   0.566   0.845
 6014SOL    HW118941   5.885   0.593   0.779
 6014SOL    HW218942   5.732   0.538   0.795
 6015SOL     OW18943   5.297   1.900   4.865
 6015SOL    HW118944   5.245   1.944   4.939
 6015SOL    HW218945   5.377   1.955   4.844
 6016SOL     OW18946   2.054   6.811   5.209
 6016SOL    HW118947   1.998   6.881   5.165
 6016SOL    HW218948   2.009   6.722   5.202
 6017SOL     OW18949   6.875   4.558   2.466
 6017SOL    HW118950   6.882   4.550   2.566
 6017SOL    HW218951   6.943   4.625   2.434
 6018SOL     OW18952   2.578   4.993   0.659
 6018SOL    HW118953   2.566   4.923   0.589
 6018SOL    HW218954   2.538   4.962   0.745
 6019SOL     OW18955   4.165   6.881   4.457
 6019SOL    HW118956   4.226   6.950   4.496
 6019SOL    HW218957   4.163   6.801   4.516
 6020SOL     OW18958   3.563   0.762   2.835
 6020SOL    HW118959   3.611   0.745   2.748
 6020SOL    HW218960   3.469   0.727   2.828
 6021SOL     OW18961   4.046   1.564   2.776
 6021SOL    HW118962   4.111   1.505   2.826
 6021SOL    HW218963   4.008   1.631   2.839
 6022SOL     OW18964   4.497   1.900   5.235
 6022SOL    HW118965   4.510   1.871   5.140
 6022SOL    HW218966   4.405   1.937   5.246
 6023SOL     OW18967   6.696   1.571   2.399
 6023SOL    HW118968   6.707   1.629   2.480
 6023SOL    HW218969   6.617   1.511   2.411
 6024SOL     OW18970   0.651   4.907   2.613
 6024SOL    HW118971   0.678   5.003   2.619
 6024SOL    HW218972   0.604   4.890   2.527
 6025SOL     OW18973   4.454   1.980   1.518
 6025SOL    HW118974   4.479   1.961   1.423
 6025SOL    HW218975   4.445   2.079   1.532
 6026SOL     OW18976   0.386   4.647   5.309
 6026SOL    HW118977   0.351   4.730   5.353
 6026SOL    HW218978   0.311   4.582   5.298
 6027SOL     OW18979   3.016   3.282   0.351
 6027SOL    HW118980   3.109   3.321   0.348
 6027SOL    HW218981   2.950   3.356   0.361
 6028SOL     OW18982   1.485   3.599   0.237
 6028SOL    HW118983   1.459   3.504   0.216
 6028SOL    HW218984   1.469   3.656   0.156
 6029SOL     OW18985   1.662   5.218   1.322
 6029SOL    HW118986   1.658   5.178   1.231
 6029SOL    HW218987   1.754   5.253   1.339
 6030SOL     OW18988   2.044   0.439   0.788
 6030SOL    HW118989   2.037   0.499   0.868
 6030SOL    HW218990   2.138   0.410   0.776
 6031SOL     OW18991   5.258   0.092   5.019
 6031SOL    HW118992   5.324   0.049   4.957
 6031SOL    HW218993   5.165   0.076   4.984
 6032SOL     OW18994   0.519   3.254   2.485
 6032SOL    HW118995   0.592   3.288   2.425
 6032SOL    HW218996   0.534   3.157   2.504
 6033SOL     OW18997   1.506   0.406   4.263
 6033SOL    HW118998   1.413   0.397   4.298
 6033SOL    HW218999   1.534   0.320   4.220
 6034SOL     OW19000   2.302   3.943   5.667
 6034SOL    HW119001   2.265   3.969   5.577
 6034SOL    HW219002   2.253   3.863   5.701
 6035SOL     OW19003   6.329   1.058   4.283
 6035SOL    HW119004   6.249   1.036   4.228
 6035SOL    HW219005   6.325   1.154   4.311
 6036SOL     OW19006   6.780   0.758   4.594
 6036SOL    HW119007   6.819   0.669   4.568
 6036SOL    HW219008   6.852   0.826   4.601
 6037SOL     OW19009   6.664   4.641   4.764
 6037SOL    HW119010   6.647   4.638   4.666
 6037SOL    HW219011   6.628   4.559   4.807
 6038SOL     OW19012   4.857   3.841   6.608
 6038SOL    HW119013   4.799   3.776   6.559
 6038SOL    HW219014   4.821   3.934   6.597
 6039SOL     OW19015   3.576   4.096   3.062
 6039SOL    HW119016   3.498   4.036   3.045
 6039SOL    HW219017   3.571   4.131   3.156
 6040SOL     OW19018   0.264   1.897   6.886
 6040SOL    HW119019   0.280   1.804   6.852
 6040SOL    HW219020   0.265   1.961   6.809
 6041SOL     OW19021   0.442   2.776   0.493
 6041SOL    HW119022   0.452   2.870   0.525
 6041SOL    HW219023   0.518   2.753   0.432
 6042SOL     OW19024   5.448   5.026   3.420
 6042SOL    HW119025   5.379   5.089   3.385
 6042SOL    HW219026   5.487   5.061   3.505
 6043SOL     OW19027   1.047   4.848   4.104
 6043SOL    HW119028   1.093   4.911   4.041
 6043SOL    HW219029   0.958   4.823   4.068
 6044SOL     OW19030   0.851   0.292   1.632
 6044SOL    HW119031   0.841   0.391   1.622
 6044SOL    HW219032   0.828   0.265   1.725
 6045SOL     OW19033   0.330   3.737   1.606
 6045SOL    HW119034   0.270   3.658   1.592
 6045SOL    HW219035   0.275   3.821   1.604
 6046SOL     OW19036   2.745   2.818   0.502
 6046SOL    HW119037   2.769   2.733   0.549
 6046SOL    HW219038   2.804   2.892   0.533
 6047SOL     OW19039   0.235   6.430   4.959
 6047SOL    HW119040   0.278   6.351   5.002
 6047SOL    HW219041   0.246   6.510   5.017
 6048SOL     OW19042   4.656   6.684   5.091
 6048SOL    HW119043   4.657   6.704   4.993
 6048SOL    HW219044   4.564   6.699   5.127
 6049SOL     OW19045   6.657   5.093   1.336
 6049SOL    HW119046   6.726   5.165   1.322
 6049SOL    HW219047   6.607   5.078   1.251
 6050SOL     OW19048   5.024   4.398   5.330
 6050SOL    HW119049   5.092   4.446   5.385
 6050SOL    HW219050   4.932   4.419   5.364
 6051SOL     OW19051   1.787   1.791   2.942
 6051SOL    HW119052   1.880   1.754   2.947
 6051SOL    HW219053   1.792   1.889   2.924
 6052SOL     OW19054   6.733   1.143   0.207
 6052SOL    HW119055   6.663   1.084   0.246
 6052SOL    HW219056   6.690   1.219   0.157
 6053SOL     OW19057   2.097   0.215   6.428
 6053SOL    HW119058   2.023   0.155   6.399
 6053SOL    HW219059   2.095   0.299   6.374
 6054SOL     OW19060   2.454   5.211   0.060
 6054SOL    HW119061   2.423   5.282   7.022
 6054SOL    HW219062   2.395   5.210   0.141
 6055SOL     OW19063   5.005   0.275   4.519
 6055SOL    HW119064   5.098   0.284   4.483
 6055SOL    HW219065   4.982   0.356   4.572
 6056SOL     OW19066   5.068   2.508   6.025
 6056SOL    HW119067   4.987   2.516   6.082
 6056SOL    HW219068   5.087   2.411   6.008
 6057SOL     OW19069   3.805   0.746   5.918
 6057SOL    HW119070   3.770   0.666   5.869
 6057SOL    HW219071   3.878   0.718   5.980
 6058SOL     OW19072   5.677   1.760   4.430
 6058SOL    HW119073   5.716   1.669   4.418
 6058SOL    HW219074   5.667   1.804   4.340
 6059SOL     OW19075   0.094   5.218   6.015
 6059SOL    HW119076   0.060   5.301   5.971
 6059SOL    HW219077   0.023   5.148   6.014
 6060SOL     OW19078   4.414   6.555   6.022
 6060SOL    HW119079   4.409   6.464   6.063
 6060SOL    HW219080   4.456   6.548   5.932
 6061SOL     OW19081   2.257   1.920   6.296
 6061SOL    HW119082   2.310   1.952   6.375
 6061SOL    HW219083   2.273   1.980   6.218
 6062SOL     OW19084   2.404   0.670   4.214
 6062SOL    HW119085   2.445   0.581   4.235
 6062SOL    HW219086   2.307   0.667   4.236
 6063SOL     OW19087   4.437   0.038   0.060
 6063SOL    HW119088   4.508   0.015   0.127
 6063SOL    HW219089   4.450   7.006   7.002
 6064SOL     OW19090   1.174   6.250   3.657
 6064SOL    HW119091   1.236   6.276   3.583
 6064SOL    HW219092   1.221   6.260   3.745
 6065SOL     OW19093   0.005   0.602   0.624
 6065SOL    HW119094   6.957   0.621   0.558
 6065SOL    HW219095   0.006   0.505   0.646
 6066SOL     OW19096   4.362   2.775   6.587
 6066SOL    HW119097   4.308   2.752   6.506
 6066SOL    HW219098   4.379   2.692   6.640
 6067SOL     OW19099   5.874   2.569   6.883
 6067SOL    HW119100   5.787   2.598   6.922
 6067SOL    HW219101   5.890   2.473   6.905
 6068SOL     OW19102   4.659   2.788   5.104
 6068SOL    HW119103   4.680   2.815   5.010
 6068SOL    HW219104   4.572   2.738   5.106
 6069SOL     OW19105   6.086   3.740   3.993
 6069SOL    HW119106   6.153   3.668   3.976
 6069SOL    HW219107   6.126   3.809   4.054
 6070SOL     OW19108   3.780   2.311   6.368
 6070SOL    HW119109   3.774   2.214   6.392
 6070SOL    HW219110   3.738   2.366   6.442
 6071SOL     OW19111   4.347   6.151   4.885
 6071SOL    HW119112   4.272   6.217   4.892
 6071SOL    HW219113   4.430   6.198   4.856
 6072SOL     OW19114   0.558   1.804   0.728
 6072SOL    HW119115   0.617   1.735   0.771
 6072SOL    HW219116   0.462   1.779   0.742
 6073SOL     OW19117   6.634   2.626   1.326
 6073SOL    HW119118   6.727   2.592   1.341
 6073SOL    HW219119   6.573   2.591   1.398
 6074SOL     OW19120   0.579   0.160   4.225
 6074SOL    HW119121   0.525   0.138   4.144
 6074SOL    HW219122   0.533   0.231   4.278
 6075SOL     OW19123   5.523   4.324   6.714
 6075SOL    HW119124   5.481   4.235   6.729
 6075SOL    HW219125   5.620   4.312   6.694
 6076SOL     OW19126   2.212   6.200   3.587
 6076SOL    HW119127   2.158   6.135   3.640
 6076SOL    HW219128   2.284   6.151   3.538
 6077SOL     OW19129   5.887   5.882   2.033
 6077SOL    HW119130   5.845   5.928   1.955
 6077SOL    HW219131   5.948   5.946   2.080
 6078SOL     OW19132   2.460   4.451   3.348
 6078SOL    HW119133   2.423   4.415   3.263
 6078SOL    HW219134   2.558   4.469   3.338
 6079SOL     OW19135   2.251   1.497   0.645
 6079SOL    HW119136   2.205   1.461   0.727
 6079SOL    HW219137   2.235   1.435   0.568
 6080SOL     OW19138   5.774   2.220   2.415
 6080SOL    HW119139   5.700   2.155   2.428
 6080SOL    HW219140   5.859   2.183   2.452
 6081SOL     OW19141   0.419   4.075   3.191
 6081SOL    HW119142   0.331   4.112   3.161
 6081SOL    HW219143   0.487   4.088   3.119
 6082SOL     OW19144   3.938   1.678   4.168
 6082SOL    HW119145   3.852   1.637   4.137
 6082SOL    HW219146   3.982   1.618   4.235
 6083SOL     OW19147   1.968   6.809   0.198
 6083SOL    HW119148   1.992   6.712   0.208
 6083SOL    HW219149   1.897   6.832   0.265
 6084SOL     OW19150   0.941   4.999   5.754
 6084SOL    HW119151   0.945   5.016   5.852
 6084SOL    HW219152   1.034   4.998   5.716
 6085SOL     OW19153   4.652   3.683   1.297
 6085SOL    HW119154   4.615   3.667   1.205
 6085SOL    HW219155   4.602   3.759   1.340
 6086SOL     OW19156   2.473   1.804   3.181
 6086SOL    HW119157   2.376   1.826   3.179
 6086SOL    HW219158   2.522   1.872   3.236
 6087SOL     OW19159   4.711   6.770   6.976
 6087SOL    HW119160   4.631   6.814   7.017
 6087SOL    HW219161   4.730   6.810   6.887
 6088SOL     OW19162   0.049   0.284   4.467
 6088SOL    HW119163   7.022   0.301   4.383
 6088SOL    HW219164   0.094   0.369   4.496
 6089SOL     OW19165   0.397   3.070   0.064
 6089SOL    HW119166   0.330   3.144   0.070
 6089SOL    HW219167   0.488   3.106   0.083
 6090SOL     OW19168   0.092   6.252   4.445
 6090SOL    HW119169   0.038   6.233   4.363
 6090SOL    HW219170   0.176   6.300   4.418
 6091SOL     OW19171   5.718   2.027   1.647
 6091SOL    HW119172   5.730   2.109   1.592
 6091SOL    HW219173   5.718   2.051   1.744
 6092SOL     OW19174   1.696   2.591   1.511
 6092SOL    HW119175   1.669   2.686   1.527
 6092SOL    HW219176   1.796   2.586   1.499
 6093SOL     OW19177   0.986   3.190   1.599
 6093SOL    HW119178   0.935   3.159   1.518
 6093SOL    HW219179   1.079   3.155   1.595
 6094SOL     OW19180   1.301   0.731   0.946
 6094SOL    HW119181   1.340   0.665   1.011
 6094SOL    HW219182   1.206   0.750   0.971
 6095SOL     OW19183   6.545   3.901   5.982
 6095SOL    HW119184   6.579   3.858   6.066
 6095SOL    HW219185   6.571   3.845   5.903
 6096SOL     OW19186   3.979   1.854   2.791
 6096SOL    HW119187   3.883   1.852   2.763
 6096SOL    HW219188   4.015   1.947   2.778
 6097SOL     OW19189   2.984   2.013   2.002
 6097SOL    HW119190   2.983   1.953   2.082
 6097SOL    HW219191   2.937   2.099   2.024
 6098SOL     OW19192   1.746   1.878   5.442
 6098SOL    HW119193   1.705   1.959   5.399
 6098SOL    HW219194   1.686   1.799   5.428
 6099SOL     OW19195   6.128   5.255   5.002
 6099SOL    HW119196   6.109   5.342   4.957
 6099SOL    HW219197   6.142   5.269   5.099
 6100SOL     OW19198   6.058   2.885   0.223
 6100SOL    HW119199   6.122   2.881   0.146
 6100SOL    HW219200   5.996   2.807   0.219
 6101SOL     OW19201   6.001   1.718   4.695
 6101SOL    HW119202   6.014   1.662   4.613
 6101SOL    HW219203   5.931   1.787   4.676
 6102SOL     OW19204   2.681   0.745   5.314
 6102SOL    HW119205   2.697   0.745   5.216
 6102SOL    HW219206   2.619   0.671   5.338
 6103SOL     OW19207   6.708   0.204   6.294
 6103SOL    HW119208   6.767   0.263   6.239
 6103SOL    HW219209   6.756   0.120   6.317
 6104SOL     OW19210   1.257   2.696   0.190
 6104SOL    HW119211   1.280   2.735   0.101
 6104SOL    HW219212   1.320   2.731   0.259
 6105SOL     OW19213   3.385   5.882   4.164
 6105SOL    HW119214   3.452   5.866   4.092
 6105SOL    HW219215   3.424   5.940   4.235
 6106SOL     OW19216   3.360   5.776   5.226
 6106SOL    HW119217   3.281   5.721   5.198
 6106SOL    HW219218   3.331   5.844   5.293
 6107SOL     OW19219   2.139   4.405   5.504
 6107SOL    HW119220   2.206   4.342   5.546
 6107SOL    HW219221   2.109   4.472   5.572
 6108SOL     OW19222   0.238   1.965   4.645
 6108SOL    HW119223   0.142   1.936   4.647
 6108SOL    HW219224   0.282   1.930   4.563
 6109SOL     OW19225   6.446   4.541   1.598
 6109SOL    HW119226   6.461   4.588   1.684
 6109SOL    HW219227   6.509   4.578   1.529
 6110SOL     OW19228   3.507   1.813   4.415
 6110SOL    HW119229   3.495   1.903   4.456
 6110SOL    HW219230   3.529   1.746   4.487
 6111SOL     OW19231   0.809   5.077   2.821
 6111SOL    HW119232   0.797   4.978   2.820
 6111SOL    HW219233   0.856   5.103   2.906
 6112SOL     OW19234   0.188   2.184   2.334
 6112SOL    HW119235   0.263   2.198   2.269
 6112SOL    HW219236   0.224   2.138   2.415
 6113SOL     OW19237   1.578   6.070   5.119
 6113SOL    HW119238   1.495   6.021   5.146
 6113SOL    HW219239   1.642   6.073   5.195
 6114SOL     OW19240   5.155   5.486   0.727
 6114SOL    HW119241   5.209   5.445   0.653
 6114SOL    HW219242   5.126   5.415   0.791
 6115SOL     OW19243   6.038   4.489   2.532
 6115SOL    HW119244   6.009   4.394   2.544
 6115SOL    HW219245   6.093   4.517   2.611
 6116SOL     OW19246   4.454   0.905   1.512
 6116SOL    HW119247   4.360   0.937   1.519
 6116SOL    HW219248   4.507   0.937   1.590
 6117SOL     OW19249   5.121   0.025   4.339
 6117SOL    HW119250   5.164   6.969   4.300
 6117SOL    HW219251   5.078   0.079   4.266
 6118SOL     OW19252   5.970   0.084   3.194
 6118SOL    HW119253   5.947   7.012   3.202
 6118SOL    HW219254   5.981   0.108   3.097
 6119SOL     OW19255   6.725   4.958   4.053
 6119SOL    HW119256   6.658   4.970   3.979
 6119SOL    HW219257   6.770   5.045   4.071
 6120SOL     OW19258   2.638   1.002   2.935
 6120SOL    HW119259   2.664   0.923   2.879
 6120SOL    HW219260   2.543   0.994   2.963
 6121SOL     OW19261   6.596   2.148   4.460
 6121SOL    HW119262   6.570   2.162   4.556
 6121SOL    HW219263   6.676   2.088   4.456
 6122SOL     OW19264   4.728   5.620   3.113
 6122SOL    HW119265   4.677   5.703   3.088
 6122SOL    HW219266   4.810   5.614   3.057
 6123SOL     OW19267   6.032   1.134   2.333
 6123SOL    HW119268   5.949   1.102   2.288
 6123SOL    HW219269   6.081   1.056   2.371
 6124SOL     OW19270   3.275   0.221   5.760
 6124SOL    HW119271   3.185   0.244   5.798
 6124SOL    HW219272   3.280   0.253   5.666
 6125SOL     OW19273   1.869   5.154   1.712
 6125SOL    HW119274   1.897   5.133   1.618
 6125SOL    HW219275   1.948   5.145   1.772
 6126SOL     OW19276   5.388   5.485   2.212
 6126SOL    HW119277   5.391   5.486   2.312
 6126SOL    HW219278   5.347   5.571   2.180
 6127SOL     OW19279   2.099   4.511   1.332
 6127SOL    HW119280   2.086   4.610   1.329
 6127SOL    HW219281   2.146   4.486   1.417
 6128SOL     OW19282   5.101   2.372   0.875
 6128SOL    HW119283   5.108   2.433   0.954
 6128SOL    HW219284   5.009   2.332   0.873
 6129SOL     OW19285   6.177   4.558   3.970
 6129SOL    HW119286   6.125   4.529   3.889
 6129SOL    HW219287   6.120   4.618   4.026
 6130SOL     OW19288   5.349   3.575   2.190
 6130SOL    HW119289   5.436   3.605   2.151
 6130SOL    HW219290   5.274   3.601   2.128
 6131SOL     OW19291   6.570   0.768   5.372
 6131SOL    HW119292   6.563   0.685   5.426
 6131SOL    HW219293   6.663   0.779   5.338
 6132SOL     OW19294   6.121   2.570   0.389
 6132SOL    HW119295   6.157   2.561   0.296
 6132SOL    HW219296   6.078   2.660   0.398
 6133SOL     OW19297   1.330   4.266   0.474
 6133SOL    HW119298   1.256   4.216   0.430
 6133SOL    HW219299   1.357   4.343   0.416
 6134SOL     OW19300   4.964   3.005   6.275
 6134SOL    HW119301   4.865   3.009   6.271
 6134SOL    HW219302   5.001   3.094   6.301
 6135SOL     OW19303   5.423   6.992   1.330
 6135SOL    HW119304   5.344   0.017   1.293
 6135SOL    HW219305   5.476   6.953   1.255
 6136SOL     OW19306   6.815   1.733   1.284
 6136SOL    HW119307   6.817   1.686   1.196
 6136SOL    HW219308   6.896   1.791   1.293
 6137SOL     OW19309   2.614   6.989   5.794
 6137SOL    HW119310   2.605   6.937   5.709
 6137SOL    HW219311   2.584   6.932   5.871
 6138SOL     OW19312   4.479   0.428   2.885
 6138SOL    HW119313   4.459   0.432   2.787
 6138SOL    HW219314   4.495   0.334   2.913
 6139SOL     OW19315   1.774   4.381   4.090
 6139SOL    HW119316   1.714   4.309   4.124
 6139SOL    HW219317   1.865   4.343   4.073
 6140SOL     OW19318   2.226   6.338   1.207
 6140SOL    HW119319   2.173   6.371   1.285
 6140SOL    HW219320   2.311   6.391   1.200
 6141SOL     OW19321   6.246   6.206   5.770
 6141SOL    HW119322   6.174   6.272   5.750
 6141SOL    HW219323   6.218   6.115   5.740
 6142SOL     OW19324   0.836   4.795   2.797
 6142SOL    HW119325   0.751   4.799   2.746
 6142SOL    HW219326   0.908   4.757   2.739
 6143SOL     OW19327   6.356   4.676   6.489
 6143SOL    HW119328   6.401   4.626   6.562
 6143SOL    HW219329   6.360   4.622   6.405
 6144SOL     OW19330   0.199   5.422   3.591
 6144SOL    HW119331   0.113   5.382   3.560
 6144SOL    HW219332   0.234   5.369   3.669
 6145SOL     OW19333   5.395   6.092   3.348
 6145SOL    HW119334   5.307   6.044   3.354
 6145SOL    HW219335   5.452   6.046   3.280
 6146SOL     OW19336   5.603   0.989   3.006
 6146SOL    HW119337   5.581   1.004   3.102
 6146SOL    HW219338   5.678   1.049   2.979
 6147SOL     OW19339   1.783   3.412   3.233
 6147SOL    HW119340   1.701   3.452   3.191
 6147SOL    HW219341   1.813   3.334   3.179
 6148SOL     OW19342   6.396   6.194   4.115
 6148SOL    HW119343   6.399   6.136   4.196
 6148SOL    HW219344   6.462   6.269   4.125
 6149SOL     OW19345   2.239   6.487   3.526
 6149SOL    HW119346   2.235   6.503   3.427
 6149SOL    HW219347   2.219   6.390   3.544
 6150SOL     OW19348   4.403   5.161   6.203
 6150SOL    HW119349   4.397   5.108   6.288
 6150SOL    HW219350   4.392   5.258   6.223
 6151SOL     OW19351   4.721   1.954   5.853
 6151SOL    HW119352   4.704   1.918   5.761
 6151SOL    HW219353   4.703   1.882   5.920
 6152SOL     OW19354   6.670   4.566   6.688
 6152SOL    HW119355   6.667   4.602   6.781
 6152SOL    HW219356   6.758   4.588   6.647
 6153SOL     OW19357   4.931   3.363   0.708
 6153SOL    HW119358   4.832   3.376   0.715
 6153SOL    HW219359   4.974   3.447   0.674
 6154SOL     OW19360   5.163   3.074   2.673
 6154SOL    HW119361   5.065   3.091   2.667
 6154SOL    HW219362   5.197   3.042   2.585
 6155SOL     OW19363   1.151   3.570   4.397
 6155SOL    HW119364   1.075   3.633   4.383
 6155SOL    HW219365   1.116   3.484   4.435
 6156SOL     OW19366   6.477   0.289   3.519
 6156SOL    HW119367   6.466   0.388   3.523
 6156SOL    HW219368   6.565   0.267   3.477
 6157SOL     OW19369   1.708   1.717   3.405
 6157SOL    HW119370   1.652   1.799   3.410
 6157SOL    HW219371   1.784   1.731   3.341
 6158SOL     OW19372   4.306   0.617   0.336
 6158SOL    HW119373   4.362   0.686   0.382
 6158SOL    HW219374   4.332   0.526   0.369
 6159SOL     OW19375   5.269   3.309   0.167
 6159SOL    HW119376   5.200   3.315   0.095
 6159SOL    HW219377   5.332   3.234   0.147
 6160SOL     OW19378   6.506   5.191   1.829
 6160SOL    HW119379   6.426   5.224   1.879
 6160SOL    HW219380   6.589   5.216   1.880
 6161SOL     OW19381   5.819   0.503   6.079
 6161SOL    HW119382   5.799   0.589   6.125
 6161SOL    HW219383   5.802   0.512   5.981
 6162SOL     OW19384   6.310   5.246   3.698
 6162SOL    HW119385   6.215   5.264   3.724
 6162SOL    HW219386   6.317   5.243   3.598
 6163SOL     OW19387   6.893   4.277   1.978
 6163SOL    HW119388   6.879   4.194   1.924
 6163SOL    HW219389   6.938   4.253   2.064
 6164SOL     OW19390   3.778   2.588   0.406
 6164SOL    HW119391   3.837   2.631   0.337
 6164SOL    HW219392   3.779   2.642   0.490
 6165SOL     OW19393   4.202   6.556   0.460
 6165SOL    HW119394   4.189   6.497   0.539
 6165SOL    HW219395   4.234   6.646   0.489
 6166SOL     OW19396   3.471   1.587   6.507
 6166SOL    HW119397   3.530   1.660   6.472
 6166SOL    HW219398   3.445   1.527   6.432
 6167SOL     OW19399   6.901   4.624   3.549
 6167SOL    HW119400   6.960   4.704   3.547
 6167SOL    HW219401   6.956   4.541   3.541
 6168SOL     OW19402   1.048   2.539   1.898
 6168SOL    HW119403   0.964   2.586   1.925
 6168SOL    HW219404   1.093   2.502   1.979
 6169SOL     OW19405   1.868   4.172   2.476
 6169SOL    HW119406   1.900   4.104   2.541
 6169SOL    HW219407   1.871   4.133   2.383
 6170SOL     OW19408   0.039   2.656   4.177
 6170SOL    HW119409   0.136   2.659   4.201
 6170SOL    HW219410   7.013   2.726   4.228
 6171SOL     OW19411   0.018   0.680   6.180
 6171SOL    HW119412   0.078   0.676   6.260
 6171SOL    HW219413   6.957   0.631   6.198
 6172SOL     OW19414   1.168   4.186   4.130
 6172SOL    HW119415   1.199   4.260   4.072
 6172SOL    HW219416   1.221   4.186   4.215
 6173SOL     OW19417   5.988   6.062   3.285
 6173SOL    HW119418   6.074   6.010   3.284
 6173SOL    HW219419   5.929   6.028   3.358
 6174SOL     OW19420   6.288   3.444   2.022
 6174SOL    HW119421   6.384   3.424   2.046
 6174SOL    HW219422   6.228   3.383   2.075
 6175SOL     OW19423   2.618   2.343   5.872
 6175SOL    HW119424   2.651   2.328   5.965
 6175SOL    HW219425   2.694   2.335   5.808
 6176SOL     OW19426   4.034   4.382   6.667
 6176SOL    HW119427   4.067   4.300   6.713
 6176SOL    HW219428   3.999   4.447   6.735
 6177SOL     OW19429   5.871   0.528   1.113
 6177SOL    HW119430   5.845   0.529   1.016
 6177SOL    HW219431   5.934   0.604   1.131
 6178SOL     OW19432   3.890   4.699   1.516
 6178SOL    HW119433   3.897   4.702   1.616
 6178SOL    HW219434   3.801   4.663   1.490
 6179SOL     OW19435   5.823   4.971   4.423
 6179SOL    HW119436   5.874   4.899   4.377
 6179SOL    HW219437   5.812   5.049   4.360
 6180SOL     OW19438   2.751   4.347   6.991
 6180SOL    HW119439   2.769   4.420   6.925
 6180SOL    HW219440   2.819   4.275   6.980
 6181SOL     OW19441   6.395   6.344   0.068
 6181SOL    HW119442   6.397   6.248   0.039
 6181SOL    HW219443   6.390   6.403   7.011
 6182SOL     OW19444   3.372   2.494   0.900
 6182SOL    HW119445   3.395   2.398   0.921
 6182SOL    HW219446   3.419   2.522   0.817
 6183SOL     OW19447   0.210   6.862   0.645
 6183SOL    HW119448   0.263   6.783   0.615
 6183SOL    HW219449   0.138   6.882   0.579
 6184SOL     OW19450   2.595   6.844   5.549
 6184SOL    HW119451   2.507   6.858   5.504
 6184SOL    HW219452   2.666   6.833   5.479
 6185SOL     OW19453   3.704   2.883   5.175
 6185SOL    HW119454   3.684   2.974   5.212
 6185SOL    HW219455   3.743   2.893   5.084
 6186SOL     OW19456   0.281   1.431   1.564
 6186SOL    HW119457   0.274   1.398   1.658
 6186SOL    HW219458   0.341   1.370   1.513
 6187SOL     OW19459   3.918   1.203   5.978
 6187SOL    HW119460   3.943   1.299   5.967
 6187SOL    HW219461   3.833   1.196   6.031
 6188SOL     OW19462   1.123   1.470   4.817
 6188SOL    HW119463   1.206   1.524   4.824
 6188SOL    HW219464   1.092   1.442   4.909
 6189SOL     OW19465   6.527   6.356   1.075
 6189SOL    HW119466   6.475   6.440   1.093
 6189SOL    HW219467   6.595   6.374   1.003
 6190SOL     OW19468   0.795   3.127   4.818
 6190SOL    HW119469   0.855   3.135   4.898
 6190SOL    HW219470   0.845   3.084   4.743
 6191SOL     OW19471   3.747   3.547   0.175
 6191SOL    HW119472   3.838   3.579   0.201
 6191SOL    HW219473   3.715   3.598   0.096
 6192SOL     OW19474   2.956   1.290   0.704
 6192SOL    HW119475   2.993   1.199   0.722
 6192SOL    HW219476   2.945   1.302   0.605
 6193SOL     OW19477   4.623   5.672   6.968
 6193SOL    HW119478   4.687   5.595   6.959
 6193SOL    HW219479   4.673   5.758   6.964
 6194SOL     OW19480   5.800   6.945   6.900
 6194SOL    HW119481   5.830   6.855   6.868
 6194SOL    HW219482   5.834   6.960   6.992
 6195SOL     OW19483   6.029   6.337   6.346
 6195SOL    HW119484   5.975   6.292   6.417
 6195SOL    HW219485   5.982   6.421   6.318
 6196SOL     OW19486   5.517   3.661   2.736
 6196SOL    HW119487   5.472   3.584   2.781
 6196SOL    HW219488   5.509   3.652   2.637
 6197SOL     OW19489   1.932   5.269   1.396
 6197SOL    HW119490   2.021   5.303   1.366
 6197SOL    HW219491   1.934   5.169   1.398
 6198SOL     OW19492   5.938   1.172   6.758
 6198SOL    HW119493   5.894   1.105   6.699
 6198SOL    HW219494   6.035   1.152   6.765
 6199SOL     OW19495   1.758   0.213   6.143
 6199SOL    HW119496   1.714   0.124   6.143
 6199SOL    HW219497   1.762   0.248   6.237
 6200SOL     OW19498   1.367   0.995   2.073
 6200SOL    HW119499   1.397   1.011   1.978
 6200SOL    HW219500   1.308   0.915   2.076
 6201SOL     OW19501   0.690   4.756   3.328
 6201SOL    HW119502   0.699   4.672   3.381
 6201SOL    HW219503   0.684   4.733   3.231
 6202SOL     OW19504   5.777   1.632   2.957
 6202SOL    HW119505   5.854   1.641   2.895
 6202SOL    HW219506   5.784   1.700   3.030
 6203SOL     OW19507   6.454   0.181   2.179
 6203SOL    HW119508   6.370   0.175   2.125
 6203SOL    HW219509   6.533   0.185   2.119
 6204SOL     OW19510   1.705   6.797   5.152
 6204SOL    HW119511   1.691   6.786   5.251
 6204SOL    HW219512   1.760   6.879   5.135
 6205SOL     OW19513   5.448   4.220   3.394
 6205SOL    HW119514   5.476   4.126   3.412
 6205SOL    HW219515   5.443   4.270   3.481
 6206SOL     OW19516   5.670   1.791   3.943
 6206SOL    HW119517   5.641   1.810   3.849
 6206SOL    HW219518   5.624   1.709   3.976
 6207SOL     OW19519   1.052   5.093   4.543
 6207SOL    HW119520   1.134   5.082   4.600
 6207SOL    HW219521   1.055   5.029   4.467
 6208SOL     OW19522   4.171   3.984   6.025
 6208SOL    HW119523   4.226   3.983   6.109
 6208SOL    HW219524   4.232   3.984   5.946
 6209SOL     OW19525   3.210   2.630   1.702
 6209SOL    HW119526   3.272   2.553   1.683
 6209SOL    HW219527   3.265   2.712   1.717
 6210SOL     OW19528   5.180   2.357   4.836
 6210SOL    HW119529   5.148   2.451   4.839
 6210SOL    HW219530   5.141   2.305   4.912
 6211SOL     OW19531   5.777   4.282   4.905
 6211SOL    HW119532   5.679   4.261   4.908
 6211SOL    HW219533   5.806   4.295   4.810
 6212SOL     OW19534   4.144   5.362   5.000
 6212SOL    HW119535   4.132   5.310   5.085
 6212SOL    HW219536   4.126   5.303   4.921
 6213SOL     OW19537   4.612   5.741   0.510
 6213SOL    HW119538   4.516   5.714   0.519
 6213SOL    HW219539   4.637   5.742   0.413
 6214SOL     OW19540   6.307   6.867   6.194
 6214SOL    HW119541   6.273   6.843   6.285
 6214SOL    HW219542   6.353   6.956   6.198
 6215SOL     OW19543   5.342   2.455   5.561
 6215SOL    HW119544   5.390   2.474   5.475
 6215SOL    HW219545   5.281   2.377   5.547
 6216SOL     OW19546   4.364   1.975   4.071
 6216SOL    HW119547   4.265   1.966   4.080
 6216SOL    HW219548   4.385   2.061   4.024
 6217SOL     OW19549   0.448   4.801   3.453
 6217SOL    HW119550   0.539   4.794   3.413
 6217SOL    HW219551   0.384   4.836   3.385
 6218SOL     OW19552   4.678   6.486   0.410
 6218SOL    HW119553   4.766   6.505   0.453
 6218SOL    HW219554   4.675   6.390   0.382
 6219SOL     OW19555   2.107   1.288   6.299
 6219SOL    HW119556   2.193   1.270   6.253
 6219SOL    HW219557   2.094   1.222   6.373
 6220SOL     OW19558   3.595   6.503   0.738
 6220SOL    HW119559   3.665   6.485   0.669
 6220SOL    HW219560   3.548   6.417   0.761
 6221SOL     OW19561   5.443   6.157   6.846
 6221SOL    HW119562   5.444   6.139   6.944
 6221SOL    HW219563   5.352   6.186   6.818
 6222SOL     OW19564   6.567   1.289   1.925
 6222SOL    HW119565   6.623   1.369   1.903
 6222SOL    HW219566   6.627   1.212   1.947
 6223SOL     OW19567   0.002   5.089   4.228
 6223SOL    HW119568   6.971   5.054   4.304
 6223SOL    HW219569   6.966   5.122   4.156
 6224SOL     OW19570   3.775   0.144   6.969
 6224SOL    HW119571   3.679   0.117   6.975
 6224SOL    HW219572   3.784   0.220   6.905
 6225SOL     OW19573   4.589   5.710   6.671
 6225SOL    HW119574   4.492   5.730   6.661
 6225SOL    HW219575   4.608   5.683   6.766
 6226SOL     OW19576   1.245   0.954   4.629
 6226SOL    HW119577   1.257   0.903   4.714
 6226SOL    HW219578   1.148   0.963   4.609
 6227SOL     OW19579   2.744   4.555   5.331
 6227SOL    HW119580   2.801   4.589   5.257
 6227SOL    HW219581   2.756   4.612   5.412
 6228SOL     OW19582   1.099   3.169   3.129
 6228SOL    HW119583   1.033   3.116   3.182
 6228SOL    HW219584   1.157   3.222   3.191
 6229SOL     OW19585   0.298   2.786   4.026
 6229SOL    HW119586   0.331   2.880   4.022
 6229SOL    HW219587   0.199   2.786   4.041
 6230SOL     OW19588   6.801   0.813   1.525
 6230SOL    HW119589   6.897   0.840   1.520
 6230SOL    HW219590   6.792   0.717   1.499
 6231SOL     OW19591   2.359   5.155   6.689
 6231SOL    HW119592   2.317   5.245   6.697
 6231SOL    HW219593   2.307   5.089   6.744
 6232SOL     OW19594   4.335   0.404   6.017
 6232SOL    HW119595   4.286   0.323   5.985
 6232SOL    HW219596   4.303   0.428   6.109
 6233SOL     OW19597   0.093   3.469   1.348
 6233SOL    HW119598   7.018   3.462   1.344
 6233SOL    HW219599   0.123   3.474   1.443
 6234SOL     OW19600   4.650   5.102   4.530
 6234SOL    HW119601   4.713   5.045   4.582
 6234SOL    HW219602   4.631   5.186   4.581
 6235SOL     OW19603   0.458   0.612   2.492
 6235SOL    HW119604   0.523   0.586   2.420
 6235SOL    HW219605   0.463   0.546   2.567
 6236SOL     OW19606   0.132   5.395   1.299
 6236SOL    HW119607   0.073   5.413   1.220
 6236SOL    HW219608   0.143   5.478   1.353
 6237SOL     OW19609   3.405   1.088   1.613
 6237SOL    HW119610   3.350   1.088   1.696
 6237SOL    HW219611   3.481   1.153   1.624
 6238SOL     OW19612   2.335   0.254   4.167
 6238SOL    HW119613   2.407   0.251   4.098
 6238SOL    HW219614   2.375   0.239   4.258
 6239SOL     OW19615   4.513   1.519   4.588
 6239SOL    HW119616   4.531   1.437   4.533
 6239SOL    HW219617   4.416   1.542   4.581
 6240SOL     OW19618   3.455   2.859   4.157
 6240SOL    HW119619   3.357   2.849   4.174
 6240SOL    HW219620   3.480   2.809   4.074
 6241SOL     OW19621   3.371   0.193   3.833
 6241SOL    HW119622   3.285   0.242   3.818
 6241SOL    HW219623   3.355   0.095   3.824
 6242SOL     OW19624   2.441   2.136   3.104
 6242SOL    HW119625   2.367   2.184   3.057
 6242SOL    HW219626   2.492   2.080   3.039
 6243SOL     OW19627   4.330   1.700   6.372
 6243SOL    HW119628   4.356   1.793   6.347
 6243SOL    HW219629   4.412   1.644   6.382
 6244SOL     OW19630   5.001   2.905   2.471
 6244SOL    HW119631   5.094   2.928   2.442
 6244SOL    HW219632   4.936   2.938   2.403
 6245SOL     OW19633   0.251   4.757   2.099
 6245SOL    HW119634   0.319   4.691   2.068
 6245SOL    HW219635   0.178   4.709   2.148
 6246SOL     OW19636   6.849   6.638   3.883
 6246SOL    HW119637   6.794   6.668   3.805
 6246SOL    HW219638   6.790   6.599   3.953
 6247SOL     OW19639   5.998   6.295   3.984
 6247SOL    HW119640   5.959   6.346   4.061
 6247SOL    HW219641   6.079   6.343   3.951
 6248SOL     OW19642   3.620   2.837   5.745
 6248SOL    HW119643   3.605   2.862   5.649
 6248SOL    HW219644   3.545   2.778   5.776
 6249SOL     OW19645   5.961   3.017   2.142
 6249SOL    HW119646   5.890   3.040   2.208
 6249SOL    HW219647   5.919   2.980   2.059
 6250SOL     OW19648   6.384   0.114   6.798
 6250SOL    HW119649   6.330   0.031   6.811
 6250SOL    HW219650   6.369   0.150   6.706
 6251SOL     OW19651   2.553   0.226   4.346
 6251SOL    HW119652   2.598   0.137   4.333
 6251SOL    HW219653   2.590   0.292   4.281
 6252SOL     OW19654   3.313   5.572   6.604
 6252SOL    HW119655   3.302   5.656   6.657
 6252SOL    HW219656   3.286   5.589   6.509
 6253SOL     OW19657   3.756   5.655   4.138
 6253SOL    HW119658   3.847   5.695   4.144
 6253SOL    HW219659   3.712   5.684   4.053
 6254SOL     OW19660   0.386   0.167   1.305
 6254SOL    HW119661   0.301   0.143   1.257
 6254SOL    HW219662   0.380   0.261   1.338
 6255SOL     OW19663   0.999   1.695   0.755
 6255SOL    HW119664   1.083   1.684   0.702
 6255SOL    HW219665   1.021   1.695   0.852
 6256SOL     OW19666   5.417   5.984   2.193
 6256SOL    HW119667   5.375   6.061   2.146
 6256SOL    HW219668   5.487   6.017   2.256
 6257SOL     OW19669   3.166   4.137   0.905
 6257SOL    HW119670   3.097   4.197   0.947
 6257SOL    HW219671   3.233   4.193   0.857
 6258SOL     OW19672   4.546   5.353   5.221
 6258SOL    HW119673   4.626   5.311   5.177
 6258SOL    HW219674   4.563   5.364   5.319
 6259SOL     OW19675   3.696   1.064   4.389
 6259SOL    HW119676   3.716   1.006   4.310
 6259SOL    HW219677   3.781   1.097   4.428
 6260SOL     OW19678   1.870   1.257   6.635
 6260SOL    HW119679   1.896   1.174   6.587
 6260SOL    HW219680   1.780   1.246   6.676
 6261SOL     OW19681   3.753   0.350   0.731
 6261SOL    HW119682   3.790   0.269   0.687
 6261SOL    HW219683   3.677   0.325   0.790
 6262SOL     OW19684   5.904   0.978   2.591
 6262SOL    HW119685   5.947   0.907   2.535
 6262SOL    HW219686   5.831   1.022   2.538
 6263SOL     OW19687   5.701   5.886   5.283
 6263SOL    HW119688   5.795   5.919   5.297
 6263SOL    HW219689   5.660   5.864   5.371
 6264SOL     OW19690   2.444   6.864   6.959
 6264SOL    HW119691   2.369   6.817   7.006
 6264SOL    HW219692   2.432   6.855   6.860
 6265SOL     OW19693   4.733   6.602   6.682
 6265SOL    HW119694   4.767   6.688   6.721
 6265SOL    HW219695   4.691   6.620   6.593
 6266SOL     OW19696   2.959   5.235   3.185
 6266SOL    HW119697   2.911   5.203   3.104
 6266SOL    HW219698   2.935   5.179   3.263
 6267SOL     OW19699   1.729   6.563   4.939
 6267SOL    HW119700   1.707   6.632   5.009
 6267SOL    HW219701   1.644   6.520   4.907
 6268SOL     OW19702   3.025   1.571   0.217
 6268SOL    HW119703   3.077   1.573   0.303
 6268SOL    HW219704   2.992   1.662   0.196
 6269SOL     OW19705   6.386   5.199   0.164
 6269SOL    HW119706   6.383   5.252   0.079
 6269SOL    HW219707   6.466   5.139   0.164
 6270SOL     OW19708   2.120   6.144   0.912
 6270SOL    HW119709   2.079   6.104   0.994
 6270SOL    HW219710   2.189   6.212   0.939
 6271SOL     OW19711   0.040   3.261   5.733
 6271SOL    HW119712   0.009   3.224   5.645
 6271SOL    HW219713   0.065   3.358   5.721
 6272SOL     OW19714   6.999   0.089   0.088
 6272SOL    HW119715   7.010   0.062   7.016
 6272SOL    HW219716   0.005   0.184   0.099
 6273SOL     OW19717   0.739   6.219   1.949
 6273SOL    HW119718   0.743   6.303   1.895
 6273SOL    HW219719   0.813   6.158   1.920
 6274SOL     OW19720   3.045   5.511   3.798
 6274SOL    HW119721   3.119   5.496   3.733
 6274SOL    HW219722   3.027   5.427   3.849
 6275SOL     OW19723   2.979   5.577   6.906
 6275SOL    HW119724   2.887   5.544   6.929
 6275SOL    HW219725   2.990   5.579   6.806
 6276SOL     OW19726   1.650   5.472   2.439
 6276SOL    HW119727   1.745   5.441   2.446
 6276SOL    HW219728   1.593   5.398   2.404
 6277SOL     OW19729   5.578   2.587   1.268
 6277SOL    HW119730   5.590   2.618   1.362
 6277SOL    HW219731   5.664   2.597   1.219
 6278SOL     OW19732   3.744   1.857   0.235
 6278SOL    HW119733   3.801   1.879   0.156
 6278SOL    HW219734   3.678   1.786   0.210
 6279SOL     OW19735   3.593   6.685   1.914
 6279SOL    HW119736   3.626   6.774   1.885
 6279SOL    HW219737   3.514   6.659   1.858
 6280SOL     OW19738   5.573   2.761   6.598
 6280SOL    HW119739   5.498   2.695   6.606
 6280SOL    HW219740   5.553   2.840   6.656
 6281SOL     OW19741   5.420   3.903   5.878
 6281SOL    HW119742   5.506   3.948   5.901
 6281SOL    HW219743   5.387   3.936   5.789
 6282SOL     OW19744   0.308   3.409   5.950
 6282SOL    HW119745   0.339   3.448   5.864
 6282SOL    HW219746   0.369   3.437   6.024
 6283SOL     OW19747   2.002   6.452   4.614
 6283SOL    HW119748   1.932   6.425   4.548
 6283SOL    HW219749   1.989   6.400   4.699
 6284SOL     OW19750   1.109   3.716   5.184
 6284SOL    HW119751   1.165   3.729   5.266
 6284SOL    HW219752   1.108   3.800   5.131
 6285SOL     OW19753   1.540   3.512   3.142
 6285SOL    HW119754   1.568   3.606   3.124
 6285SOL    HW219755   1.454   3.493   3.094
 6286SOL     OW19756   0.531   2.750   6.693
 6286SOL    HW119757   0.442   2.710   6.669
 6286SOL    HW219758   0.566   2.706   6.775
 6287SOL     OW19759   4.674   5.049   5.241
 6287SOL    HW119760   4.746   4.996   5.286
 6287SOL    HW219761   4.715   5.113   5.176
 6288SOL     OW19762   2.619   3.873   6.448
 6288SOL    HW119763   2.641   3.777   6.427
 6288SOL    HW219764   2.561   3.910   6.376
 6289SOL     OW19765   2.109   4.377   5.889
 6289SOL    HW119766   2.173   4.305   5.862
 6289SOL    HW219767   2.016   4.350   5.864
 6290SOL     OW19768   5.931   6.453   4.207
 6290SOL    HW119769   5.923   6.460   4.306
 6290SOL    HW219770   5.863   6.512   4.164
 6291SOL     OW19771   3.920   3.567   2.641
 6291SOL    HW119772   3.969   3.649   2.669
 6291SOL    HW219773   3.982   3.507   2.591
 6292SOL     OW19774   1.537   4.242   3.900
 6292SOL    HW119775   1.621   4.265   3.851
 6292SOL    HW219776   1.552   4.252   3.999
 6293SOL     OW19777   2.740   1.266   6.569
 6293SOL    HW119778   2.827   1.241   6.527
 6293SOL    HW219779   2.687   1.324   6.506
 6294SOL     OW19780   1.752   1.158   2.513
 6294SOL    HW119781   1.817   1.201   2.449
 6294SOL    HW219782   1.803   1.113   2.586
 6295SOL     OW19783   4.677   3.109   6.256
 6295SOL    HW119784   4.717   3.187   6.305
 6295SOL    HW219785   4.639   3.140   6.169
 6296SOL     OW19786   1.039   3.229   0.513
 6296SOL    HW119787   1.075   3.294   0.580
 6296SOL    HW219788   1.096   3.147   0.512
 6297SOL     OW19789   6.388   1.561   4.204
 6297SOL    HW119790   6.431   1.647   4.232
 6297SOL    HW219791   6.376   1.560   4.105
 6298SOL     OW19792   0.226   6.074   0.669
 6298SOL    HW119793   0.148   6.137   0.671
 6298SOL    HW219794   0.218   6.010   0.745
 6299SOL     OW19795   3.553   1.644   3.325
 6299SOL    HW119796   3.537   1.619   3.421
 6299SOL    HW219797   3.511   1.576   3.266
 6300SOL     OW19798   2.970   1.381   6.907
 6300SOL    HW119799   2.936   1.311   6.844
 6300SOL    HW219800   2.965   1.346   7.001
 6301SOL     OW19801   4.662   6.204   0.386
 6301SOL    HW119802   4.733   6.169   0.447
 6301SOL    HW219803   4.693   6.199   0.291
 6302SOL     OW19804   2.433   2.467   6.152
 6302SOL    HW119805   2.456   2.479   6.055
 6302SOL    HW219806   2.410   2.555   6.193
 6303SOL     OW19807   0.491   6.035   4.873
 6303SOL    HW119808   0.422   6.091   4.919
 6303SOL    HW219809   0.566   6.016   4.937
 6304SOL     OW19810   3.747   0.624   4.271
 6304SOL    HW119811   3.733   0.614   4.172
 6304SOL    HW219812   3.672   0.678   4.309
 6305SOL     OW19813   1.242   5.912   5.704
 6305SOL    HW119814   1.281   5.977   5.768
 6305SOL    HW219815   1.314   5.851   5.670
 6306SOL     OW19816   0.424   5.213   4.843
 6306SOL    HW119817   0.328   5.221   4.817
 6306SOL    HW219818   0.459   5.304   4.867
 6307SOL     OW19819   3.381   2.899   2.280
 6307SOL    HW119820   3.296   2.875   2.232
 6307SOL    HW219821   3.458   2.887   2.218
 6308SOL     OW19822   0.110   2.185   0.271
 6308SOL    HW119823   0.139   2.229   0.356
 6308SOL    HW219824   0.169   2.215   0.196
 6309SOL     OW19825   2.338   6.483   5.041
 6309SOL    HW119826   2.393   6.414   5.088
 6309SOL    HW219827   2.246   6.447   5.024
 6310SOL     OW19828   1.326   0.019   2.753
 6310SOL    HW119829   1.244   7.019   2.701
 6310SOL    HW219830   1.321   7.001   2.844
 6311SOL     OW19831   6.166   1.021   6.750
 6311SOL    HW119832   6.176   1.055   6.657
 6311SOL    HW219833   6.255   0.997   6.787
 6312SOL     OW19834   3.470   5.971   0.098
 6312SOL    HW119835   3.372   5.971   0.081
 6312SOL    HW219836   3.506   6.063   0.085
 6313SOL     OW19837   6.273   4.989   4.356
 6313SOL    HW119838   6.218   5.049   4.414
 6313SOL    HW219839   6.276   4.898   4.397
 6314SOL     OW19840   2.057   6.428   2.460
 6314SOL    HW119841   2.137   6.417   2.519
 6314SOL    HW219842   1.978   6.386   2.504
 6315SOL     OW19843   1.872   1.907   3.761
 6315SOL    HW119844   1.849   1.819   3.719
 6315SOL    HW219845   1.862   1.980   3.694
 6316SOL     OW19846   4.557   1.298   4.761
 6316SOL    HW119847   4.547   1.369   4.690
 6316SOL    HW219848   4.654   1.286   4.783
 6317SOL     OW19849   5.454   4.804   2.483
 6317SOL    HW119850   5.357   4.790   2.502
 6317SOL    HW219851   5.467   4.894   2.442
 6318SOL     OW19852   6.637   6.650   0.255
 6318SOL    HW119853   6.631   6.556   0.221
 6318SOL    HW219854   6.732   6.679   0.257
 6319SOL     OW19855   5.419   2.101   4.071
 6319SOL    HW119856   5.409   2.103   4.171
 6319SOL    HW219857   5.399   2.010   4.037
 6320SOL     OW19858   6.166   1.455   5.603
 6320SOL    HW119859   6.255   1.490   5.633
 6320SOL    HW219860   6.101   1.462   5.679
 6321SOL     OW19861   0.201   2.510   0.177
 6321SOL    HW119862   0.192   2.494   0.275
 6321SOL    HW219863   0.181   2.426   0.127
 6322SOL     OW19864   1.028   1.015   2.762
 6322SOL    HW119865   1.127   1.026   2.751
 6322SOL    HW219866   0.993   1.083   2.826
 6323SOL     OW19867   2.241   4.805   0.765
 6323SOL    HW119868   2.250   4.815   0.666
 6323SOL    HW219869   2.324   4.838   0.810
 6324SOL     OW19870   4.475   3.316   1.243
 6324SOL    HW119871   4.400   3.288   1.183
 6324SOL    HW219872   4.440   3.373   1.317
 6325SOL     OW19873   1.413   2.719   3.828
 6325SOL    HW119874   1.487   2.686   3.887
 6325SOL    HW219875   1.354   2.780   3.880
 6326SOL     OW19876   5.194   5.491   5.505
 6326SOL    HW119877   5.272   5.438   5.470
 6326SOL    HW219878   5.110   5.455   5.465
 6327SOL     OW19879   0.137   1.267   3.368
 6327SOL    HW119880   0.111   1.253   3.272
 6327SOL    HW219881   0.171   1.361   3.379
 6328SOL     OW19882   4.320   3.617   5.253
 6328SOL    HW119883   4.418   3.622   5.233
 6328SOL    HW219884   4.308   3.590   5.349
 6329SOL     OW19885   0.413   2.103   5.837
 6329SOL    HW119886   0.405   2.157   5.753
 6329SOL    HW219887   0.406   2.006   5.814
 6330SOL     OW19888   5.027   1.600   3.872
 6330SOL    HW119889   5.046   1.605   3.970
 6330SOL    HW219890   5.113   1.587   3.822
 6331SOL     OW19891   1.010   3.242   3.902
 6331SOL    HW119892   1.063   3.260   3.985
 6331SOL    HW219893   0.992   3.328   3.855
 6332SOL     OW19894   3.343   1.385   6.679
 6332SOL    HW119895   3.267   1.436   6.721
 6332SOL    HW219896   3.411   1.449   6.643
 6333SOL     OW19897   5.998   0.979   1.220
 6333SOL    HW119898   5.914   1.014   1.178
 6333SOL    HW219899   6.066   1.052   1.226
 6334SOL     OW19900   1.444   0.890   1.632
 6334SOL    HW119901   1.469   0.794   1.620
 6334SOL    HW219902   1.371   0.914   1.567
 6335SOL     OW19903   6.514   3.111   6.424
 6335SOL    HW119904   6.607   3.143   6.405
 6335SOL    HW219905   6.463   3.184   6.471
 6336SOL     OW19906   0.516   4.179   5.255
 6336SOL    HW119907   0.591   4.179   5.321
 6336SOL    HW219908   0.554   4.184   5.163
 6337SOL     OW19909   5.244   6.517   5.306
 6337SOL    HW119910   5.333   6.507   5.351
 6337SOL    HW219911   5.195   6.594   5.347
 6338SOL     OW19912   1.155   1.274   3.393
 6338SOL    HW119913   1.091   1.242   3.463
 6338SOL    HW219914   1.110   1.345   3.338
 6339SOL     OW19915   0.531   4.568   3.736
 6339SOL    HW119916   0.517   4.486   3.681
 6339SOL    HW219917   0.517   4.547   3.832
 6340SOL     OW19918   2.647   3.881   0.421
 6340SOL    HW119919   2.696   3.910   0.339
 6340SOL    HW219920   2.713   3.857   0.492
 6341SOL     OW19921   0.601   5.764   1.810
 6341SOL    HW119922   0.540   5.752   1.888
 6341SOL    HW219923   0.684   5.709   1.824
 6342SOL     OW19924   1.768   1.360   1.246
 6342SOL    HW119925   1.703   1.403   1.184
 6342SOL    HW219926   1.860   1.392   1.224
 6343SOL     OW19927   1.126   5.715   0.556
 6343SOL    HW119928   1.042   5.768   0.569
 6343SOL    HW219929   1.148   5.666   0.640
 6344SOL     OW19930   0.341   1.139   3.675
 6344SOL    HW119931   0.361   1.134   3.577
 6344SOL    HW219932   0.272   1.070   3.698
 6345SOL     OW19933   5.817   2.493   2.401
 6345SOL    HW119934   5.788   2.397   2.404
 6345SOL    HW219935   5.791   2.538   2.487
 6346SOL     OW19936   0.141   4.314   5.832
 6346SOL    HW119937   0.044   4.328   5.813
 6346SOL    HW219938   0.155   4.308   5.931
 6347SOL     OW19939   2.296   2.496   3.689
 6347SOL    HW119940   2.268   2.455   3.776
 6347SOL    HW219941   2.284   2.429   3.615
 6348SOL     OW19942   1.208   2.219   6.343
 6348SOL    HW119943   1.242   2.308   6.312
 6348SOL    HW219944   1.274   2.180   6.408
 6349SOL     OW19945   6.681   1.089   0.692
 6349SOL    HW119946   6.606   1.135   0.644
 6349SOL    HW219947   6.730   1.155   0.750
 6350SOL     OW19948   0.915   6.230   1.184
 6350SOL    HW119949   1.012   6.206   1.183
 6350SOL    HW219950   0.896   6.287   1.264
 6351SOL     OW19951   5.984   4.274   1.960
 6351SOL    HW119952   6.014   4.218   1.882
 6351SOL    HW219953   6.063   4.303   2.013
 6352SOL     OW19954   3.513   1.141   4.793
 6352SOL    HW119955   3.474   1.212   4.735
 6352SOL    HW219956   3.606   1.121   4.764
 6353SOL     OW19957   3.488   6.286   5.790
 6353SOL    HW119958   3.438   6.370   5.769
 6353SOL    HW219959   3.537   6.255   5.709
 6354SOL     OW19960   4.838   4.974   2.152
 6354SOL    HW119961   4.922   4.932   2.185
 6354SOL    HW219962   4.825   5.063   2.197
 6355SOL     OW19963   3.452   5.586   0.504
 6355SOL    HW119964   3.358   5.551   0.495
 6355SOL    HW219965   3.450   5.673   0.553
 6356SOL     OW19966   0.237   5.882   6.069
 6356SOL    HW119967   0.223   5.978   6.046
 6356SOL    HW219968   0.309   5.873   6.137
 6357SOL     OW19969   5.365   0.815   2.173
 6357SOL    HW119970   5.329   0.829   2.080
 6357SOL    HW219971   5.387   0.718   2.185
 6358SOL     OW19972   1.204   1.970   5.123
 6358SOL    HW119973   1.167   2.007   5.038
 6358SOL    HW219974   1.161   2.015   5.201
 6359SOL     OW19975   5.389   6.129   1.057
 6359SOL    HW119976   5.412   6.225   1.042
 6359SOL    HW219977   5.298   6.122   1.099
 6360SOL     OW19978   0.820   1.231   1.009
 6360SOL    HW119979   0.855   1.138   1.003
 6360SOL    HW219980   0.849   1.273   1.095
 6361SOL     OW19981   0.783   1.387   0.419
 6361SOL    HW119982   0.874   1.411   0.452
 6361SOL    HW219983   0.732   1.471   0.397
 6362SOL     OW19984   1.423   5.756   0.608
 6362SOL    HW119985   1.329   5.752   0.575
 6362SOL    HW219986   1.480   5.805   0.542
 6363SOL     OW19987   2.187   3.857   2.630
 6363SOL    HW119988   2.237   3.847   2.544
 6363SOL    HW219989   2.145   3.770   2.655
 6364SOL     OW19990   2.454   2.358   4.415
 6364SOL    HW119991   2.429   2.321   4.505
 6364SOL    HW219992   2.370   2.379   4.364
 6365SOL     OW19993   5.729   6.900   3.013
 6365SOL    HW119994   5.708   6.972   3.080
 6365SOL    HW219995   5.680   6.816   3.038
 6366SOL     OW19996   5.703   0.943   4.999
 6366SOL    HW119997   5.801   0.929   5.011
 6366SOL    HW219998   5.683   1.041   5.002
 6367SOL     OW19999   1.199   2.295   3.076
 6367SOL    HW120000   1.142   2.363   3.123
 6367SOL    HW220001   1.193   2.308   2.977
 6368SOL     OW20002   4.934   4.087   4.420
 6368SOL    HW120003   4.949   4.054   4.513
 6368SOL    HW220004   4.977   4.025   4.355
 6369SOL     OW20005   4.497   5.042   0.539
 6369SOL    HW120006   4.530   5.003   0.625
 6369SOL    HW220007   4.533   4.989   0.462
 6370SOL     OW20008   5.463   4.035   4.223
 6370SOL    HW120009   5.553   4.000   4.198
 6370SOL    HW220010   5.393   3.965   4.205
 6371SOL     OW20011   5.523   4.458   1.455
 6371SOL    HW120012   5.521   4.488   1.359
 6371SOL    HW220013   5.593   4.388   1.466
 6372SOL     OW20014   6.368   1.713   1.743
 6372SOL    HW120015   6.454   1.761   1.757
 6372SOL    HW220016   6.356   1.646   1.816
 6373SOL     OW20017   4.916   3.518   1.481
 6373SOL    HW120018   4.846   3.491   1.415
 6373SOL    HW220019   4.950   3.609   1.459
 6374SOL     OW20020   4.705   3.775   6.845
 6374SOL    HW120021   4.781   3.788   6.782
 6374SOL    HW220022   4.677   3.864   6.882
 6375SOL     OW20023   4.781   1.388   2.113
 6375SOL    HW120024   4.778   1.488   2.105
 6375SOL    HW220025   4.873   1.355   2.091
 6376SOL     OW20026   3.290   0.434   0.278
 6376SOL    HW120027   3.263   0.416   0.373
 6376SOL    HW220028   3.226   0.498   0.237
 6377SOL     OW20029   0.610   0.743   0.255
 6377SOL    HW120030   0.511   0.753   0.245
 6377SOL    HW220031   0.631   0.649   0.283
 6378SOL     OW20032   5.376   4.451   2.298
 6378SOL    HW120033   5.293   4.492   2.335
 6378SOL    HW220034   5.455   4.478   2.354
 6379SOL     OW20035   2.296   5.192   6.394
 6379SOL    HW120036   2.317   5.146   6.480
 6379SOL    HW220037   2.283   5.124   6.322
 6380SOL     OW20038   0.425   4.028   5.672
 6380SOL    HW120039   0.507   4.068   5.712
 6380SOL    HW220040   0.444   3.933   5.647
 6381SOL     OW20041   4.304   3.042   0.595
 6381SOL    HW120042   4.372   3.093   0.542
 6381SOL    HW220043   4.311   2.944   0.572
 6382SOL     OW20044   1.506   1.490   0.405
 6382SOL    HW120045   1.566   1.412   0.422
 6382SOL    HW220046   1.560   1.569   0.377
 6383SOL     OW20047   2.336   2.245   2.168
 6383SOL    HW120048   2.321   2.252   2.267
 6383SOL    HW220049   2.403   2.313   2.140
 6384SOL     OW20050   6.364   2.544   1.796
 6384SOL    HW120051   6.334   2.461   1.844
 6384SOL    HW220052   6.284   2.594   1.763
 6385SOL     OW20053   0.025   3.692   0.022
 6385SOL    HW120054   6.960   3.736   0.030
 6385SOL    HW220055   0.073   3.727   6.965
 6386SOL     OW20056   2.881   2.570   0.580
 6386SOL    HW120057   2.869   2.581   0.679
 6386SOL    HW220058   2.795   2.540   0.539
 6387SOL     OW20059   0.532   6.662   0.025
 6387SOL    HW120060   0.551   6.626   0.116
 6387SOL    HW220061   0.616   6.701   7.011
 6388SOL     OW20062   5.742   5.110   1.995
 6388SOL    HW120063   5.733   5.115   2.095
 6388SOL    HW220064   5.838   5.123   1.970
 6389SOL     OW20065   6.572   6.550   0.517
 6389SOL    HW120066   6.584   6.599   0.603
 6389SOL    HW220067   6.618   6.601   0.443
 6390SOL     OW20068   5.445   0.774   0.239
 6390SOL    HW120069   5.353   0.736   0.235
 6390SOL    HW220070   5.441   0.873   0.245
 6391SOL     OW20071   1.447   2.086   5.090
 6391SOL    HW120072   1.517   2.073   5.019
 6391SOL    HW220073   1.368   2.028   5.070
 6392SOL     OW20074   4.083   0.003   3.755
 6392SOL    HW120075   4.028   0.080   3.788
 6392SOL    HW220076   4.176   0.034   3.738
 6393SOL     OW20077   1.516   5.802   6.955
 6393SOL    HW120078   1.457   5.825   0.008
 6393SOL    HW220079   1.518   5.703   6.943
 6394SOL     OW20080   1.780   4.866   1.773
 6394SOL    HW120081   1.695   4.825   1.740
 6394SOL    HW220082   1.777   4.965   1.760
 6395SOL     OW20083   2.189   3.658   3.892
 6395SOL    HW120084   2.166   3.591   3.963
 6395SOL    HW220085   2.186   3.613   3.803
 6396SOL     OW20086   1.481   2.899   5.392
 6396SOL    HW120087   1.444   2.886   5.484
 6396SOL    HW220088   1.563   2.956   5.397
 6397SOL     OW20089   5.675   3.772   4.849
 6397SOL    HW120090   5.621   3.720   4.915
 6397SOL    HW220091   5.665   3.730   4.758
 6398SOL     OW20092   2.397   6.990   2.522
 6398SOL    HW120093   2.412   6.891   2.529
 6398SOL    HW220094   2.430   0.010   2.605
 6399SOL     OW20095   3.265   0.112   6.922
 6399SOL    HW120096   3.192   0.049   6.895
 6399SOL    HW220097   3.243   0.150   7.013
 6400SOL     OW20098   0.460   6.244   3.106
 6400SOL    HW120099   0.501   6.166   3.153
 6400SOL    HW220100   0.428   6.216   3.016
 6401SOL     OW20101   4.232   5.132   2.669
 6401SOL    HW120102   4.206   5.226   2.645
 6401SOL    HW220103   4.331   5.124   2.672
 6402SOL     OW20104   2.621   4.455   5.892
 6402SOL    HW120105   2.716   4.429   5.908
 6402SOL    HW220106   2.606   4.467   5.794
 6403SOL     OW20107   5.052   5.106   5.075
 6403SOL    HW120108   5.133   5.075   5.026
 6403SOL    HW220109   5.024   5.036   5.140
 6404SOL     OW20110   4.650   6.961   1.597
 6404SOL    HW120111   4.707   0.014   1.624
 6404SOL    HW220112   4.627   6.968   1.500
 6405SOL     OW20113   5.097   1.363   3.097
 6405SOL    HW120114   5.052   1.324   3.016
 6405SOL    HW220115   5.137   1.451   3.074
 6406SOL     OW20116   0.671   3.305   2.952
 6406SOL    HW120117   0.763   3.338   2.977
 6406SOL    HW220118   0.603   3.354   3.005
 6407SOL     OW20119   0.347   6.515   2.701
 6407SOL    HW120120   0.265   6.491   2.753
 6407SOL    HW220121   0.380   6.605   2.730
 6408SOL     OW20122   6.726   0.931   1.782
 6408SOL    HW120123   6.773   0.850   1.818
 6408SOL    HW220124   6.720   0.926   1.683
 6409SOL     OW20125   5.008   4.782   3.516
 6409SOL    HW120126   5.024   4.880   3.526
 6409SOL    HW220127   5.037   4.753   3.425
 6410SOL     OW20128   2.118   1.551   0.357
 6410SOL    HW120129   2.108   1.617   0.432
 6410SOL    HW220130   2.028   1.533   0.316
 6411SOL     OW20131   0.503   2.773   2.188
 6411SOL    HW120132   0.492   2.854   2.130
 6411SOL    HW220133   0.490   2.691   2.132
 6412SOL     OW20134   3.540   1.243   0.154
 6412SOL    HW120135   3.593   1.166   0.118
 6412SOL    HW220136   3.475   1.273   0.085
 6413SOL     OW20137   4.824   5.989   3.552
 6413SOL    HW120138   4.880   5.988   3.635
 6413SOL    HW220139   4.821   5.897   3.513
 6414SOL     OW20140   2.544   0.210   0.613
 6414SOL    HW120141   2.511   0.148   0.685
 6414SOL    HW220142   2.623   0.168   0.568
 6415SOL     OW20143   0.668   2.552   3.944
 6415SOL    HW120144   0.691   2.456   3.959
 6415SOL    HW220145   0.716   2.609   4.010
 6416SOL     OW20146   2.761   5.319   6.884
 6416SOL    HW120147   2.775   5.353   6.977
 6416SOL    HW220148   2.849   5.287   6.847
 6417SOL     OW20149   4.225   2.908   6.813
 6417SOL    HW120150   4.297   2.872   6.753
 6417SOL    HW220151   4.238   2.872   6.906
 6418SOL     OW20152   4.903   4.556   0.359
 6418SOL    HW120153   4.872   4.529   0.268
 6418SOL    HW220154   4.823   4.566   0.419
 6419SOL     OW20155   0.756   6.480   6.405
 6419SOL    HW120156   0.693   6.475   6.482
 6419SOL    HW220157   0.774   6.576   6.383
 6420SOL     OW20158   2.388   4.729   4.342
 6420SOL    HW120159   2.320   4.721   4.414
 6420SOL    HW220160   2.402   4.639   4.298
 6421SOL     OW20161   3.980   0.716   2.292
 6421SOL    HW120162   4.064   0.700   2.239
 6421SOL    HW220163   4.004   0.756   2.381
 6422SOL     OW20164   6.469   2.492   4.639
 6422SOL    HW120165   6.378   2.507   4.602
 6422SOL    HW220166   6.530   2.462   4.565
 6423SOL     OW20167   1.267   4.691   4.503
 6423SOL    HW120168   1.326   4.610   4.493
 6423SOL    HW220169   1.238   4.700   4.598
 6424SOL     OW20170   6.487   5.039   5.653
 6424SOL    HW120171   6.549   4.987   5.711
 6424SOL    HW220172   6.394   5.005   5.664
 6425SOL     OW20173   6.750   6.066   4.406
 6425SOL    HW120174   6.705   6.066   4.495
 6425SOL    HW220175   6.849   6.062   4.419
 6426SOL     OW20176   4.259   4.772   4.593
 6426SOL    HW120177   4.308   4.718   4.525
 6426SOL    HW220178   4.313   4.777   4.677
 6427SOL     OW20179   4.000   3.180   3.810
 6427SOL    HW120180   4.044   3.263   3.844
 6427SOL    HW220181   4.054   3.142   3.735
 6428SOL     OW20182   5.515   2.738   0.910
 6428SOL    HW120183   5.540   2.828   0.873
 6428SOL    HW220184   5.598   2.691   0.940
 6429SOL     OW20185   2.464   1.367   5.032
 6429SOL    HW120186   2.424   1.445   5.080
 6429SOL    HW220187   2.392   1.314   4.989
 6430SOL     OW20188   6.305   0.746   5.252
 6430SOL    HW120189   6.398   0.753   5.288
 6430SOL    HW220190   6.241   0.791   5.315
 6431SOL     OW20191   3.802   4.891   2.104
 6431SOL    HW120192   3.783   4.978   2.060
 6431SOL    HW220193   3.758   4.817   2.053
 6432SOL     OW20194   5.283   3.789   6.172
 6432SOL    HW120195   5.242   3.832   6.092
 6432SOL    HW220196   5.231   3.814   6.254
 6433SOL     OW20197   3.058   4.457   5.705
 6433SOL    HW120198   3.089   4.363   5.694
 6433SOL    HW220199   3.104   4.499   5.783
 6434SOL     OW20200   4.957   5.441   6.068
 6434SOL    HW120201   4.934   5.439   6.165
 6434SOL    HW220202   4.873   5.433   6.014
 6435SOL     OW20203   4.405   1.695   1.219
 6435SOL    HW120204   4.324   1.637   1.226
 6435SOL    HW220205   4.376   1.791   1.216
 6436SOL     OW20206   6.810   3.265   3.373
 6436SOL    HW120207   6.903   3.256   3.409
 6436SOL    HW220208   6.798   3.202   3.296
 6437SOL     OW20209   1.217   2.352   5.781
 6437SOL    HW120210   1.222   2.259   5.745
 6437SOL    HW220211   1.129   2.392   5.758
 6438SOL     OW20212   0.545   4.902   6.976
 6438SOL    HW120213   0.463   4.908   0.009
 6438SOL    HW220214   0.574   4.807   6.970
 6439SOL     OW20215   4.942   6.622   3.186
 6439SOL    HW120216   4.893   6.564   3.251
 6439SOL    HW220217   5.039   6.622   3.208
 6440SOL     OW20218   2.926   1.437   6.071
 6440SOL    HW120219   2.882   1.526   6.086
 6440SOL    HW220220   3.013   1.434   6.120
 6441SOL     OW20221   6.842   1.802   2.180
 6441SOL    HW120222   6.793   1.879   2.139
 6441SOL    HW220223   6.780   1.750   2.239
 6442SOL     OW20224   2.595   2.072   4.794
 6442SOL    HW120225   2.567   2.124   4.875
 6442SOL    HW220226   2.569   1.976   4.805
 6443SOL     OW20227   3.871   3.055   6.439
 6443SOL    HW120228   3.964   3.024   6.462
 6443SOL    HW220229   3.867   3.154   6.446
 6444SOL     OW20230   6.583   4.413   4.882
 6444SOL    HW120231   6.671   4.365   4.892
 6444SOL    HW220232   6.511   4.346   4.865
 6445SOL     OW20233   2.966   3.261   3.467
 6445SOL    HW120234   2.904   3.328   3.427
 6445SOL    HW220235   3.029   3.228   3.396
 6446SOL     OW20236   1.338   1.607   6.703
 6446SOL    HW120237   1.373   1.519   6.670
 6446SOL    HW220238   1.392   1.637   6.782
 6447SOL     OW20239   5.929   3.659   2.039
 6447SOL    HW120240   5.948   3.754   2.017
 6447SOL    HW220241   5.976   3.600   1.973
 6448SOL     OW20242   3.943   4.503   0.927
 6448SOL    HW120243   3.873   4.445   0.886
 6448SOL    HW220244   4.034   4.465   0.907
 6449SOL     OW20245   3.088   5.045   0.849
 6449SOL    HW120246   3.078   4.955   0.806
 6449SOL    HW220247   3.053   5.115   0.787
 6450SOL     OW20248   6.588   4.268   6.973
 6450SOL    HW120249   6.531   4.321   0.012
 6450SOL    HW220250   6.664   4.325   6.942
 6451SOL     OW20251   3.684   2.783   1.804
 6451SOL    HW120252   3.730   2.728   1.734
 6451SOL    HW220253   3.748   2.851   1.840
 6452SOL     OW20254   4.089   2.144   4.420
 6452SOL    HW120255   3.996   2.178   4.408
 6452SOL    HW220256   4.138   2.202   4.485
 6453SOL     OW20257   2.077   0.770   2.925
 6453SOL    HW120258   2.034   0.763   2.835
 6453SOL    HW220259   2.041   0.699   2.985
 6454SOL     OW20260   5.150   2.584   3.496
 6454SOL    HW120261   5.247   2.598   3.511
 6454SOL    HW220262   5.109   2.668   3.460
 6455SOL     OW20263   6.679   2.782   4.094
 6455SOL    HW120264   6.728   2.869   4.101
 6455SOL    HW220265   6.642   2.757   4.184
 6456SOL     OW20266   5.738   1.259   2.045
 6456SOL    HW120267   5.700   1.204   1.970
 6456SOL    HW220268   5.816   1.311   2.012
 6457SOL     OW20269   3.425   0.103   2.562
 6457SOL    HW120270   3.421   0.113   2.662
 6457SOL    HW220271   3.478   0.021   2.539
 6458SOL     OW20272   0.007   6.752   4.054
 6458SOL    HW120273   0.020   6.678   4.120
 6458SOL    HW220274   6.975   6.719   3.978
 6459SOL     OW20275   0.929   3.381   3.074
 6459SOL    HW120276   1.011   3.329   3.096
 6459SOL    HW220277   0.903   3.437   3.152
 6460SOL     OW20278   0.267   5.366   6.597
 6460SOL    HW120279   0.291   5.373   6.500
 6460SOL    HW220280   0.300   5.278   6.633
 6461SOL     OW20281   1.430   6.356   0.955
 6461SOL    HW120282   1.346   6.302   0.958
 6461SOL    HW220283   1.433   6.408   0.870
 6462SOL     OW20284   1.660   3.683   5.320
 6462SOL    HW120285   1.717   3.765   5.326
 6462SOL    HW220286   1.648   3.659   5.224
 6463SOL     OW20287   3.704   2.791   1.148
 6463SOL    HW120288   3.684   2.701   1.109
 6463SOL    HW220289   3.782   2.785   1.210
 6464SOL     OW20290   0.844   4.160   3.820
 6464SOL    HW120291   0.764   4.187   3.874
 6464SOL    HW220292   0.860   4.062   3.830
 6465SOL     OW20293   3.445   1.099   3.725
 6465SOL    HW120294   3.361   1.116   3.673
 6465SOL    HW220295   3.422   1.048   3.809
 6466SOL     OW20296   6.303   4.686   0.201
 6466SOL    HW120297   6.347   4.722   0.283
 6466SOL    HW220298   6.368   4.629   0.150
 6467SOL     OW20299   1.972   2.670   6.647
 6467SOL    HW120300   1.994   2.753   6.699
 6467SOL    HW220301   2.042   2.655   6.578
 6468SOL     OW20302   2.651   0.581   1.530
 6468SOL    HW120303   2.629   0.648   1.601
 6468SOL    HW220304   2.579   0.579   1.462
 6469SOL     OW20305   2.164   1.152   1.609
 6469SOL    HW120306   2.135   1.235   1.657
 6469SOL    HW220307   2.249   1.169   1.561
 6470SOL     OW20308   0.016   1.789   7.012
 6470SOL    HW120309   0.084   1.852   6.975
 6470SOL    HW220310   0.051   1.696   7.010
 6471SOL     OW20311   0.383   6.359   5.841
 6471SOL    HW120312   0.409   6.415   5.920
 6471SOL    HW220313   0.464   6.340   5.785
 6472SOL     OW20314   6.809   6.936   2.715
 6472SOL    HW120315   6.745   6.938   2.638
 6472SOL    HW220316   6.854   0.001   2.724
 6473SOL     OW20317   2.503   1.575   3.315
 6473SOL    HW120318   2.410   1.537   3.312
 6473SOL    HW220319   2.501   1.669   3.279
 6474SOL     OW20320   3.847   6.079   4.792
 6474SOL    HW120321   3.895   6.000   4.754
 6474SOL    HW220322   3.904   6.161   4.783
 6475SOL     OW20323   6.026   5.639   2.071
 6475SOL    HW120324   5.956   5.708   2.092
 6475SOL    HW220325   6.113   5.667   2.112
 6476SOL     OW20326   3.626   2.664   6.565
 6476SOL    HW120327   3.673   2.576   6.559
 6476SOL    HW220328   3.554   2.668   6.495
 6477SOL     OW20329   0.304   6.215   1.854
 6477SOL    HW120330   0.277   6.198   1.948
 6477SOL    HW220331   0.400   6.188   1.841
 6478SOL     OW20332   2.777   6.165   0.956
 6478SOL    HW120333   2.713   6.131   1.025
 6478SOL    HW220334   2.764   6.263   0.944
 6479SOL     OW20335   4.386   6.305   3.377
 6479SOL    HW120336   4.352   6.339   3.464
 6479SOL    HW220337   4.468   6.250   3.393
 6480SOL     OW20338   4.068   1.309   6.429
 6480SOL    HW120339   3.997   1.262   6.482
 6480SOL    HW220340   4.147   1.248   6.417
 6481SOL     OW20341   3.694   3.039   2.227
 6481SOL    HW120342   3.711   3.031   2.326
 6481SOL    HW220343   3.711   3.133   2.198
 6482SOL     OW20344   4.962   3.928   5.690
 6482SOL    HW120345   5.005   3.860   5.748
 6482SOL    HW220346   4.870   3.898   5.665
 6483SOL     OW20347   2.228   6.157   5.114
 6483SOL    HW120348   2.238   6.123   5.020
 6483SOL    HW220349   2.313   6.201   5.143
 6484SOL     OW20350   2.862   1.019   3.089
 6484SOL    HW120351   2.786   1.038   3.027
 6484SOL    HW220352   2.831   1.027   3.184
 6485SOL     OW20353   2.698   6.247   5.115
 6485SOL    HW120354   2.699   6.226   5.017
 6485SOL    HW220355   2.780   6.298   5.139
 6486SOL     OW20356   0.424   5.150   2.794
 6486SOL    HW120357   0.398   5.246   2.809
 6486SOL    HW220358   0.517   5.146   2.759
 6487SOL     OW20359   6.945   4.814   3.990
 6487SOL    HW120360   6.883   4.887   4.018
 6487SOL    HW220361   6.895   4.746   3.936
 6488SOL     OW20362   3.893   5.848   4.370
 6488SOL    HW120363   3.902   5.843   4.270
 6488SOL    HW220364   3.866   5.940   4.396
 6489SOL     OW20365   5.308   2.794   5.133
 6489SOL    HW120366   5.392   2.794   5.079
 6489SOL    HW220367   5.248   2.868   5.102
 6490SOL     OW20368   2.162   2.180   0.557
 6490SOL    HW120369   2.153   2.089   0.515
 6490SOL    HW220370   2.182   2.247   0.485
 6491SOL     OW20371   1.949   6.902   1.739
 6491SOL    HW120372   1.865   6.890   1.686
 6491SOL    HW220373   1.939   6.859   1.828
 6492SOL     OW20374   3.795   3.524   4.649
 6492SOL    HW120375   3.795   3.542   4.551
 6492SOL    HW220376   3.786   3.426   4.665
 6493SOL     OW20377   1.229   4.473   4.302
 6493SOL    HW120378   1.249   4.562   4.342
 6493SOL    HW220379   1.160   4.483   4.230
 6494SOL     OW20380   6.488   0.891   1.961
 6494SOL    HW120381   6.569   0.867   1.908
 6494SOL    HW220382   6.409   0.897   1.900
 6495SOL     OW20383   6.655   0.289   3.122
 6495SOL    HW120384   6.574   0.272   3.066
 6495SOL    HW220385   6.668   0.214   3.186
 6496SOL     OW20386   3.398   2.328   1.609
 6496SOL    HW120387   3.376   2.252   1.670
 6496SOL    HW220388   3.441   2.402   1.660
 6497SOL     OW20389   6.938   1.064   0.553
 6497SOL    HW120390   6.976   1.058   0.645
 6497SOL    HW220391   6.845   1.028   0.553
 6498SOL     OW20392   2.262   4.093   4.164
 6498SOL    HW120393   2.230   4.003   4.192
 6498SOL    HW220394   2.287   4.146   4.246
 6499SOL     OW20395   4.952   2.806   3.375
 6499SOL    HW120396   4.885   2.733   3.388
 6499SOL    HW220397   4.905   2.894   3.367
 6500SOL     OW20398   1.636   4.009   3.430
 6500SOL    HW120399   1.681   4.010   3.341
 6500SOL    HW220400   1.634   3.915   3.465
 6501SOL     OW20401   5.691   2.327   2.757
 6501SOL    HW120402   5.652   2.293   2.672
 6501SOL    HW220403   5.701   2.251   2.821
 6502SOL     OW20404   6.811   3.985   2.192
 6502SOL    HW120405   6.746   3.931   2.139
 6502SOL    HW220406   6.808   3.957   2.288
 6503SOL     OW20407   6.989   3.664   5.872
 6503SOL    HW120408   7.019   3.606   5.796
 6503SOL    HW220409   6.939   3.608   5.938
 6504SOL     OW20410   4.025   6.639   6.214
 6504SOL    HW120411   4.032   6.611   6.310
 6504SOL    HW220412   4.013   6.558   6.157
 6505SOL     OW20413   7.014   5.645   0.833
 6505SOL    HW120414   6.933   5.602   0.872
 6505SOL    HW220415   0.068   5.632   0.894
 6506SOL     OW20416   0.892   4.099   2.305
 6506SOL    HW120417   0.904   3.999   2.300
 6506SOL    HW220418   0.875   4.134   2.213
 6507SOL     OW20419   4.354   5.660   0.520
 6507SOL    HW120420   4.322   5.569   0.547
 6507SOL    HW220421   4.287   5.729   0.551
 6508SOL     OW20422   0.461   0.269   3.471
 6508SOL    HW120423   0.388   0.294   3.407
 6508SOL    HW220424   0.440   0.180   3.513
 6509SOL     OW20425   2.678   1.516   6.877
 6509SOL    HW120426   2.661   1.577   6.955
 6509SOL    HW220427   2.764   1.467   6.891
 6510SOL     OW20428   3.177   6.349   5.251
 6510SOL    HW120429   3.178   6.287   5.330
 6510SOL    HW220430   3.259   6.406   5.253
 6511SOL     OW20431   3.023   2.643   0.348
 6511SOL    HW120432   3.060   2.552   0.330
 6511SOL    HW220433   2.986   2.647   0.441
 6512SOL     OW20434   4.501   1.351   0.641
 6512SOL    HW120435   4.505   1.359   0.741
 6512SOL    HW220436   4.411   1.378   0.608
 6513SOL     OW20437   2.629   4.648   3.050
 6513SOL    HW120438   2.581   4.560   3.055
 6513SOL    HW220439   2.675   4.657   2.962
 6514SOL     OW20440   5.362   6.817   5.375
 6514SOL    HW120441   5.406   6.877   5.442
 6514SOL    HW220442   5.414   6.820   5.290
 6515SOL     OW20443   1.088   5.161   2.724
 6515SOL    HW120444   0.991   5.141   2.711
 6515SOL    HW220445   1.098   5.233   2.792
 6516SOL     OW20446   6.454   3.061   2.177
 6516SOL    HW120447   6.391   3.055   2.100
 6516SOL    HW220448   6.427   3.137   2.236
 6517SOL     OW20449   6.916   3.394   0.554
 6517SOL    HW120450   6.943   3.480   0.598
 6517SOL    HW220451   6.983   3.369   0.485
 6518SOL     OW20452   0.644   1.207   1.929
 6518SOL    HW120453   0.585   1.158   1.864
 6518SOL    HW220454   0.590   1.273   1.980
 6519SOL     OW20455   1.239   1.038   3.297
 6519SOL    HW120456   1.246   1.130   3.336
 6519SOL    HW220457   1.143   1.008   3.301
 6520SOL     OW20458   0.535   5.172   0.763
 6520SOL    HW120459   0.537   5.132   0.855
 6520SOL    HW220460   0.443   5.206   0.744
 6521SOL     OW20461   2.008   4.216   4.114
 6521SOL    HW120462   1.973   4.136   4.065
 6521SOL    HW220463   2.105   4.204   4.132
 6522SOL     OW20464   2.583   2.817   5.314
 6522SOL    HW120465   2.566   2.906   5.272
 6522SOL    HW220466   2.635   2.829   5.398
 6523SOL     OW20467   6.073   6.619   0.498
 6523SOL    HW120468   6.169   6.615   0.469
 6523SOL    HW220469   6.068   6.609   0.597
 6524SOL     OW20470   3.026   3.141   1.080
 6524SOL    HW120471   3.050   3.162   1.174
 6524SOL    HW220472   2.927   3.144   1.069
 6525SOL     OW20473   1.063   4.996   3.463
 6525SOL    HW120474   1.103   5.005   3.555
 6525SOL    HW220475   1.117   4.933   3.409
 6526SOL     OW20476   0.578   5.885   0.677
 6526SOL    HW120477   0.619   5.900   0.587
 6526SOL    HW220478   0.547   5.972   0.714
 6527SOL     OW20479   6.747   1.518   0.686
 6527SOL    HW120480   6.716   1.485   0.596
 6527SOL    HW220481   6.709   1.609   0.702
 6528SOL     OW20482   4.108   6.584   0.034
 6528SOL    HW120483   4.187   6.524   0.017
 6528SOL    HW220484   4.036   6.561   6.993
 6529SOL     OW20485   5.128   6.972   2.121
 6529SOL    HW120486   5.097   6.929   2.206
 6529SOL    HW220487   5.224   6.998   2.131
 6530SOL     OW20488   0.560   2.683   3.346
 6530SOL    HW120489   0.529   2.609   3.405
 6530SOL    HW220490   0.630   2.737   3.393
 6531SOL     OW20491   4.109   3.702   4.719
 6531SOL    HW120492   4.043   3.653   4.776
 6531SOL    HW220493   4.201   3.672   4.742
 6532SOL     OW20494   1.712   6.841   0.349
 6532SOL    HW120495   1.735   6.930   0.308
 6532SOL    HW220496   1.728   6.844   0.447
 6533SOL     OW20497   5.069   4.409   2.126
 6533SOL    HW120498   5.034   4.460   2.048
 6533SOL    HW220499   5.106   4.322   2.095
 6534SOL     OW20500   0.289   4.401   3.023
 6534SOL    HW120501   0.226   4.477   3.039
 6534SOL    HW220502   0.245   4.316   3.052
 6535SOL     OW20503   5.099   3.786   4.986
 6535SOL    HW120504   5.025   3.736   4.943
 6535SOL    HW220505   5.110   3.756   5.081
 6536SOL     OW20506   0.663   4.644   5.179
 6536SOL    HW120507   0.564   4.634   5.186
 6536SOL    HW220508   0.692   4.724   5.232
 6537SOL     OW20509   6.291   5.439   3.385
 6537SOL    HW120510   6.257   5.348   3.366
 6537SOL    HW220511   6.236   5.481   3.458
 6538SOL     OW20512   1.192   2.383   4.881
 6538SOL    HW120513   1.181   2.464   4.823
 6538SOL    HW220514   1.283   2.344   4.867
 6539SOL     OW20515   4.576   6.684   6.368
 6539SOL    HW120516   4.546   6.780   6.365
 6539SOL    HW220517   4.659   6.674   6.312
 6540SOL     OW20518   6.649   2.679   5.412
 6540SOL    HW120519   6.575   2.674   5.479
 6540SOL    HW220520   6.713   2.752   5.437
 6541SOL     OW20521   5.382   1.750   5.928
 6541SOL    HW120522   5.435   1.748   6.013
 6541SOL    HW220523   5.391   1.840   5.885
 6542SOL     OW20524   1.281   3.813   2.738
 6542SOL    HW120525   1.364   3.797   2.686
 6542SOL    HW220526   1.231   3.891   2.699
 6543SOL     OW20527   3.698   1.418   4.689
 6543SOL    HW120528   3.612   1.452   4.652
 6543SOL    HW220529   3.734   1.482   4.758
 6544SOL     OW20530   0.631   6.829   0.534
 6544SOL    HW120531   0.711   6.770   0.544
 6544SOL    HW220532   0.616   6.880   0.618
 6545SOL     OW20533   4.740   6.987   1.307
 6545SOL    HW120534   4.750   6.914   1.239
 6545SOL    HW220535   4.824   6.995   1.360
 6546SOL     OW20536   5.016   4.192   6.643
 6546SOL    HW120537   5.028   4.275   6.698
 6546SOL    HW220538   4.953   4.211   6.567
 6547SOL     OW20539   0.605   6.282   5.721
 6547SOL    HW120540   0.632   6.194   5.682
 6547SOL    HW220541   0.672   6.352   5.695
 6548SOL     OW20542   0.162   1.189   6.011
 6548SOL    HW120543   0.074   1.222   5.975
 6548SOL    HW220544   0.145   1.114   6.075
 6549SOL     OW20545   3.960   1.635   2.498
 6549SOL    HW120546   3.983   1.728   2.470
 6549SOL    HW220547   4.002   1.616   2.587
 6550SOL     OW20548   5.984   6.136   2.801
 6550SOL    HW120549   6.017   6.047   2.769
 6550SOL    HW220550   5.889   6.127   2.833
 6551SOL     OW20551   2.839   3.830   0.618
 6551SOL    HW120552   2.857   3.910   0.676
 6551SOL    HW220553   2.861   3.747   0.668
 6552SOL     OW20554   1.875   4.930   0.027
 6552SOL    HW120555   1.780   4.956   0.043
 6552SOL    HW220556   1.922   5.004   7.002
 6553SOL     OW20557   0.553   1.723   3.119
 6553SOL    HW120558   0.522   1.666   3.195
 6553SOL    HW220559   0.477   1.740   3.057
 6554SOL     OW20560   1.453   2.174   4.538
 6554SOL    HW120561   1.530   2.114   4.556
 6554SOL    HW220562   1.486   2.265   4.513
 6555SOL     OW20563   6.779   3.935   4.151
 6555SOL    HW120564   6.839   3.858   4.131
 6555SOL    HW220565   6.814   3.986   4.229
 6556SOL     OW20566   4.832   3.097   2.681
 6556SOL    HW120567   4.820   3.061   2.589
 6556SOL    HW220568   4.801   3.029   2.747
 6557SOL     OW20569   1.731   0.515   2.514
 6557SOL    HW120570   1.828   0.501   2.495
 6557SOL    HW220571   1.709   0.613   2.504
 6558SOL     OW20572   5.396   6.439   6.755
 6558SOL    HW120573   5.438   6.360   6.712
 6558SOL    HW220574   5.327   6.478   6.694
 6559SOL     OW20575   6.796   2.751   6.522
 6559SOL    HW120576   6.797   2.653   6.542
 6559SOL    HW220577   6.852   2.769   6.441
 6560SOL     OW20578   6.136   4.912   0.103
 6560SOL    HW120579   6.102   4.877   0.015
 6560SOL    HW220580   6.197   4.844   0.144
 6561SOL     OW20581   3.217   4.490   0.024
 6561SOL    HW120582   3.212   4.393   0.046
 6561SOL    HW220583   3.125   4.528   0.018
 6562SOL     OW20584   5.471   2.449   1.596
 6562SOL    HW120585   5.442   2.387   1.522
 6562SOL    HW220586   5.495   2.538   1.558
 6563SOL     OW20587   6.288   4.971   5.262
 6563SOL    HW120588   6.353   4.902   5.293
 6563SOL    HW220589   6.264   4.953   5.167
 6564SOL     OW20590   5.687   3.376   2.865
 6564SOL    HW120591   5.746   3.394   2.787
 6564SOL    HW220592   5.630   3.296   2.847
 6565SOL     OW20593   5.236   6.961   3.157
 6565SOL    HW120594   5.206   7.005   3.072
 6565SOL    HW220595   5.157   6.928   3.207
 6566SOL     OW20596   5.196   5.886   3.637
 6566SOL    HW120597   5.153   5.914   3.723
 6566SOL    HW220598   5.247   5.801   3.650
 6567SOL     OW20599   3.941   0.300   2.223
 6567SOL    HW120600   3.884   0.323   2.144
 6567SOL    HW220601   3.905   0.343   2.305
 6568SOL     OW20602   4.468   1.343   0.906
 6568SOL    HW120603   4.499   1.324   0.999
 6568SOL    HW220604   4.387   1.402   0.911
 6569SOL     OW20605   0.899   4.818   4.539
 6569SOL    HW120606   0.956   4.853   4.464
 6569SOL    HW220607   0.953   4.814   4.623
 6570SOL     OW20608   4.367   6.851   2.582
 6570SOL    HW120609   4.465   6.865   2.596
 6570SOL    HW220610   4.343   6.756   2.605
 6571SOL     OW20611   3.358   6.181   3.233
 6571SOL    HW120612   3.372   6.242   3.155
 6571SOL    HW220613   3.354   6.087   3.201
 6572SOL     OW20614   1.616   5.846   4.121
 6572SOL    HW120615   1.643   5.860   4.216
 6572SOL    HW220616   1.540   5.781   4.116
 6573SOL     OW20617   0.663   2.328   3.146
 6573SOL    HW120618   0.656   2.336   3.245
 6573SOL    HW220619   0.647   2.417   3.104
 6574SOL     OW20620   1.912   4.980   2.241
 6574SOL    HW120621   1.936   4.920   2.165
 6574SOL    HW220622   1.849   5.050   2.210
 6575SOL     OW20623   0.070   1.339   3.114
 6575SOL    HW120624   0.047   1.436   3.120
 6575SOL    HW220625   0.012   1.295   3.045
 6576SOL     OW20626   4.700   6.256   1.266
 6576SOL    HW120627   4.741   6.227   1.352
 6576SOL    HW220628   4.611   6.298   1.285
 6577SOL     OW20629   3.269   1.248   3.550
 6577SOL    HW120630   3.190   1.215   3.600
 6577SOL    HW220631   3.239   1.304   3.472
 6578SOL     OW20632   1.035   4.873   0.604
 6578SOL    HW120633   1.103   4.880   0.677
 6578SOL    HW220634   1.005   4.965   0.578
 6579SOL     OW20635   6.850   1.141   4.066
 6579SOL    HW120636   6.844   1.239   4.086
 6579SOL    HW220637   6.763   1.109   4.029
 6580SOL     OW20638   2.301   2.205   0.815
 6580SOL    HW120639   2.277   2.206   0.719
 6580SOL    HW220640   2.396   2.174   0.825
 6581SOL     OW20641   0.195   2.127   0.906
 6581SOL    HW120642   0.155   2.217   0.921
 6581SOL    HW220643   0.161   2.090   0.819
 6582SOL     OW20644   5.981   1.284   2.812
 6582SOL    HW120645   5.886   1.263   2.835
 6582SOL    HW220646   6.028   1.199   2.786
 6583SOL     OW20647   3.385   4.773   0.417
 6583SOL    HW120648   3.312   4.741   0.356
 6583SOL    HW220649   3.373   4.871   0.435
 6584SOL     OW20650   4.052   2.630   6.478
 6584SOL    HW120651   4.111   2.676   6.412
 6584SOL    HW220652   3.957   2.656   6.462
 6585SOL     OW20653   5.517   6.908   2.265
 6585SOL    HW120654   5.449   6.979   2.247
 6585SOL    HW220655   5.543   6.864   2.180
 6586SOL     OW20656   0.133   1.362   6.813
 6586SOL    HW120657   0.099   1.431   6.750
 6586SOL    HW220658   0.233   1.355   6.804
 6587SOL     OW20659   2.296   4.502   5.277
 6587SOL    HW120660   2.382   4.466   5.242
 6587SOL    HW220661   2.278   4.465   5.368
 6588SOL     OW20662   0.307   2.166   0.486
 6588SOL    HW120663   0.355   2.092   0.532
 6588SOL    HW220664   0.348   2.253   0.511
 6589SOL     OW20665   6.875   6.791   2.267
 6589SOL    HW120666   6.916   6.704   2.296
 6589SOL    HW220667   6.837   6.838   2.346
 6590SOL     OW20668   1.107   6.247   4.185
 6590SOL    HW120669   1.169   6.226   4.260
 6590SOL    HW220670   1.023   6.193   4.195
 6591SOL     OW20671   6.312   4.144   3.646
 6591SOL    HW120672   6.389   4.185   3.696
 6591SOL    HW220673   6.300   4.193   3.560
 6592SOL     OW20674   6.213   6.481   3.909
 6592SOL    HW120675   6.247   6.475   4.003
 6592SOL    HW220676   6.289   6.502   3.848
 6593SOL     OW20677   1.398   1.095   1.817
 6593SOL    HW120678   1.438   1.048   1.738
 6593SOL    HW220679   1.411   1.194   1.807
 6594SOL     OW20680   5.091   6.945   6.330
 6594SOL    HW120681   5.063   6.853   6.358
 6594SOL    HW220682   5.133   6.992   6.407
 6595SOL     OW20683   0.604   1.638   5.415
 6595SOL    HW120684   0.630   1.557   5.468
 6595SOL    HW220685   0.536   1.613   5.346
 6596SOL     OW20686   5.216   0.594   2.626
 6596SOL    HW120687   5.282   0.628   2.693
 6596SOL    HW220688   5.155   0.528   2.670
 6597SOL     OW20689   0.790   4.387   1.461
 6597SOL    HW120690   0.848   4.332   1.520
 6597SOL    HW220691   0.709   4.335   1.435
 6598SOL     OW20692   2.034   4.601   4.234
 6598SOL    HW120693   2.032   4.561   4.143
 6598SOL    HW220694   2.039   4.701   4.227
 6599SOL     OW20695   6.719   5.303   6.309
 6599SOL    HW120696   6.722   5.403   6.320
 6599SOL    HW220697   6.662   5.281   6.230
 6600SOL     OW20698   4.593   0.398   5.436
 6600SOL    HW120699   4.552   0.358   5.354
 6600SOL    HW220700   4.686   0.428   5.415
 6601SOL     OW20701   1.444   2.435   1.831
 6601SOL    HW120702   1.406   2.502   1.895
 6601SOL    HW220703   1.479   2.356   1.883
 6602SOL     OW20704   0.642   5.547   1.515
 6602SOL    HW120705   0.587   5.482   1.569
 6602SOL    HW220706   0.726   5.568   1.565
 6603SOL     OW20707   0.142   3.872   2.605
 6603SOL    HW120708   0.126   3.861   2.703
 6603SOL    HW220709   0.238   3.853   2.585
 6604SOL     OW20710   1.446   5.969   3.337
 6604SOL    HW120711   1.422   5.908   3.413
 6604SOL    HW220712   1.522   6.028   3.365
 6605SOL     OW20713   0.186   5.723   1.177
 6605SOL    HW120714   0.246   5.685   1.248
 6605SOL    HW220715   0.131   5.796   1.217
 6606SOL     OW20716   1.933   3.207   3.058
 6606SOL    HW120717   2.011   3.245   3.108
 6606SOL    HW220718   1.923   3.110   3.080
 6607SOL     OW20719   5.786   3.100   3.531
 6607SOL    HW120720   5.697   3.141   3.554
 6607SOL    HW220721   5.827   3.151   3.455
 6608SOL     OW20722   1.522   6.453   5.882
 6608SOL    HW120723   1.544   6.360   5.911
 6608SOL    HW220724   1.604   6.510   5.886
 6609SOL     OW20725   4.583   1.436   6.883
 6609SOL    HW120726   4.612   1.450   6.978
 6609SOL    HW220727   4.533   1.350   6.876
 6610SOL     OW20728   2.756   5.701   1.027
 6610SOL    HW120729   2.837   5.656   1.065
 6610SOL    HW220730   2.739   5.786   1.076
 6611SOL     OW20731   3.477   1.813   4.899
 6611SOL    HW120732   3.433   1.902   4.899
 6611SOL    HW220733   3.571   1.821   4.931
 6612SOL     OW20734   0.446   0.375   6.576
 6612SOL    HW120735   0.442   0.401   6.480
 6612SOL    HW220736   0.509   0.298   6.588
 6613SOL     OW20737   4.179   0.417   0.871
 6613SOL    HW120738   4.091   0.450   0.904
 6613SOL    HW220739   4.186   0.433   0.773
 6614SOL     OW20740   4.269   5.123   0.711
 6614SOL    HW120741   4.188   5.083   0.754
 6614SOL    HW220742   4.325   5.049   0.672
 6615SOL     OW20743   4.086   5.392   5.655
 6615SOL    HW120744   4.130   5.381   5.566
 6615SOL    HW220745   3.993   5.357   5.651
 6616SOL     OW20746   3.765   1.743   6.658
 6616SOL    HW120747   3.831   1.812   6.687
 6616SOL    HW220748   3.796   1.699   6.574
 6617SOL     OW20749   3.714   0.658   3.992
 6617SOL    HW120750   3.637   0.611   3.949
 6617SOL    HW220751   3.754   0.722   3.927
 6618SOL     OW20752   6.015   2.617   4.187
 6618SOL    HW120753   6.079   2.667   4.129
 6618SOL    HW220754   5.923   2.624   4.148
 6619SOL     OW20755   4.755   5.506   3.817
 6619SOL    HW120756   4.708   5.538   3.735
 6619SOL    HW220757   4.704   5.429   3.857
 6620SOL     OW20758   1.444   2.758   3.285
 6620SOL    HW120759   1.479   2.765   3.379
 6620SOL    HW220760   1.415   2.664   3.268
 6621SOL     OW20761   3.606   3.588   3.975
 6621SOL    HW120762   3.627   3.524   4.050
 6621SOL    HW220763   3.573   3.536   3.896
 6622SOL     OW20764   0.590   5.313   1.108
 6622SOL    HW120765   0.539   5.318   1.193
 6622SOL    HW220766   0.549   5.376   1.041
 6623SOL     OW20767   2.906   3.859   4.965
 6623SOL    HW120768   2.848   3.881   4.887
 6623SOL    HW220769   2.960   3.777   4.944
 6624SOL     OW20770   2.598   1.960   2.957
 6624SOL    HW120771   2.697   1.958   2.945
 6624SOL    HW220772   2.570   1.886   3.018
 6625SOL     OW20773   6.154   4.066   5.531
 6625SOL    HW120774   6.127   4.080   5.626
 6625SOL    HW220775   6.186   4.153   5.492
 6626SOL     OW20776   2.963   6.007   5.394
 6626SOL    HW120777   2.969   6.016   5.295
 6626SOL    HW220778   2.869   5.984   5.420
 6627SOL     OW20779   2.022   6.226   4.235
 6627SOL    HW120780   2.037   6.127   4.228
 6627SOL    HW220781   1.947   6.244   4.299
 6628SOL     OW20782   3.655   6.074   4.185
 6628SOL    HW120783   3.638   6.172   4.173
 6628SOL    HW220784   3.720   6.061   4.260
 6629SOL     OW20785   5.147   5.984   6.208
 6629SOL    HW120786   5.186   6.064   6.162
 6629SOL    HW220787   5.107   6.012   6.295
 6630SOL     OW20788   1.552   0.802   7.002
 6630SOL    HW120789   1.506   0.758   0.054
 6630SOL    HW220790   1.650   0.806   7.019
 6631SOL     OW20791   1.759   3.497   6.058
 6631SOL    HW120792   1.725   3.588   6.081
 6631SOL    HW220793   1.711   3.429   6.112
 6632SOL     OW20794   1.498   0.058   0.514
 6632SOL    HW120795   1.453   0.130   0.462
 6632SOL    HW220796   1.446   6.997   0.506
 6633SOL     OW20797   3.832   5.633   6.011
 6633SOL    HW120798   3.815   5.645   5.913
 6633SOL    HW220799   3.907   5.693   6.040
 6634SOL     OW20800   3.645   2.065   3.922
 6634SOL    HW120801   3.672   1.979   3.963
 6634SOL    HW220802   3.663   2.062   3.823
 6635SOL     OW20803   4.935   4.711   4.612
 6635SOL    HW120804   4.862   4.643   4.621
 6635SOL    HW220805   4.942   4.741   4.516
 6636SOL     OW20806   4.344   1.027   0.266
 6636SOL    HW120807   4.290   0.964   0.322
 6636SOL    HW220808   4.309   1.027   0.172
 6637SOL     OW20809   0.562   1.995   0.534
 6637SOL    HW120810   0.557   1.915   0.593
 6637SOL    HW220811   0.614   1.973   0.451
 6638SOL     OW20812   2.930   3.802   3.969
 6638SOL    HW120813   2.924   3.710   3.931
 6638SOL    HW220814   2.952   3.797   4.067
 6639SOL     OW20815   4.925   2.810   0.803
 6639SOL    HW120816   4.936   2.735   0.868
 6639SOL    HW220817   5.013   2.828   0.758
 6640SOL     OW20818   1.621   3.978   4.953
 6640SOL    HW120819   1.596   3.973   5.049
 6640SOL    HW220820   1.710   3.934   4.939
 6641SOL     OW20821   5.614   1.876   1.238
 6641SOL    HW120822   5.668   1.838   1.313
 6641SOL    HW220823   5.527   1.827   1.232
 6642SOL     OW20824   2.168   5.723   0.190
 6642SOL    HW120825   2.082   5.711   0.140
 6642SOL    HW220826   2.148   5.761   0.281
 6643SOL     OW20827   3.679   6.035   6.334
 6643SOL    HW120828   3.750   6.018   6.266
 6643SOL    HW220829   3.611   5.962   6.331
 6644SOL     OW20830   1.991   6.588   3.981
 6644SOL    HW120831   1.952   6.497   3.997
 6644SOL    HW220832   2.070   6.580   3.920
 6645SOL     OW20833   5.935   2.935   6.933
 6645SOL    HW120834   6.011   2.883   6.971
 6645SOL    HW220835   5.961   3.031   6.925
 6646SOL     OW20836   4.151   6.921   5.631
 6646SOL    HW120837   4.168   6.880   5.721
 6646SOL    HW220838   4.201   7.007   5.624
 6647SOL     OW20839   4.058   4.985   1.146
 6647SOL    HW120840   4.019   4.904   1.104
 6647SOL    HW220841   3.995   5.062   1.137
 6648SOL     OW20842   3.111   6.791   5.215
 6648SOL    HW120843   3.146   6.742   5.136
 6648SOL    HW220844   3.130   6.889   5.204
 6649SOL     OW20845   5.095   2.533   6.512
 6649SOL    HW120846   5.055   2.624   6.502
 6649SOL    HW220847   5.022   2.464   6.508
 6650SOL     OW20848   1.805   1.380   4.591
 6650SOL    HW120849   1.751   1.303   4.557
 6650SOL    HW220850   1.743   1.452   4.623
 6651SOL     OW20851   6.765   2.110   6.022
 6651SOL    HW120852   6.672   2.142   6.007
 6651SOL    HW220853   6.767   2.010   6.023
 6652SOL     OW20854   6.643   4.274   0.277
 6652SOL    HW120855   6.723   4.213   0.271
 6652SOL    HW220856   6.559   4.219   0.271
 6653SOL     OW20857   5.683   4.527   0.116
 6653SOL    HW120858   5.657   4.505   0.210
 6653SOL    HW220859   5.661   4.450   0.056
 6654SOL     OW20860   6.476   3.832   3.430
 6654SOL    HW120861   6.439   3.919   3.397
 6654SOL    HW220862   6.430   3.756   3.385
 6655SOL     OW20863   0.331   5.238   1.973
 6655SOL    HW120864   0.361   5.142   1.980
 6655SOL    HW220865   0.284   5.264   2.057
 6656SOL     OW20866   4.344   1.785   3.872
 6656SOL    HW120867   4.268   1.847   3.851
 6656SOL    HW220868   4.370   1.796   3.968
 6657SOL     OW20869   5.553   2.123   3.841
 6657SOL    HW120870   5.498   2.125   3.924
 6657SOL    HW220871   5.550   2.030   3.802
 6658SOL     OW20872   6.798   5.957   5.485
 6658SOL    HW120873   6.779   6.054   5.471
 6658SOL    HW220874   6.891   5.945   5.518
 6659SOL     OW20875   0.989   5.084   1.882
 6659SOL    HW120876   0.933   5.103   1.962
 6659SOL    HW220877   1.038   4.998   1.896
 6660SOL     OW20878   6.923   6.565   4.466
 6660SOL    HW120879   6.844   6.506   4.448
 6660SOL    HW220880   6.941   6.568   4.564
 6661SOL     OW20881   3.998   5.815   4.092
 6661SOL    HW120882   4.012   5.907   4.056
 6661SOL    HW220883   4.071   5.755   4.059
 6662SOL     OW20884   4.109   6.641   2.639
 6662SOL    HW120885   4.197   6.596   2.620
 6662SOL    HW220886   4.035   6.579   2.614
 6663SOL     OW20887   0.573   4.319   5.910
 6663SOL    HW120888   0.475   4.341   5.907
 6663SOL    HW220889   0.625   4.394   5.869
 6664SOL     OW20890   3.020   0.205   0.893
 6664SOL    HW120891   3.111   0.237   0.865
 6664SOL    HW220892   3.018   0.193   0.992
 6665SOL     OW20893   2.754   0.815   6.564
 6665SOL    HW120894   2.842   0.850   6.596
 6665SOL    HW220895   2.732   0.730   6.612
 6666SOL     OW20896   3.931   6.268   5.362
 6666SOL    HW120897   3.952   6.311   5.449
 6666SOL    HW220898   4.002   6.200   5.341
 6667SOL     OW20899   1.120   5.973   6.551
 6667SOL    HW120900   1.129   5.875   6.536
 6667SOL    HW220901   1.181   6.002   6.625
 6668SOL     OW20902   6.839   4.621   0.496
 6668SOL    HW120903   6.898   4.662   0.565
 6668SOL    HW220904   6.802   4.535   0.530
 6669SOL     OW20905   1.155   2.025   2.832
 6669SOL    HW120906   1.121   2.036   2.925
 6669SOL    HW220907   1.236   1.968   2.832
 6670SOL     OW20908   3.717   2.730   0.024
 6670SOL    HW120909   3.809   2.697   0.045
 6670SOL    HW220910   3.703   2.819   0.066
 6671SOL     OW20911   4.279   5.112   0.168
 6671SOL    HW120912   4.227   5.104   0.253
 6671SOL    HW220913   4.285   5.023   0.124
 6672SOL     OW20914   1.136   2.398   1.696
 6672SOL    HW120915   1.236   2.399   1.687
 6672SOL    HW220916   1.108   2.464   1.765
 6673SOL     OW20917   6.305   2.794   3.782
 6673SOL    HW120918   6.305   2.781   3.881
 6673SOL    HW220919   6.230   2.742   3.741
 6674SOL     OW20920   0.705   1.167   0.293
 6674SOL    HW120921   0.751   1.233   0.353
 6674SOL    HW220922   0.700   1.079   0.339
 6675SOL     OW20923   4.893   0.537   6.639
 6675SOL    HW120924   4.812   0.536   6.697
 6675SOL    HW220925   4.870   0.498   6.549
 6676SOL     OW20926   0.908   4.250   4.080
 6676SOL    HW120927   0.898   4.214   3.987
 6676SOL    HW220928   0.995   4.220   4.118
 6677SOL     OW20929   0.759   1.605   6.429
 6677SOL    HW120930   0.682   1.547   6.457
 6677SOL    HW220931   0.771   1.678   6.496
 6678SOL     OW20932   2.530   4.238   6.173
 6678SOL    HW120933   2.620   4.275   6.200
 6678SOL    HW220934   2.541   4.181   6.092
 6679SOL     OW20935   1.500   1.064   3.674
 6679SOL    HW120936   1.409   1.051   3.712
 6679SOL    HW220937   1.531   0.979   3.631
 6680SOL     OW20938   6.360   6.630   1.225
 6680SOL    HW120939   6.339   6.591   1.314
 6680SOL    HW220940   6.443   6.686   1.231
 6681SOL     OW20941   3.343   6.146   1.761
 6681SOL    HW120942   3.297   6.197   1.834
 6681SOL    HW220943   3.324   6.048   1.772
 6682SOL     OW20944   3.561   5.698   5.721
 6682SOL    HW120945   3.659   5.717   5.716
 6682SOL    HW220946   3.547   5.606   5.757
 6683SOL     OW20947   6.731   4.678   6.088
 6683SOL    HW120948   6.786   4.740   6.032
 6683SOL    HW220949   6.709   4.722   6.175
 6684SOL     OW20950   3.292   6.286   0.441
 6684SOL    HW120951   3.353   6.277   0.362
 6684SOL    HW220952   3.347   6.287   0.525
 6685SOL     OW20953   5.137   2.836   0.041
 6685SOL    HW120954   5.139   2.808   6.970
 6685SOL    HW220955   5.124   2.756   0.100
 6686SOL     OW20956   4.950   5.133   4.605
 6686SOL    HW120957   4.889   5.057   4.629
 6686SOL    HW220958   5.019   5.100   4.540
 6687SOL     OW20959   6.706   1.869   1.500
 6687SOL    HW120960   6.646   1.945   1.476
 6687SOL    HW220961   6.750   1.834   1.417
 6688SOL     OW20962   4.672   4.969   1.227
 6688SOL    HW120963   4.685   5.037   1.155
 6688SOL    HW220964   4.659   5.015   1.314
 6689SOL     OW20965   2.256   4.687   5.857
 6689SOL    HW120966   2.308   4.666   5.940
 6689SOL    HW220967   2.298   4.766   5.811
 6690SOL     OW20968   0.516   7.023   6.110
 6690SOL    HW120969   0.495   0.036   6.019
 6690SOL    HW220970   0.431   7.011   6.161
 6691SOL     OW20971   3.122   2.063   2.518
 6691SOL    HW120972   3.034   2.018   2.534
 6691SOL    HW220973   3.121   2.105   2.427
 6692SOL     OW20974   4.029   5.484   2.215
 6692SOL    HW120975   4.095   5.416   2.248
 6692SOL    HW220976   3.980   5.522   2.294
 6693SOL     OW20977   3.652   1.661   5.114
 6693SOL    HW120978   3.624   1.604   5.191
 6693SOL    HW220979   3.679   1.603   5.037
 6694SOL     OW20980   3.443   4.172   1.892
 6694SOL    HW120981   3.388   4.255   1.897
 6694SOL    HW220982   3.455   4.134   1.984
 6695SOL     OW20983   2.647   2.019   0.547
 6695SOL    HW120984   2.680   2.032   0.640
 6695SOL    HW220985   2.637   2.108   0.502
 6696SOL     OW20986   4.125   3.377   4.332
 6696SOL    HW120987   4.042   3.372   4.277
 6696SOL    HW220988   4.199   3.329   4.284
 6697SOL     OW20989   4.053   2.221   2.157
 6697SOL    HW120990   4.031   2.295   2.094
 6697SOL    HW220991   4.123   2.162   2.116
 6698SOL     OW20992   3.193   4.282   1.485
 6698SOL    HW120993   3.138   4.353   1.441
 6698SOL    HW220994   3.287   4.313   1.492
 6699SOL     OW20995   1.153   4.110   5.251
 6699SOL    HW120996   1.168   4.099   5.350
 6699SOL    HW220997   1.055   4.104   5.232
 6700SOL     OW20998   5.555   0.306   0.248
 6700SOL    HW120999   5.654   0.290   0.255
 6700SOL    HW221000   5.507   0.218   0.247
 6701SOL     OW21001   6.181   6.914   1.462
 6701SOL    HW121002   6.150   6.882   1.373
 6701SOL    HW221003   6.245   6.990   1.450
 6702SOL     OW21004   3.351   2.632   1.142
 6702SOL    HW121005   3.308   2.605   1.055
 6702SOL    HW221006   3.293   2.700   1.187
 6703SOL     OW21007   0.249   1.285   0.253
 6703SOL    HW121008   0.173   1.231   0.287
 6703SOL    HW221009   0.221   1.334   0.170
 6704SOL     OW21010   3.271   6.867   6.170
 6704SOL    HW121011   3.349   6.898   6.224
 6704SOL    HW221012   3.299   6.853   6.075
 6705SOL     OW21013   0.259   4.252   2.309
 6705SOL    HW121014   0.297   4.177   2.364
 6705SOL    HW221015   0.169   4.225   2.274
 6706SOL     OW21016   0.362   6.634   1.583
 6706SOL    HW121017   0.277   6.583   1.567
 6706SOL    HW221018   0.360   6.720   1.532
 6707SOL     OW21019   5.131   1.387   2.418
 6707SOL    HW121020   5.166   1.293   2.414
 6707SOL    HW221021   5.047   1.389   2.472
 6708SOL     OW21022   0.812   3.831   0.688
 6708SOL    HW121023   0.795   3.764   0.759
 6708SOL    HW221024   0.882   3.896   0.719
 6709SOL     OW21025   2.220   4.155   2.366
 6709SOL    HW121026   2.219   4.074   2.308
 6709SOL    HW221027   2.280   4.224   2.325
 6710SOL     OW21028   4.889   1.598   0.801
 6710SOL    HW121029   4.940   1.528   0.751
 6710SOL    HW221030   4.941   1.683   0.802
 6711SOL     OW21031   3.290   5.817   6.790
 6711SOL    HW121032   3.388   5.799   6.781
 6711SOL    HW221033   3.254   5.765   6.867
 6712SOL     OW21034   5.800   3.958   1.474
 6712SOL    HW121035   5.877   3.909   1.515
 6712SOL    HW221036   5.715   3.933   1.521
 6713SOL     OW21037   1.638   5.010   4.581
 6713SOL    HW121038   1.628   5.021   4.680
 6713SOL    HW221039   1.563   4.954   4.546
 6714SOL     OW21040   4.936   1.189   1.291
 6714SOL    HW121041   4.855   1.143   1.256
 6714SOL    HW221042   4.914   1.285   1.310
 6715SOL     OW21043   1.969   0.664   6.743
 6715SOL    HW121044   1.930   0.572   6.731
 6715SOL    HW221045   2.064   0.656   6.772
 6716SOL     OW21046   6.723   6.148   2.355
 6716SOL    HW121047   6.746   6.229   2.409
 6716SOL    HW221048   6.762   6.157   2.263
 6717SOL     OW21049   6.043   1.847   5.685
 6717SOL    HW121050   5.988   1.764   5.683
 6717SOL    HW221051   6.033   1.892   5.774
 6718SOL     OW21052   4.194   1.305   1.110
 6718SOL    HW121053   4.184   1.299   1.011
 6718SOL    HW221054   4.117   1.259   1.154
 6719SOL     OW21055   2.353   1.112   0.405
 6719SOL    HW121056   2.385   1.068   0.489
 6719SOL    HW221057   2.365   1.211   0.413
 6720SOL     OW21058   1.604   1.019   6.136
 6720SOL    HW121059   1.681   0.974   6.181
 6720SOL    HW221060   1.599   1.115   6.164
 6721SOL     OW21061   5.938   0.671   0.622
 6721SOL    HW121062   5.921   0.625   0.535
 6721SOL    HW221063   6.034   0.699   0.627
 6722SOL     OW21064   5.420   3.778   6.840
 6722SOL    HW121065   5.343   3.770   6.903
 6722SOL    HW221066   5.504   3.751   6.886
 6723SOL     OW21067   0.949   2.432   5.719
 6723SOL    HW121068   0.924   2.404   5.626
 6723SOL    HW221069   0.902   2.518   5.741
 6724SOL     OW21070   2.081   3.625   4.395
 6724SOL    HW121071   2.050   3.656   4.485
 6724SOL    HW221072   2.030   3.543   4.369
 6725SOL     OW21073   5.326   2.679   3.139
 6725SOL    HW121074   5.384   2.662   3.219
 6725SOL    HW221075   5.264   2.602   3.125
 6726SOL     OW21076   0.413   0.473   5.401
 6726SOL    HW121077   0.477   0.543   5.371
 6726SOL    HW221078   0.464   0.389   5.424
 6727SOL     OW21079   1.465   5.007   5.471
 6727SOL    HW121080   1.440   5.049   5.559
 6727SOL    HW221081   1.502   4.916   5.488
 6728SOL     OW21082   3.340   1.634   2.869
 6728SOL    HW121083   3.379   1.545   2.846
 6728SOL    HW221084   3.378   1.703   2.807
 6729SOL     OW21085   4.347   1.287   2.091
 6729SOL    HW121086   4.322   1.257   1.999
 6729SOL    HW221087   4.443   1.265   2.109
 6730SOL     OW21088   0.286   1.076   0.852
 6730SOL    HW121089   0.330   1.164   0.835
 6730SOL    HW221090   0.348   1.002   0.825
 6731SOL     OW21091   3.761   0.139   6.256
 6731SOL    HW121092   3.841   0.123   6.197
 6731SOL    HW221093   3.791   0.143   6.351
 6732SOL     OW21094   6.653   5.485   5.292
 6732SOL    HW121095   6.701   5.438   5.366
 6732SOL    HW221096   6.620   5.417   5.226
 6733SOL     OW21097   4.782   4.289   5.937
 6733SOL    HW121098   4.724   4.330   5.866
 6733SOL    HW221099   4.871   4.267   5.897
 6734SOL     OW21100   6.092   1.937   4.168
 6734SOL    HW121101   6.071   1.967   4.261
 6734SOL    HW221102   6.154   2.003   4.125
 6735SOL     OW21103   6.644   2.582   3.055
 6735SOL    HW121104   6.631   2.495   3.101
 6735SOL    HW221105   6.715   2.635   3.103
 6736SOL     OW21106   3.771   3.356   0.463
 6736SOL    HW121107   3.703   3.428   0.479
 6736SOL    HW221108   3.755   3.281   0.527
 6737SOL     OW21109   0.054   3.410   0.336
 6737SOL    HW121110   0.011   3.417   0.246
 6737SOL    HW221111   0.121   3.484   0.348
 6738SOL     OW21112   1.256   6.223   3.924
 6738SOL    HW121113   1.284   6.137   3.881
 6738SOL    HW221114   1.175   6.207   3.981
 6739SOL     OW21115   6.784   0.049   4.836
 6739SOL    HW121116   6.741   6.984   4.821
 6739SOL    HW221117   6.846   0.070   4.761
 6740SOL     OW21118   0.620   6.757   3.042
 6740SOL    HW121119   0.526   6.726   3.055
 6740SOL    HW221120   0.631   6.849   3.079
 6741SOL     OW21121   4.214   1.916   6.833
 6741SOL    HW121122   4.260   1.998   6.801
 6741SOL    HW221123   4.188   1.928   6.929
 6742SOL     OW21124   5.836   4.700   3.624
 6742SOL    HW121125   5.852   4.665   3.532
 6742SOL    HW221126   5.747   4.746   3.627
 6743SOL     OW21127   4.086   3.670   0.851
 6743SOL    HW121128   4.129   3.652   0.939
 6743SOL    HW221129   4.112   3.598   0.786
 6744SOL     OW21130   6.646   6.954   6.024
 6744SOL    HW121131   6.576   6.997   6.081
 6744SOL    HW221132   6.632   6.854   6.025
 6745SOL     OW21133   0.185   4.502   5.600
 6745SOL    HW121134   0.207   4.531   5.507
 6745SOL    HW221135   0.172   4.403   5.602
 6746SOL     OW21136   0.849   2.276   2.535
 6746SOL    HW121137   0.841   2.317   2.444
 6746SOL    HW221138   0.900   2.190   2.528
 6747SOL     OW21139   1.846   6.214   5.780
 6747SOL    HW121140   1.773   6.151   5.805
 6747SOL    HW221141   1.909   6.169   5.717
 6748SOL     OW21142   2.075   1.234   4.540
 6748SOL    HW121143   1.990   1.274   4.573
 6748SOL    HW221144   2.056   1.176   4.460
 6749SOL     OW21145   3.824   5.059   1.731
 6749SOL    HW121146   3.803   5.059   1.633
 6749SOL    HW221147   3.810   4.967   1.767
 6750SOL     OW21148   3.902   1.425   5.306
 6750SOL    HW121149   3.945   1.371   5.377
 6750SOL    HW221150   3.803   1.413   5.310
 6751SOL     OW21151   4.978   0.166   4.137
 6751SOL    HW121152   4.920   0.247   4.128
 6751SOL    HW221153   5.044   0.165   4.063
 6752SOL     OW21154   2.216   4.858   2.045
 6752SOL    HW121155   2.235   4.819   2.135
 6752SOL    HW221156   2.301   4.869   1.994
 6753SOL     OW21157   3.778   3.332   5.586
 6753SOL    HW121158   3.777   3.272   5.666
 6753SOL    HW221159   3.723   3.414   5.604
 6754SOL     OW21160   6.698   1.332   0.853
 6754SOL    HW121161   6.598   1.326   0.852
 6754SOL    HW221162   6.727   1.415   0.807
 6755SOL     OW21163   2.704   5.858   6.127
 6755SOL    HW121164   2.721   5.930   6.060
 6755SOL    HW221165   2.789   5.809   6.146
 6756SOL     OW21166   2.227   2.153   5.630
 6756SOL    HW121167   2.154   2.085   5.641
 6756SOL    HW221168   2.254   2.157   5.533
 6757SOL     OW21169   3.909   6.684   0.729
 6757SOL    HW121170   3.892   6.606   0.790
 6757SOL    HW221171   3.853   6.675   0.647
 6758SOL     OW21172   5.204   1.715   3.226
 6758SOL    HW121173   5.253   1.779   3.285
 6758SOL    HW221174   5.166   1.640   3.282
 6759SOL     OW21175   0.087   2.542   2.402
 6759SOL    HW121176   0.016   2.501   2.345
 6759SOL    HW221177   0.177   2.509   2.373
 6760SOL     OW21178   5.087   2.853   4.209
 6760SOL    HW121179   5.024   2.829   4.283
 6760SOL    HW221180   5.035   2.879   4.128
 6761SOL     OW21181   4.063   1.884   4.687
 6761SOL    HW121182   4.132   1.940   4.640
 6761SOL    HW221183   4.099   1.792   4.702
 6762SOL     OW21184   6.772   5.707   3.852
 6762SOL    HW121185   6.858   5.694   3.900
 6762SOL    HW221186   6.699   5.722   3.918
 6763SOL     OW21187   5.435   5.142   5.138
 6763SOL    HW121188   5.381   5.096   5.067
 6763SOL    HW221189   5.506   5.198   5.095
 6764SOL     OW21190   1.497   5.409   0.836
 6764SOL    HW121191   1.569   5.409   0.905
 6764SOL    HW221192   1.534   5.441   0.749
 6765SOL     OW21193   0.098   5.092   3.043
 6765SOL    HW121194   0.091   5.071   3.141
 6765SOL    HW221195   0.179   5.046   3.006
 6766SOL     OW21196   6.041   0.810   0.913
 6766SOL    HW121197   6.068   0.822   1.008
 6766SOL    HW221198   6.077   0.886   0.858
 6767SOL     OW21199   3.147   0.620   0.439
 6767SOL    HW121200   3.142   0.659   0.347
 6767SOL    HW221201   3.060   0.576   0.462
 6768SOL     OW21202   2.273   0.714   0.769
 6768SOL    HW121203   2.209   0.716   0.846
 6768SOL    HW221204   2.227   0.744   0.686
 6769SOL     OW21205   4.091   2.964   1.652
 6769SOL    HW121206   4.102   3.010   1.564
 6769SOL    HW221207   4.156   3.001   1.718
 6770SOL     OW21208   0.472   0.109   1.889
 6770SOL    HW121209   0.538   0.139   1.957
 6770SOL    HW221210   0.520   0.056   1.818
 6771SOL     OW21211   3.967   2.180   3.172
 6771SOL    HW121212   3.936   2.125   3.249
 6771SOL    HW221213   3.894   2.189   3.105
 6772SOL     OW21214   3.088   1.548   2.799
 6772SOL    HW121215   3.175   1.544   2.848
 6772SOL    HW221216   3.028   1.476   2.833
 6773SOL     OW21217   0.738   4.247   1.871
 6773SOL    HW121218   0.678   4.196   1.934
 6773SOL    HW221219   0.693   4.331   1.843
 6774SOL     OW21220   0.601   1.699   6.678
 6774SOL    HW121221   0.655   1.635   6.732
 6774SOL    HW221222   0.526   1.650   6.632
 6775SOL     OW21223   2.534   4.762   0.488
 6775SOL    HW121224   2.555   4.671   0.521
 6775SOL    HW221225   2.606   4.792   0.425
 6776SOL     OW21226   6.182   5.608   0.059
 6776SOL    HW121227   6.205   5.556   0.142
 6776SOL    HW221228   6.102   5.567   0.016
 6777SOL     OW21229   4.951   4.652   6.722
 6777SOL    HW121230   4.960   4.692   6.630
 6777SOL    HW221231   5.026   4.684   6.779
 6778SOL     OW21232   0.765   5.928   2.954
 6778SOL    HW121233   0.836   5.859   2.945
 6778SOL    HW221234   0.800   6.017   2.925
 6779SOL     OW21235   0.304   4.254   0.294
 6779SOL    HW121236   0.363   4.179   0.262
 6779SOL    HW221237   0.361   4.326   0.334
 6780SOL     OW21238   0.264   2.613   1.872
 6780SOL    HW121239   0.216   2.700   1.883
 6780SOL    HW221240   0.221   2.544   1.929
 6781SOL     OW21241   5.642   4.980   5.780
 6781SOL    HW121242   5.620   4.901   5.837
 6781SOL    HW221243   5.641   5.063   5.837
 6782SOL     OW21244   6.199   1.458   2.739
 6782SOL    HW121245   6.285   1.409   2.721
 6782SOL    HW221246   6.141   1.403   2.798
 6783SOL     OW21247   0.667   5.854   6.558
 6783SOL    HW121248   0.711   5.930   6.510
 6783SOL    HW221249   0.655   5.777   6.495
 6784SOL     OW21250   3.361   3.100   0.146
 6784SOL    HW121251   3.452   3.079   0.111
 6784SOL    HW221252   3.335   3.031   0.213
 6785SOL     OW21253   5.599   6.267   2.323
 6785SOL    HW121254   5.531   6.334   2.293
 6785SOL    HW221255   5.686   6.313   2.339
 6786SOL     OW21256   2.293   3.132   5.842
 6786SOL    HW121257   2.386   3.167   5.836
 6786SOL    HW221258   2.262   3.102   5.751
 6787SOL     OW21259   1.446   3.871   2.442
 6787SOL    HW121260   1.511   3.810   2.397
 6787SOL    HW221261   1.496   3.933   2.503
 6788SOL     OW21262   2.927   3.589   0.744
 6788SOL    HW121263   2.961   3.621   0.832
 6788SOL    HW221264   2.986   3.516   0.710
 6789SOL     OW21265   0.561   6.454   2.524
 6789SOL    HW121266   0.637   6.471   2.586
 6789SOL    HW221267   0.475   6.455   2.576
 6790SOL     OW21268   1.884   2.778   0.335
 6790SOL    HW121269   1.946   2.737   0.402
 6790SOL    HW221270   1.935   2.803   0.253
 6791SOL     OW21271   4.657   3.569   6.139
 6791SOL    HW121272   4.625   3.584   6.233
 6791SOL    HW221273   4.620   3.641   6.080
 6792SOL     OW21274   6.789   5.503   0.907
 6792SOL    HW121275   6.759   5.412   0.937
 6792SOL    HW221276   6.715   5.569   0.923
 6793SOL     OW21277   6.910   2.390   1.705
 6793SOL    HW121278   6.945   2.317   1.647
 6793SOL    HW221279   6.982   2.457   1.721
 6794SOL     OW21280   4.773   1.401   5.498
 6794SOL    HW121281   4.677   1.386   5.473
 6794SOL    HW221282   4.805   1.487   5.457
 6795SOL     OW21283   3.180   5.698   7.009
 6795SOL    HW121284   3.152   5.790   0.015
 6795SOL    HW221285   3.101   5.651   6.969
 6796SOL     OW21286   4.342   1.854   3.238
 6796SOL    HW121287   4.365   1.904   3.321
 6796SOL    HW221288   4.249   1.878   3.210
 6797SOL     OW21289   5.925   3.190   2.636
 6797SOL    HW121290   5.878   3.266   2.592
 6797SOL    HW221291   5.955   3.125   2.566
 6798SOL     OW21292   5.852   6.345   2.411
 6798SOL    HW121293   5.926   6.367   2.474
 6798SOL    HW221294   5.875   6.261   2.361
 6799SOL     OW21295   5.563   6.327   0.685
 6799SOL    HW121296   5.469   6.336   0.652
 6799SOL    HW221297   5.625   6.313   0.608
 6800SOL     OW21298   2.565   4.759   7.022
 6800SOL    HW121299   2.541   4.682   6.962
 6800SOL    HW221300   2.643   4.733   0.056
 6801SOL     OW21301   1.737   2.099   2.308
 6801SOL    HW121302   1.787   2.089   2.394
 6801SOL    HW221303   1.794   2.067   2.232
 6802SOL     OW21304   2.320   6.240   2.214
 6802SOL    HW121305   2.345   6.243   2.311
 6802SOL    HW221306   2.243   6.302   2.198
 6803SOL     OW21307   5.456   1.913   6.934
 6803SOL    HW121308   5.470   1.843   7.004
 6803SOL    HW221309   5.405   1.989   6.973
 6804SOL     OW21310   1.795   6.224   3.628
 6804SOL    HW121311   1.852   6.287   3.575
 6804SOL    HW221312   1.776   6.142   3.574
 6805SOL     OW21313   5.864   0.385   4.752
 6805SOL    HW121314   5.934   0.417   4.816
 6805SOL    HW221315   5.905   0.368   4.663
 6806SOL     OW21316   4.621   1.141   5.542
 6806SOL    HW121317   4.664   1.103   5.460
 6806SOL    HW221318   4.529   1.175   5.518
 6807SOL     OW21319   3.069   3.017   0.336
 6807SOL    HW121320   3.024   2.994   0.249
 6807SOL    HW221321   3.049   3.113   0.358
 6808SOL     OW21322   1.042   3.042   5.741
 6808SOL    HW121323   0.971   2.972   5.744
 6808SOL    HW221324   1.131   2.999   5.730
 6809SOL     OW21325   2.173   3.575   6.692
 6809SOL    HW121326   2.177   3.491   6.637
 6809SOL    HW221327   2.165   3.551   6.789
 6810SOL     OW21328   6.186   1.245   2.094
 6810SOL    HW121329   6.282   1.238   2.120
 6810SOL    HW221330   6.130   1.191   2.156
 6811SOL     OW21331   5.615   5.354   1.562
 6811SOL    HW121332   5.619   5.378   1.659
 6811SOL    HW221333   5.625   5.255   1.552
 6812SOL     OW21334   3.333   3.699   3.208
 6812SOL    HW121335   3.406   3.667   3.148
 6812SOL    HW221336   3.349   3.667   3.301
 6813SOL     OW21337   4.302   3.186   0.835
 6813SOL    HW121338   4.399   3.170   0.853
 6813SOL    HW221339   4.268   3.115   0.773
 6814SOL     OW21340   2.279   3.379   0.734
 6814SOL    HW121341   2.343   3.422   0.670
 6814SOL    HW221342   2.275   3.281   0.715
 6815SOL     OW21343   1.950   0.365   2.113
 6815SOL    HW121344   1.916   0.457   2.132
 6815SOL    HW221345   2.008   0.335   2.189
 6816SOL     OW21346   6.452   4.536   1.266
 6816SOL    HW121347   6.461   4.477   1.186
 6816SOL    HW221348   6.387   4.496   1.330
 6817SOL     OW21349   0.254   1.633   6.024
 6817SOL    HW121350   0.273   1.543   6.063
 6817SOL    HW221351   0.320   1.699   6.060
 6818SOL     OW21352   3.680   6.187   3.005
 6818SOL    HW121353   3.712   6.230   3.089
 6818SOL    HW221354   3.758   6.160   2.949
 6819SOL     OW21355   3.626   1.319   4.011
 6819SOL    HW121356   3.669   1.328   3.921
 6819SOL    HW221357   3.526   1.321   4.001
 6820SOL     OW21358   0.840   4.489   3.514
 6820SOL    HW121359   0.926   4.438   3.506
 6820SOL    HW221360   0.766   4.434   3.474
 6821SOL     OW21361   2.728   1.955   4.382
 6821SOL    HW121362   2.634   1.989   4.395
 6821SOL    HW221363   2.793   2.027   4.403
 6822SOL     OW21364   5.496   1.988   5.843
 6822SOL    HW121365   5.563   1.971   5.770
 6822SOL    HW221366   5.419   2.039   5.805
 6823SOL     OW21367   2.906   3.504   3.353
 6823SOL    HW121368   2.987   3.481   3.300
 6823SOL    HW221369   2.833   3.536   3.292
 6824SOL     OW21370   0.910   4.055   6.915
 6824SOL    HW121371   0.933   4.005   6.832
 6824SOL    HW221372   0.836   4.120   6.896
 6825SOL     OW21373   5.107   0.402   2.780
 6825SOL    HW121374   5.034   0.343   2.746
 6825SOL    HW221375   5.131   0.375   2.873
 6826SOL     OW21376   1.412   3.225   2.900
 6826SOL    HW121377   1.415   3.200   2.803
 6826SOL    HW221378   1.425   3.142   2.955
 6827SOL     OW21379   6.046   5.026   5.377
 6827SOL    HW121380   6.124   5.021   5.315
 6827SOL    HW221381   6.068   4.979   5.462
 6828SOL     OW21382   1.643   2.613   1.181
 6828SOL    HW121383   1.565   2.642   1.236
 6828SOL    HW221384   1.728   2.649   1.220
 6829SOL     OW21385   4.746   5.857   3.946
 6829SOL    HW121386   4.772   5.770   3.905
 6829SOL    HW221387   4.824   5.920   3.943
 6830SOL     OW21388   5.453   2.609   4.000
 6830SOL    HW121389   5.410   2.671   4.065
 6830SOL    HW221390   5.435   2.514   4.027
 6831SOL     OW21391   0.552   0.811   6.117
 6831SOL    HW121392   0.593   0.902   6.126
 6831SOL    HW221393   0.624   0.744   6.100
 6832SOL     OW21394   2.930   5.229   2.452
 6832SOL    HW121395   2.882   5.148   2.417
 6832SOL    HW221396   3.013   5.245   2.398
 6833SOL     OW21397   3.994   5.113   0.317
 6833SOL    HW121398   3.968   5.081   0.408
 6833SOL    HW221399   4.010   5.212   0.319
 6834SOL     OW21400   3.855   5.832   2.161
 6834SOL    HW121401   3.847   5.760   2.230
 6834SOL    HW221402   3.792   5.906   2.183
 6835SOL     OW21403   3.727   0.197   4.904
 6835SOL    HW121404   3.744   0.222   4.809
 6835SOL    HW221405   3.728   0.097   4.912
 6836SOL     OW21406   3.534   6.218   0.275
 6836SOL    HW121407   3.573   6.135   0.316
 6836SOL    HW221408   3.585   6.240   0.191
 6837SOL     OW21409   1.679   3.306   1.944
 6837SOL    HW121410   1.652   3.295   2.040
 6837SOL    HW221411   1.730   3.392   1.933
 6838SOL     OW21412   2.374   1.300   0.068
 6838SOL    HW121413   2.413   1.329   7.005
 6838SOL    HW221414   2.447   1.288   0.135
 6839SOL     OW21415   4.422   1.038   0.954
 6839SOL    HW121416   4.480   1.037   0.872
 6839SOL    HW221417   4.410   1.131   0.986
 6840SOL     OW21418   1.108   1.812   6.368
 6840SOL    HW121419   1.170   1.816   6.446
 6840SOL    HW221420   1.022   1.857   6.391
 6841SOL     OW21421   6.309   3.405   6.394
 6841SOL    HW121422   6.269   3.343   6.326
 6841SOL    HW221423   6.299   3.499   6.363
 6842SOL     OW21424   2.341   4.816   2.814
 6842SOL    HW121425   2.386   4.822   2.902
 6842SOL    HW221426   2.249   4.779   2.825
 6843SOL     OW21427   4.639   6.497   0.021
 6843SOL    HW121428   4.704   6.565   7.011
 6843SOL    HW221429   4.584   6.538   0.094
 6844SOL     OW21430   5.091   0.757   5.686
 6844SOL    HW121431   5.161   0.708   5.738
 6844SOL    HW221432   5.135   0.813   5.616
 6845SOL     OW21433   4.926   1.825   2.409
 6845SOL    HW121434   4.829   1.812   2.430
 6845SOL    HW221435   4.961   1.742   2.364
 6846SOL     OW21436   2.208   3.895   0.093
 6846SOL    HW121437   2.257   3.981   0.077
 6846SOL    HW221438   2.119   3.900   0.049
 6847SOL     OW21439   6.475   3.658   4.023
 6847SOL    HW121440   6.549   3.636   3.959
 6847SOL    HW221441   6.412   3.580   4.029
 6848SOL     OW21442   5.906   4.627   3.349
 6848SOL    HW121443   5.913   4.540   3.301
 6848SOL    HW221444   5.990   4.680   3.336
 6849SOL     OW21445   3.469   4.358   6.739
 6849SOL    HW121446   3.406   4.431   6.714
 6849SOL    HW221447   3.450   4.327   6.832
 6850SOL     OW21448   3.944   1.759   3.623
 6850SOL    HW121449   3.971   1.718   3.710
 6850SOL    HW221450   3.962   1.695   3.548
 6851SOL     OW21451   1.904   3.120   3.811
 6851SOL    HW121452   1.895   3.152   3.717
 6851SOL    HW221453   1.932   3.195   3.870
 6852SOL     OW21454   2.753   4.875   0.306
 6852SOL    HW121455   2.728   4.926   0.224
 6852SOL    HW221456   2.759   4.938   0.384
 6853SOL     OW21457   4.978   3.339   0.052
 6853SOL    HW121458   4.943   3.395   7.000
 6853SOL    HW221459   5.010   3.399   0.125
 6854SOL     OW21460   5.369   6.117   6.475
 6854SOL    HW121461   5.305   6.084   6.406
 6854SOL    HW221462   5.386   6.045   6.543
 6855SOL     OW21463   3.849   5.346   3.511
 6855SOL    HW121464   3.755   5.353   3.545
 6855SOL    HW221465   3.887   5.438   3.499
 6856SOL     OW21466   0.977   1.574   6.851
 6856SOL    HW121467   1.021   1.561   6.763
 6856SOL    HW221468   0.883   1.539   6.847
 6857SOL     OW21469   0.803   3.834   5.277
 6857SOL    HW121470   0.729   3.783   5.233
 6857SOL    HW221471   0.889   3.784   5.266
 6858SOL     OW21472   2.421   3.863   1.720
 6858SOL    HW121473   2.384   3.951   1.688
 6858SOL    HW221474   2.516   3.854   1.689
 6859SOL     OW21475   0.810   1.458   2.314
 6859SOL    HW121476   0.843   1.486   2.224
 6859SOL    HW221477   0.719   1.417   2.305
 6860SOL     OW21478   0.665   6.572   2.052
 6860SOL    HW121479   0.666   6.672   2.055
 6860SOL    HW221480   0.611   6.537   2.129
 6861SOL     OW21481   5.571   2.735   5.011
 6861SOL    HW121482   5.547   2.653   4.959
 6861SOL    HW221483   5.638   2.789   4.960
 6862SOL     OW21484   0.840   4.458   5.128
 6862SOL    HW121485   0.868   4.468   5.033
 6862SOL    HW221486   0.764   4.520   5.148
 6863SOL     OW21487   6.095   0.409   5.641
 6863SOL    HW121488   6.082   0.311   5.630
 6863SOL    HW221489   6.047   0.458   5.568
 6864SOL     OW21490   1.431   3.619   6.207
 6864SOL    HW121491   1.397   3.575   6.290
 6864SOL    HW221492   1.356   3.668   6.162
 6865SOL     OW21493   2.241   6.902   3.697
 6865SOL    HW121494   2.320   6.868   3.748
 6865SOL    HW221495   2.218   6.994   3.729
 6866SOL     OW21496   1.146   4.408   1.033
 6866SOL    HW121497   1.110   4.466   1.107
 6866SOL    HW221498   1.246   4.405   1.039
 6867SOL     OW21499   1.985   3.858   6.906
 6867SOL    HW121500   2.010   3.851   6.810
 6867SOL    HW221501   1.890   3.830   6.918
 6868SOL     OW21502   2.490   4.963   4.304
 6868SOL    HW121503   2.432   5.034   4.264
 6868SOL    HW221504   2.440   4.877   4.307
 6869SOL     OW21505   3.367   0.736   6.146
 6869SOL    HW121506   3.279   0.770   6.114
 6869SOL    HW221507   3.440   0.783   6.096
 6870SOL     OW21508   6.185   2.338   0.766
 6870SOL    HW121509   6.250   2.333   0.690
 6870SOL    HW221510   6.219   2.282   0.842
 6871SOL     OW21511   0.565   4.004   2.296
 6871SOL    HW121512   0.593   4.099   2.306
 6871SOL    HW221513   0.635   3.945   2.336
 6872SOL     OW21514   1.686   3.691   0.419
 6872SOL    HW121515   1.603   3.667   0.370
 6872SOL    HW221516   1.694   3.634   0.501
 6873SOL     OW21517   0.832   4.650   3.731
 6873SOL    HW121518   0.736   4.676   3.740
 6873SOL    HW221519   0.842   4.581   3.659
 6874SOL     OW21520   5.219   6.584   3.255
 6874SOL    HW121521   5.276   6.665   3.271
 6874SOL    HW221522   5.277   6.502   3.256
 6875SOL     OW21523   2.254   2.082   0.288
 6875SOL    HW121524   2.215   2.006   0.341
 6875SOL    HW221525   2.217   2.081   0.196
 6876SOL     OW21526   5.007   5.270   3.465
 6876SOL    HW121527   4.979   5.313   3.379
 6876SOL    HW221528   5.005   5.338   3.538
 6877SOL     OW21529   1.576   3.734   2.715
 6877SOL    HW121530   1.628   3.663   2.668
 6877SOL    HW221531   1.603   3.824   2.680
 6878SOL     OW21532   2.098   0.432   4.508
 6878SOL    HW121533   2.006   0.470   4.514
 6878SOL    HW221534   2.095   0.341   4.466
 6879SOL     OW21535   2.074   1.877   0.906
 6879SOL    HW121536   2.043   1.857   0.813
 6879SOL    HW221537   2.173   1.888   0.906
 6880SOL     OW21538   1.748   5.298   6.453
 6880SOL    HW121539   1.792   5.212   6.478
 6880SOL    HW221540   1.649   5.284   6.446
 6881SOL     OW21541   1.049   2.780   0.424
 6881SOL    HW121542   1.001   2.708   0.474
 6881SOL    HW221543   1.092   2.740   0.342
 6882SOL     OW21544   2.897   6.800   6.510
 6882SOL    HW121545   2.834   6.724   6.527
 6882SOL    HW221546   2.964   6.772   6.442
 6883SOL     OW21547   4.998   0.593   6.998
 6883SOL    HW121548   4.984   0.525   6.926
 6883SOL    HW221549   4.977   0.684   6.962
 6884SOL     OW21550   2.079   4.199   2.920
 6884SOL    HW121551   1.985   4.188   2.888
 6884SOL    HW221552   2.142   4.177   2.846
 6885SOL     OW21553   5.643   5.320   5.163
 6885SOL    HW121554   5.702   5.393   5.130
 6885SOL    HW221555   5.699   5.243   5.195
 6886SOL     OW21556   5.065   1.465   6.861
 6886SOL    HW121557   5.052   1.471   6.762
 6886SOL    HW221558   5.162   1.450   6.881
 6887SOL     OW21559   5.482   6.095   5.965
 6887SOL    HW121560   5.382   6.095   5.965
 6887SOL    HW221561   5.516   6.038   5.891
 6888SOL     OW21562   6.228   5.113   6.614
 6888SOL    HW121563   6.150   5.115   6.552
 6888SOL    HW221564   6.215   5.041   6.682
 6889SOL     OW21565   0.142   2.367   6.782
 6889SOL    HW121566   0.218   2.366   6.716
 6889SOL    HW221567   0.096   2.456   6.777
 6890SOL     OW21568   4.573   4.778   3.093
 6890SOL    HW121569   4.513   4.769   3.172
 6890SOL    HW221570   4.668   4.776   3.122
 6891SOL     OW21571   1.854   1.350   0.613
 6891SOL    HW121572   1.848   1.450   0.613
 6891SOL    HW221573   1.829   1.314   0.703
 6892SOL     OW21574   2.765   0.862   4.693
 6892SOL    HW121575   2.743   0.867   4.595
 6892SOL    HW221576   2.776   0.955   4.729
 6893SOL     OW21577   5.611   2.998   0.866
 6893SOL    HW121578   5.602   3.071   0.799
 6893SOL    HW221579   5.622   3.038   0.957
 6894SOL     OW21580   5.792   5.593   0.379
 6894SOL    HW121581   5.862   5.642   0.431
 6894SOL    HW221582   5.804   5.494   0.393
 6895SOL     OW21583   0.608   6.618   1.719
 6895SOL    HW121584   0.518   6.594   1.682
 6895SOL    HW221585   0.642   6.544   1.777
 6896SOL     OW21586   4.542   1.777   4.659
 6896SOL    HW121587   4.559   1.678   4.655
 6896SOL    HW221588   4.469   1.801   4.595
 6897SOL     OW21589   4.811   3.327   5.351
 6897SOL    HW121590   4.744   3.395   5.381
 6897SOL    HW221591   4.768   3.266   5.284
 6898SOL     OW21592   2.018   0.239   1.162
 6898SOL    HW121593   1.956   0.311   1.193
 6898SOL    HW221594   1.964   0.165   1.121
 6899SOL     OW21595   6.317   5.917   1.990
 6899SOL    HW121596   6.394   5.976   1.964
 6899SOL    HW221597   6.244   5.973   2.029
 6900SOL     OW21598   6.076   3.620   5.554
 6900SOL    HW121599   6.018   3.547   5.517
 6900SOL    HW221600   6.056   3.634   5.651
 6901SOL     OW21601   5.050   4.405   6.804
 6901SOL    HW121602   5.010   4.494   6.781
 6901SOL    HW221603   5.141   4.419   6.842
 6902SOL     OW21604   0.947   6.145   5.808
 6902SOL    HW121605   1.006   6.185   5.878
 6902SOL    HW221606   0.997   6.140   5.722
 6903SOL     OW21607   1.563   6.128   4.780
 6903SOL    HW121608   1.640   6.124   4.844
 6903SOL    HW221609   1.541   6.036   4.749
 6904SOL     OW21610   6.379   6.859   4.899
 6904SOL    HW121611   6.475   6.832   4.904
 6904SOL    HW221612   6.328   6.792   4.845
 6905SOL     OW21613   4.879   6.005   6.080
 6905SOL    HW121614   4.956   5.974   6.136
 6905SOL    HW221615   4.913   6.037   5.991
 6906SOL     OW21616   3.379   1.944   3.483
 6906SOL    HW121617   3.283   1.947   3.509
 6906SOL    HW221618   3.425   1.872   3.535
 6907SOL     OW21619   6.009   2.386   0.577
 6907SOL    HW121620   6.082   2.387   0.645
 6907SOL    HW221621   6.027   2.456   0.508
 6908SOL     OW21622   2.864   4.396   0.300
 6908SOL    HW121623   2.943   4.387   0.360
 6908SOL    HW221624   2.835   4.306   0.268
 6909SOL     OW21625   6.350   5.509   2.113
 6909SOL    HW121626   6.316   5.547   2.198
 6909SOL    HW221627   6.404   5.578   2.065
 6910SOL     OW21628   1.772   3.134   2.816
 6910SOL    HW121629   1.748   3.231   2.821
 6910SOL    HW221630   1.815   3.106   2.902
 6911SOL     OW21631   2.022   6.789   5.559
 6911SOL    HW121632   2.037   6.819   5.465
 6911SOL    HW221633   2.047   6.692   5.568
 6912SOL     OW21634   2.405   3.737   7.018
 6912SOL    HW121635   2.473   3.719   0.065
 6912SOL    HW221636   2.341   3.806   0.026
 6913SOL     OW21637   5.233   6.198   6.049
 6913SOL    HW121638   5.205   6.221   5.956
 6913SOL    HW221639   5.243   6.282   6.103
 6914SOL     OW21640   6.306   2.843   2.824
 6914SOL    HW121641   6.258   2.758   2.804
 6914SOL    HW221642   6.240   2.913   2.849
 6915SOL     OW21643   6.925   3.400   3.802
 6915SOL    HW121644   6.851   3.364   3.744
 6915SOL    HW221645   6.993   3.444   3.744
 6916SOL     OW21646   5.102   5.948   6.714
 6916SOL    HW121647   5.126   5.962   6.810
 6916SOL    HW221648   5.173   5.896   6.668
 6917SOL     OW21649   5.089   5.901   1.558
 6917SOL    HW121650   5.114   5.939   1.469
 6917SOL    HW221651   5.048   5.811   1.545
 6918SOL     OW21652   2.605   3.084   1.147
 6918SOL    HW121653   2.540   3.153   1.178
 6918SOL    HW221654   2.652   3.116   1.065
 6919SOL     OW21655   5.806   5.986   3.488
 6919SOL    HW121656   5.782   6.027   3.576
 6919SOL    HW221657   5.771   5.892   3.484
 6920SOL     OW21658   6.098   1.147   6.128
 6920SOL    HW121659   6.051   1.211   6.187
 6920SOL    HW221660   6.032   1.095   6.074
 6921SOL     OW21661   4.260   0.359   4.315
 6921SOL    HW121662   4.178   0.354   4.259
 6921SOL    HW221663   4.254   0.292   4.388
 6922SOL     OW21664   1.554   4.316   6.150
 6922SOL    HW121665   1.590   4.392   6.096
 6922SOL    HW221666   1.629   4.266   6.192
 6923SOL     OW21667   5.906   0.171   2.640
 6923SOL    HW121668   5.937   0.077   2.626
 6923SOL    HW221669   5.924   0.199   2.734
 6924SOL     OW21670   3.116   6.211   1.613
 6924SOL    HW121671   3.182   6.188   1.684
 6924SOL    HW221672   3.164   6.226   1.526
 6925SOL     OW21673   5.951   6.149   5.275
 6925SOL    HW121674   5.886   6.148   5.200
 6925SOL    HW221675   5.975   6.055   5.301
 6926SOL     OW21676   3.123   2.368   0.362
 6926SOL    HW121677   3.101   2.302   0.290
 6926SOL    HW221678   3.153   2.319   0.444
 6927SOL     OW21679   4.935   0.829   0.696
 6927SOL    HW121680   4.891   0.906   0.650
 6927SOL    HW221681   5.031   0.851   0.713
 6928SOL     OW21682   5.011   5.029   1.064
 6928SOL    HW121683   5.079   5.060   0.998
 6928SOL    HW221684   4.921   5.028   1.021
 6929SOL     OW21685   6.413   5.056   1.479
 6929SOL    HW121686   6.369   4.979   1.433
 6929SOL    HW221687   6.509   5.060   1.454
 6930SOL     OW21688   0.957   0.197   0.792
 6930SOL    HW121689   0.921   0.165   0.704
 6930SOL    HW221690   0.898   0.269   0.828
 6931SOL     OW21691   2.960   3.740   0.990
 6931SOL    HW121692   2.943   3.668   1.057
 6931SOL    HW221693   3.035   3.798   1.021
 6932SOL     OW21694   4.496   6.159   0.119
 6932SOL    HW121695   4.590   6.187   0.138
 6932SOL    HW221696   4.467   6.091   0.187
 6933SOL     OW21697   3.431   6.109   6.720
 6933SOL    HW121698   3.407   6.033   6.659
 6933SOL    HW221699   3.440   6.193   6.667
 6934SOL     OW21700   5.042   4.001   6.845
 6934SOL    HW121701   5.035   4.062   6.767
 6934SOL    HW221702   5.122   4.024   6.900
 6935SOL     OW21703   4.630   5.814   1.795
 6935SOL    HW121704   4.537   5.784   1.814
 6935SOL    HW221705   4.645   5.813   1.696
 6936SOL     OW21706   0.383   1.638   5.167
 6936SOL    HW121707   0.360   1.541   5.166
 6936SOL    HW221708   0.402   1.669   5.074
 6937SOL     OW21709   5.395   5.816   0.102
 6937SOL    HW121710   5.443   5.729   0.092
 6937SOL    HW221711   5.394   5.842   0.199
 6938SOL     OW21712   1.567   0.470   4.973
 6938SOL    HW121713   1.543   0.486   4.877
 6938SOL    HW221714   1.666   0.457   4.980
 6939SOL     OW21715   5.928   3.464   3.417
 6939SOL    HW121716   5.881   3.391   3.368
 6939SOL    HW221717   5.970   3.426   3.499
 6940SOL     OW21718   3.033   5.888   0.494
 6940SOL    HW121719   3.032   5.921   0.588
 6940SOL    HW221720   3.063   5.961   0.432
 6941SOL     OW21721   3.416   3.914   3.349
 6941SOL    HW121722   3.377   3.837   3.299
 6941SOL    HW221723   3.365   3.928   3.434
 6942SOL     OW21724   6.353   6.358   1.626
 6942SOL    HW121725   6.293   6.372   1.705
 6942SOL    HW221726   6.449   6.367   1.656
 6943SOL     OW21727   4.076   4.942   6.717
 6943SOL    HW121728   4.129   4.979   6.794
 6943SOL    HW221729   4.097   4.994   6.634
 6944SOL     OW21730   1.308   4.483   5.199
 6944SOL    HW121731   1.359   4.399   5.179
 6944SOL    HW221732   1.242   4.500   5.127
 6945SOL     OW21733   5.553   2.074   1.052
 6945SOL    HW121734   5.584   1.982   1.074
 6945SOL    HW221735   5.467   2.092   1.100
 6946SOL     OW21736   4.592   5.383   3.100
 6946SOL    HW121737   4.632   5.472   3.077
 6946SOL    HW221738   4.643   5.311   3.054
 6947SOL     OW21739   5.670   4.405   5.348
 6947SOL    HW121740   5.693   4.318   5.305
 6947SOL    HW221741   5.667   4.477   5.278
 6948SOL     OW21742   0.047   4.618   6.766
 6948SOL    HW121743   0.043   4.716   6.789
 6948SOL    HW221744   7.021   4.566   6.834
 6949SOL     OW21745   2.259   1.936   4.340
 6949SOL    HW121746   2.277   1.909   4.434
 6949SOL    HW221747   2.327   2.004   4.311
 6950SOL     OW21748   0.152   0.703   4.303
 6950SOL    HW121749   0.113   0.683   4.213
 6950SOL    HW221750   0.169   0.801   4.310
 6951SOL     OW21751   0.651   4.584   6.310
 6951SOL    HW121752   0.742   4.604   6.272
 6951SOL    HW221753   0.581   4.621   6.250
 6952SOL     OW21754   4.465   5.871   3.680
 6952SOL    HW121755   4.376   5.853   3.638
 6952SOL    HW221756   4.451   5.911   3.770
 6953SOL     OW21757   5.584   1.435   1.080
 6953SOL    HW121758   5.575   1.375   1.001
 6953SOL    HW221759   5.494   1.449   1.122
 6954SOL     OW21760   5.908   4.346   0.160
 6954SOL    HW121761   5.906   4.307   0.069
 6954SOL    HW221762   5.856   4.432   0.161
 6955SOL     OW21763   4.559   6.521   2.832
 6955SOL    HW121764   4.646   6.539   2.785
 6955SOL    HW221765   4.575   6.456   2.906
 6956SOL     OW21766   5.935   5.446   2.281
 6956SOL    HW121767   5.976   5.491   2.201
 6956SOL    HW221768   5.951   5.347   2.275
 6957SOL     OW21769   5.741   5.523   5.838
 6957SOL    HW121770   5.656   5.574   5.850
 6957SOL    HW221771   5.802   5.572   5.776
 6958SOL     OW21772   3.277   3.925   3.586
 6958SOL    HW121773   3.287   3.993   3.658
 6958SOL    HW221774   3.255   3.836   3.626
 6959SOL     OW21775   1.212   4.573   2.722
 6959SOL    HW121776   1.141   4.530   2.778
 6959SOL    HW221777   1.275   4.503   2.689
 6960SOL     OW21778   3.145   4.157   0.612
 6960SOL    HW121779   3.069   4.111   0.658
 6960SOL    HW221780   3.231   4.133   0.659
 6961SOL     OW21781   4.466   2.530   5.029
 6961SOL    HW121782   4.537   2.478   5.076
 6961SOL    HW221783   4.379   2.480   5.034
 6962SOL     OW21784   2.426   6.766   6.285
 6962SOL    HW121785   2.408   6.683   6.339
 6962SOL    HW221786   2.521   6.793   6.296
 6963SOL     OW21787   6.072   5.852   0.935
 6963SOL    HW121788   6.108   5.776   0.991
 6963SOL    HW221789   6.140   5.878   0.867
 6964SOL     OW21790   1.722   1.182   5.280
 6964SOL    HW121791   1.782   1.231   5.216
 6964SOL    HW221792   1.668   1.115   5.229
 6965SOL     OW21793   0.723   1.486   6.807
 6965SOL    HW121794   0.672   1.470   6.892
 6965SOL    HW221795   0.775   1.404   6.783
 6966SOL     OW21796   1.605   6.148   1.096
 6966SOL    HW121797   1.558   6.175   1.013
 6966SOL    HW221798   1.559   6.188   1.176
 6967SOL     OW21799   4.337   1.158   6.679
 6967SOL    HW121800   4.423   1.111   6.704
 6967SOL    HW221801   4.339   1.180   6.582
 6968SOL     OW21802   3.877   6.659   2.935
 6968SOL    HW121803   3.816   6.737   2.919
 6968SOL    HW221804   3.968   6.693   2.962
 6969SOL     OW21805   2.079   1.892   2.137
 6969SOL    HW121806   2.089   1.794   2.119
 6969SOL    HW221807   2.151   1.922   2.199
 6970SOL     OW21808   3.837   5.946   5.572
 6970SOL    HW121809   3.742   5.917   5.566
 6970SOL    HW221810   3.879   5.943   5.481
 6971SOL     OW21811   6.392   4.087   0.266
 6971SOL    HW121812   6.390   4.121   0.360
 6971SOL    HW221813   6.299   4.082   0.231
 6972SOL     OW21814   5.273   3.784   1.396
 6972SOL    HW121815   5.313   3.773   1.487
 6972SOL    HW221816   5.181   3.745   1.395
 6973SOL     OW21817   2.141   2.589   3.365
 6973SOL    HW121818   2.109   2.617   3.274
 6973SOL    HW221819   2.114   2.658   3.432
 6974SOL     OW21820   3.851   3.489   3.374
 6974SOL    HW121821   3.827   3.461   3.282
 6974SOL    HW221822   3.949   3.505   3.380
 6975SOL     OW21823   2.918   5.470   4.890
 6975SOL    HW121824   2.955   5.394   4.838
 6975SOL    HW221825   2.878   5.436   4.975
 6976SOL     OW21826   4.474   4.420   6.301
 6976SOL    HW121827   4.541   4.368   6.250
 6976SOL    HW221828   4.513   4.448   6.389
 6977SOL     OW21829   4.343   4.761   1.568
 6977SOL    HW121830   4.346   4.855   1.602
 6977SOL    HW221831   4.277   4.754   1.494
 6978SOL     OW21832   6.821   3.514   1.841
 6978SOL    HW121833   6.727   3.543   1.821
 6978SOL    HW221834   6.830   3.497   1.939
 6979SOL     OW21835   1.806   3.000   1.861
 6979SOL    HW121836   1.724   2.955   1.895
 6979SOL    HW221837   1.861   3.033   1.938
 6980SOL     OW21838   1.998   5.509   1.924
 6980SOL    HW121839   2.032   5.581   1.863
 6980SOL    HW221840   1.975   5.549   2.013
 6981SOL     OW21841   4.005   2.743   6.736
 6981SOL    HW121842   4.077   2.792   6.785
 6981SOL    HW221843   4.046   2.691   6.660
 6982SOL     OW21844   1.323   0.785   2.579
 6982SOL    HW121845   1.346   0.863   2.636
 6982SOL    HW221846   1.370   0.792   2.491
 6983SOL     OW21847   5.290   0.888   4.236
 6983SOL    HW121848   5.365   0.872   4.300
 6983SOL    HW221849   5.204   0.896   4.286
 6984SOL     OW21850   0.798   2.489   3.412
 6984SOL    HW121851   0.833   2.554   3.344
 6984SOL    HW221852   0.873   2.455   3.468
 6985SOL     OW21853   5.515   3.466   0.180
 6985SOL    HW121854   5.578   3.446   0.105
 6985SOL    HW221855   5.425   3.426   0.159
 6986SOL     OW21856   4.980   4.648   5.456
 6986SOL    HW121857   4.962   4.572   5.519
 6986SOL    HW221858   5.073   4.640   5.420
 6987SOL     OW21859   0.234   0.824   6.533
 6987SOL    HW121860   0.165   0.754   6.516
 6987SOL    HW221861   0.231   0.851   6.629
 6988SOL     OW21862   3.030   1.484   6.479
 6988SOL    HW121863   3.050   1.457   6.385
 6988SOL    HW221864   3.024   1.403   6.537
 6989SOL     OW21865   0.295   5.355   2.222
 6989SOL    HW121866   0.377   5.297   2.231
 6989SOL    HW221867   0.216   5.307   2.260
 6990SOL     OW21868   3.924   3.085   0.825
 6990SOL    HW121869   3.966   3.129   0.746
 6990SOL    HW221870   3.941   2.987   0.822
 6991SOL     OW21871   6.219   3.150   2.674
 6991SOL    HW121872   6.303   3.107   2.639
 6991SOL    HW221873   6.145   3.135   2.609
 6992SOL     OW21874   1.497   6.172   0.348
 6992SOL    HW121875   1.528   6.237   0.418
 6992SOL    HW221876   1.438   6.219   0.283
 6993SOL     OW21877   4.846   1.782   1.165
 6993SOL    HW121878   4.834   1.774   1.264
 6993SOL    HW221879   4.818   1.696   1.121
 6994SOL     OW21880   2.621   0.871   3.869
 6994SOL    HW121881   2.664   0.843   3.782
 6994SOL    HW221882   2.565   0.797   3.904
 6995SOL     OW21883   0.423   4.150   1.117
 6995SOL    HW121884   0.368   4.191   1.044
 6995SOL    HW221885   0.407   4.051   1.119
 6996SOL     OW21886   1.339   1.317   6.705
 6996SOL    HW121887   1.277   1.296   6.781
 6996SOL    HW221888   1.286   1.331   6.622
 6997SOL     OW21889   5.598   5.226   6.048
 6997SOL    HW121890   5.593   5.298   6.118
 6997SOL    HW221891   5.519   5.166   6.056
 6998SOL     OW21892   6.555   1.333   0.090
 6998SOL    HW121893   6.630   1.387   0.054
 6998SOL    HW221894   6.507   1.384   0.161
 6999SOL     OW21895   0.126   2.973   6.987
 6999SOL    HW121896   0.163   2.903   0.024
 6999SOL    HW221897   0.142   3.063   0.002
 7000SOL     OW21898   6.919   6.028   3.266
 7000SOL    HW121899   7.018   6.032   3.251
 7000SOL    HW221900   6.873   6.092   3.205
 7001SOL     OW21901   0.438   2.284   4.077
 7001SOL    HW121902   0.418   2.375   4.041
 7001SOL    HW221903   0.450   2.220   4.001
 7002SOL     OW21904   0.809   5.589   3.050
 7002SOL    HW121905   0.791   5.610   3.146
 7002SOL    HW221906   0.900   5.620   3.025
 7003SOL     OW21907   6.737   4.067   0.562
 7003SOL    HW121908   6.819   4.054   0.617
 7003SOL    HW221909   6.663   4.011   0.599
 7004SOL     OW21910   1.957   6.519   0.726
 7004SOL    HW121911   1.888   6.543   0.795
 7004SOL    HW221912   2.013   6.443   0.760
 7005SOL     OW21913   1.179   6.134   1.128
 7005SOL    HW121914   1.198   6.057   1.067
 7005SOL    HW221915   1.262   6.156   1.179
 7006SOL     OW21916   1.078   6.871   3.923
 7006SOL    HW121917   1.108   6.887   3.829
 7006SOL    HW221918   1.022   6.788   3.926
 7007SOL     OW21919   2.480   0.740   5.711
 7007SOL    HW121920   2.533   0.658   5.735
 7007SOL    HW221921   2.454   0.788   5.795
 7008SOL     OW21922   5.308   3.909   2.854
 7008SOL    HW121923   5.331   3.969   2.777
 7008SOL    HW221924   5.247   3.836   2.823
 7009SOL     OW21925   4.622   5.648   2.262
 7009SOL    HW121926   4.686   5.589   2.212
 7009SOL    HW221927   4.636   5.743   2.235
 7010SOL     OW21928   5.274   3.582   1.848
 7010SOL    HW121929   5.206   3.629   1.905
 7010SOL    HW221930   5.246   3.487   1.834
 7011SOL     OW21931   3.368   6.536   7.011
 7011SOL    HW121932   3.434   6.575   0.051
 7011SOL    HW221933   3.307   6.474   0.035
 7012SOL     OW21934   6.480   2.855   0.507
 7012SOL    HW121935   6.478   2.758   0.481
 7012SOL    HW221936   6.387   2.891   0.508
 7013SOL     OW21937   2.921   1.820   0.197
 7013SOL    HW121938   2.901   1.843   0.292
 7013SOL    HW221939   2.836   1.795   0.151
 7014SOL     OW21940   5.771   3.301   1.014
 7014SOL    HW121941   5.728   3.349   0.938
 7014SOL    HW221942   5.709   3.230   1.048
 7015SOL     OW21943   5.198   6.401   1.112
 7015SOL    HW121944   5.114   6.389   1.165
 7015SOL    HW221945   5.201   6.493   1.074
 7016SOL     OW21946   3.100   5.135   1.102
 7016SOL    HW121947   3.113   5.114   1.005
 7016SOL    HW221948   3.133   5.059   1.157
 7017SOL     OW21949   5.848   4.841   4.845
 7017SOL    HW121950   5.886   4.847   4.752
 7017SOL    HW221951   5.886   4.760   4.890
 7018SOL     OW21952   5.179   3.671   4.414
 7018SOL    HW121953   5.095   3.619   4.432
 7018SOL    HW221954   5.239   3.666   4.494
 7019SOL     OW21955   4.004   5.655   2.429
 7019SOL    HW121956   3.995   5.687   2.523
 7019SOL    HW221957   4.090   5.689   2.390
 7020SOL     OW21958   0.397   2.892   6.454
 7020SOL    HW121959   0.309   2.900   6.500
 7020SOL    HW221960   0.471   2.898   6.521
 7021SOL     OW21961   0.809   2.184   4.859
 7021SOL    HW121962   0.770   2.255   4.800
 7021SOL    HW221963   0.773   2.194   4.952
 7022SOL     OW21964   3.124   1.957   0.626
 7022SOL    HW121965   3.213   1.910   0.624
 7022SOL    HW221966   3.080   1.939   0.714
 7023SOL     OW21967   0.354   1.946   0.277
 7023SOL    HW121968   0.449   1.974   0.293
 7023SOL    HW221969   0.292   2.012   0.320
 7024SOL     OW21970   4.013   3.276   4.570
 7024SOL    HW121971   3.915   3.280   4.591
 7024SOL    HW221972   4.030   3.326   4.485
 7025SOL     OW21973   3.594   0.296   0.934
 7025SOL    HW121974   3.593   0.363   1.008
 7025SOL    HW221975   3.598   0.204   0.973
 7026SOL     OW21976   3.541   2.469   1.288
 7026SOL    HW121977   3.555   2.537   1.360
 7026SOL    HW221978   3.467   2.499   1.228
 7027SOL     OW21979   2.516   5.597   2.749
 7027SOL    HW121980   2.420   5.572   2.767
 7027SOL    HW221981   2.563   5.520   2.707
 7028SOL     OW21982   2.829   0.459   3.845
 7028SOL    HW121983   2.843   0.382   3.783
 7028SOL    HW221984   2.892   0.533   3.822
 7029SOL     OW21985   3.173   3.693   3.711
 7029SOL    HW121986   3.217   3.694   3.800
 7029SOL    HW221987   3.074   3.686   3.723
 7030SOL     OW21988   6.752   1.120   5.112
 7030SOL    HW121989   6.820   1.171   5.164
 7030SOL    HW221990   6.791   1.033   5.082
 7031SOL     OW21991   4.467   6.896   0.547
 7031SOL    HW121992   4.526   6.971   0.578
 7031SOL    HW221993   4.431   6.917   0.456
 7032SOL     OW21994   4.672   5.942   4.356
 7032SOL    HW121995   4.656   6.026   4.408
 7032SOL    HW221996   4.719   5.875   4.414
 7033SOL     OW21997   2.015   1.832   4.931
 7033SOL    HW121998   1.996   1.867   5.023
 7033SOL    HW221999   2.090   1.884   4.891
 7034SOL     OW22000   6.696   0.718   3.726
 7034SOL    HW122001   6.677   0.805   3.681
 7034SOL    HW222002   6.766   0.731   3.796
 7035SOL     OW22003   1.839   0.344   0.398
 7035SOL    HW122004   1.813   0.275   0.465
 7035SOL    HW222005   1.922   0.315   0.351
 7036SOL     OW22006   6.477   1.845   2.709
 7036SOL    HW122007   6.553   1.816   2.651
 7036SOL    HW222008   6.510   1.858   2.803
 7037SOL     OW22009   1.132   0.809   6.116
 7037SOL    HW122010   1.063   0.876   6.145
 7037SOL    HW222011   1.218   0.857   6.098
 7038SOL     OW22012   1.366   4.710   6.779
 7038SOL    HW122013   1.443   4.657   6.815
 7038SOL    HW222014   1.285   4.652   6.775
 7039SOL     OW22015   0.413   6.461   2.186
 7039SOL    HW122016   0.335   6.456   2.249
 7039SOL    HW222017   0.380   6.487   2.095
 7040SOL     OW22018   5.013   3.435   4.505
 7040SOL    HW122019   5.059   3.349   4.485
 7040SOL    HW222020   4.984   3.436   4.601
 7041SOL     OW22021   1.701   6.739   4.253
 7041SOL    HW122022   1.800   6.743   4.234
 7041SOL    HW222023   1.682   6.789   4.338
 7042SOL     OW22024   4.910   6.059   5.406
 7042SOL    HW122025   4.892   6.156   5.425
 7042SOL    HW222026   4.843   6.003   5.454
 7043SOL     OW22027   2.489   4.817   0.874
 7043SOL    HW122028   2.472   4.825   0.972
 7043SOL    HW222029   2.449   4.732   0.840
 7044SOL     OW22030   4.898   6.597   5.033
 7044SOL    HW122031   4.963   6.673   5.030
 7044SOL    HW222032   4.809   6.631   5.063
 7045SOL     OW22033   6.612   6.363   1.732
 7045SOL    HW122034   6.698   6.314   1.722
 7045SOL    HW222035   6.628   6.451   1.777
 7046SOL     OW22036   2.783   1.709   4.272
 7046SOL    HW122037   2.745   1.734   4.182
 7046SOL    HW222038   2.766   1.783   4.337
 7047SOL     OW22039   1.435   6.542   0.746
 7047SOL    HW122040   1.446   6.517   0.650
 7047SOL    HW222041   1.361   6.609   0.755
 7048SOL     OW22042   6.912   6.282   4.621
 7048SOL    HW122043   6.990   6.287   4.559
 7048SOL    HW222044   6.944   6.290   4.715
 7049SOL     OW22045   3.971   1.281   3.118
 7049SOL    HW122046   3.914   1.202   3.100
 7049SOL    HW222047   4.065   1.251   3.137
 7050SOL     OW22048   4.027   3.914   1.036
 7050SOL    HW122049   4.049   3.914   0.939
 7050SOL    HW222050   3.966   3.837   1.056
 7051SOL     OW22051   0.490   0.884   1.840
 7051SOL    HW122052   0.463   0.977   1.814
 7051SOL    HW222053   0.413   0.839   1.886
 7052SOL     OW22054   4.729   0.526   2.828
 7052SOL    HW122055   4.631   0.507   2.822
 7052SOL    HW222056   4.748   0.575   2.913
 7053SOL     OW22057   2.119   3.267   3.609
 7053SOL    HW122058   2.120   3.359   3.648
 7053SOL    HW222059   2.025   3.240   3.589
 7054SOL     OW22060   6.316   1.004   0.223
 7054SOL    HW122061   6.326   1.043   0.131
 7054SOL    HW222062   6.281   0.911   0.216
 7055SOL     OW22063   2.640   1.320   0.187
 7055SOL    HW122064   2.613   1.378   0.264
 7055SOL    HW222065   2.739   1.327   0.174
 7056SOL     OW22066   0.410   5.351   1.301
 7056SOL    HW122067   0.320   5.391   1.283
 7056SOL    HW222068   0.401   5.277   1.367
 7057SOL     OW22069   2.270   5.355   4.422
 7057SOL    HW122070   2.322   5.429   4.464
 7057SOL    HW222071   2.180   5.348   4.467
 7058SOL     OW22072   5.520   2.967   6.343
 7058SOL    HW122073   5.612   2.928   6.349
 7058SOL    HW222074   5.478   2.940   6.257
 7059SOL     OW22075   1.947   0.387   5.254
 7059SOL    HW122076   1.885   0.362   5.328
 7059SOL    HW222077   1.956   0.486   5.250
 7060SOL     OW22078   3.633   1.038   1.190
 7060SOL    HW122079   3.574   0.967   1.151
 7060SOL    HW222080   3.580   1.092   1.256
 7061SOL     OW22081   0.523   1.613   1.524
 7061SOL    HW122082   0.466   1.679   1.475
 7061SOL    HW222083   0.470   1.570   1.597
 7062SOL     OW22084   3.534   0.692   3.566
 7062SOL    HW122085   3.546   0.646   3.478
 7062SOL    HW222086   3.564   0.787   3.558
 7063SOL     OW22087   0.585   0.596   1.371
 7063SOL    HW122088   0.678   0.621   1.399
 7063SOL    HW222089   0.529   0.678   1.362
 7064SOL     OW22090   3.939   1.694   5.246
 7064SOL    HW122091   3.915   1.599   5.265
 7064SOL    HW222092   3.905   1.753   5.319
 7065SOL     OW22093   4.256   5.366   5.416
 7065SOL    HW122094   4.299   5.371   5.325
 7065SOL    HW222095   4.194   5.288   5.419
 7066SOL     OW22096   3.764   0.255   0.402
 7066SOL    HW122097   3.672   0.220   0.421
 7066SOL    HW222098   3.809   0.196   0.336
 7067SOL     OW22099   1.870   3.565   6.799
 7067SOL    HW122100   1.932   3.638   6.825
 7067SOL    HW222101   1.869   3.495   6.872
 7068SOL     OW22102   5.189   3.563   3.922
 7068SOL    HW122103   5.145   3.613   3.848
 7068SOL    HW222104   5.123   3.545   3.995
 7069SOL     OW22105   5.762   0.267   6.586
 7069SOL    HW122106   5.855   0.304   6.576
 7069SOL    HW222107   5.696   0.337   6.559
 7070SOL     OW22108   7.006   0.271   4.978
 7070SOL    HW122109   7.021   0.215   4.896
 7070SOL    HW222110   0.070   0.292   5.021
 7071SOL     OW22111   4.814   5.525   6.543
 7071SOL    HW122112   4.836   5.453   6.478
 7071SOL    HW222113   4.733   5.498   6.596
 7072SOL     OW22114   0.800   3.731   6.067
 7072SOL    HW122115   0.742   3.787   6.006
 7072SOL    HW222116   0.843   3.658   6.013
 7073SOL     OW22117   4.503   1.298   3.829
 7073SOL    HW122118   4.510   1.282   3.731
 7073SOL    HW222119   4.587   1.343   3.861
 7074SOL     OW22120   5.606   4.424   3.082
 7074SOL    HW122121   5.507   4.415   3.081
 7074SOL    HW222122   5.647   4.340   3.117
 7075SOL     OW22123   2.956   4.917   3.270
 7075SOL    HW122124   2.915   4.985   3.331
 7075SOL    HW222125   3.049   4.946   3.247
 7076SOL     OW22126   5.698   2.110   1.903
 7076SOL    HW122127   5.711   2.202   1.939
 7076SOL    HW222128   5.603   2.083   1.916
 7077SOL     OW22129   3.696   5.379   1.728
 7077SOL    HW122130   3.717   5.373   1.630
 7077SOL    HW222131   3.646   5.464   1.745
 7078SOL     OW22132   5.825   0.596   0.046
 7078SOL    HW122133   5.911   0.623   0.005
 7078SOL    HW222134   5.789   0.515   7.024
 7079SOL     OW22135   1.463   6.564   4.845
 7079SOL    HW122136   1.438   6.472   4.816
 7079SOL    HW222137   1.401   6.594   4.918
 7080SOL     OW22138   3.912   2.270   5.716
 7080SOL    HW122139   3.879   2.364   5.723
 7080SOL    HW222140   3.936   2.235   5.806
 7081SOL     OW22141   1.744   0.062   0.258
 7081SOL    HW122142   1.829   0.106   0.290
 7081SOL    HW222143   1.689   0.129   0.208
 7082SOL     OW22144   0.140   4.186   3.122
 7082SOL    HW122145   0.103   4.123   3.053
 7082SOL    HW222146   0.135   4.143   3.212
 7083SOL     OW22147   5.512   2.569   2.881
 7083SOL    HW122148   5.440   2.515   2.924
 7083SOL    HW222149   5.564   2.512   2.818
 7084SOL     OW22150   1.160   5.797   6.901
 7084SOL    HW122151   1.074   5.780   6.853
 7084SOL    HW222152   1.201   5.710   6.928
 7085SOL     OW22153   0.583   3.459   2.083
 7085SOL    HW122154   0.505   3.478   2.143
 7085SOL    HW222155   0.650   3.534   2.091
 7086SOL     OW22156   5.176   1.151   4.019
 7086SOL    HW122157   5.107   1.215   3.985
 7086SOL    HW222158   5.192   1.167   4.116
 7087SOL     OW22159   4.954   4.001   2.696
 7087SOL    HW122160   5.040   3.982   2.647
 7087SOL    HW222161   4.879   3.952   2.651
 7088SOL     OW22162   5.900   1.896   5.158
 7088SOL    HW122163   5.999   1.884   5.160
 7088SOL    HW222164   5.870   1.913   5.065
 7089SOL     OW22165   2.921   5.860   1.823
 7089SOL    HW122166   2.948   5.912   1.904
 7089SOL    HW222167   2.915   5.921   1.744
 7090SOL     OW22168   4.452   2.901   1.345
 7090SOL    HW122169   4.517   2.952   1.401
 7090SOL    HW222170   4.412   2.828   1.400
 7091SOL     OW22171   0.595   6.109   0.149
 7091SOL    HW122172   0.550   6.161   0.076
 7091SOL    HW222173   0.618   6.017   0.115
 7092SOL     OW22174   4.307   0.700   6.285
 7092SOL    HW122175   4.273   0.606   6.280
 7092SOL    HW222176   4.343   0.717   6.377
 7093SOL     OW22177   3.335   3.010   1.260
 7093SOL    HW122178   3.305   2.918   1.285
 7093SOL    HW222179   3.324   3.071   1.339
 7094SOL     OW22180   3.334   0.663   5.667
 7094SOL    HW122181   3.310   0.747   5.618
 7094SOL    HW222182   3.251   0.617   5.698
 7095SOL     OW22183   2.255   4.762   4.608
 7095SOL    HW122184   2.309   4.845   4.596
 7095SOL    HW222185   2.272   4.724   4.699
 7096SOL     OW22186   6.927   0.401   0.968
 7096SOL    HW122187   6.915   0.500   0.955
 7096SOL    HW222188   6.940   0.358   0.879
 7097SOL     OW22189   4.752   1.692   2.127
 7097SOL    HW122190   4.711   1.655   2.044
 7097SOL    HW222191   4.688   1.682   2.203
 7098SOL     OW22192   1.137   0.021   3.390
 7098SOL    HW122193   1.072   0.082   3.345
 7098SOL    HW222194   1.230   0.053   3.374
 7099SOL     OW22195   2.915   1.977   4.180
 7099SOL    HW122196   2.914   2.066   4.226
 7099SOL    HW222197   2.853   1.915   4.228
 7100SOL     OW22198   6.639   3.774   1.786
 7100SOL    HW122199   6.663   3.870   1.773
 7100SOL    HW222200   6.540   3.763   1.781
 7101SOL     OW22201   2.451   6.295   5.202
 7101SOL    HW122202   2.450   6.283   5.301
 7101SOL    HW222203   2.544   6.285   5.168
 7102SOL     OW22204   5.640   1.079   2.462
 7102SOL    HW122205   5.576   1.013   2.502
 7102SOL    HW222206   5.651   1.060   2.364
 7103SOL     OW22207   5.050   3.511   3.203
 7103SOL    HW122208   5.018   3.552   3.118
 7103SOL    HW222209   5.149   3.496   3.197
 7104SOL     OW22210   5.200   2.866   3.853
 7104SOL    HW122211   5.285   2.887   3.901
 7104SOL    HW222212   5.207   2.896   3.758
 7105SOL     OW22213   3.584   4.087   3.649
 7105SOL    HW122214   3.495   4.123   3.676
 7105SOL    HW222215   3.576   3.990   3.626
 7106SOL     OW22216   2.885   2.317   1.492
 7106SOL    HW122217   2.875   2.393   1.556
 7106SOL    HW222218   2.922   2.238   1.541
 7107SOL     OW22219   4.221   0.285   6.494
 7107SOL    HW122220   4.274   0.331   6.565
 7107SOL    HW222221   4.150   0.229   6.537
 7108SOL     OW22222   4.784   0.891   2.397
 7108SOL    HW122223   4.779   0.836   2.480
 7108SOL    HW222224   4.765   0.834   2.317
 7109SOL     OW22225   2.666   5.545   6.601
 7109SOL    HW122226   2.649   5.596   6.686
 7109SOL    HW222227   2.727   5.597   6.542
 7110SOL     OW22228   3.758   6.848   4.071
 7110SOL    HW122229   3.695   6.783   4.113
 7110SOL    HW222230   3.809   6.897   4.142
 7111SOL     OW22231   0.256   0.845   5.117
 7111SOL    HW122232   0.200   0.878   5.192
 7111SOL    HW222233   0.296   0.923   5.068
 7112SOL     OW22234   1.117   5.054   4.973
 7112SOL    HW122235   1.029   5.102   4.971
 7112SOL    HW222236   1.106   4.967   5.020
 7113SOL     OW22237   3.911   6.572   5.454
 7113SOL    HW122238   3.840   6.643   5.457
 7113SOL    HW222239   3.906   6.524   5.366
 7114SOL     OW22240   5.708   4.415   0.679
 7114SOL    HW122241   5.682   4.323   0.649
 7114SOL    HW222242   5.802   4.414   0.713
 7115SOL     OW22243   5.908   4.068   6.004
 7115SOL    HW122244   5.976   4.062   5.931
 7115SOL    HW222245   5.953   4.095   6.089
 7116SOL     OW22246   6.284   3.888   4.158
 7116SOL    HW122247   6.340   3.833   4.221
 7116SOL    HW222248   6.344   3.939   4.097
 7117SOL     OW22249   5.458   0.631   3.310
 7117SOL    HW122250   5.497   0.588   3.391
 7117SOL    HW222251   5.456   0.566   3.234
 7118SOL     OW22252   3.709   4.306   5.564
 7118SOL    HW122253   3.610   4.291   5.552
 7118SOL    HW222254   3.724   4.360   5.647
 7119SOL     OW22255   3.285   0.112   4.822
 7119SOL    HW122256   3.200   0.107   4.874
 7119SOL    HW222257   3.289   0.198   4.771
 7120SOL     OW22258   4.423   0.419   0.474
 7120SOL    HW122259   4.489   0.445   0.543
 7120SOL    HW222260   4.468   0.367   0.401
 7121SOL     OW22261   1.421   6.133   1.822
 7121SOL    HW122262   1.411   6.060   1.890
 7121SOL    HW222263   1.400   6.097   1.731
 7122SOL     OW22264   3.522   1.681   0.122
 7122SOL    HW122265   3.428   1.715   0.114
 7122SOL    HW222266   3.558   1.661   0.031
 7123SOL     OW22267   5.358   5.112   6.050
 7123SOL    HW122268   5.330   5.031   5.999
 7123SOL    HW222269   5.303   5.190   6.022
 7124SOL     OW22270   1.129   1.965   1.385
 7124SOL    HW122271   1.074   1.955   1.467
 7124SOL    HW222272   1.165   1.876   1.357
 7125SOL     OW22273   0.603   6.248   2.213
 7125SOL    HW122274   0.648   6.208   2.134
 7125SOL    HW222275   0.548   6.326   2.183
 7126SOL     OW22276   3.203   5.379   1.093
 7126SOL    HW122277   3.160   5.410   1.008
 7126SOL    HW222278   3.164   5.292   1.122
 7127SOL     OW22279   2.549   6.515   6.080
 7127SOL    HW122280   2.534   6.428   6.126
 7127SOL    HW222281   2.595   6.579   6.142
 7128SOL     OW22282   3.928   4.513   6.890
 7128SOL    HW122283   3.896   4.536   6.983
 7128SOL    HW222284   3.969   4.594   6.849
 7129SOL     OW22285   0.603   7.017   0.317
 7129SOL    HW122286   0.508   0.021   0.303
 7129SOL    HW222287   0.607   6.945   0.386
 7130SOL     OW22288   3.298   6.410   3.941
 7130SOL    HW122289   3.241   6.437   4.018
 7130SOL    HW222290   3.243   6.409   3.857
 7131SOL     OW22291   2.326   1.526   1.784
 7131SOL    HW122292   2.327   1.625   1.771
 7131SOL    HW222293   2.240   1.489   1.748
 7132SOL     OW22294   5.389   4.448   0.420
 7132SOL    HW122295   5.488   4.464   0.428
 7132SOL    HW222296   5.356   4.404   0.504
 7133SOL     OW22297   5.189   5.959   2.648
 7133SOL    HW122298   5.186   5.982   2.746
 7133SOL    HW222299   5.277   5.917   2.626
 7134SOL     OW22300   4.711   5.315   0.124
 7134SOL    HW122301   4.738   5.350   0.034
 7134SOL    HW222302   4.694   5.391   0.186
 7135SOL     OW22303   1.915   3.316   1.221
 7135SOL    HW122304   1.854   3.348   1.293
 7135SOL    HW222305   1.866   3.255   1.159
 7136SOL     OW22306   1.423   1.798   1.994
 7136SOL    HW122307   1.435   1.701   1.976
 7136SOL    HW222308   1.507   1.847   1.971
 7137SOL     OW22309   2.825   1.599   1.808
 7137SOL    HW122310   2.778   1.679   1.845
 7137SOL    HW222311   2.916   1.626   1.775
 7138SOL     OW22312   0.834   2.396   0.510
 7138SOL    HW122313   0.807   2.476   0.456
 7138SOL    HW222314   0.848   2.318   0.448
 7139SOL     OW22315   5.918   6.155   0.740
 7139SOL    HW122316   5.882   6.068   0.771
 7139SOL    HW222317   5.934   6.152   0.641
 7140SOL     OW22318   6.010   3.884   0.210
 7140SOL    HW122319   6.016   3.835   0.123
 7140SOL    HW222320   5.934   3.949   0.206
 7141SOL     OW22321   3.553   0.472   1.154
 7141SOL    HW122322   3.484   0.473   1.226
 7141SOL    HW222323   3.609   0.555   1.160
 7142SOL     OW22324   3.527   0.660   4.526
 7142SOL    HW122325   3.460   0.713   4.577
 7142SOL    HW222326   3.619   0.691   4.550
 7143SOL     OW22327   2.683   3.961   6.744
 7143SOL    HW122328   2.670   3.889   6.675
 7143SOL    HW222329   2.743   3.926   6.816
 7144SOL     OW22330   6.645   1.002   6.061
 7144SOL    HW122331   6.622   1.028   5.967
 7144SOL    HW222332   6.571   0.947   6.099
 7145SOL     OW22333   5.272   1.908   6.252
 7145SOL    HW122334   5.362   1.875   6.222
 7145SOL    HW222335   5.204   1.886   6.182
 7146SOL     OW22336   1.211   2.038   5.981
 7146SOL    HW122337   1.216   2.070   5.886
 7146SOL    HW222338   1.125   2.069   6.022
 7147SOL     OW22339   6.396   6.875   1.865
 7147SOL    HW122340   6.335   6.821   1.807
 7147SOL    HW222341   6.441   6.945   1.810
 7148SOL     OW22342   5.861   6.887   1.082
 7148SOL    HW122343   5.923   6.879   1.004
 7148SOL    HW222344   5.881   6.815   1.148
 7149SOL     OW22345   5.689   4.287   5.935
 7149SOL    HW122346   5.632   4.348   5.882
 7149SOL    HW222347   5.672   4.192   5.908
 7150SOL     OW22348   3.238   3.531   6.796
 7150SOL    HW122349   3.304   3.588   6.747
 7150SOL    HW222350   3.250   3.435   6.770
 7151SOL     OW22351   4.189   1.268   0.355
 7151SOL    HW122352   4.179   1.317   0.268
 7151SOL    HW222353   4.252   1.192   0.343
 7152SOL     OW22354   6.395   0.975   6.856
 7152SOL    HW122355   6.423   0.938   6.767
 7152SOL    HW222356   6.446   0.928   6.928
 7153SOL     OW22357   3.757   5.807   0.530
 7153SOL    HW122358   3.830   5.774   0.590
 7153SOL    HW222359   3.769   5.766   0.439
 7154SOL     OW22360   3.690   1.697   1.583
 7154SOL    HW122361   3.674   1.680   1.680
 7154SOL    HW222362   3.615   1.753   1.547
 7155SOL     OW22363   1.181   1.278   1.559
 7155SOL    HW122364   1.154   1.302   1.466
 7155SOL    HW222365   1.108   1.302   1.623
 7156SOL     OW22366   6.193   3.035   5.462
 7156SOL    HW122367   6.185   3.133   5.480
 7156SOL    HW222368   6.190   2.985   5.548
 7157SOL     OW22369   6.942   4.034   6.116
 7157SOL    HW122370   0.011   4.070   6.103
 7157SOL    HW222371   6.937   3.942   6.079
 7158SOL     OW22372   4.625   0.035   4.097
 7158SOL    HW122373   4.565   0.099   4.049
 7158SOL    HW222374   4.619   6.969   4.055
 7159SOL     OW22375   0.003   6.252   3.421
 7159SOL    HW122376   6.989   6.168   3.383
 7159SOL    HW222377   0.101   6.240   3.438
 7160SOL     OW22378   6.639   0.132   3.675
 7160SOL    HW122379   6.669   0.102   3.584
 7160SOL    HW222380   6.553   0.182   3.668
 7161SOL     OW22381   3.969   3.537   2.981
 7161SOL    HW122382   4.019   3.606   3.033
 7161SOL    HW222383   3.897   3.581   2.927
 7162SOL     OW22384   0.538   5.832   1.542
 7162SOL    HW122385   0.589   5.762   1.492
 7162SOL    HW222386   0.560   5.825   1.639
 7163SOL     OW22387   6.854   0.965   0.881
 7163SOL    HW122388   6.896   1.047   0.920
 7163SOL    HW222389   6.769   0.990   0.834
 7164SOL     OW22390   2.300   1.134   6.653
 7164SOL    HW122391   2.302   1.234   6.658
 7164SOL    HW222392   2.394   1.100   6.652
 7165SOL     OW22393   6.358   1.795   0.809
 7165SOL    HW122394   6.343   1.829   0.902
 7165SOL    HW222395   6.270   1.787   0.761
 7166SOL     OW22396   0.085   5.831   5.793
 7166SOL    HW122397   0.136   5.869   5.869
 7166SOL    HW222398   0.050   5.905   5.735
 7167SOL     OW22399   6.376   2.650   4.928
 7167SOL    HW122400   6.441   2.701   4.984
 7167SOL    HW222401   6.425   2.584   4.871
 7168SOL     OW22402   2.012   0.953   1.732
 7168SOL    HW122403   2.063   0.870   1.752
 7168SOL    HW222404   2.072   1.018   1.684
 7169SOL     OW22405   2.248   3.988   6.410
 7169SOL    HW122406   2.305   3.954   6.335
 7169SOL    HW222407   2.153   3.962   6.394
 7170SOL     OW22408   3.788   1.595   0.878
 7170SOL    HW122409   3.859   1.543   0.830
 7170SOL    HW222410   3.762   1.547   0.962
 7171SOL     OW22411   6.939   4.042   0.751
 7171SOL    HW122412   6.870   3.978   0.784
 7171SOL    HW222413   7.015   3.992   0.711
 7172SOL     OW22414   1.014   2.746   3.986
 7172SOL    HW122415   0.988   2.822   3.926
 7172SOL    HW222416   0.947   2.739   4.061
 7173SOL     OW22417   4.686   5.150   5.867
 7173SOL    HW122418   4.588   5.153   5.852
 7173SOL    HW222419   4.728   5.236   5.836
 7174SOL     OW22420   6.831   4.534   1.997
 7174SOL    HW122421   6.783   4.559   2.081
 7174SOL    HW222422   6.855   4.437   1.999
 7175SOL     OW22423   6.752   3.492   6.017
 7175SOL    HW122424   6.757   3.400   6.055
 7175SOL    HW222425   6.731   3.557   6.089
 7176SOL     OW22426   0.474   0.338   5.703
 7176SOL    HW122427   0.539   0.412   5.720
 7176SOL    HW222428   0.489   0.300   5.612
 7177SOL     OW22429   1.334   5.923   3.988
 7177SOL    HW122430   1.351   5.972   3.903
 7177SOL    HW222431   1.235   5.912   4.001
 7178SOL     OW22432   2.061   6.535   5.052
 7178SOL    HW122433   2.096   6.596   4.981
 7178SOL    HW222434   2.003   6.465   5.010
 7179SOL     OW22435   3.748   5.414   6.171
 7179SOL    HW122436   3.666   5.415   6.228
 7179SOL    HW222437   3.769   5.507   6.141
 7180SOL     OW22438   1.812   3.156   1.618
 7180SOL    HW122439   1.910   3.139   1.609
 7180SOL    HW222440   1.780   3.121   1.706
 7181SOL     OW22441   2.696   1.489   6.285
 7181SOL    HW122442   2.602   1.487   6.320
 7181SOL    HW222443   2.720   1.399   6.251
 7182SOL     OW22444   1.824   1.428   4.250
 7182SOL    HW122445   1.802   1.458   4.158
 7182SOL    HW222446   1.913   1.382   4.250
 7183SOL     OW22447   0.834   6.468   1.869
 7183SOL    HW122448   0.791   6.523   1.940
 7183SOL    HW222449   0.895   6.525   1.814
 7184SOL     OW22450   6.543   0.556   3.992
 7184SOL    HW122451   6.562   0.545   4.089
 7184SOL    HW222452   6.486   0.481   3.960
 7185SOL     OW22453   4.012   0.852   4.919
 7185SOL    HW122454   3.933   0.912   4.907
 7185SOL    HW222455   3.983   0.768   4.966
 7186SOL     OW22456   6.692   0.669   6.689
 7186SOL    HW122457   6.619   0.683   6.621
 7186SOL    HW222458   6.769   0.622   6.646
 7187SOL     OW22459   3.226   3.368   3.913
 7187SOL    HW122460   3.156   3.319   3.861
 7187SOL    HW222461   3.284   3.303   3.962
 7188SOL     OW22462   4.320   4.563   0.179
 7188SOL    HW122463   4.302   4.515   0.093
 7188SOL    HW222464   4.290   4.658   0.172
 7189SOL     OW22465   6.272   2.589   5.761
 7189SOL    HW122466   6.267   2.494   5.732
 7189SOL    HW222467   6.249   2.596   5.858
 7190SOL     OW22468   5.924   4.881   0.260
 7190SOL    HW122469   5.860   4.937   0.311
 7190SOL    HW222470   5.992   4.939   0.216
 7191SOL     OW22471   6.539   4.799   3.607
 7191SOL    HW122472   6.445   4.780   3.636
 7191SOL    HW222473   6.547   4.896   3.583
 7192SOL     OW22474   2.853   4.358   6.601
 7192SOL    HW122475   2.827   4.388   6.509
 7192SOL    HW222476   2.772   4.327   6.650
 7193SOL     OW22477   3.088   1.835   2.706
 7193SOL    HW122478   3.077   1.757   2.769
 7193SOL    HW222479   3.181   1.835   2.670
 7194SOL     OW22480   3.035   2.989   6.091
 7194SOL    HW122481   2.965   3.054   6.121
 7194SOL    HW222482   3.003   2.896   6.108
 7195SOL     OW22483   0.667   5.222   5.075
 7195SOL    HW122484   0.568   5.233   5.088
 7195SOL    HW222485   0.713   5.228   5.163
 7196SOL     OW22486   3.350   4.125   2.183
 7196SOL    HW122487   3.289   4.090   2.254
 7196SOL    HW222488   3.309   4.206   2.141
 7197SOL     OW22489   2.999   4.772   6.625
 7197SOL    HW122490   3.034   4.742   6.714
 7197SOL    HW222491   2.902   4.795   6.634
 7198SOL     OW22492   0.853   0.694   1.932
 7198SOL    HW122493   0.931   0.657   1.982
 7198SOL    HW222494   0.784   0.726   1.997
 7199SOL     OW22495   6.226   1.507   2.396
 7199SOL    HW122496   6.156   1.463   2.453
 7199SOL    HW222497   6.181   1.557   2.322
 7200SOL     OW22498   1.101   2.525   0.841
 7200SOL    HW122499   1.193   2.487   0.848
 7200SOL    HW222500   1.074   2.530   0.745
 7201SOL     OW22501   5.587   5.114   3.945
 7201SOL    HW122502   5.666   5.055   3.958
 7201SOL    HW222503   5.536   5.122   4.031
 7202SOL     OW22504   4.995   0.407   5.998
 7202SOL    HW122505   5.064   0.466   6.040
 7202SOL    HW222506   5.041   0.333   5.948
 7203SOL     OW22507   0.323   1.143   1.150
 7203SOL    HW122508   0.419   1.170   1.156
 7203SOL    HW222509   0.297   1.131   1.054
 7204SOL     OW22510   6.385   0.455   2.196
 7204SOL    HW122511   6.466   0.514   2.208
 7204SOL    HW222512   6.412   0.359   2.207
 7205SOL     OW22513   2.937   2.024   3.866
 7205SOL    HW122514   2.940   2.021   3.966
 7205SOL    HW222515   2.940   1.931   3.830
 7206SOL     OW22516   2.073   3.340   0.384
 7206SOL    HW122517   1.993   3.386   0.423
 7206SOL    HW222518   2.043   3.268   0.322
 7207SOL     OW22519   1.800   1.080   3.406
 7207SOL    HW122520   1.701   1.091   3.405
 7207SOL    HW222521   1.828   1.017   3.334
 7208SOL     OW22522   2.737   0.646   4.477
 7208SOL    HW122523   2.786   0.715   4.423
 7208SOL    HW222524   2.803   0.580   4.514
 7209SOL     OW22525   3.737   1.198   1.987
 7209SOL    HW122526   3.757   1.280   1.932
 7209SOL    HW222527   3.823   1.148   2.004
 7210SOL     OW22528   2.545   1.603   2.980
 7210SOL    HW122529   2.469   1.635   3.037
 7210SOL    HW222530   2.557   1.504   2.993
 7211SOL     OW22531   4.731   6.358   4.998
 7211SOL    HW122532   4.670   6.384   5.073
 7211SOL    HW222533   4.814   6.413   5.003
 7212SOL     OW22534   0.037   4.829   6.090
 7212SOL    HW122535   0.039   4.757   6.021
 7212SOL    HW222536   6.998   4.901   6.062
 7213SOL     OW22537   3.520   2.157   6.939
 7213SOL    HW122538   3.611   2.171   6.978
 7213SOL    HW222539   3.497   2.059   6.944
 7214SOL     OW22540   6.729   0.575   6.192
 7214SOL    HW122541   6.716   0.649   6.126
 7214SOL    HW222542   6.741   0.489   6.144
 7215SOL     OW22543   6.023   2.206   2.550
 7215SOL    HW122544   5.967   2.185   2.631
 7215SOL    HW222545   6.042   2.304   2.547
 7216SOL     OW22546   3.666   6.489   3.386
 7216SOL    HW122547   3.706   6.454   3.301
 7216SOL    HW222548   3.647   6.413   3.448
 7217SOL     OW22549   1.185   2.919   2.960
 7217SOL    HW122550   1.284   2.931   2.949
 7217SOL    HW222551   1.142   3.008   2.970
 7218SOL     OW22552   6.528   3.182   4.579
 7218SOL    HW122553   6.525   3.278   4.605
 7218SOL    HW222554   6.441   3.138   4.601
 7219SOL     OW22555   3.444   6.514   2.689
 7219SOL    HW122556   3.349   6.499   2.663
 7219SOL    HW222557   3.482   6.430   2.729
 7220SOL     OW22558   6.376   4.888   3.978
 7220SOL    HW122559   6.401   4.793   3.997
 7220SOL    HW222560   6.373   4.902   3.879
 7221SOL     OW22561   3.778   5.948   3.648
 7221SOL    HW122562   3.756   5.971   3.743
 7221SOL    HW222563   3.833   5.865   3.645
 7222SOL     OW22564   6.819   5.849   4.673
 7222SOL    HW122565   6.877   5.920   4.711
 7222SOL    HW222566   6.874   5.788   4.616
 7223SOL     OW22567   6.875   4.050   1.837
 7223SOL    HW122568   6.834   4.033   1.748
 7223SOL    HW222569   6.955   3.992   1.849
 7224SOL     OW22570   3.809   1.900   2.493
 7224SOL    HW122571   3.802   1.998   2.472
 7224SOL    HW222572   3.768   1.882   2.582
 7225SOL     OW22573   1.647   5.738   1.126
 7225SOL    HW122574   1.552   5.749   1.156
 7225SOL    HW222575   1.648   5.692   1.037
 7226SOL     OW22576   6.502   6.376   0.719
 7226SOL    HW122577   6.518   6.439   0.643
 7226SOL    HW222578   6.589   6.358   0.765
 7227SOL     OW22579   2.258   0.737   2.675
 7227SOL    HW122580   2.273   0.639   2.689
 7227SOL    HW222581   2.161   0.754   2.660
 7228SOL     OW22582   0.033   2.998   2.095
 7228SOL    HW122583   0.088   2.953   2.164
 7228SOL    HW222584   0.004   3.088   2.129
 7229SOL     OW22585   6.430   1.014   5.408
 7229SOL    HW122586   6.449   0.916   5.406
 7229SOL    HW222587   6.339   1.030   5.447
 7230SOL     OW22588   1.939   5.244   4.370
 7230SOL    HW122589   1.842   5.224   4.377
 7230SOL    HW222590   1.992   5.167   4.406
 7231SOL     OW22591   4.380   1.963   6.302
 7231SOL    HW122592   4.471   2.003   6.294
 7231SOL    HW222593   4.315   2.015   6.246
 7232SOL     OW22594   5.078   6.901   3.597
 7232SOL    HW122595   4.985   6.895   3.561
 7232SOL    HW222596   5.095   6.992   3.633
 7233SOL     OW22597   0.125   1.213   4.980
 7233SOL    HW122598   0.046   1.158   5.005
 7233SOL    HW222599   0.206   1.155   4.973
 7234SOL     OW22600   5.058   4.033   3.456
 7234SOL    HW122601   5.020   3.942   3.437
 7234SOL    HW222602   5.121   4.058   3.382
 7235SOL     OW22603   0.169   5.259   1.575
 7235SOL    HW122604   0.225   5.337   1.605
 7235SOL    HW222605   0.149   5.268   1.477
 7236SOL     OW22606   1.047   3.418   2.690
 7236SOL    HW122607   1.140   3.449   2.710
 7236SOL    HW222608   1.045   3.378   2.599
 7237SOL     OW22609   5.843   1.079   0.165
 7237SOL    HW122610   5.909   1.154   0.171
 7237SOL    HW222611   5.753   1.112   0.193
 7238SOL     OW22612   3.989   3.096   6.832
 7238SOL    HW122613   4.071   3.043   6.855
 7238SOL    HW222614   3.910   3.035   6.827
 7239SOL     OW22615   6.952   2.596   2.078
 7239SOL    HW122616   6.886   2.625   2.009
 7239SOL    HW222617   0.007   2.554   2.033
 7240SOL     OW22618   6.561   1.853   6.711
 7240SOL    HW122619   6.529   1.896   6.627
 7240SOL    HW222620   6.642   1.903   6.744
 7241SOL     OW22621   2.410   1.200   1.476
 7241SOL    HW122622   2.411   1.300   1.479
 7241SOL    HW222623   2.427   1.169   1.383
 7242SOL     OW22624   6.619   5.123   4.444
 7242SOL    HW122625   6.600   5.166   4.356
 7242SOL    HW222626   6.556   5.047   4.458
 7243SOL     OW22627   6.005   4.379   5.903
 7243SOL    HW122628   5.969   4.336   5.985
 7243SOL    HW222629   5.931   4.397   5.839
 7244SOL     OW22630   0.581   5.786   6.831
 7244SOL    HW122631   0.580   5.808   6.734
 7244SOL    HW222632   0.578   5.686   6.843
 7245SOL     OW22633   0.797   3.072   0.385
 7245SOL    HW122634   0.760   3.162   0.361
 7245SOL    HW222635   0.859   3.081   0.463
 7246SOL     OW22636   3.551   6.500   3.810
 7246SOL    HW122637   3.456   6.524   3.835
 7246SOL    HW222638   3.598   6.465   3.891
 7247SOL     OW22639   3.125   3.807   5.377
 7247SOL    HW122640   3.036   3.823   5.335
 7247SOL    HW222641   3.174   3.736   5.325
 7248SOL     OW22642   3.516   1.350   4.999
 7248SOL    HW122643   3.520   1.284   4.923
 7248SOL    HW222644   3.443   1.416   4.981
 7249SOL     OW22645   3.661   5.437   2.229
 7249SOL    HW122646   3.685   5.406   2.321
 7249SOL    HW222647   3.743   5.435   2.171
 7250SOL     OW22648   5.459   5.256   5.809
 7250SOL    HW122649   5.517   5.285   5.733
 7250SOL    HW222650   5.514   5.249   5.892
 7251SOL     OW22651   0.216   5.606   5.681
 7251SOL    HW122652   0.189   5.699   5.705
 7251SOL    HW222653   0.180   5.582   5.591
 7252SOL     OW22654   3.622   4.072   2.348
 7252SOL    HW122655   3.581   4.163   2.337
 7252SOL    HW222656   3.678   4.051   2.268
 7253SOL     OW22657   1.620   5.818   4.972
 7253SOL    HW122658   1.636   5.905   5.019
 7253SOL    HW222659   1.703   5.762   4.976
 7254SOL     OW22660   5.211   3.249   3.870
 7254SOL    HW122661   5.120   3.232   3.906
 7254SOL    HW222662   5.205   3.312   3.792
 7255SOL     OW22663   5.019   3.122   6.820
 7255SOL    HW122664   4.970   3.145   6.904
 7255SOL    HW222665   5.004   3.194   6.752
 7256SOL     OW22666   3.302   0.317   5.500
 7256SOL    HW122667   3.378   0.337   5.438
 7256SOL    HW222668   3.225   0.377   5.478
 7257SOL     OW22669   0.593   1.670   4.279
 7257SOL    HW122670   0.681   1.691   4.236
 7257SOL    HW222671   0.569   1.744   4.342
 7258SOL     OW22672   6.271   2.279   3.168
 7258SOL    HW122673   6.298   2.299   3.263
 7258SOL    HW222674   6.172   2.281   3.160
 7259SOL     OW22675   1.542   4.351   2.826
 7259SOL    HW122676   1.546   4.381   2.731
 7259SOL    HW222677   1.446   4.341   2.853
 7260SOL     OW22678   5.848   3.172   1.377
 7260SOL    HW122679   5.789   3.103   1.418
 7260SOL    HW222680   5.926   3.189   1.437
 7261SOL     OW22681   6.867   4.303   6.778
 7261SOL    HW122682   6.914   4.323   6.864
 7261SOL    HW222683   6.919   4.236   6.726
 7262SOL     OW22684   6.720   1.391   5.444
 7262SOL    HW122685   6.683   1.479   5.413
 7262SOL    HW222686   6.755   1.401   5.537
 7263SOL     OW22687   0.289   5.148   7.013
 7263SOL    HW122688   0.327   5.081   0.053
 7263SOL    HW222689   0.201   5.182   0.023
 7264SOL     OW22690   6.362   1.525   0.777
 7264SOL    HW122691   6.289   1.507   0.842
 7264SOL    HW222692   6.401   1.616   0.794
 7265SOL     OW22693   4.347   5.721   5.745
 7265SOL    HW122694   4.291   5.787   5.694
 7265SOL    HW222695   4.288   5.650   5.783
 7266SOL     OW22696   0.185   0.689   3.659
 7266SOL    HW122697   0.188   0.694   3.559
 7266SOL    HW222698   0.131   0.610   3.686
 7267SOL     OW22699   6.034   5.242   4.196
 7267SOL    HW122700   5.959   5.188   4.233
 7267SOL    HW222701   6.107   5.182   4.164
 7268SOL     OW22702   5.979   6.191   4.284
 7268SOL    HW122703   5.983   6.282   4.244
 7268SOL    HW222704   6.050   6.182   4.354
 7269SOL     OW22705   2.490   4.497   4.972
 7269SOL    HW122706   2.518   4.466   5.062
 7269SOL    HW222707   2.570   4.526   4.920
 7270SOL     OW22708   0.750   1.430   4.333
 7270SOL    HW122709   0.766   1.382   4.247
 7270SOL    HW222710   0.688   1.506   4.318
 7271SOL     OW22711   0.770   4.154   3.550
 7271SOL    HW122712   0.705   4.225   3.522
 7271SOL    HW222713   0.801   4.172   3.643
 7272SOL     OW22714   6.222   4.959   2.870
 7272SOL    HW122715   6.247   5.054   2.889
 7272SOL    HW222716   6.197   4.914   2.956
 7273SOL     OW22717   0.095   2.515   5.300
 7273SOL    HW122718   0.042   2.575   5.360
 7273SOL    HW222719   0.056   2.423   5.303
 7274SOL     OW22720   0.339   4.449   0.054
 7274SOL    HW122721   0.292   4.361   0.045
 7274SOL    HW222722   0.294   4.504   0.123
 7275SOL     OW22723   6.650   0.141   2.804
 7275SOL    HW122724   6.598   0.066   2.762
 7275SOL    HW222725   6.613   0.159   2.895
 7276SOL     OW22726   4.889   6.592   3.898
 7276SOL    HW122727   4.868   6.658   3.971
 7276SOL    HW222728   4.861   6.501   3.927
 7277SOL     OW22729   4.717   0.328   6.114
 7277SOL    HW122730   4.647   0.397   6.133
 7277SOL    HW222731   4.761   0.349   6.026
 7278SOL     OW22732   3.159   4.067   3.055
 7278SOL    HW122733   3.178   4.109   3.144
 7278SOL    HW222734   3.124   3.974   3.068
 7279SOL     OW22735   3.572   6.268   6.062
 7279SOL    HW122736   3.535   6.246   5.972
 7279SOL    HW222737   3.513   6.229   6.133
 7280SOL     OW22738   5.106   1.450   6.026
 7280SOL    HW122739   5.075   1.372   6.079
 7280SOL    HW222740   5.108   1.427   5.929
 7281SOL     OW22741   4.648   1.159   7.024
 7281SOL    HW122742   4.588   1.208   0.063
 7281SOL    HW222743   4.735   1.209   7.014
 7282SOL     OW22744   6.645   5.554   2.137
 7282SOL    HW122745   6.679   5.648   2.143
 7282SOL    HW222746   6.648   5.512   2.228
 7283SOL     OW22747   1.950   0.764   3.943
 7283SOL    HW122748   1.928   0.793   3.850
 7283SOL    HW222749   1.871   0.781   4.002
 7284SOL     OW22750   6.939   3.862   5.275
 7284SOL    HW122751   6.854   3.810   5.284
 7284SOL    HW222752   6.945   3.900   5.182
 7285SOL     OW22753   5.324   5.233   2.120
 7285SOL    HW122754   5.371   5.317   2.144
 7285SOL    HW222755   5.300   5.183   2.203
 7286SOL     OW22756   2.086   2.976   1.230
 7286SOL    HW122757   2.054   3.031   1.153
 7286SOL    HW222758   2.143   3.033   1.290
 7287SOL     OW22759   6.217   1.021   6.465
 7287SOL    HW122760   6.137   1.038   6.407
 7287SOL    HW222761   6.244   0.926   6.457
 7288SOL     OW22762   3.870   6.936   6.870
 7288SOL    HW122763   3.838   6.954   6.777
 7288SOL    HW222764   3.841   7.010   6.930
 7289SOL     OW22765   4.585   2.148   3.280
 7289SOL    HW122766   4.524   2.227   3.272
 7289SOL    HW222767   4.575   2.107   3.371
 7290SOL     OW22768   2.675   5.032   4.777
 7290SOL    HW122769   2.762   5.056   4.818
 7290SOL    HW222770   2.661   5.086   4.694
 7291SOL     OW22771   2.635   5.943   1.572
 7291SOL    HW122772   2.726   5.946   1.614
 7291SOL    HW222773   2.613   5.849   1.545
 7292SOL     OW22774   2.441   6.759   3.799
 7292SOL    HW122775   2.532   6.800   3.798
 7292SOL    HW222776   2.441   6.680   3.860
 7293SOL     OW22777   1.567   2.059   5.333
 7293SOL    HW122778   1.503   2.045   5.257
 7293SOL    HW222779   1.528   2.123   5.398
 7294SOL     OW22780   3.026   4.785   0.799
 7294SOL    HW122781   2.955   4.799   0.868
 7294SOL    HW222782   3.001   4.707   0.741
 7295SOL     OW22783   6.619   0.501   0.975
 7295SOL    HW122784   6.588   0.495   1.070
 7295SOL    HW222785   6.709   0.543   0.972
 7296SOL     OW22786   3.473   4.650   1.338
 7296SOL    HW122787   3.481   4.550   1.331
 7296SOL    HW222788   3.386   4.673   1.381
 7297SOL     OW22789   4.779   6.725   1.663
 7297SOL    HW122790   4.735   6.805   1.624
 7297SOL    HW222791   4.746   6.710   1.756
 7298SOL     OW22792   5.874   3.624   4.168
 7298SOL    HW122793   5.924   3.670   4.094
 7298SOL    HW222794   5.803   3.566   4.130
 7299SOL     OW22795   6.187   3.976   6.964
 7299SOL    HW122796   6.110   3.913   6.952
 7299SOL    HW222797   6.154   4.065   6.995
 7300SOL     OW22798   5.105   5.276   1.207
 7300SOL    HW122799   5.169   5.308   1.277
 7300SOL    HW222800   5.112   5.177   1.198
 7301SOL     OW22801   6.933   6.983   6.001
 7301SOL    HW122802   6.837   6.967   6.024
 7301SOL    HW222803   6.938   0.022   5.923
 7302SOL     OW22804   5.696   0.602   6.690
 7302SOL    HW122805   5.692   0.534   6.763
 7302SOL    HW222806   5.618   0.664   6.698
 7303SOL     OW22807   3.240   0.585   6.800
 7303SOL    HW122808   3.162   0.591   6.863
 7303SOL    HW222809   3.248   0.492   6.765
 7304SOL     OW22810   4.047   3.985   6.379
 7304SOL    HW122811   3.967   4.024   6.425
 7304SOL    HW222812   4.104   4.059   6.343
 7305SOL     OW22813   4.824   1.020   0.534
 7305SOL    HW122814   4.907   1.031   0.480
 7305SOL    HW222815   4.762   1.097   0.514
 7306SOL     OW22816   4.131   5.021   1.564
 7306SOL    HW122817   4.066   5.095   1.574
 7306SOL    HW222818   4.196   5.043   1.491
 7307SOL     OW22819   4.324   6.725   2.106
 7307SOL    HW122820   4.290   6.782   2.180
 7307SOL    HW222821   4.316   6.775   2.019
 7308SOL     OW22822   6.645   3.119   4.835
 7308SOL    HW122823   6.597   3.164   4.759
 7308SOL    HW222824   6.634   3.174   4.918
 7309SOL     OW22825   4.820   6.582   1.442
 7309SOL    HW122826   4.893   6.521   1.473
 7309SOL    HW222827   4.791   6.640   1.517
 7310SOL     OW22828   3.080   4.918   1.311
 7310SOL    HW122829   3.052   4.973   1.390
 7310SOL    HW222830   3.140   4.844   1.342
 7311SOL     OW22831   2.698   2.169   1.973
 7311SOL    HW122832   2.778   2.226   1.960
 7311SOL    HW222833   2.624   2.201   1.913
 7312SOL     OW22834   6.748   1.496   5.686
 7312SOL    HW122835   6.766   1.444   5.770
 7312SOL    HW222836   6.748   1.594   5.706
 7313SOL     OW22837   3.821   2.770   6.408
 7313SOL    HW122838   3.741   2.757   6.467
 7313SOL    HW222839   3.849   2.866   6.411
 7314SOL     OW22840   0.151   3.563   4.697
 7314SOL    HW122841   0.191   3.650   4.724
 7314SOL    HW222842   0.060   3.578   4.659
 7315SOL     OW22843   6.448   0.030   3.873
 7315SOL    HW122844   6.537   0.068   3.850
 7315SOL    HW222845   6.410   7.007   3.794
 7316SOL     OW22846   3.589   3.532   5.625
 7316SOL    HW122847   3.505   3.564   5.581
 7316SOL    HW222848   3.619   3.599   5.693
 7317SOL     OW22849   3.515   1.241   3.377
 7317SOL    HW122850   3.464   1.236   3.463
 7317SOL    HW222851   3.612   1.223   3.394
 7318SOL     OW22852   1.262   2.531   1.202
 7318SOL    HW122853   1.249   2.608   1.139
 7318SOL    HW222854   1.249   2.563   1.296
 7319SOL     OW22855   6.082   4.346   6.544
 7319SOL    HW122856   6.166   4.296   6.521
 7319SOL    HW222857   6.069   4.421   6.479
 7320SOL     OW22858   0.222   3.032   2.552
 7320SOL    HW122859   0.300   3.035   2.614
 7320SOL    HW222860   0.142   3.072   2.597
 7321SOL     OW22861   2.491   1.314   4.420
 7321SOL    HW122862   2.499   1.414   4.415
 7321SOL    HW222863   2.543   1.273   4.346
 7322SOL     OW22864   0.602   4.294   2.722
 7322SOL    HW122865   0.637   4.384   2.699
 7322SOL    HW222866   0.660   4.224   2.680
 7323SOL     OW22867   2.109   2.724   3.768
 7323SOL    HW122868   2.165   2.642   3.757
 7323SOL    HW222869   2.016   2.697   3.795
 7324SOL     OW22870   6.281   0.769   3.235
 7324SOL    HW122871   6.296   0.820   3.320
 7324SOL    HW222872   6.192   0.795   3.196
 7325SOL     OW22873   3.331   6.288   6.548
 7325SOL    HW122874   3.319   6.335   6.636
 7325SOL    HW222875   3.250   6.234   6.528
 7326SOL     OW22876   2.922   6.744   5.995
 7326SOL    HW122877   3.014   6.732   5.957
 7326SOL    HW222878   2.857   6.691   5.940
 7327SOL     OW22879   1.468   3.062   6.251
 7327SOL    HW122880   1.377   3.068   6.209
 7327SOL    HW222881   1.459   3.029   6.346
 7328SOL     OW22882   2.299   0.121   6.594
 7328SOL    HW122883   2.227   0.128   6.525
 7328SOL    HW222884   2.291   0.197   6.659
 7329SOL     OW22885   3.944   3.263   1.068
 7329SOL    HW122886   3.953   3.361   1.052
 7329SOL    HW222887   3.927   3.215   0.982
 7330SOL     OW22888   3.732   1.192   6.829
 7330SOL    HW122889   3.638   1.160   6.815
 7330SOL    HW222890   3.730   1.281   6.875
 7331SOL     OW22891   5.091   0.865   2.421
 7331SOL    HW122892   5.080   0.834   2.515
 7331SOL    HW222893   5.125   0.789   2.365
 7332SOL     OW22894   3.452   5.488   0.874
 7332SOL    HW122895   3.405   5.414   0.826
 7332SOL    HW222896   3.386   5.561   0.896
 7333SOL     OW22897   0.996   4.661   2.590
 7333SOL    HW122898   1.091   4.637   2.610
 7333SOL    HW222899   0.983   4.664   2.490
 7334SOL     OW22900   4.055   6.308   4.714
 7334SOL    HW122901   4.049   6.364   4.631
 7334SOL    HW222902   4.123   6.236   4.700
 7335SOL     OW22903   1.917   2.079   2.552
 7335SOL    HW122904   1.989   2.048   2.614
 7335SOL    HW222905   1.882   2.167   2.583
 7336SOL     OW22906   2.305   6.019   3.870
 7336SOL    HW122907   2.312   6.118   3.858
 7336SOL    HW222908   2.209   5.991   3.866
 7337SOL     OW22909   0.187   3.160   2.311
 7337SOL    HW122910   0.208   3.114   2.398
 7337SOL    HW222911   0.116   3.228   2.326
 7338SOL     OW22912   6.568   2.119   0.813
 7338SOL    HW122913   6.590   2.060   0.735
 7338SOL    HW222914   6.653   2.147   0.858
 7339SOL     OW22915   6.838   5.400   4.938
 7339SOL    HW122916   6.852   5.308   4.975
 7339SOL    HW222917   6.761   5.398   4.874
 7340SOL     OW22918   2.278   6.885   0.210
 7340SOL    HW122919   2.256   6.900   0.306
 7340SOL    HW222920   2.206   6.830   0.167
 7341SOL     OW22921   6.165   2.344   6.524
 7341SOL    HW122922   6.245   2.338   6.464
 7341SOL    HW222923   6.186   2.402   6.603
 7342SOL     OW22924   0.038   0.173   2.461
 7342SOL    HW122925   0.099   0.246   2.429
 7342SOL    HW222926   0.058   0.089   2.411
 7343SOL     OW22927   5.153   3.780   0.588
 7343SOL    HW122928   5.224   3.725   0.630
 7343SOL    HW222929   5.067   3.728   0.585
 7344SOL     OW22930   1.435   6.207   6.194
 7344SOL    HW122931   1.521   6.235   6.151
 7344SOL    HW222932   1.373   6.285   6.196
 7345SOL     OW22933   3.474   4.985   5.765
 7345SOL    HW122934   3.456   4.887   5.756
 7345SOL    HW222935   3.436   5.033   5.686
 7346SOL     OW22936   4.845   5.201   3.214
 7346SOL    HW122937   4.800   5.288   3.231
 7346SOL    HW222938   4.826   5.138   3.289
 7347SOL     OW22939   5.806   2.474   6.229
 7347SOL    HW122940   5.822   2.408   6.302
 7347SOL    HW222941   5.764   2.556   6.267
 7348SOL     OW22942   0.678   4.640   2.203
 7348SOL    HW122943   0.588   4.631   2.161
 7348SOL    HW222944   0.744   4.583   2.155
 7349SOL     OW22945   3.920   1.961   1.236
 7349SOL    HW122946   4.013   1.965   1.273
 7349SOL    HW222947   3.854   1.954   1.312
 7350SOL     OW22948   3.236   0.570   5.128
 7350SOL    HW122949   3.316   0.590   5.072
 7350SOL    HW222950   3.173   0.512   5.077
 7351SOL     OW22951   3.303   4.992   4.191
 7351SOL    HW122952   3.280   4.992   4.288
 7351SOL    HW222953   3.221   4.973   4.137
 7352SOL     OW22954   6.951   2.603   3.519
 7352SOL    HW122955   0.011   2.635   3.564
 7352SOL    HW222956   6.873   2.619   3.581
 7353SOL     OW22957   6.335   0.466   6.560
 7353SOL    HW122958   6.249   0.498   6.519
 7353SOL    HW222959   6.352   0.516   6.645
 7354SOL     OW22960   1.209   1.405   2.863
 7354SOL    HW122961   1.252   1.468   2.798
 7354SOL    HW222962   1.278   1.368   2.925
 7355SOL     OW22963   0.813   2.262   6.947
 7355SOL    HW122964   0.750   2.301   7.014
 7355SOL    HW222965   0.772   2.182   6.903
 7356SOL     OW22966   4.419   4.145   6.015
 7356SOL    HW122967   4.397   4.073   5.950
 7356SOL    HW222968   4.422   4.233   5.967
 7357SOL     OW22969   5.245   6.365   2.346
 7357SOL    HW122970   5.276   6.410   2.430
 7357SOL    HW222971   5.202   6.278   2.369
 7358SOL     OW22972   5.002   1.274   3.756
 7358SOL    HW122973   4.940   1.225   3.694
 7358SOL    HW222974   4.951   1.347   3.801
 7359SOL     OW22975   4.931   0.242   0.116
 7359SOL    HW122976   4.997   0.170   0.098
 7359SOL    HW222977   4.946   0.280   0.207
 7360SOL     OW22978   2.872   3.499   5.569
 7360SOL    HW122979   2.898   3.521   5.475
 7360SOL    HW222980   2.874   3.400   5.582
 7361SOL     OW22981   5.262   0.786   3.014
 7361SOL    HW122982   5.259   0.687   3.001
 7361SOL    HW222983   5.267   0.807   3.112
 7362SOL     OW22984   3.485   4.946   6.409
 7362SOL    HW122985   3.526   5.031   6.376
 7362SOL    HW222986   3.399   4.929   6.361
 7363SOL     OW22987   3.864   6.945   1.412
 7363SOL    HW122988   3.815   6.875   1.464
 7363SOL    HW222989   3.882   6.912   1.320
 7364SOL     OW22990   5.316   0.105   1.622
 7364SOL    HW122991   5.393   0.084   1.562
 7364SOL    HW222992   5.239   0.137   1.567
 7365SOL     OW22993   5.801   4.745   2.084
 7365SOL    HW122994   5.758   4.766   2.172
 7365SOL    HW222995   5.789   4.823   2.022
 7366SOL     OW22996   2.047   1.249   4.224
 7366SOL    HW122997   1.999   1.166   4.253
 7366SOL    HW222998   2.127   1.224   4.170
 7367SOL     OW22999   4.573   0.404   6.409
 7367SOL    HW123000   4.488   0.434   6.452
 7367SOL    HW223001   4.591   0.461   6.328
 7368SOL     OW23002   4.141   3.510   3.326
 7368SOL    HW123003   4.125   3.608   3.319
 7368SOL    HW223004   4.209   3.482   3.258
 7369SOL     OW23005   5.848   2.480   1.308
 7369SOL    HW123006   5.933   2.490   1.256
 7369SOL    HW223007   5.854   2.399   1.366
 7370SOL     OW23008   1.981   2.005   4.391
 7370SOL    HW123009   1.962   2.061   4.310
 7370SOL    HW223010   2.078   2.012   4.414
 7371SOL     OW23011   3.815   0.797   3.761
 7371SOL    HW123012   3.889   0.826   3.821
 7371SOL    HW223013   3.847   0.726   3.699
 7372SOL     OW23014   5.147   0.728   5.240
 7372SOL    HW123015   5.095   0.814   5.239
 7372SOL    HW223016   5.201   0.721   5.157
 7373SOL     OW23017   5.363   3.309   4.553
 7373SOL    HW123018   5.414   3.254   4.487
 7373SOL    HW223019   5.410   3.309   4.641
 7374SOL     OW23020   6.874   1.822   5.818
 7374SOL    HW123021   6.833   1.819   5.910
 7374SOL    HW223022   6.945   1.752   5.811
 7375SOL     OW23023   1.963   3.258   2.389
 7375SOL    HW123024   2.026   3.252   2.312
 7375SOL    HW223025   1.952   3.168   2.431
 7376SOL     OW23026   0.167   3.662   0.261
 7376SOL    HW123027   0.141   3.682   0.167
 7376SOL    HW223028   0.265   3.681   0.274
 7377SOL     OW23029   3.059   6.298   0.620
 7377SOL    HW123030   3.130   6.260   0.561
 7377SOL    HW223031   3.009   6.223   0.664
 7378SOL     OW23032   1.466   6.129   4.159
 7378SOL    HW123033   1.440   6.045   4.111
 7378SOL    HW223034   1.492   6.199   4.093
 7379SOL     OW23035   3.985   0.961   1.036
 7379SOL    HW123036   3.908   0.934   0.979
 7379SOL    HW223037   4.070   0.950   0.984
 7380SOL     OW23038   5.243   3.026   2.368
 7380SOL    HW123039   5.329   2.986   2.336
 7380SOL    HW223040   5.257   3.123   2.388
 7381SOL     OW23041   4.006   1.115   0.667
 7381SOL    HW123042   3.951   1.050   0.614
 7381SOL    HW223043   4.064   1.065   0.731
 7382SOL     OW23044   6.817   1.153   6.389
 7382SOL    HW123045   6.786   1.088   6.459
 7382SOL    HW223046   6.836   1.241   6.432
 7383SOL     OW23047   2.338   6.899   0.474
 7383SOL    HW123048   2.357   6.952   0.557
 7383SOL    HW223049   2.424   6.861   0.439
 7384SOL     OW23050   0.313   0.220   0.615
 7384SOL    HW123051   0.404   0.210   0.577
 7384SOL    HW223052   0.287   0.316   0.616
 7385SOL     OW23053   6.019   4.091   2.877
 7385SOL    HW123054   5.967   4.056   2.956
 7385SOL    HW223055   5.963   4.085   2.795
 7386SOL     OW23056   5.981   3.757   0.628
 7386SOL    HW123057   5.932   3.743   0.715
 7386SOL    HW223058   6.063   3.811   0.645
 7387SOL     OW23059   6.136   5.743   5.622
 7387SOL    HW123060   6.125   5.708   5.714
 7387SOL    HW223061   6.232   5.771   5.608
 7388SOL     OW23062   2.123   5.551   2.257
 7388SOL    HW123063   2.042   5.603   2.229
 7388SOL    HW223064   2.189   5.613   2.299
 7389SOL     OW23065   5.661   2.997   0.575
 7389SOL    HW123066   5.612   2.914   0.551
 7389SOL    HW223067   5.752   2.996   0.533
 7390SOL     OW23068   2.090   2.046   3.135
 7390SOL    HW123069   2.136   1.959   3.153
 7390SOL    HW223070   2.145   2.099   3.070
 7391SOL     OW23071   3.828   3.427   3.644
 7391SOL    HW123072   3.927   3.425   3.629
 7391SOL    HW223073   3.782   3.457   3.560
 7392SOL     OW23074   3.200   5.985   0.041
 7392SOL    HW123075   3.168   6.016   6.975
 7392SOL    HW223076   3.122   5.959   0.097
 7393SOL     OW23077   5.034   5.458   4.187
 7393SOL    HW123078   5.065   5.537   4.135
 7393SOL    HW223079   5.043   5.376   4.131
 7394SOL     OW23080   2.262   1.975   6.022
 7394SOL    HW123081   2.317   2.039   5.967
 7394SOL    HW223082   2.170   1.970   5.984
 7395SOL     OW23083   2.844   5.456   0.644
 7395SOL    HW123084   2.868   5.541   0.597
 7395SOL    HW223085   2.775   5.476   0.713
 7396SOL     OW23086   2.582   5.161   1.847
 7396SOL    HW123087   2.528   5.079   1.864
 7396SOL    HW223088   2.527   5.242   1.868
 7397SOL     OW23089   5.403   4.302   3.650
 7397SOL    HW123090   5.340   4.350   3.712
 7397SOL    HW223091   5.479   4.264   3.703
 7398SOL     OW23092   2.349   4.336   2.775
 7398SOL    HW123093   2.267   4.391   2.792
 7398SOL    HW223094   2.328   4.266   2.707
 7399SOL     OW23095   5.111   2.287   5.307
 7399SOL    HW123096   5.065   2.333   5.384
 7399SOL    HW223097   5.200   2.254   5.337
 7400SOL     OW23098   5.484   2.895   5.823
 7400SOL    HW123099   5.424   2.957   5.774
 7400SOL    HW223100   5.573   2.938   5.838
 7401SOL     OW23101   1.604   2.557   4.089
 7401SOL    HW123102   1.519   2.524   4.131
 7401SOL    HW223103   1.673   2.570   4.160
 7402SOL     OW23104   3.398   6.138   4.995
 7402SOL    HW123105   3.421   6.061   5.054
 7402SOL    HW223106   3.337   6.107   4.922
 7403SOL     OW23107   1.434   3.667   4.427
 7403SOL    HW123108   1.398   3.655   4.334
 7403SOL    HW223109   1.397   3.751   4.466
 7404SOL     OW23110   3.148   3.882   0.775
 7404SOL    HW123111   3.145   3.978   0.804
 7404SOL    HW223112   3.082   3.830   0.829
 7405SOL     OW23113   3.688   6.481   4.704
 7405SOL    HW123114   3.614   6.436   4.752
 7405SOL    HW223115   3.738   6.541   4.767
 7406SOL     OW23116   0.984   1.292   4.636
 7406SOL    HW123117   1.023   1.363   4.694
 7406SOL    HW223118   1.043   1.277   4.556
 7407SOL     OW23119   0.747   5.664   5.674
 7407SOL    HW123120   0.763   5.754   5.715
 7407SOL    HW223121   0.649   5.650   5.662
 7408SOL     OW23122   3.382   4.495   5.378
 7408SOL    HW123123   3.399   4.588   5.412
 7408SOL    HW223124   3.283   4.482   5.367
 7409SOL     OW23125   6.026   3.645   0.396
 7409SOL    HW123126   5.957   3.688   0.337
 7409SOL    HW223127   6.029   3.693   0.483
 7410SOL     OW23128   0.041   0.297   1.186
 7410SOL    HW123129   6.991   0.321   1.123
 7410SOL    HW223130   0.005   0.233   1.255
 7411SOL     OW23131   1.805   2.047   5.164
 7411SOL    HW123132   1.857   2.124   5.204
 7411SOL    HW223133   1.709   2.054   5.191
 7412SOL     OW23134   4.487   6.620   6.789
 7412SOL    HW123135   4.441   6.535   6.815
 7412SOL    HW223136   4.582   6.600   6.764
 7413SOL     OW23137   4.198   6.957   3.197
 7413SOL    HW123138   4.213   6.928   3.291
 7413SOL    HW223139   4.105   6.934   3.169
 7414SOL     OW23140   3.118   1.796   4.160
 7414SOL    HW123141   3.065   1.880   4.172
 7414SOL    HW223142   3.075   1.738   4.091
 7415SOL     OW23143   3.735   6.516   6.429
 7415SOL    HW123144   3.812   6.576   6.449
 7415SOL    HW223145   3.760   6.421   6.451
 7416SOL     OW23146   0.694   0.817   2.119
 7416SOL    HW123147   0.736   0.903   2.149
 7416SOL    HW223148   0.595   0.822   2.132
 7417SOL     OW23149   0.376   1.132   3.402
 7417SOL    HW123150   0.407   1.085   3.319
 7417SOL    HW223151   0.302   1.195   3.378
 7418SOL     OW23152   2.000   3.906   6.232
 7418SOL    HW123153   1.913   3.859   6.221
 7418SOL    HW223154   2.027   3.947   6.145
 7419SOL     OW23155   6.973   3.717   4.034
 7419SOL    HW123156   0.048   3.723   4.024
 7419SOL    HW223157   6.929   3.748   3.949
 7420SOL     OW23158   6.623   6.902   1.557
 7420SOL    HW123159   6.591   6.808   1.549
 7420SOL    HW223160   6.571   6.960   1.495
 7421SOL     OW23161   4.940   4.065   1.511
 7421SOL    HW123162   4.953   4.152   1.465
 7421SOL    HW223163   4.932   4.080   1.610
 7422SOL     OW23164   5.249   2.062   2.956
 7422SOL    HW123165   5.303   2.096   3.033
 7422SOL    HW223166   5.294   2.085   2.870
 7423SOL     OW23167   5.512   1.759   6.193
 7423SOL    HW123168   5.527   1.801   6.283
 7423SOL    HW223169   5.470   1.669   6.205
 7424SOL     OW23170   0.840   1.954   3.779
 7424SOL    HW123171   0.800   1.908   3.858
 7424SOL    HW223172   0.850   1.889   3.704
 7425SOL     OW23173   5.929   0.584   0.373
 7425SOL    HW123174   5.913   0.493   0.336
 7425SOL    HW223175   5.911   0.653   0.302
 7426SOL     OW23176   3.860   3.678   6.277
 7426SOL    HW123177   3.877   3.582   6.254
 7426SOL    HW223178   3.881   3.735   6.198
 7427SOL     OW23179   3.074   1.147   3.696
 7427SOL    HW123180   3.003   1.182   3.636
 7427SOL    HW223181   3.058   1.050   3.714
 7428SOL     OW23182   4.141   6.120   5.260
 7428SOL    HW123183   4.156   6.150   5.355
 7428SOL    HW223184   4.085   6.038   5.259
 7429SOL     OW23185   1.588   6.755   2.579
 7429SOL    HW123186   1.561   6.842   2.537
 7429SOL    HW223187   1.507   6.709   2.615
 7430SOL     OW23188   6.795   5.568   2.590
 7430SOL    HW123189   6.858   5.562   2.513
 7430SOL    HW223190   6.844   5.551   2.675
 7431SOL     OW23191   1.603   1.331   3.750
 7431SOL    HW123192   1.519   1.370   3.711
 7431SOL    HW223193   1.615   1.238   3.716
 7432SOL     OW23194   2.323   0.473   3.268
 7432SOL    HW123195   2.231   0.469   3.307
 7432SOL    HW223196   2.391   0.457   3.340
 7433SOL     OW23197   2.679   6.928   6.351
 7433SOL    HW123198   2.766   6.951   6.307
 7433SOL    HW223199   2.698   6.886   6.440
 7434SOL     OW23200   4.194   6.594   5.319
 7434SOL    HW123201   4.120   6.593   5.387
 7434SOL    HW223202   4.193   6.507   5.269
 7435SOL     OW23203   4.848   4.805   3.176
 7435SOL    HW123204   4.812   4.875   3.237
 7435SOL    HW223205   4.943   4.785   3.201
 7436SOL     OW23206   5.458   2.610   6.109
 7436SOL    HW123207   5.372   2.631   6.063
 7436SOL    HW223208   5.533   2.611   6.042
 7437SOL     OW23209   3.716   6.833   0.909
 7437SOL    HW123210   3.654   6.775   0.963
 7437SOL    HW223211   3.768   6.776   0.846
 7438SOL     OW23212   2.340   0.524   0.262
 7438SOL    HW123213   2.399   0.558   0.336
 7438SOL    HW223214   2.246   0.515   0.296
 7439SOL     OW23215   1.033   4.360   6.230
 7439SOL    HW123216   0.986   4.447   6.215
 7439SOL    HW223217   1.025   4.334   6.327
 7440SOL     OW23218   5.600   3.527   4.314
 7440SOL    HW123219   5.501   3.520   4.304
 7440SOL    HW223220   5.639   3.436   4.328
 7441SOL     OW23221   6.167   5.836   1.435
 7441SOL    HW123222   6.192   5.849   1.339
 7441SOL    HW223223   6.068   5.847   1.444
 7442SOL     OW23224   5.262   0.946   5.550
 7442SOL    HW123225   5.271   1.006   5.629
 7442SOL    HW223226   5.337   0.962   5.486
 7443SOL     OW23227   0.158   1.029   1.770
 7443SOL    HW123228   0.140   1.107   1.830
 7443SOL    HW223229   0.089   0.959   1.785
 7444SOL     OW23230   1.552   6.258   6.680
 7444SOL    HW123231   1.544   6.357   6.666
 7444SOL    HW223232   1.490   6.210   6.618
 7445SOL     OW23233   4.880   6.319   1.544
 7445SOL    HW123234   4.907   6.261   1.621
 7445SOL    HW223235   4.800   6.374   1.569
 7446SOL     OW23236   5.314   3.897   0.109
 7446SOL    HW123237   5.315   3.873   0.206
 7446SOL    HW223238   5.251   3.837   0.060
 7447SOL     OW23239   0.767   4.448   0.845
 7447SOL    HW123240   0.726   4.505   0.774
 7447SOL    HW223241   0.796   4.506   0.922
 7448SOL     OW23242   4.664   5.032   6.710
 7448SOL    HW123243   4.633   5.108   6.767
 7448SOL    HW223244   4.646   5.052   6.614
 7449SOL     OW23245   0.243   4.598   6.384
 7449SOL    HW123246   0.261   4.680   6.438
 7449SOL    HW223247   0.255   4.517   6.443
 7450SOL     OW23248   5.662   2.177   5.100
 7450SOL    HW123249   5.686   2.195   5.005
 7450SOL    HW223250   5.597   2.101   5.104
 7451SOL     OW23251   5.346   4.593   3.292
 7451SOL    HW123252   5.430   4.638   3.260
 7451SOL    HW223253   5.340   4.502   3.252
 7452SOL     OW23254   6.092   5.428   5.369
 7452SOL    HW123255   6.097   5.431   5.468
 7452SOL    HW223256   6.150   5.355   5.334
 7453SOL     OW23257   3.841   6.182   6.054
 7453SOL    HW123258   3.748   6.219   6.065
 7453SOL    HW223259   3.861   6.172   5.957
 7454SOL     OW23260   4.267   2.152   0.919
 7454SOL    HW123261   4.167   2.148   0.918
 7454SOL    HW223262   4.297   2.184   1.009
 7455SOL     OW23263   7.012   2.437   2.987
 7455SOL    HW123264   0.058   2.490   3.035
 7455SOL    HW223265   6.948   2.499   2.943
 7456SOL     OW23266   2.847   2.356   5.704
 7456SOL    HW123267   2.880   2.450   5.698
 7456SOL    HW223268   2.886   2.302   5.630
 7457SOL     OW23269   2.310   0.507   3.012
 7457SOL    HW123270   2.314   0.499   3.111
 7457SOL    HW223271   2.355   0.592   2.983
 7458SOL     OW23272   1.772   5.374   5.540
 7458SOL    HW123273   1.703   5.446   5.551
 7458SOL    HW223274   1.744   5.313   5.466
 7459SOL     OW23275   6.042   0.657   2.783
 7459SOL    HW123276   6.043   0.572   2.837
 7459SOL    HW223277   5.965   0.714   2.813
 7460SOL     OW23278   2.039   6.452   1.033
 7460SOL    HW123279   1.941   6.433   1.039
 7460SOL    HW223280   2.090   6.388   1.091
 7461SOL     OW23281   1.781   4.797   6.041
 7461SOL    HW123282   1.702   4.858   6.030
 7461SOL    HW223283   1.800   4.784   6.138
 7462SOL     OW23284   1.317   5.181   0.147
 7462SOL    HW123285   1.225   5.177   0.108
 7462SOL    HW223286   1.327   5.265   0.201
 7463SOL     OW23287   3.400   5.161   1.100
 7463SOL    HW123288   3.483   5.187   1.149
 7463SOL    HW223289   3.334   5.235   1.106
 7464SOL     OW23290   6.300   5.903   5.423
 7464SOL    HW123291   6.279   5.991   5.466
 7464SOL    HW223292   6.398   5.887   5.425
 7465SOL     OW23293   1.612   5.009   0.096
 7465SOL    HW123294   1.556   4.955   0.033
 7465SOL    HW223295   1.568   5.013   0.186
 7466SOL     OW23296   0.509   0.160   5.014
 7466SOL    HW123297   0.567   0.239   4.991
 7466SOL    HW223298   0.567   0.085   5.046
 7467SOL     OW23299   0.370   2.915   5.761
 7467SOL    HW123300   0.392   2.900   5.857
 7467SOL    HW223301   0.391   2.833   5.709
 7468SOL     OW23302   6.343   4.223   5.805
 7468SOL    HW123303   6.331   4.321   5.793
 7468SOL    HW223304   6.407   4.188   5.736
 7469SOL     OW23305   6.556   2.232   1.107
 7469SOL    HW123306   6.622   2.259   1.036
 7469SOL    HW223307   6.464   2.232   1.068
 7470SOL     OW23308   5.765   2.662   3.774
 7470SOL    HW123309   5.744   2.615   3.860
 7470SOL    HW223310   5.704   2.740   3.763
 7471SOL     OW23311   4.499   6.205   5.955
 7471SOL    HW123312   4.584   6.209   6.008
 7471SOL    HW223313   4.482   6.112   5.925
 7472SOL     OW23314   6.115   6.398   5.144
 7472SOL    HW123315   6.046   6.470   5.145
 7472SOL    HW223316   6.091   6.327   5.210
 7473SOL     OW23317   4.271   5.629   4.212
 7473SOL    HW123318   4.322   5.703   4.168
 7473SOL    HW223319   4.330   5.582   4.277
 7474SOL     OW23320   5.984   1.980   5.910
 7474SOL    HW123321   5.956   1.932   5.993
 7474SOL    HW223322   6.001   2.076   5.931
 7475SOL     OW23323   4.802   2.499   0.724
 7475SOL    HW123324   4.886   2.503   0.670
 7475SOL    HW223325   4.760   2.590   0.727
 7476SOL     OW23326   1.917   0.258   2.779
 7476SOL    HW123327   1.830   0.231   2.820
 7476SOL    HW223328   1.900   0.299   2.690
 7477SOL     OW23329   0.670   4.260   4.991
 7477SOL    HW123330   0.770   4.260   4.996
 7477SOL    HW223331   0.641   4.305   4.907
 7478SOL     OW23332   0.803   0.571   5.465
 7478SOL    HW123333   0.886   0.514   5.460
 7478SOL    HW223334   0.796   0.626   5.382
 7479SOL     OW23335   5.668   2.889   0.005
 7479SOL    HW123336   5.625   2.905   6.940
 7479SOL    HW223337   5.755   2.937   0.009
 7480SOL     OW23338   3.525   4.943   2.536
 7480SOL    HW123339   3.522   5.040   2.511
 7480SOL    HW223340   3.593   4.897   2.479
 7481SOL     OW23341   0.373   3.793   6.657
 7481SOL    HW123342   0.436   3.832   6.590
 7481SOL    HW223343   0.399   3.698   6.677
 7482SOL     OW23344   4.608   2.290   2.960
 7482SOL    HW123345   4.704   2.261   2.967
 7482SOL    HW223346   4.577   2.325   3.048
 7483SOL     OW23347   5.251   2.081   5.743
 7483SOL    HW123348   5.275   2.038   5.656
 7483SOL    HW223349   5.197   2.163   5.726
 7484SOL     OW23350   3.276   6.773   3.993
 7484SOL    HW123351   3.362   6.823   3.983
 7484SOL    HW223352   3.224   6.780   3.908
 7485SOL     OW23353   3.304   0.229   5.115
 7485SOL    HW123354   3.376   0.184   5.168
 7485SOL    HW223355   3.324   0.326   5.107
 7486SOL     OW23356   2.891   6.454   1.539
 7486SOL    HW123357   2.820   6.521   1.518
 7486SOL    HW223358   2.868   6.407   1.624
 7487SOL     OW23359   4.205   6.599   4.626
 7487SOL    HW123360   4.149   6.644   4.695
 7487SOL    HW223361   4.294   6.575   4.665
 7488SOL     OW23362   0.758   5.772   4.222
 7488SOL    HW123363   0.717   5.702   4.164
 7488SOL    HW223364   0.785   5.731   4.309
 7489SOL     OW23365   5.661   3.388   6.957
 7489SOL    HW123366   5.613   3.381   6.870
 7489SOL    HW223367   5.646   3.304   7.010
 7490SOL     OW23368   1.184   2.602   2.385
 7490SOL    HW123369   1.198   2.581   2.481
 7490SOL    HW223370   1.194   2.519   2.330
 7491SOL     OW23371   4.383   2.834   0.034
 7491SOL    HW123372   4.478   2.846   0.003
 7491SOL    HW223373   4.349   2.920   0.071
 7492SOL     OW23374   1.590   0.143   4.221
 7492SOL    HW123375   1.660   0.081   4.184
 7492SOL    HW223376   1.501   0.121   4.181
 7493SOL     OW23377   6.880   4.770   5.318
 7493SOL    HW123378   6.832   4.768   5.230
 7493SOL    HW223379   6.815   4.790   5.391
 7494SOL     OW23380   6.665   1.014   2.287
 7494SOL    HW123381   6.712   1.040   2.371
 7494SOL    HW223382   6.598   0.942   2.308
 7495SOL     OW23383   1.255   3.773   5.425
 7495SOL    HW123384   1.243   3.871   5.441
 7495SOL    HW223385   1.208   3.722   5.497
 7496SOL     OW23386   6.010   4.228   2.564
 7496SOL    HW123387   6.095   4.190   2.599
 7496SOL    HW223388   5.950   4.153   2.534
 7497SOL     OW23389   0.342   6.311   0.608
 7497SOL    HW123390   0.426   6.314   0.662
 7497SOL    HW223391   0.297   6.223   0.622
 7498SOL     OW23392   2.503   6.887   2.911
 7498SOL    HW123393   2.416   6.841   2.930
 7498SOL    HW223394   2.553   6.837   2.840
 7499SOL     OW23395   3.339   2.091   3.985
 7499SOL    HW123396   3.439   2.093   3.992
 7499SOL    HW223397   3.311   2.119   3.894
 7500SOL     OW23398   3.617   0.054   3.193
 7500SOL    HW123399   3.614   6.983   3.163
 7500SOL    HW223400   3.704   0.095   3.166
 7501SOL     OW23401   6.096   2.340   5.191
 7501SOL    HW123402   6.070   2.251   5.227
 7501SOL    HW223403   6.190   2.336   5.156
 7502SOL     OW23404   4.230   0.768   4.364
 7502SOL    HW123405   4.319   0.729   4.390
 7502SOL    HW223406   4.171   0.696   4.329
 7503SOL     OW23407   2.047   5.829   1.472
 7503SOL    HW123408   2.100   5.751   1.440
 7503SOL    HW223409   2.064   5.908   1.412
 7504SOL     OW23410   6.530   6.407   4.227
 7504SOL    HW123411   6.461   6.392   4.298
 7504SOL    HW223412   6.621   6.397   4.267
 7505SOL     OW23413   0.343   6.183   5.055
 7505SOL    HW123414   0.301   6.095   5.076
 7505SOL    HW223415   0.437   6.183   5.089
 7506SOL     OW23416   3.212   1.628   3.109
 7506SOL    HW123417   3.275   1.559   3.144
 7506SOL    HW223418   3.243   1.661   3.020
 7507SOL     OW23419   6.246   4.091   5.225
 7507SOL    HW123420   6.159   4.043   5.219
 7507SOL    HW223421   6.248   4.146   5.308
 7508SOL     OW23422   2.438   5.420   6.904
 7508SOL    HW123423   2.534   5.435   6.882
 7508SOL    HW223424   2.397   5.504   6.938
 7509SOL     OW23425   6.424   4.821   1.302
 7509SOL    HW123426   6.446   4.727   1.274
 7509SOL    HW223427   6.363   4.862   1.234
 7510SOL     OW23428   3.748   3.847   3.574
 7510SOL    HW123429   3.730   3.813   3.482
 7510SOL    HW223430   3.841   3.822   3.601
 7511SOL     OW23431   3.942   6.577   4.017
 7511SOL    HW123432   4.037   6.549   4.033
 7511SOL    HW223433   3.941   6.672   3.985
 7512SOL     OW23434   3.841   0.325   6.754
 7512SOL    HW123435   3.919   0.267   6.729
 7512SOL    HW223436   3.875   0.413   6.789
 7513SOL     OW23437   1.495   2.241   2.611
 7513SOL    HW123438   1.476   2.176   2.538
 7513SOL    HW223439   1.510   2.332   2.572
 7514SOL     OW23440   1.276   4.835   1.637
 7514SOL    HW123441   1.202   4.843   1.704
 7514SOL    HW223442   1.348   4.900   1.660
 7515SOL     OW23443   6.992   5.608   4.982
 7515SOL    HW123444   6.938   5.529   4.953
 7515SOL    HW223445   0.026   5.639   4.907
 7516SOL     OW23446   1.462   6.312   5.042
 7516SOL    HW123447   1.487   6.229   4.993
 7516SOL    HW223448   1.405   6.288   5.121
 7517SOL     OW23449   0.425   1.293   6.315
 7517SOL    HW123450   0.436   1.269   6.219
 7517SOL    HW223451   0.445   1.213   6.372
 7518SOL     OW23452   4.746   2.617   3.378
 7518SOL    HW123453   4.699   2.632   3.292
 7518SOL    HW223454   4.800   2.532   3.371
 7519SOL     OW23455   3.547   6.359   4.263
 7519SOL    HW123456   3.598   6.381   4.346
 7519SOL    HW223457   3.588   6.405   4.184
 7520SOL     OW23458   1.683   2.101   0.841
 7520SOL    HW123459   1.670   2.006   0.812
 7520SOL    HW223460   1.706   2.104   0.938
 7521SOL     OW23461   3.398   1.816   5.629
 7521SOL    HW123462   3.386   1.747   5.701
 7521SOL    HW223463   3.381   1.775   5.540
 7522SOL     OW23464   2.097   6.939   3.483
 7522SOL    HW123465   2.130   6.905   3.572
 7522SOL    HW223466   2.037   6.871   3.441
 7523SOL     OW23467   5.707   1.472   0.715
 7523SOL    HW123468   5.610   1.492   0.700
 7523SOL    HW223469   5.762   1.544   0.673
 7524SOL     OW23470   0.008   3.229   4.518
 7524SOL    HW123471   0.033   3.133   4.502
 7524SOL    HW223472   7.022   3.246   4.616
 7525SOL     OW23473   4.514   5.652   6.385
 7525SOL    HW123474   4.421   5.687   6.385
 7525SOL    HW223475   4.552   5.658   6.477
 7526SOL     OW23476   2.434   3.283   1.674
 7526SOL    HW123477   2.387   3.326   1.597
 7526SOL    HW223478   2.404   3.325   1.760
 7527SOL     OW23479   3.864   4.875   3.626
 7527SOL    HW123480   3.924   4.803   3.594
 7527SOL    HW223481   3.891   4.962   3.585
 7528SOL     OW23482   5.835   3.100   6.714
 7528SOL    HW123483   5.774   3.143   6.647
 7528SOL    HW223484   5.884   3.024   6.670
 7529SOL     OW23485   6.130   2.819   4.347
 7529SOL    HW123486   6.056   2.855   4.404
 7529SOL    HW223487   6.107   2.727   4.316
 7530SOL     OW23488   0.388   1.918   1.652
 7530SOL    HW123489   0.376   1.858   1.572
 7530SOL    HW223490   0.380   2.013   1.623
 7531SOL     OW23491   4.141   2.255   3.502
 7531SOL    HW123492   4.129   2.256   3.402
 7531SOL    HW223493   4.052   2.249   3.546
 7532SOL     OW23494   4.589   5.271   6.786
 7532SOL    HW123495   4.547   5.292   6.697
 7532SOL    HW223496   4.535   5.312   6.859
 7533SOL     OW23497   4.672   4.273   1.524
 7533SOL    HW123498   4.717   4.336   1.460
 7533SOL    HW223499   4.648   4.322   1.608
 7534SOL     OW23500   3.994   0.123   4.502
 7534SOL    HW123501   4.074   0.124   4.562
 7534SOL    HW223502   4.023   0.139   4.408
 7535SOL     OW23503   0.828   5.796   3.929
 7535SOL    HW123504   0.847   5.891   3.905
 7535SOL    HW223505   0.881   5.735   3.871
 7536SOL     OW23506   5.056   6.269   4.688
 7536SOL    HW123507   5.046   6.362   4.721
 7536SOL    HW223508   5.020   6.205   4.756
 7537SOL     OW23509   2.646   6.324   3.218
 7537SOL    HW123510   2.731   6.373   3.235
 7537SOL    HW223511   2.570   6.388   3.219
 7538SOL     OW23512   0.491   3.993   0.557
 7538SOL    HW123513   0.424   4.056   0.595
 7538SOL    HW223514   0.497   3.912   0.615
 7539SOL     OW23515   0.163   0.011   3.719
 7539SOL    HW123516   0.146   7.007   3.814
 7539SOL    HW223517   0.091   0.073   3.690
 7540SOL     OW23518   6.507   5.525   2.671
 7540SOL    HW123519   6.559   5.562   2.593
 7540SOL    HW223520   6.501   5.426   2.662
 7541SOL     OW23521   1.701   4.743   6.708
 7541SOL    HW123522   1.629   4.742   6.639
 7541SOL    HW223523   1.735   4.650   6.723
 7542SOL     OW23524   6.143   5.850   5.056
 7542SOL    HW123525   6.133   5.949   5.062
 7542SOL    HW223526   6.240   5.827   5.048
 7543SOL     OW23527   2.300   0.785   6.722
 7543SOL    HW123528   2.384   0.760   6.771
 7543SOL    HW223529   2.260   0.866   6.764
 7544SOL     OW23530   6.931   2.276   4.117
 7544SOL    HW123531   6.981   2.336   4.180
 7544SOL    HW223532   6.833   2.292   4.127
 7545SOL     OW23533   0.720   5.293   6.332
 7545SOL    HW123534   0.788   5.227   6.299
 7545SOL    HW223535   0.643   5.245   6.372
 7546SOL     OW23536   2.660   2.969   1.667
 7546SOL    HW123537   2.692   2.888   1.617
 7546SOL    HW223538   2.664   3.049   1.607
 7547SOL     OW23539   4.528   0.329   1.345
 7547SOL    HW123540   4.507   0.236   1.316
 7547SOL    HW223541   4.479   0.394   1.288
 7548SOL     OW23542   3.585   2.426   6.219
 7548SOL    HW123543   3.666   2.376   6.251
 7548SOL    HW223544   3.524   2.444   6.297
 7549SOL     OW23545   5.513   2.364   4.479
 7549SOL    HW123546   5.479   2.406   4.395
 7549SOL    HW223547   5.436   2.326   4.530
 7550SOL     OW23548   2.251   4.429   4.601
 7550SOL    HW123549   2.221   4.525   4.600
 7550SOL    HW223550   2.296   4.409   4.688
 7551SOL     OW23551   6.142   2.876   5.932
 7551SOL    HW123552   6.103   2.916   6.015
 7551SOL    HW223553   6.172   2.782   5.952
 7552SOL     OW23554   2.590   6.652   5.220
 7552SOL    HW123555   2.656   6.657   5.145
 7552SOL    HW223556   2.637   6.621   5.303
 7553SOL     OW23557   5.790   6.546   5.762
 7553SOL    HW123558   5.815   6.471   5.823
 7553SOL    HW223559   5.692   6.565   5.769
 7554SOL     OW23560   4.747   0.633   1.080
 7554SOL    HW123561   4.750   0.550   1.024
 7554SOL    HW223562   4.663   0.635   1.133
 7555SOL     OW23563   3.481   4.994   5.341
 7555SOL    HW123564   3.555   5.030   5.285
 7555SOL    HW223565   3.404   4.970   5.283
 7556SOL     OW23566   0.556   6.633   0.876
 7556SOL    HW123567   0.542   6.717   0.928
 7556SOL    HW223568   0.499   6.635   0.793
 7557SOL     OW23569   4.865   0.367   0.384
 7557SOL    HW123570   4.908   0.321   0.462
 7557SOL    HW223571   4.898   0.461   0.378
 7558SOL     OW23572   1.378   1.665   4.189
 7558SOL    HW123573   1.465   1.714   4.175
 7558SOL    HW223574   1.305   1.715   4.143
 7559SOL     OW23575   3.350   1.537   4.923
 7559SOL    HW123576   3.397   1.620   4.951
 7559SOL    HW223577   3.256   1.560   4.895
 7560SOL     OW23578   0.799   1.202   5.747
 7560SOL    HW123579   0.881   1.258   5.740
 7560SOL    HW223580   0.740   1.239   5.819
 7561SOL     OW23581   5.929   2.126   5.332
 7561SOL    HW123582   5.846   2.152   5.381
 7561SOL    HW223583   5.911   2.045   5.276
 7562SOL     OW23584   1.719   5.485   4.111
 7562SOL    HW123585   1.813   5.492   4.145
 7562SOL    HW223586   1.719   5.492   4.011
 7563SOL     OW23587   3.597   5.507   2.634
 7563SOL    HW123588   3.523   5.484   2.697
 7563SOL    HW223589   3.622   5.603   2.646
 7564SOL     OW23590   3.884   1.918   5.428
 7564SOL    HW123591   3.885   1.988   5.356
 7564SOL    HW223592   3.811   1.938   5.493
 7565SOL     OW23593   6.223   4.309   6.069
 7565SOL    HW123594   6.160   4.281   6.141
 7565SOL    HW223595   6.191   4.394   6.027
 7566SOL     OW23596   4.501   4.541   1.575
 7566SOL    HW123597   4.444   4.624   1.569
 7566SOL    HW223598   4.579   4.551   1.514
 7567SOL     OW23599   1.668   0.611   4.313
 7567SOL    HW123600   1.740   0.586   4.248
 7567SOL    HW223601   1.599   0.539   4.316
 7568SOL     OW23602   5.957   5.452   1.817
 7568SOL    HW123603   5.906   5.366   1.807
 7568SOL    HW223604   5.943   5.488   1.909
 7569SOL     OW23605   4.523   4.205   0.379
 7569SOL    HW123606   4.584   4.126   0.378
 7569SOL    HW223607   4.432   4.178   0.346
 7570SOL     OW23608   0.153   2.532   2.656
 7570SOL    HW123609   0.214   2.456   2.678
 7570SOL    HW223610   0.122   2.523   2.561
 7571SOL     OW23611   4.909   2.555   3.157
 7571SOL    HW123612   4.983   2.499   3.194
 7571SOL    HW223613   4.945   2.613   3.084
 7572SOL     OW23614   4.265   0.142   2.874
 7572SOL    HW123615   4.362   0.143   2.850
 7572SOL    HW223616   4.214   0.092   2.805
 7573SOL     OW23617   5.089   6.709   6.082
 7573SOL    HW123618   5.024   6.743   6.013
 7573SOL    HW223619   5.063   6.743   6.172
 7574SOL     OW23620   0.879   1.805   3.535
 7574SOL    HW123621   0.788   1.808   3.495
 7574SOL    HW223622   0.948   1.812   3.462
 7575SOL     OW23623   0.324   6.765   1.836
 7575SOL    HW123624   0.257   6.837   1.814
 7575SOL    HW223625   0.366   6.731   1.752
 7576SOL     OW23626   5.314   3.071   0.816
 7576SOL    HW123627   5.398   3.084   0.764
 7576SOL    HW223628   5.329   3.100   0.911
 7577SOL     OW23629   1.245   6.747   0.740
 7577SOL    HW123630   1.151   6.714   0.729
 7577SOL    HW223631   1.244   6.844   0.763
 7578SOL     OW23632   6.357   6.216   3.737
 7578SOL    HW123633   6.289   6.276   3.695
 7578SOL    HW223634   6.316   6.169   3.815
 7579SOL     OW23635   0.463   1.127   0.147
 7579SOL    HW123636   0.399   1.200   0.170
 7579SOL    HW223637   0.549   1.140   0.196
 7580SOL     OW23638   2.318   4.743   3.297
 7580SOL    HW123639   2.385   4.790   3.355
 7580SOL    HW223640   2.346   4.649   3.283
 7581SOL     OW23641   6.763   0.983   2.585
 7581SOL    HW123642   6.831   0.953   2.652
 7581SOL    HW223643   6.714   1.063   2.620
 7582SOL     OW23644   2.782   1.435   5.820
 7582SOL    HW123645   2.811   1.435   5.916
 7582SOL    HW223646   2.858   1.464   5.763
 7583SOL     OW23647   5.448   2.984   2.189
 7583SOL    HW123648   5.508   3.040   2.130
 7583SOL    HW223649   5.482   2.890   2.191
 7584SOL     OW23650   0.409   0.774   3.742
 7584SOL    HW123651   0.322   0.748   3.701
 7584SOL    HW223652   0.483   0.762   3.676
 7585SOL     OW23653   1.607   1.261   6.723
 7585SOL    HW123654   1.593   1.174   6.770
 7585SOL    HW223655   1.520   1.311   6.719
 7586SOL     OW23656   1.137   1.272   2.400
 7586SOL    HW123657   1.100   1.207   2.334
 7586SOL    HW223658   1.062   1.327   2.438
 7587SOL     OW23659   4.225   0.314   1.115
 7587SOL    HW123660   4.279   0.394   1.142
 7587SOL    HW223661   4.227   0.304   1.016
 7588SOL     OW23662   1.872   2.442   4.748
 7588SOL    HW123663   1.899   2.500   4.825
 7588SOL    HW223664   1.788   2.478   4.707
 7589SOL     OW23665   0.179   0.767   2.872
 7589SOL    HW123666   0.125   0.684   2.862
 7589SOL    HW223667   0.274   0.743   2.890
 7590SOL     OW23668   7.013   1.068   6.705
 7590SOL    HW123669   0.042   1.100   6.626
 7590SOL    HW223670   0.037   1.090   6.789
 7591SOL     OW23671   3.955   3.085   5.011
 7591SOL    HW123672   3.988   3.113   5.101
 7591SOL    HW223673   3.995   3.143   4.941
 7592SOL     OW23674   7.001   6.846   5.058
 7592SOL    HW123675   6.906   6.868   5.081
 7592SOL    HW223676   7.016   6.748   5.069
 7593SOL     OW23677   0.905   1.298   6.127
 7593SOL    HW123678   0.995   1.257   6.135
 7593SOL    HW223679   0.894   1.339   6.036
 7594SOL     OW23680   0.023   4.881   6.829
 7594SOL    HW123681   6.976   4.948   6.808
 7594SOL    HW223682   0.104   4.899   6.774
 7595SOL     OW23683   0.544   2.753   6.262
 7595SOL    HW123684   0.523   2.668   6.311
 7595SOL    HW223685   0.493   2.829   6.302
 7596SOL     OW23686   3.363   0.776   5.401
 7596SOL    HW123687   3.394   0.695   5.452
 7596SOL    HW223688   3.332   0.748   5.310
 7597SOL     OW23689   2.039   4.324   2.203
 7597SOL    HW123690   2.113   4.374   2.157
 7597SOL    HW223691   2.078   4.261   2.270
 7598SOL     OW23692   6.479   1.296   3.256
 7598SOL    HW123693   6.434   1.220   3.304
 7598SOL    HW223694   6.569   1.266   3.225
 7599SOL     OW23695   3.700   3.218   0.228
 7599SOL    HW123696   3.663   3.264   0.148
 7599SOL    HW223697   3.723   3.285   0.299
 7600SOL     OW23698   1.095   6.697   4.436
 7600SOL    HW123699   1.187   6.733   4.424
 7600SOL    HW223700   1.100   6.602   4.466
 7601SOL     OW23701   3.452   6.650   2.281
 7601SOL    HW123702   3.552   6.641   2.282
 7601SOL    HW223703   3.420   6.639   2.187
 7602SOL     OW23704   0.097   1.374   0.990
 7602SOL    HW123705   0.083   1.447   0.924
 7602SOL    HW223706   0.182   1.391   1.040
 7603SOL     OW23707   3.943   0.149   5.723
 7603SOL    HW123708   3.852   0.127   5.690
 7603SOL    HW223709   3.964   0.093   5.803
 7604SOL     OW23710   0.289   2.341   4.855
 7604SOL    HW123711   0.246   2.399   4.924
 7604SOL    HW223712   0.284   2.245   4.884
 7605SOL     OW23713   2.308   6.729   0.757
 7605SOL    HW123714   2.352   6.744   0.846
 7605SOL    HW223715   2.249   6.806   0.736
 7606SOL     OW23716   6.688   1.582   3.110
 7606SOL    HW123717   6.717   1.677   3.101
 7606SOL    HW223718   6.642   1.570   3.199
 7607SOL     OW23719   2.615   6.066   5.938
 7607SOL    HW123720   2.672   6.142   5.966
 7607SOL    HW223721   2.519   6.087   5.958
 7608SOL     OW23722   5.873   2.772   6.132
 7608SOL    HW123723   5.866   2.724   6.220
 7608SOL    HW223724   5.787   2.818   6.112
 7609SOL     OW23725   1.130   1.681   4.561
 7609SOL    HW123726   1.043   1.634   4.550
 7609SOL    HW223727   1.125   1.744   4.638
 7610SOL     OW23728   4.061   4.884   4.927
 7610SOL    HW123729   4.094   4.834   4.847
 7610SOL    HW223730   3.985   4.943   4.900
 7611SOL     OW23731   4.935   3.592   0.532
 7611SOL    HW123732   4.857   3.636   0.488
 7611SOL    HW223733   4.997   3.555   0.462
 7612SOL     OW23734   3.612   1.761   3.072
 7612SOL    HW123735   3.576   1.759   3.166
 7612SOL    HW223736   3.614   1.668   3.036
 7613SOL     OW23737   0.603   1.212   1.521
 7613SOL    HW123738   0.629   1.288   1.462
 7613SOL    HW223739   0.678   1.192   1.584
 7614SOL     OW23740   4.756   4.057   0.471
 7614SOL    HW123741   4.782   4.132   0.410
 7614SOL    HW223742   4.827   4.043   0.539
 7615SOL     OW23743   5.948   3.462   5.046
 7615SOL    HW123744   5.938   3.369   5.082
 7615SOL    HW223745   6.028   3.466   4.987
 7616SOL     OW23746   6.393   0.017   3.131
 7616SOL    HW123747   6.334   0.046   3.206
 7616SOL    HW223748   6.430   0.097   3.084
 7617SOL     OW23749   5.932   4.488   3.758
 7617SOL    HW123750   5.888   4.561   3.704
 7617SOL    HW223751   5.863   4.423   3.789
 7618SOL     OW23752   2.650   2.515   0.495
 7618SOL    HW123753   2.590   2.546   0.421
 7618SOL    HW223754   2.595   2.483   0.572
 7619SOL     OW23755   1.018   1.908   4.372
 7619SOL    HW123756   1.118   1.911   4.368
 7619SOL    HW223757   0.984   1.986   4.426
 7620SOL     OW23758   3.974   4.342   1.345
 7620SOL    HW123759   4.003   4.298   1.260
 7620SOL    HW223760   3.905   4.285   1.390
 7621SOL     OW23761   6.184   4.232   7.007
 7621SOL    HW123762   6.281   4.249   6.992
 7621SOL    HW223763   6.131   4.291   6.946
 7622SOL     OW23764   3.282   3.829   1.339
 7622SOL    HW123765   3.364   3.773   1.342
 7622SOL    HW223766   3.267   3.871   1.428
 7623SOL     OW23767   4.873   4.541   0.863
 7623SOL    HW123768   4.893   4.555   0.960
 7623SOL    HW223769   4.784   4.497   0.853
 7624SOL     OW23770   0.962   2.873   2.456
 7624SOL    HW123771   0.881   2.858   2.399
 7624SOL    HW223772   0.937   2.926   2.537
 7625SOL     OW23773   5.505   0.685   1.259
 7625SOL    HW123774   5.584   0.744   1.245
 7625SOL    HW223775   5.447   0.686   1.177
 7626SOL     OW23776   4.322   1.266   5.561
 7626SOL    HW123777   4.369   1.317   5.488
 7626SOL    HW223778   4.257   1.326   5.607
 7627SOL     OW23779   4.368   2.319   6.829
 7627SOL    HW123780   4.285   2.339   6.777
 7627SOL    HW223781   4.390   2.222   6.821
 7628SOL     OW23782   3.555   2.451   0.442
 7628SOL    HW123783   3.642   2.496   0.418
 7628SOL    HW223784   3.496   2.449   0.361
 7629SOL     OW23785   6.361   3.008   3.531
 7629SOL    HW123786   6.351   2.961   3.619
 7629SOL    HW223787   6.430   2.961   3.476
 7630SOL     OW23788   0.969   6.462   5.231
 7630SOL    HW123789   1.013   6.373   5.217
 7630SOL    HW223790   0.986   6.520   5.151
 7631SOL     OW23791   1.343   0.993   6.065
 7631SOL    HW123792   1.325   0.979   5.968
 7631SOL    HW223793   1.441   1.007   6.080
 7632SOL     OW23794   4.929   5.927   0.337
 7632SOL    HW123795   4.860   5.882   0.280
 7632SOL    HW223796   4.940   5.877   0.422
 7633SOL     OW23797   6.532   0.865   1.119
 7633SOL    HW123798   6.609   0.801   1.119
 7633SOL    HW223799   6.478   0.852   1.202
 7634SOL     OW23800   6.759   2.257   0.473
 7634SOL    HW123801   6.833   2.288   0.532
 7634SOL    HW223802   6.727   2.167   0.505
 7635SOL     OW23803   2.586   3.858   5.592
 7635SOL    HW123804   2.626   3.779   5.639
 7635SOL    HW223805   2.497   3.879   5.633
 7636SOL     OW23806   0.158   4.118   4.387
 7636SOL    HW123807   0.135   4.105   4.484
 7636SOL    HW223808   0.209   4.038   4.355
 7637SOL     OW23809   0.854   6.236   4.442
 7637SOL    HW123810   0.887   6.296   4.515
 7637SOL    HW223811   0.758   6.255   4.424
 7638SOL     OW23812   0.292   6.183   1.411
 7638SOL    HW123813   0.198   6.214   1.402
 7638SOL    HW223814   0.341   6.241   1.477
 7639SOL     OW23815   1.451   0.678   0.184
 7639SOL    HW123816   1.500   0.721   0.260
 7639SOL    HW223817   1.364   0.641   0.218
 7640SOL     OW23818   3.089   1.020   0.473
 7640SOL    HW123819   3.113   1.038   0.568
 7640SOL    HW223820   3.050   0.929   0.465
 7641SOL     OW23821   0.530   4.340   3.593
 7641SOL    HW123822   0.496   4.249   3.566
 7641SOL    HW223823   0.554   4.391   3.511
 7642SOL     OW23824   6.162   1.054   3.496
 7642SOL    HW123825   6.258   1.029   3.510
 7642SOL    HW223826   6.131   1.113   3.570
 7643SOL     OW23827   5.342   3.682   3.097
 7643SOL    HW123828   5.386   3.709   3.182
 7643SOL    HW223829   5.370   3.589   3.073
 7644SOL     OW23830   5.678   4.000   0.953
 7644SOL    HW123831   5.660   3.925   0.890
 7644SOL    HW223832   5.694   3.963   1.045
 7645SOL     OW23833   3.595   4.727   6.227
 7645SOL    HW123834   3.546   4.640   6.236
 7645SOL    HW223835   3.542   4.800   6.271
 7646SOL     OW23836   6.712   2.258   1.324
 7646SOL    HW123837   6.673   2.267   1.232
 7646SOL    HW223838   6.656   2.194   1.377
 7647SOL     OW23839   6.561   2.483   5.134
 7647SOL    HW123840   6.580   2.581   5.127
 7647SOL    HW223841   6.638   2.437   5.176
 7648SOL     OW23842   3.074   1.667   1.742
 7648SOL    HW123843   3.123   1.586   1.709
 7648SOL    HW223844   3.134   1.747   1.735
 7649SOL     OW23845   4.135   1.469   5.696
 7649SOL    HW123846   4.103   1.446   5.788
 7649SOL    HW223847   4.114   1.564   5.676
 7650SOL     OW23848   3.833   2.086   0.721
 7650SOL    HW123849   3.810   1.994   0.752
 7650SOL    HW223850   3.918   2.083   0.668
 7651SOL     OW23851   3.119   4.876   5.829
 7651SOL    HW123852   3.191   4.819   5.791
 7651SOL    HW223853   3.033   4.825   5.829
 7652SOL     OW23854   0.707   1.049   4.028
 7652SOL    HW123855   0.626   1.016   3.979
 7652SOL    HW223856   0.755   0.971   4.068
 7653SOL     OW23857   1.279   1.420   6.392
 7653SOL    HW123858   1.244   1.477   6.318
 7653SOL    HW223859   1.286   1.325   6.360
 7654SOL     OW23860   5.827   2.071   6.478
 7654SOL    HW123861   5.735   2.032   6.485
 7654SOL    HW223862   5.825   2.166   6.509
 7655SOL     OW23863   2.834   1.393   2.872
 7655SOL    HW123864   2.751   1.346   2.898
 7655SOL    HW223865   2.817   1.492   2.867
 7656SOL     OW23866   6.787   3.035   6.605
 7656SOL    HW123867   6.773   2.936   6.603
 7656SOL    HW223868   6.849   3.058   6.679
 7657SOL     OW23869   1.164   4.289   4.520
 7657SOL    HW123870   1.084   4.264   4.575
 7657SOL    HW223871   1.136   4.297   4.424
 7658SOL     OW23872   2.574   1.345   1.037
 7658SOL    HW123873   2.658   1.393   1.062
 7658SOL    HW223874   2.572   1.331   0.938
 7659SOL     OW23875   4.754   3.777   5.654
 7659SOL    HW123876   4.741   3.686   5.693
 7659SOL    HW223877   4.709   3.784   5.566
 7660SOL     OW23878   6.747   5.565   4.714
 7660SOL    HW123879   6.812   5.533   4.646
 7660SOL    HW223880   6.723   5.660   4.695
 7661SOL     OW23881   4.576   2.057   5.588
 7661SOL    HW123882   4.498   2.057   5.525
 7661SOL    HW223883   4.608   1.964   5.601
 7662SOL     OW23884   6.199   0.284   0.974
 7662SOL    HW123885   6.166   0.375   0.945
 7662SOL    HW223886   6.298   0.278   0.960
 7663SOL     OW23887   0.340   5.954   5.601
 7663SOL    HW123888   0.381   5.865   5.624
 7663SOL    HW223889   0.409   6.013   5.559
 7664SOL     OW23890   3.844   2.029   2.158
 7664SOL    HW123891   3.776   2.070   2.098
 7664SOL    HW223892   3.919   2.094   2.173
 7665SOL     OW23893   4.297   0.700   5.722
 7665SOL    HW123894   4.335   0.709   5.630
 7665SOL    HW223895   4.218   0.638   5.721
 7666SOL     OW23896   5.362   4.578   3.559
 7666SOL    HW123897   5.345   4.621   3.470
 7666SOL    HW223898   5.408   4.491   3.546
 7667SOL     OW23899   4.149   5.821   1.756
 7667SOL    HW123900   4.146   5.723   1.739
 7667SOL    HW223901   4.062   5.851   1.796
 7668SOL     OW23902   2.109   5.824   0.461
 7668SOL    HW123903   2.061   5.889   0.521
 7668SOL    HW223904   2.206   5.825   0.483
 7669SOL     OW23905   2.130   1.302   5.859
 7669SOL    HW123906   2.075   1.361   5.919
 7669SOL    HW223907   2.223   1.339   5.852
 7670SOL     OW23908   0.788   6.614   0.509
 7670SOL    HW123909   0.765   6.518   0.526
 7670SOL    HW223910   0.843   6.622   0.426
 7671SOL     OW23911   3.633   0.058   1.047
 7671SOL    HW123912   3.682   7.005   1.007
 7671SOL    HW223913   3.685   0.093   1.125
 7672SOL     OW23914   4.678   5.180   2.939
 7672SOL    HW123915   4.742   5.123   2.889
 7672SOL    HW223916   4.605   5.123   2.977
 7673SOL     OW23917   1.830   6.312   4.426
 7673SOL    HW123918   1.788   6.369   4.355
 7673SOL    HW223919   1.766   6.241   4.454
 7674SOL     OW23920   4.590   6.178   4.450
 7674SOL    HW123921   4.661   6.229   4.500
 7674SOL    HW223922   4.507   6.232   4.446
 7675SOL     OW23923   5.087   6.422   3.478
 7675SOL    HW123924   5.108   6.468   3.564
 7675SOL    HW223925   5.152   6.451   3.407
 7676SOL     OW23926   3.283   3.048   5.740
 7676SOL    HW123927   3.285   3.117   5.812
 7676SOL    HW223928   3.250   2.961   5.777
 7677SOL     OW23929   6.052   4.628   0.314
 7677SOL    HW123930   6.006   4.716   0.307
 7677SOL    HW223931   6.134   4.629   0.256
 7678SOL     OW23932   1.551   0.832   4.730
 7678SOL    HW123933   1.558   0.766   4.656
 7678SOL    HW223934   1.459   0.828   4.770
 7679SOL     OW23935   3.224   5.662   5.474
 7679SOL    HW123936   3.232   5.742   5.533
 7679SOL    HW223937   3.264   5.683   5.385
 7680SOL     OW23938   2.040   0.106   5.011
 7680SOL    HW123939   2.085   0.183   4.966
 7680SOL    HW223940   2.099   0.025   5.006
 7681SOL     OW23941   2.669   3.557   6.652
 7681SOL    HW123942   2.680   3.465   6.688
 7681SOL    HW223943   2.581   3.594   6.680
 7682SOL     OW23944   2.704   1.579   2.617
 7682SOL    HW123945   2.641   1.605   2.543
 7682SOL    HW223946   2.795   1.563   2.579
 7683SOL     OW23947   0.417   5.836   4.497
 7683SOL    HW123948   0.502   5.847   4.550
 7683SOL    HW223949   0.424   5.887   4.412
 7684SOL     OW23950   3.953   2.875   1.248
 7684SOL    HW123951   3.947   2.971   1.275
 7684SOL    HW223952   3.968   2.819   1.330
 7685SOL     OW23953   2.768   0.661   0.140
 7685SOL    HW123954   2.718   0.748   0.147
 7685SOL    HW223955   2.703   0.586   0.128
 7686SOL     OW23956   6.067   0.061   4.572
 7686SOL    HW123957   5.973   0.025   4.565
 7686SOL    HW223958   6.085   0.090   4.666
 7687SOL     OW23959   5.942   4.383   5.526
 7687SOL    HW123960   5.853   4.428   5.521
 7687SOL    HW223961   5.971   4.357   5.434
 7688SOL     OW23962   0.221   4.229   6.341
 7688SOL    HW123963   0.225   4.137   6.381
 7688SOL    HW223964   0.160   4.286   6.396
 7689SOL     OW23965   4.969   0.337   1.587
 7689SOL    HW123966   5.020   0.387   1.659
 7689SOL    HW223967   4.885   0.387   1.565
 7690SOL     OW23968   5.834   5.462   1.422
 7690SOL    HW123969   5.755   5.427   1.473
 7690SOL    HW223970   5.904   5.493   1.485
 7691SOL     OW23971   4.685   4.434   3.284
 7691SOL    HW123972   4.695   4.336   3.301
 7691SOL    HW223973   4.642   4.477   3.364
 7692SOL     OW23974   2.443   0.077   2.764
 7692SOL    HW123975   2.463   7.019   2.818
 7692SOL    HW223976   2.384   0.138   2.816
 7693SOL     OW23977   2.184   1.252   1.242
 7693SOL    HW123978   2.136   1.247   1.155
 7693SOL    HW223979   2.146   1.325   1.298
 7694SOL     OW23980   5.184   1.499   5.523
 7694SOL    HW123981   5.266   1.528   5.571
 7694SOL    HW223982   5.201   1.412   5.477
 7695SOL     OW23983   4.844   0.159   3.880
 7695SOL    HW123984   4.844   0.091   3.953
 7695SOL    HW223985   4.773   0.227   3.898
 7696SOL     OW23986   1.636   3.112   5.733
 7696SOL    HW123987   1.713   3.141   5.789
 7696SOL    HW223988   1.551   3.138   5.778
 7697SOL     OW23989   4.748   0.208   3.108
 7697SOL    HW123990   4.783   0.302   3.108
 7697SOL    HW223991   4.818   0.146   3.073
 7698SOL     OW23992   6.209   2.934   0.606
 7698SOL    HW123993   6.117   2.901   0.582
 7698SOL    HW223994   6.207   2.970   0.699
 7699SOL     OW23995   4.489   5.814   6.106
 7699SOL    HW123996   4.565   5.771   6.154
 7699SOL    HW223997   4.433   5.865   6.172
 7700SOL     OW23998   5.530   6.262   2.724
 7700SOL    HW123999   5.486   6.199   2.788
 7700SOL    HW224000   5.629   6.260   2.738
 7701SOL     OW24001   1.427   2.650   6.476
 7701SOL    HW124002   1.418   2.727   6.413
 7701SOL    HW224003   1.470   2.573   6.428
 7702SOL     OW24004   4.397   7.002   4.578
 7702SOL    HW124005   4.478   7.000   4.520
 7702SOL    HW224006   4.415   6.950   4.661
 7703SOL     OW24007   6.379   0.139   4.928
 7703SOL    HW124008   6.294   0.150   4.877
 7703SOL    HW224009   6.388   0.043   4.956
 7704SOL     OW24010   0.375   1.381   4.969
 7704SOL    HW124011   0.466   1.422   4.971
 7704SOL    HW224012   0.379   1.294   4.919
 7705SOL     OW24013   1.060   5.460   6.614
 7705SOL    HW124014   1.145   5.499   6.649
 7705SOL    HW224015   1.005   5.532   6.573
 7706SOL     OW24016   3.126   2.959   2.126
 7706SOL    HW124017   3.166   2.974   2.036
 7706SOL    HW224018   3.074   2.873   2.126
 7707SOL     OW24019   6.952   4.163   6.554
 7707SOL    HW124020   6.970   4.244   6.497
 7707SOL    HW224021   6.861   4.127   6.534
 7708SOL     OW24022   2.516   0.287   4.611
 7708SOL    HW124023   2.591   0.241   4.658
 7708SOL    HW224024   2.531   0.280   4.512
 7709SOL     OW24025   6.757   4.645   1.548
 7709SOL    HW124026   6.744   4.703   1.468
 7709SOL    HW224027   6.852   4.650   1.578
 7710SOL     OW24028   6.981   2.993   1.165
 7710SOL    HW124029   0.001   3.046   1.237
 7710SOL    HW224030   6.911   2.934   1.205
 7711SOL     OW24031   0.417   4.853   5.049
 7711SOL    HW124032   0.414   4.755   5.070
 7711SOL    HW224033   0.422   4.865   4.950
 7712SOL     OW24034   0.197   5.056   5.603
 7712SOL    HW124035   0.123   5.038   5.668
 7712SOL    HW224036   0.196   5.152   5.578
 7713SOL     OW24037   1.578   4.567   6.923
 7713SOL    HW124038   1.510   4.610   6.982
 7713SOL    HW224039   1.661   4.623   6.921
 7714SOL     OW24040   6.328   1.420   4.834
 7714SOL    HW124041   6.291   1.364   4.760
 7714SOL    HW224042   6.318   1.371   4.921
 7715SOL     OW24043   3.345   3.018   5.208
 7715SOL    HW124044   3.350   2.982   5.301
 7715SOL    HW224045   3.428   3.070   5.188
 7716SOL     OW24046   1.372   6.565   6.108
 7716SOL    HW124047   1.336   6.508   6.182
 7716SOL    HW224048   1.432   6.510   6.049
 7717SOL     OW24049   0.016   1.851   6.614
 7717SOL    HW124050   6.976   1.922   6.642
 7717SOL    HW224051   0.107   1.871   6.651
 7718SOL     OW24052   1.068   3.774   3.089
 7718SOL    HW124053   1.126   3.844   3.130
 7718SOL    HW224054   1.098   3.684   3.121
 7719SOL     OW24055   2.006   4.787   4.983
 7719SOL    HW124056   2.078   4.718   4.987
 7719SOL    HW224057   1.979   4.812   5.076
 7720SOL     OW24058   4.535   1.006   6.786
 7720SOL    HW124059   4.574   1.024   6.876
 7720SOL    HW224060   4.594   0.942   6.736
 7721SOL     OW24061   0.188   0.728   2.462
 7721SOL    HW124062   0.274   0.677   2.461
 7721SOL    HW224063   0.206   0.825   2.470
 7722SOL     OW24064   1.015   6.047   3.791
 7722SOL    HW124065   1.099   5.996   3.774
 7722SOL    HW224066   1.008   6.122   3.725
 7723SOL     OW24067   4.843   4.133   0.231
 7723SOL    HW124068   4.841   4.187   0.147
 7723SOL    HW224069   4.822   4.037   0.210
 7724SOL     OW24070   2.110   3.649   1.428
 7724SOL    HW124071   2.032   3.678   1.372
 7724SOL    HW224072   2.076   3.611   1.514
 7725SOL     OW24073   5.350   2.944   3.095
 7725SOL    HW124074   5.323   2.855   3.133
 7725SOL    HW224075   5.375   2.933   2.999
 7726SOL     OW24076   0.872   3.394   6.012
 7726SOL    HW124077   0.962   3.375   6.050
 7726SOL    HW224078   0.802   3.352   6.070
 7727SOL     OW24079   4.248   1.011   2.103
 7727SOL    HW124080   4.276   1.103   2.130
 7727SOL    HW224081   4.249   1.003   2.004
 7728SOL     OW24082   1.868   3.175   4.744
 7728SOL    HW124083   1.838   3.084   4.774
 7728SOL    HW224084   1.849   3.242   4.815
 7729SOL     OW24085   0.035   1.988   3.754
 7729SOL    HW124086   7.004   1.904   3.751
 7729SOL    HW224087   7.002   2.063   3.786
 7730SOL     OW24088   6.357   4.267   4.832
 7730SOL    HW124089   6.325   4.176   4.858
 7730SOL    HW224090   6.374   4.269   4.734
 7731SOL     OW24091   6.927   6.390   6.558
 7731SOL    HW124092   6.978   6.382   6.644
 7731SOL    HW224093   6.830   6.377   6.575
 7732SOL     OW24094   3.940   6.683   6.500
 7732SOL    HW124095   3.969   6.769   6.458
 7732SOL    HW224096   4.015   6.645   6.554
 7733SOL     OW24097   6.388   5.532   1.609
 7733SOL    HW124098   6.468   5.542   1.668
 7733SOL    HW224099   6.399   5.589   1.528
 7734SOL     OW24100   3.614   3.431   4.871
 7734SOL    HW124101   3.664   3.402   4.953
 7734SOL    HW224102   3.662   3.400   4.790
 7735SOL     OW24103   6.952   5.988   0.468
 7735SOL    HW124104   6.992   5.962   0.556
 7735SOL    HW224105   6.900   5.910   0.431
 7736SOL     OW24106   1.925   2.898   0.050
 7736SOL    HW124107   1.873   2.914   6.990
 7736SOL    HW224108   2.022   2.908   0.031
 7737SOL     OW24109   4.341   5.207   0.958
 7737SOL    HW124110   4.325   5.127   1.016
 7737SOL    HW224111   4.311   5.187   0.865
 7738SOL     OW24112   2.294   0.577   5.327
 7738SOL    HW124113   2.274   0.635   5.248
 7738SOL    HW224114   2.254   0.486   5.312
 7739SOL     OW24115   1.894   2.061   0.619
 7739SOL    HW124116   1.985   2.098   0.637
 7739SOL    HW224117   1.852   2.033   0.706
 7740SOL     OW24118   1.957   0.520   4.784
 7740SOL    HW124119   1.883   0.512   4.717
 7740SOL    HW224120   1.983   0.616   4.793
 7741SOL     OW24121   1.623   4.488   6.500
 7741SOL    HW124122   1.716   4.472   6.468
 7741SOL    HW224123   1.595   4.413   6.560
 7742SOL     OW24124   4.438   1.965   4.359
 7742SOL    HW124125   4.408   1.946   4.265
 7742SOL    HW224126   4.519   2.024   4.357
 7743SOL     OW24127   5.117   1.805   6.065
 7743SOL    HW124128   5.064   1.854   5.996
 7743SOL    HW224129   5.198   1.765   6.023
 7744SOL     OW24130   0.466   6.271   4.662
 7744SOL    HW124131   0.490   6.358   4.706
 7744SOL    HW224132   0.491   6.195   4.722
 7745SOL     OW24133   2.673   0.041   0.406
 7745SOL    HW124134   2.769   0.047   0.435
 7745SOL    HW224135   2.650   6.971   0.384
 7746SOL     OW24136   0.900   5.953   0.804
 7746SOL    HW124137   0.920   5.865   0.847
 7746SOL    HW224138   0.924   5.949   0.707
 7747SOL     OW24139   0.994   6.071   0.353
 7747SOL    HW124140   1.004   6.016   0.270
 7747SOL    HW224141   0.920   6.137   0.342
 7748SOL     OW24142   4.683   2.032   6.264
 7748SOL    HW124143   4.776   2.003   6.286
 7748SOL    HW224144   4.685   2.089   6.182
 7749SOL     OW24145   3.707   3.994   4.575
 7749SOL    HW124146   3.648   4.075   4.580
 7749SOL    HW224147   3.651   3.912   4.591
 7750SOL     OW24148   5.727   4.182   5.177
 7750SOL    HW124149   5.767   4.092   5.191
 7750SOL    HW224150   5.765   4.222   5.093
 7751SOL     OW24151   6.950   0.960   4.969
 7751SOL    HW124152   6.907   0.870   4.961
 7751SOL    HW224153   6.962   0.982   5.066
 7752SOL     OW24154   6.302   5.629   5.312
 7752SOL    HW124155   6.273   5.724   5.324
 7752SOL    HW224156   6.224   5.568   5.325
 7753SOL     OW24157   2.520   1.214   4.695
 7753SOL    HW124158   2.580   1.285   4.734
 7753SOL    HW224159   2.468   1.252   4.619
 7754SOL     OW24160   6.384   0.624   1.510
 7754SOL    HW124161   6.348   0.595   1.421
 7754SOL    HW224162   6.324   0.590   1.582
 7755SOL     OW24163   1.079   5.821   5.497
 7755SOL    HW124164   1.149   5.770   5.448
 7755SOL    HW224165   1.110   5.840   5.590
 7756SOL     OW24166   3.595   5.695   2.226
 7756SOL    HW124167   3.544   5.716   2.142
 7756SOL    HW224168   3.626   5.600   2.223
 7757SOL     OW24169   4.869   6.459   6.021
 7757SOL    HW124170   4.796   6.450   5.953
 7757SOL    HW224171   4.955   6.429   5.981
 7758SOL     OW24172   2.409   2.025   5.326
 7758SOL    HW124173   2.509   2.028   5.330
 7758SOL    HW224174   2.375   2.112   5.288
 7759SOL     OW24175   1.848   0.822   5.462
 7759SOL    HW124176   1.852   0.790   5.367
 7759SOL    HW224177   1.842   0.922   5.464
 7760SOL     OW24178   4.586   2.469   2.531
 7760SOL    HW124179   4.571   2.391   2.471
 7760SOL    HW224180   4.540   2.454   2.618
 7761SOL     OW24181   3.814   6.989   6.610
 7761SOL    HW124182   3.716   7.002   6.593
 7761SOL    HW224183   3.855   6.938   6.535
 7762SOL     OW24184   3.103   1.583   0.486
 7762SOL    HW124185   3.180   1.645   0.499
 7762SOL    HW224186   3.058   1.566   0.574
 7763SOL     OW24187   1.871   1.818   1.116
 7763SOL    HW124188   1.913   1.830   1.206
 7763SOL    HW224189   1.875   1.905   1.066
 7764SOL     OW24190   3.207   3.005   2.736
 7764SOL    HW124191   3.151   2.962   2.807
 7764SOL    HW224192   3.149   3.031   2.659
 7765SOL     OW24193   6.861   2.410   2.287
 7765SOL    HW124194   6.765   2.430   2.303
 7765SOL    HW224195   6.891   2.458   2.204
 7766SOL     OW24196   6.746   3.060   7.024
 7766SOL    HW124197   6.742   2.984   0.064
 7766SOL    HW224198   6.661   3.113   0.006
 7767SOL     OW24199   5.257   4.570   5.360
 7767SOL    HW124200   5.277   4.649   5.303
 7767SOL    HW224201   5.343   4.528   5.390
 7768SOL     OW24202   3.478   5.207   2.484
 7768SOL    HW124203   3.448   5.261   2.563
 7768SOL    HW224204   3.570   5.234   2.457
 7769SOL     OW24205   5.888   1.825   1.641
 7769SOL    HW124206   5.884   1.791   1.735
 7769SOL    HW224207   5.837   1.911   1.635
 7770SOL     OW24208   3.641   5.257   1.208
 7770SOL    HW124209   3.697   5.224   1.132
 7770SOL    HW224210   3.668   5.351   1.231
 7771SOL     OW24211   2.584   1.398   5.281
 7771SOL    HW124212   2.556   1.380   5.187
 7771SOL    HW224213   2.636   1.483   5.284
 7772SOL     OW24214   5.345   1.526   4.548
 7772SOL    HW124215   5.428   1.536   4.604
 7772SOL    HW224216   5.276   1.592   4.578
 7773SOL     OW24217   3.751   4.507   5.380
 7773SOL    HW124218   3.700   4.469   5.303
 7773SOL    HW224219   3.765   4.437   5.449
 7774SOL     OW24220   4.596   1.628   6.363
 7774SOL    HW124221   4.604   1.706   6.425
 7774SOL    HW224222   4.664   1.636   6.290
 7775SOL     OW24223   2.712   6.843   2.734
 7775SOL    HW124224   2.786   6.777   2.725
 7775SOL    HW224225   2.738   6.930   2.691
 7776SOL     OW24226   3.891   3.584   6.896
 7776SOL    HW124227   3.816   3.650   6.893
 7776SOL    HW224228   3.855   3.491   6.891
 7777SOL     OW24229   1.940   1.056   6.940
 7777SOL    HW124230   1.887   1.140   6.928
 7777SOL    HW224231   1.930   0.998   6.859
 7778SOL     OW24232   5.861   0.806   0.215
 7778SOL    HW124233   5.822   0.733   0.159
 7778SOL    HW224234   5.831   0.895   0.179
 7779SOL     OW24235   3.821   3.308   6.412
 7779SOL    HW124236   3.725   3.293   6.435
 7779SOL    HW224237   3.828   3.336   6.316
 7780SOL     OW24238   1.358   6.963   4.426
 7780SOL    HW124239   1.454   6.940   4.413
 7780SOL    HW224240   1.303   6.916   4.357
 7781SOL     OW24241   1.264   5.046   4.724
 7781SOL    HW124242   1.329   4.971   4.729
 7781SOL    HW224243   1.230   5.066   4.816
 7782SOL     OW24244   3.238   4.171   6.557
 7782SOL    HW124245   3.208   4.240   6.490
 7782SOL    HW224246   3.308   4.114   6.516
 7783SOL     OW24247   3.237   5.248   6.540
 7783SOL    HW124248   3.281   5.329   6.580
 7783SOL    HW224249   3.308   5.183   6.511
 7784SOL     OW24250   0.616   2.632   6.926
 7784SOL    HW124251   0.566   2.555   6.965
 7784SOL    HW224252   0.599   2.714   6.981
 7785SOL     OW24253   2.633   5.766   4.424
 7785SOL    HW124254   2.584   5.849   4.398
 7785SOL    HW224255   2.593   5.688   4.377
 7786SOL     OW24256   2.967   4.092   5.122
 7786SOL    HW124257   2.953   4.004   5.075
 7786SOL    HW224258   2.892   4.154   5.097
 7787SOL     OW24259   2.689   2.553   5.277
 7787SOL    HW124260   2.657   2.647   5.281
 7787SOL    HW224261   2.777   2.546   5.324
 7788SOL     OW24262   0.921   1.369   0.161
 7788SOL    HW124263   0.879   1.407   0.243
 7788SOL    HW224264   0.968   1.283   0.183
 7789SOL     OW24265   2.501   0.331   1.276
 7789SOL    HW124266   2.525   0.375   1.190
 7789SOL    HW224267   2.402   0.337   1.291
 7790SOL     OW24268   5.666   3.463   2.393
 7790SOL    HW124269   5.705   3.455   2.484
 7790SOL    HW224270   5.583   3.520   2.397
 7791SOL     OW24271   1.687   5.070   5.143
 7791SOL    HW124272   1.700   5.091   5.046
 7791SOL    HW224273   1.774   5.080   5.191
 7792SOL     OW24274   2.605   5.325   6.220
 7792SOL    HW124275   2.512   5.318   6.255
 7792SOL    HW224276   2.669   5.335   6.297
 7793SOL     OW24277   1.081   1.122   6.319
 7793SOL    HW124278   1.037   1.191   6.376
 7793SOL    HW224279   1.172   1.101   6.356
 7794SOL     OW24280   5.211   5.615   3.795
 7794SOL    HW124281   5.178   5.634   3.887
 7794SOL    HW224282   5.311   5.620   3.793
 7795SOL     OW24283   2.582   4.412   5.614
 7795SOL    HW124284   2.648   4.351   5.570
 7795SOL    HW224285   2.501   4.359   5.641
 7796SOL     OW24286   4.130   3.420   3.851
 7796SOL    HW124287   4.140   3.412   3.752
 7796SOL    HW224288   4.114   3.516   3.874
 7797SOL     OW24289   0.786   0.389   2.575
 7797SOL    HW124290   0.868   0.445   2.584
 7797SOL    HW224291   0.812   0.296   2.547
 7798SOL     OW24292   4.216   5.368   0.091
 7798SOL    HW124293   4.250   5.290   0.145
 7798SOL    HW224294   4.155   5.336   0.020
 7799SOL     OW24295   0.405   5.142   1.490
 7799SOL    HW124296   0.462   5.087   1.551
 7799SOL    HW224297   0.319   5.163   1.536
 7800SOL     OW24298   0.704   5.837   2.265
 7800SOL    HW124299   0.741   5.874   2.180
 7800SOL    HW224300   0.621   5.888   2.291
 7801SOL     OW24301   3.786   2.025   6.409
 7801SOL    HW124302   3.881   2.005   6.435
 7801SOL    HW224303   3.731   2.036   6.492
 7802SOL     OW24304   5.469   1.882   1.599
 7802SOL    HW124305   5.567   1.899   1.595
 7802SOL    HW224306   5.435   1.860   1.507
 7803SOL     OW24307   4.235   4.225   5.478
 7803SOL    HW124308   4.157   4.260   5.425
 7803SOL    HW224309   4.317   4.277   5.453
 7804SOL     OW24310   4.704   1.835   6.499
 7804SOL    HW124311   4.712   1.911   6.435
 7804SOL    HW224312   4.794   1.809   6.533
 7805SOL     OW24313   4.916   3.686   1.736
 7805SOL    HW124314   4.833   3.741   1.729
 7805SOL    HW224315   4.920   3.622   1.659
 7806SOL     OW24316   5.388   2.584   6.619
 7806SOL    HW124317   5.311   2.612   6.562
 7806SOL    HW224318   5.368   2.496   6.663
 7807SOL     OW24319   0.298   4.128   6.672
 7807SOL    HW124320   0.367   4.171   6.615
 7807SOL    HW224321   0.240   4.069   6.615
 7808SOL     OW24322   0.668   1.431   4.977
 7808SOL    HW124323   0.737   1.440   5.048
 7808SOL    HW224324   0.676   1.506   4.911
 7809SOL     OW24325   2.363   5.353   4.757
 7809SOL    HW124326   2.423   5.394   4.689
 7809SOL    HW224327   2.404   5.363   4.848
 7810SOL     OW24328   2.845   0.890   6.899
 7810SOL    HW124329   2.760   0.840   6.881
 7810SOL    HW224330   2.856   0.904   6.997
 7811SOL     OW24331   6.757   4.134   3.968
 7811SOL    HW124332   6.657   4.145   3.961
 7811SOL    HW224333   6.777   4.046   4.010
 7812SOL     OW24334   1.322   1.875   3.293
 7812SOL    HW124335   1.382   1.880   3.373
 7812SOL    HW224336   1.311   1.966   3.254
 7813SOL     OW24337   6.387   3.241   0.777
 7813SOL    HW124338   6.459   3.196   0.829
 7813SOL    HW224339   6.298   3.203   0.802
 7814SOL     OW24340   0.475   3.693   3.107
 7814SOL    HW124341   0.448   3.598   3.121
 7814SOL    HW224342   0.460   3.745   3.191
 7815SOL     OW24343   6.682   1.516   6.111
 7815SOL    HW124344   6.685   1.616   6.114
 7815SOL    HW224345   6.759   1.478   6.162
 7816SOL     OW24346   0.971   4.142   4.890
 7816SOL    HW124347   0.964   4.109   4.985
 7816SOL    HW224348   1.062   4.123   4.855
 7817SOL     OW24349   5.589   3.690   4.519
 7817SOL    HW124350   5.603   3.641   4.433
 7817SOL    HW224351   5.494   3.678   4.548
 7818SOL     OW24352   5.092   5.392   2.261
 7818SOL    HW124353   5.180   5.389   2.308
 7818SOL    HW224354   5.023   5.427   2.324
 7819SOL     OW24355   6.546   1.469   1.456
 7819SOL    HW124356   6.634   1.480   1.503
 7819SOL    HW224357   6.472   1.499   1.517
 7820SOL     OW24358   1.935   0.598   6.420
 7820SOL    HW124359   2.030   0.569   6.418
 7820SOL    HW224360   1.912   0.633   6.511
 7821SOL     OW24361   3.185   5.350   1.790
 7821SOL    HW124362   3.213   5.255   1.805
 7821SOL    HW224363   3.101   5.369   1.841
 7822SOL     OW24364   1.566   5.806   4.696
 7822SOL    HW124365   1.572   5.809   4.796
 7822SOL    HW224366   1.475   5.774   4.669
 7823SOL     OW24367   1.538   4.749   4.868
 7823SOL    HW124368   1.520   4.789   4.958
 7823SOL    HW224369   1.637   4.737   4.857
 7824SOL     OW24370   0.461   2.697   5.614
 7824SOL    HW124371   0.409   2.612   5.621
 7824SOL    HW224372   0.549   2.678   5.570
 7825SOL     OW24373   2.821   1.157   6.788
 7825SOL    HW124374   2.771   1.189   6.708
 7825SOL    HW224375   2.773   1.080   6.830
 7826SOL     OW24376   0.683   3.191   6.511
 7826SOL    HW124377   0.622   3.129   6.562
 7826SOL    HW224378   0.629   3.264   6.469
 7827SOL     OW24379   6.449   5.645   4.518
 7827SOL    HW124380   6.490   5.625   4.607
 7827SOL    HW224381   6.518   5.681   4.456
 7828SOL     OW24382   0.671   5.063   6.805
 7828SOL    HW124383   0.626   5.036   6.890
 7828SOL    HW224384   0.756   5.011   6.795
 7829SOL     OW24385   3.952   2.963   0.411
 7829SOL    HW124386   3.999   3.045   0.377
 7829SOL    HW224387   3.865   2.952   0.363
 7830SOL     OW24388   2.691   4.961   4.123
 7830SOL    HW124389   2.633   4.942   4.202
 7830SOL    HW224390   2.787   4.968   4.153
 7831SOL     OW24391   2.029   1.042   0.453
 7831SOL    HW124392   1.997   1.061   0.361
 7831SOL    HW224393   2.086   0.960   0.453
 7832SOL     OW24394   6.315   0.811   4.791
 7832SOL    HW124395   6.395   0.868   4.773
 7832SOL    HW224396   6.307   0.740   4.721
 7833SOL     OW24397   1.665   0.655   3.733
 7833SOL    HW124398   1.654   0.665   3.832
 7833SOL    HW224399   1.643   0.561   3.706
 7834SOL     OW24400   6.555   3.314   5.027
 7834SOL    HW124401   6.463   3.283   5.003
 7834SOL    HW224402   6.558   3.414   5.023
 7835SOL     OW24403   3.984   2.496   5.442
 7835SOL    HW124404   4.036   2.522   5.361
 7835SOL    HW224405   4.010   2.554   5.519
 7836SOL     OW24406   3.189   3.736   4.185
 7836SOL    HW124407   3.267   3.741   4.247
 7836SOL    HW224408   3.105   3.749   4.237
 7837SOL     OW24409   0.010   5.923   6.792
 7837SOL    HW124410   0.080   5.857   6.821
 7837SOL    HW224411   0.006   5.927   6.693
 7838SOL     OW24412   4.829   5.227   1.918
 7838SOL    HW124413   4.830   5.249   2.016
 7838SOL    HW224414   4.920   5.243   1.880
 7839SOL     OW24415   5.751   3.280   4.365
 7839SOL    HW124416   5.804   3.285   4.450
 7839SOL    HW224417   5.673   3.219   4.379
 7840SOL     OW24418   1.941   2.939   4.132
 7840SOL    HW124419   2.034   2.913   4.106
 7840SOL    HW224420   1.937   3.038   4.147
 7841SOL     OW24421   4.135   2.027   6.171
 7841SOL    HW124422   4.171   2.101   6.114
 7841SOL    HW224423   4.118   1.947   6.114
 7842SOL     OW24424   1.298   0.592   2.283
 7842SOL    HW124425   1.205   0.554   2.283
 7842SOL    HW224426   1.294   0.687   2.251
 7843SOL     OW24427   6.845   6.237   3.116
 7843SOL    HW124428   6.917   6.307   3.123
 7843SOL    HW224429   6.785   6.259   3.040
 7844SOL     OW24430   3.571   1.166   2.628
 7844SOL    HW124431   3.542   1.203   2.539
 7844SOL    HW224432   3.668   1.143   2.624
 7845SOL     OW24433   6.896   3.314   1.057
 7845SOL    HW124434   6.828   3.323   1.129
 7845SOL    HW224435   6.851   3.283   0.973
 7846SOL     OW24436   1.483   1.588   0.900
 7846SOL    HW124437   1.460   1.495   0.929
 7846SOL    HW224438   1.473   1.595   0.801
 7847SOL     OW24439   5.496   3.767   5.148
 7847SOL    HW124440   5.418   3.726   5.196
 7847SOL    HW224441   5.558   3.809   5.214
 7848SOL     OW24442   3.416   4.064   0.987
 7848SOL    HW124443   3.445   3.977   1.027
 7848SOL    HW224444   3.317   4.060   0.968
 7849SOL     OW24445   4.689   4.529   0.142
 7849SOL    HW124446   4.595   4.518   0.173
 7849SOL    HW224447   4.706   4.626   0.122
 7850SOL     OW24448   6.826   1.398   3.369
 7850SOL    HW124449   6.744   1.454   3.359
 7850SOL    HW224450   6.822   1.321   3.304
 7851SOL     OW24451   0.601   4.647   1.613
 7851SOL    HW124452   0.541   4.719   1.578
 7851SOL    HW224453   0.661   4.615   1.539
 7852SOL     OW24454   1.217   2.734   6.897
 7852SOL    HW124455   1.281   2.665   6.861
 7852SOL    HW224456   1.146   2.688   6.951
 7853SOL     OW24457   3.879   2.957   1.855
 7853SOL    HW124458   3.955   2.972   1.792
 7853SOL    HW224459   3.895   3.008   1.939
 7854SOL     OW24460   4.739   2.003   6.919
 7854SOL    HW124461   4.696   1.940   6.854
 7854SOL    HW224462   4.671   2.070   6.950
 7855SOL     OW24463   4.991   0.520   4.676
 7855SOL    HW124464   5.024   0.549   4.765
 7855SOL    HW224465   5.062   0.536   4.607
 7856SOL     OW24466   2.300   6.402   4.544
 7856SOL    HW124467   2.287   6.362   4.453
 7856SOL    HW224468   2.217   6.452   4.570
 7857SOL     OW24469   5.998   4.809   1.353
 7857SOL    HW124470   6.046   4.728   1.319
 7857SOL    HW224471   5.902   4.787   1.370
 7858SOL     OW24472   0.459   4.219   6.449
 7858SOL    HW124473   0.392   4.217   6.375
 7858SOL    HW224474   0.488   4.314   6.465
 7859SOL     OW24475   5.359   2.216   0.402
 7859SOL    HW124476   5.428   2.284   0.426
 7859SOL    HW224477   5.288   2.258   0.346
 7860SOL     OW24478   2.827   1.239   4.347
 7860SOL    HW124479   2.857   1.323   4.393
 7860SOL    HW224480   2.801   1.260   4.253
 7861SOL     OW24481   2.386   6.553   0.562
 7861SOL    HW124482   2.442   6.594   0.491
 7861SOL    HW224483   2.368   6.620   0.634
 7862SOL     OW24484   2.155   6.179   0.226
 7862SOL    HW124485   2.205   6.182   0.313
 7862SOL    HW224486   2.077   6.117   0.235
 7863SOL     OW24487   7.007   4.055   3.707
 7863SOL    HW124488   6.913   4.085   3.694
 7863SOL    HW224489   0.032   4.123   3.762
 7864SOL     OW24490   1.786   6.099   5.288
 7864SOL    HW124491   1.862   6.053   5.244
 7864SOL    HW224492   1.796   6.198   5.278
 7865SOL     OW24493   5.609   4.920   3.231
 7865SOL    HW124494   5.563   4.978   3.299
 7865SOL    HW224495   5.595   4.824   3.255
 7866SOL     OW24496   6.986   0.097   5.759
 7866SOL    HW124497   6.918   0.097   5.685
 7866SOL    HW224498   0.039   0.155   5.733
 7867SOL     OW24499   5.442   5.950   3.869
 7867SOL    HW124500   5.482   6.039   3.847
 7867SOL    HW224501   5.469   5.883   3.800
 7868SOL     OW24502   3.151   6.234   1.955
 7868SOL    HW124503   3.088   6.156   1.952
 7868SOL    HW224504   3.132   6.289   2.036
 7869SOL     OW24505   5.816   4.562   6.229
 7869SOL    HW124506   5.740   4.624   6.211
 7869SOL    HW224507   5.782   4.467   6.230
 7870SOL     OW24508   5.553   5.791   4.293
 7870SOL    HW124509   5.510   5.757   4.377
 7870SOL    HW224510   5.510   5.877   4.267
 7871SOL     OW24511   5.369   1.438   1.880
 7871SOL    HW124512   5.408   1.525   1.851
 7871SOL    HW224513   5.372   1.432   1.980
 7872SOL     OW24514   1.597   5.785   2.945
 7872SOL    HW124515   1.574   5.882   2.944
 7872SOL    HW224516   1.693   5.773   2.920
 7873SOL     OW24517   5.863   1.828   0.301
 7873SOL    HW124518   5.927   1.830   0.378
 7873SOL    HW224519   5.914   1.839   0.216
 7874SOL     OW24520   5.445   2.420   0.763
 7874SOL    HW124521   5.481   2.477   0.836
 7874SOL    HW224522   5.449   2.324   0.790
 7875SOL     OW24523   6.131   4.786   6.583
 7875SOL    HW124524   6.051   4.762   6.528
 7875SOL    HW224525   6.213   4.745   6.542
 7876SOL     OW24526   0.911   6.905   3.155
 7876SOL    HW124527   0.981   6.942   3.216
 7876SOL    HW224528   0.827   6.957   3.165
 7877SOL     OW24529   6.847   2.375   2.655
 7877SOL    HW124530   6.842   2.459   2.708
 7877SOL    HW224531   6.818   2.392   2.561
 7878SOL     OW24532   4.343   4.683   2.734
 7878SOL    HW124533   4.336   4.688   2.634
 7878SOL    HW224534   4.258   4.716   2.775
 7879SOL     OW24535   3.107   5.106   2.960
 7879SOL    HW124536   3.100   5.165   3.041
 7879SOL    HW224537   3.087   5.011   2.985
 7880SOL     OW24538   1.237   4.243   2.093
 7880SOL    HW124539   1.137   4.245   2.096
 7880SOL    HW224540   1.273   4.244   2.186
 7881SOL     OW24541   4.696   4.409   4.125
 7881SOL    HW124542   4.724   4.392   4.030
 7881SOL    HW224543   4.687   4.322   4.173
 7882SOL     OW24544   1.306   3.298   0.392
 7882SOL    HW124545   1.267   3.387   0.369
 7882SOL    HW224546   1.286   3.277   0.488
 7883SOL     OW24547   0.724   0.389   5.239
 7883SOL    HW124548   0.701   0.349   5.150
 7883SOL    HW224549   0.780   0.470   5.225
 7884SOL     OW24550   0.809   2.631   4.516
 7884SOL    HW124551   0.833   2.576   4.597
 7884SOL    HW224552   0.711   2.648   4.515
 7885SOL     OW24553   6.529   5.871   6.272
 7885SOL    HW124554   6.616   5.910   6.244
 7885SOL    HW224555   6.503   5.906   6.362
 7886SOL     OW24556   4.820   4.880   0.393
 7886SOL    HW124557   4.728   4.862   0.360
 7886SOL    HW224558   4.823   4.867   0.492
 7887SOL     OW24559   4.551   2.314   6.580
 7887SOL    HW124560   4.482   2.345   6.645
 7887SOL    HW224561   4.542   2.365   6.495
 7888SOL     OW24562   5.048   0.593   4.928
 7888SOL    HW124563   4.986   0.543   4.988
 7888SOL    HW224564   5.125   0.628   4.982
 7889SOL     OW24565   0.994   5.500   2.364
 7889SOL    HW124566   1.073   5.465   2.414
 7889SOL    HW224567   0.994   5.461   2.271
 7890SOL     OW24568   1.621   3.397   2.763
 7890SOL    HW124569   1.589   3.376   2.671
 7890SOL    HW224570   1.557   3.359   2.830
 7891SOL     OW24571   1.306   4.811   3.158
 7891SOL    HW124572   1.348   4.779   3.243
 7891SOL    HW224573   1.206   4.812   3.169
 7892SOL     OW24574   1.959   3.073   5.713
 7892SOL    HW124575   2.011   3.000   5.668
 7892SOL    HW224576   1.959   3.058   5.812
 7893SOL     OW24577   5.985   6.554   1.465
 7893SOL    HW124578   5.913   6.602   1.416
 7893SOL    HW224579   5.988   6.458   1.436
 7894SOL     OW24580   2.740   0.058   1.929
 7894SOL    HW124581   2.715   0.112   2.009
 7894SOL    HW224582   2.758   0.120   1.852
 7895SOL     OW24583   6.751   1.772   3.398
 7895SOL    HW124584   6.694   1.693   3.420
 7895SOL    HW224585   6.709   1.825   3.325
 7896SOL     OW24586   4.325   2.059   5.453
 7896SOL    HW124587   4.289   1.979   5.405
 7896SOL    HW224588   4.254   2.129   5.461
 7897SOL     OW24589   2.883   3.255   6.397
 7897SOL    HW124590   2.878   3.348   6.432
 7897SOL    HW224591   2.866   3.256   6.298
 7898SOL     OW24592   4.314   2.382   3.667
 7898SOL    HW124593   4.244   2.359   3.600
 7898SOL    HW224594   4.382   2.442   3.624
 7899SOL     OW24595   5.337   0.991   2.849
 7899SOL    HW124596   5.425   1.014   2.892
 7899SOL    HW224597   5.289   0.924   2.905
 7900SOL     OW24598   1.590   5.479   0.589
 7900SOL    HW124599   1.567   5.576   0.580
 7900SOL    HW224600   1.687   5.466   0.570
 7901SOL     OW24601   6.393   5.751   0.360
 7901SOL    HW124602   6.418   5.780   0.267
 7901SOL    HW224603   6.320   5.684   0.355
 7902SOL     OW24604   5.232   4.566   6.585
 7902SOL    HW124605   5.233   4.664   6.570
 7902SOL    HW224606   5.210   4.547   6.681
 7903SOL     OW24607   0.227   2.275   0.054
 7903SOL    HW124608   0.300   2.256   7.012
 7903SOL    HW224609   0.138   2.266   0.009
 7904SOL     OW24610   6.395   0.921   2.795
 7904SOL    HW124611   6.374   0.966   2.881
 7904SOL    HW224612   6.494   0.922   2.780
 7905SOL     OW24613   3.523   1.613   0.778
 7905SOL    HW124614   3.622   1.608   0.788
 7905SOL    HW224615   3.481   1.640   0.864
 7906SOL     OW24616   6.598   5.651   6.872
 7906SOL    HW124617   6.585   5.615   6.965
 7906SOL    HW224618   6.509   5.659   6.827
 7907SOL     OW24619   6.449   3.062   2.523
 7907SOL    HW124620   6.544   3.073   2.493
 7907SOL    HW224621   6.400   3.004   2.458
 7908SOL     OW24622   6.069   1.998   3.304
 7908SOL    HW124623   6.023   1.913   3.278
 7908SOL    HW224624   6.051   2.018   3.400
 7909SOL     OW24625   4.454   5.092   5.402
 7909SOL    HW124626   4.520   5.094   5.327
 7909SOL    HW224627   4.465   5.173   5.459
 7910SOL     OW24628   5.662   4.009   5.908
 7910SOL    HW124629   5.669   3.984   5.812
 7910SOL    HW224630   5.753   4.020   5.948
 7911SOL     OW24631   6.423   5.044   6.910
 7911SOL    HW124632   6.462   5.026   7.001
 7911SOL    HW224633   6.455   4.974   6.846
 7912SOL     OW24634   6.483   5.380   5.750
 7912SOL    HW124635   6.424   5.308   5.786
 7912SOL    HW224636   6.465   5.392   5.653
 7913SOL     OW24637   0.803   5.577   6.652
 7913SOL    HW124638   0.733   5.623   6.597
 7913SOL    HW224639   0.779   5.480   6.663
 7914SOL     OW24640   0.120   3.544   2.462
 7914SOL    HW124641   0.205   3.521   2.508
 7914SOL    HW224642   0.046   3.547   2.529
 7915SOL     OW24643   4.302   1.709   2.345
 7915SOL    HW124644   4.263   1.779   2.404
 7915SOL    HW224645   4.280   1.730   2.249
 7916SOL     OW24646   4.653   3.481   5.511
 7916SOL    HW124647   4.682   3.487   5.607
 7916SOL    HW224648   4.653   3.573   5.471
 7917SOL     OW24649   3.465   4.164   4.279
 7917SOL    HW124650   3.482   4.133   4.372
 7917SOL    HW224651   3.373   4.137   4.251
 7918SOL     OW24652   6.134   2.221   2.117
 7918SOL    HW124653   6.223   2.254   2.148
 7918SOL    HW224654   6.138   2.122   2.104
 7919SOL     OW24655   5.848   4.740   1.655
 7919SOL    HW124656   5.855   4.673   1.582
 7919SOL    HW224657   5.933   4.791   1.663
 7920SOL     OW24658   1.188   5.542   1.596
 7920SOL    HW124659   1.103   5.491   1.612
 7920SOL    HW224660   1.265   5.479   1.597
 7921SOL     OW24661   3.247   6.569   2.073
 7921SOL    HW124662   3.171   6.557   2.008
 7921SOL    HW224663   3.241   6.499   2.144
 7922SOL     OW24664   0.378   5.173   6.731
 7922SOL    HW124665   0.463   5.124   6.712
 7922SOL    HW224666   0.364   5.179   6.830
 7923SOL     OW24667   0.940   1.499   3.026
 7923SOL    HW124668   0.957   1.522   3.122
 7923SOL    HW224669   1.026   1.502   2.976
 7924SOL     OW24670   2.408   0.716   3.939
 7924SOL    HW124671   2.431   0.720   4.037
 7924SOL    HW224672   2.317   0.677   3.928
 7925SOL     OW24673   0.103   0.225   6.673
 7925SOL    HW124674   0.166   0.170   6.618
 7925SOL    HW224675   0.031   0.262   6.615
 7926SOL     OW24676   3.117   0.313   1.745
 7926SOL    HW124677   3.045   0.366   1.701
 7926SOL    HW224678   3.107   0.216   1.721
 7927SOL     OW24679   4.257   4.933   4.287
 7927SOL    HW124680   4.335   4.986   4.255
 7927SOL    HW224681   4.189   4.926   4.214
 7928SOL     OW24682   1.385   5.063   0.762
 7928SOL    HW124683   1.475   5.019   0.758
 7928SOL    HW224684   1.371   5.119   0.681
 7929SOL     OW24685   3.838   3.956   4.336
 7929SOL    HW124686   3.801   3.974   4.427
 7929SOL    HW224687   3.852   4.043   4.288
 7930SOL     OW24688   5.279   6.079   4.724
 7930SOL    HW124689   5.228   6.161   4.697
 7930SOL    HW224690   5.299   6.083   4.822
 7931SOL     OW24691   1.806   3.244   0.673
 7931SOL    HW124692   1.842   3.186   0.600
 7931SOL    HW224693   1.872   3.249   0.747
 7932SOL     OW24694   3.257   7.024   0.894
 7932SOL    HW124695   3.303   0.077   0.850
 7932SOL    HW224696   3.250   6.948   0.830
 7933SOL     OW24697   1.533   0.542   6.932
 7933SOL    HW124698   1.586   0.528   6.849
 7933SOL    HW224699   1.518   0.640   6.947
 7934SOL     OW24700   4.040   3.346   5.892
 7934SOL    HW124701   3.990   3.266   5.857
 7934SOL    HW224702   4.131   3.348   5.852
 7935SOL     OW24703   4.306   6.286   1.481
 7935SOL    HW124704   4.251   6.205   1.501
 7935SOL    HW224705   4.400   6.259   1.462
 7936SOL     OW24706   4.347   5.542   3.054
 7936SOL    HW124707   4.335   5.607   3.129
 7936SOL    HW224708   4.413   5.472   3.081
 7937SOL     OW24709   6.231   6.539   5.375
 7937SOL    HW124710   6.196   6.451   5.407
 7937SOL    HW224711   6.206   6.551   5.279
 7938SOL     OW24712   5.877   4.336   4.632
 7938SOL    HW124713   5.971   4.363   4.614
 7938SOL    HW224714   5.818   4.372   4.560
 7939SOL     OW24715   0.943   6.997   4.372
 7939SOL    HW124716   1.038   6.983   4.346
 7939SOL    HW224717   0.887   7.003   4.289
 7940SOL     OW24718   1.834   5.577   0.816
 7940SOL    HW124719   1.923   5.548   0.782
 7940SOL    HW224720   1.808   5.522   0.895
 7941SOL     OW24721   0.359   0.098   0.248
 7941SOL    HW124722   0.384   0.195   0.240
 7941SOL    HW224723   0.260   0.089   0.242
 7942SOL     OW24724   1.327   1.244   1.246
 7942SOL    HW124725   1.420   1.210   1.263
 7942SOL    HW224726   1.272   1.171   1.205
 7943SOL     OW24727   5.807   2.256   0.995
 7943SOL    HW124728   5.880   2.318   0.967
 7943SOL    HW224729   5.721   2.306   1.004
 7944SOL     OW24730   0.453   4.292   2.102
 7944SOL    HW124731   0.495   4.210   2.064
 7944SOL    HW224732   0.370   4.267   2.153
 7945SOL     OW24733   5.272   6.316   1.669
 7945SOL    HW124734   5.330   6.234   1.664
 7945SOL    HW224735   5.329   6.397   1.653
 7946SOL     OW24736   1.477   1.875   5.620
 7946SOL    HW124737   1.504   1.816   5.544
 7946SOL    HW224738   1.390   1.842   5.657
 7947SOL     OW24739   3.950   4.241   6.076
 7947SOL    HW124740   4.015   4.167   6.091
 7947SOL    HW224741   3.883   4.242   6.150
 7948SOL     OW24742   0.603   5.487   6.834
 7948SOL    HW124743   0.524   5.481   6.894
 7948SOL    HW224744   0.610   5.404   6.779
 7949SOL     OW24745   6.723   4.530   3.990
 7949SOL    HW124746   6.724   4.612   3.932
 7949SOL    HW224747   6.811   4.483   3.982
 7950SOL     OW24748   3.002   5.484   4.423
 7950SOL    HW124749   3.048   5.572   4.412
 7950SOL    HW224750   3.069   5.410   4.416
 7951SOL     OW24751   3.305   3.169   1.058
 7951SOL    HW124752   3.219   3.146   1.013
 7951SOL    HW224753   3.331   3.096   1.120
 7952SOL     OW24754   5.090   4.312   0.153
 7952SOL    HW124755   5.074   4.349   0.245
 7952SOL    HW224756   5.005   4.315   0.101
 7953SOL     OW24757   2.281   2.781   2.954
 7953SOL    HW124758   2.351   2.717   2.984
 7953SOL    HW224759   2.276   2.858   3.017
 7954SOL     OW24760   4.972   5.270   5.569
 7954SOL    HW124761   5.037   5.263   5.645
 7954SOL    HW224762   4.975   5.187   5.514
 7955SOL     OW24763   1.230   6.765   6.313
 7955SOL    HW124764   1.204   6.861   6.305
 7955SOL    HW224765   1.313   6.748   6.260
 7956SOL     OW24766   5.871   0.276   3.950
 7956SOL    HW124767   5.958   0.283   3.902
 7956SOL    HW224768   5.811   0.213   3.902
 7957SOL     OW24769   0.856   2.526   0.975
 7957SOL    HW124770   0.847   2.531   1.075
 7957SOL    HW224771   0.928   2.462   0.951
 7958SOL     OW24772   2.263   5.488   2.731
 7958SOL    HW124773   2.174   5.499   2.773
 7958SOL    HW224774   2.266   5.401   2.682
 7959SOL     OW24775   5.234   5.086   0.652
 7959SOL    HW124776   5.219   5.061   0.747
 7959SOL    HW224777   5.145   5.094   0.605
 7960SOL     OW24778   2.375   2.047   1.136
 7960SOL    HW124779   2.453   2.089   1.182
 7960SOL    HW224780   2.405   2.009   1.048
 7961SOL     OW24781   2.032   5.307   6.477
 7961SOL    HW124782   1.971   5.228   6.483
 7961SOL    HW224783   2.114   5.283   6.425
 7962SOL     OW24784   1.088   0.020   2.166
 7962SOL    HW124785   0.999   7.007   2.140
 7962SOL    HW224786   1.126   6.991   2.242
 7963SOL     OW24787   1.014   0.163   4.566
 7963SOL    HW124788   0.997   0.101   4.489
 7963SOL    HW224789   0.987   0.118   4.651
 7964SOL     OW24790   6.172   5.824   3.175
 7964SOL    HW124791   6.240   5.896   3.160
 7964SOL    HW224792   6.124   5.805   3.090
 7965SOL     OW24793   5.685   1.786   0.838
 7965SOL    HW124794   5.597   1.781   0.886
 7965SOL    HW224795   5.751   1.726   0.882
 7966SOL     OW24796   0.093   5.753   3.810
 7966SOL    HW124797   0.183   5.750   3.766
 7966SOL    HW224798   0.022   5.731   3.744
 7967SOL     OW24799   2.947   6.344   2.620
 7967SOL    HW124800   2.940   6.244   2.616
 7967SOL    HW224801   3.044   6.370   2.619
 7968SOL     OW24802   1.770   0.825   1.653
 7968SOL    HW124803   1.729   0.895   1.711
 7968SOL    HW224804   1.869   0.833   1.655
 7969SOL     OW24805   3.391   2.066   3.238
 7969SOL    HW124806   3.294   2.068   3.216
 7969SOL    HW224807   3.405   2.012   3.321
 7970SOL     OW24808   0.316   4.969   3.301
 7970SOL    HW124809   0.355   4.965   3.209
 7970SOL    HW224810   0.311   5.064   3.331
 7971SOL     OW24811   2.733   1.211   1.901
 7971SOL    HW124812   2.679   1.293   1.922
 7971SOL    HW224813   2.823   1.238   1.867
 7972SOL     OW24814   0.659   4.929   2.180
 7972SOL    HW124815   0.665   4.832   2.159
 7972SOL    HW224816   0.587   4.944   2.248
 7973SOL     OW24817   4.734   2.241   2.440
 7973SOL    HW124818   4.724   2.141   2.441
 7973SOL    HW224819   4.742   2.273   2.346
 7974SOL     OW24820   5.324   6.877   4.294
 7974SOL    HW124821   5.395   6.942   4.268
 7974SOL    HW224822   5.348   6.786   4.259
 7975SOL     OW24823   2.350   1.170   3.580
 7975SOL    HW124824   2.314   1.089   3.534
 7975SOL    HW224825   2.276   1.218   3.626
 7976SOL     OW24826   0.417   5.887   6.291
 7976SOL    HW124827   0.496   5.931   6.249
 7976SOL    HW224828   0.364   5.956   6.341
 7977SOL     OW24829   5.359   6.107   1.398
 7977SOL    HW124830   5.301   6.028   1.376
 7977SOL    HW224831   5.379   6.106   1.496
 7978SOL     OW24832   4.305   2.509   6.010
 7978SOL    HW124833   4.369   2.558   6.070
 7978SOL    HW224834   4.318   2.411   6.021
 7979SOL     OW24835   4.202   0.040   4.118
 7979SOL    HW124836   4.235   6.973   4.142
 7979SOL    HW224837   4.252   0.074   4.039
 7980SOL     OW24838   2.702   0.280   2.140
 7980SOL    HW124839   2.762   0.219   2.192
 7980SOL    HW224840   2.741   0.372   2.139
 7981SOL     OW24841   1.141   5.566   2.898
 7981SOL    HW124842   1.100   5.656   2.913
 7981SOL    HW224843   1.240   5.577   2.884
 7982SOL     OW24844   6.933   2.908   0.547
 7982SOL    HW124845   6.842   2.946   0.564
 7982SOL    HW224846   7.001   2.962   0.597
 7983SOL     OW24847   4.935   2.481   2.155
 7983SOL    HW124848   4.868   2.500   2.226
 7983SOL    HW224849   4.979   2.393   2.174
 7984SOL     OW24850   0.856   0.694   0.556
 7984SOL    HW124851   0.798   0.667   0.633
 7984SOL    HW224852   0.808   0.763   0.501
 7985SOL     OW24853   0.586   1.235   1.153
 7985SOL    HW124854   0.662   1.242   1.088
 7985SOL    HW224855   0.606   1.289   1.235
 7986SOL     OW24856   3.585   1.948   0.948
 7986SOL    HW124857   3.566   1.992   1.036
 7986SOL    HW224858   3.510   1.965   0.885
 7987SOL     OW24859   0.080   2.995   4.855
 7987SOL    HW124860   0.073   3.062   4.929
 7987SOL    HW224861   0.175   2.965   4.846
 7988SOL     OW24862   3.027   1.689   5.520
 7988SOL    HW124863   3.011   1.787   5.508
 7988SOL    HW224864   3.070   1.673   5.609
 7989SOL     OW24865   3.440   3.272   5.505
 7989SOL    HW124866   3.515   3.212   5.478
 7989SOL    HW224867   3.474   3.366   5.514
 7990SOL     OW24868   2.126   2.395   5.089
 7990SOL    HW124869   2.191   2.405   5.015
 7990SOL    HW224870   2.100   2.486   5.123
 7991SOL     OW24871   0.267   3.370   5.330
 7991SOL    HW124872   0.293   3.275   5.345
 7991SOL    HW224873   0.171   3.383   5.358
 7992SOL     OW24874   2.715   0.725   0.627
 7992SOL    HW124875   2.655   0.660   0.673
 7992SOL    HW224876   2.763   0.781   0.695
 7993SOL     OW24877   1.824   6.947   6.752
 7993SOL    HW124878   1.875   6.900   6.679
 7993SOL    HW224879   1.808   6.883   6.827
 7994SOL     OW24880   5.690   0.804   3.669
 7994SOL    HW124881   5.611   0.783   3.612
 7994SOL    HW224882   5.662   0.808   3.765
 7995SOL     OW24883   4.085   4.746   2.810
 7995SOL    HW124884   4.040   4.749   2.720
 7995SOL    HW224885   4.016   4.738   2.881
 7996SOL     OW24886   3.445   0.852   4.878
 7996SOL    HW124887   3.503   0.931   4.900
 7996SOL    HW224888   3.453   0.784   4.951
 7997SOL     OW24889   5.836   2.887   1.912
 7997SOL    HW124890   5.802   2.794   1.904
 7997SOL    HW224891   5.868   2.919   1.823
 7998SOL     OW24892   6.442   5.288   6.620
 7998SOL    HW124893   6.504   5.237   6.680
 7998SOL    HW224894   6.356   5.237   6.610
 7999SOL     OW24895   1.817   0.653   5.789
 7999SOL    HW124896   1.759   0.601   5.852
 7999SOL    HW224897   1.774   0.656   5.699
 8000SOL     OW24898   6.044   6.736   5.784
 8000SOL    HW124899   6.112   6.703   5.719
 8000SOL    HW224900   5.963   6.677   5.782
 8001SOL     OW24901   2.304   0.117   1.526
 8001SOL    HW124902   2.380   0.133   1.588
 8001SOL    HW224903   2.219   0.111   1.578
 8002SOL     OW24904   5.485   3.003   5.543
 8002SOL    HW124905   5.561   3.031   5.603
 8002SOL    HW224906   5.400   3.002   5.596
 8003SOL     OW24907   3.988   5.126   3.106
 8003SOL    HW124908   4.057   5.165   3.166
 8003SOL    HW224909   3.897   5.157   3.135
 8004SOL     OW24910   1.900   3.914   2.622
 8004SOL    HW124911   1.886   3.921   2.721
 8004SOL    HW224912   1.990   3.875   2.603
 8005SOL     OW24913   2.943   1.356   1.760
 8005SOL    HW124914   2.881   1.434   1.756
 8005SOL    HW224915   2.985   1.351   1.851
 8006SOL     OW24916   3.205   6.484   0.739
 8006SOL    HW124917   3.121   6.444   0.704
 8006SOL    HW224918   3.280   6.418   0.728
 8007SOL     OW24919   0.337   1.046   4.653
 8007SOL    HW124920   0.411   1.100   4.612
 8007SOL    HW224921   0.260   1.041   4.590
 8008SOL     OW24922   6.260   5.946   0.732
 8008SOL    HW124923   6.243   5.983   0.640
 8008SOL    HW224924   6.308   6.015   0.787
 8009SOL     OW24925   6.961   6.815   3.485
 8009SOL    HW124926   6.972   6.725   3.526
 8009SOL    HW224927   6.997   6.814   3.392
 8010SOL     OW24928   2.794   2.479   6.544
 8010SOL    HW124929   2.831   2.394   6.581
 8010SOL    HW224930   2.697   2.467   6.522
 8011SOL     OW24931   2.565   2.146   0.880
 8011SOL    HW124932   2.613   2.173   0.963
 8011SOL    HW224933   2.616   2.072   0.835
 8012SOL     OW24934   2.907   6.768   3.014
 8012SOL    HW124935   2.953   6.718   2.941
 8012SOL    HW224936   2.964   6.767   3.096
 8013SOL     OW24937   6.214   4.683   4.904
 8013SOL    HW124938   6.274   4.621   4.954
 8013SOL    HW224939   6.119   4.659   4.922
 8014SOL     OW24940   1.949   0.198   0.062
 8014SOL    HW124941   1.978   0.168   0.153
 8014SOL    HW224942   2.024   0.245   0.016
 8015SOL     OW24943   1.729   2.211   6.843
 8015SOL    HW124944   1.697   2.303   6.868
 8015SOL    HW224945   1.824   2.200   6.873
 8016SOL     OW24946   3.561   6.455   1.644
 8016SOL    HW124947   3.524   6.380   1.589
 8016SOL    HW224948   3.500   6.534   1.639
 8017SOL     OW24949   5.834   4.296   4.229
 8017SOL    HW124950   5.800   4.345   4.310
 8017SOL    HW224951   5.786   4.209   4.221
 8018SOL     OW24952   5.592   2.579   4.626
 8018SOL    HW124953   5.640   2.548   4.709
 8018SOL    HW224954   5.562   2.499   4.574
 8019SOL     OW24955   2.499   5.284   1.101
 8019SOL    HW124956   2.577   5.270   1.163
 8019SOL    HW224957   2.511   5.227   1.020
 8020SOL     OW24958   6.028   6.108   6.696
 8020SOL    HW124959   5.967   6.033   6.669
 8020SOL    HW224960   5.999   6.192   6.649
 8021SOL     OW24961   0.861   0.914   0.934
 8021SOL    HW124962   0.890   0.969   0.856
 8021SOL    HW224963   0.938   0.861   0.969
 8022SOL     OW24964   4.112   6.231   3.076
 8022SOL    HW124965   4.131   6.317   3.123
 8022SOL    HW224966   4.195   6.199   3.030
 8023SOL     OW24967   6.239   6.588   3.415
 8023SOL    HW124968   6.331   6.550   3.407
 8023SOL    HW224969   6.244   6.687   3.413
 8024SOL     OW24970   4.783   5.523   4.835
 8024SOL    HW124971   4.831   5.439   4.810
 8024SOL    HW224972   4.833   5.570   4.908
 8025SOL     OW24973   3.921   6.102   0.304
 8025SOL    HW124974   3.843   6.043   0.285
 8025SOL    HW224975   4.005   6.050   0.297
 8026SOL     OW24976   1.345   2.536   0.506
 8026SOL    HW124977   1.437   2.538   0.544
 8026SOL    HW224978   1.306   2.629   0.508
 8027SOL     OW24979   5.161   2.678   5.342
 8027SOL    HW124980   5.243   2.686   5.398
 8027SOL    HW224981   5.186   2.684   5.245
 8028SOL     OW24982   5.717   4.722   6.832
 8028SOL    HW124983   5.692   4.770   6.748
 8028SOL    HW224984   5.747   4.788   6.901
 8029SOL     OW24985   3.064   4.513   0.732
 8029SOL    HW124986   3.113   4.486   0.815
 8029SOL    HW224987   2.982   4.457   0.722
 8030SOL     OW24988   5.662   3.744   6.968
 8030SOL    HW124989   5.704   3.685   6.898
 8030SOL    HW224990   5.720   3.746   0.025
 8031SOL     OW24991   3.628   5.545   1.462
 8031SOL    HW124992   3.594   5.637   1.442
 8031SOL    HW224993   3.688   5.514   1.387
 8032SOL     OW24994   5.236   4.459   6.207
 8032SOL    HW124995   5.254   4.482   6.111
 8032SOL    HW224996   5.319   4.473   6.261
 8033SOL     OW24997   5.885   2.662   0.146
 8033SOL    HW124998   5.845   2.584   0.195
 8033SOL    HW224999   5.870   2.651   0.048
 8034SOL     OW25000   5.962   1.295   5.515
 8034SOL    HW125001   5.956   1.337   5.606
 8034SOL    HW225002   5.896   1.339   5.454
 8035SOL     OW25003   5.525   6.807   6.948
 8035SOL    HW125004   5.551   6.791   6.852
 8035SOL    HW225005   5.586   6.756   7.008
 8036SOL     OW25006   1.945   3.995   1.808
 8036SOL    HW125007   2.025   3.935   1.800
 8036SOL    HW225008   1.939   4.030   1.902
 8037SOL     OW25009   2.076   3.075   1.562
 8037SOL    HW125010   2.112   3.168   1.573
 8037SOL    HW225011   2.148   3.009   1.582
 8038SOL     OW25012   6.824   1.964   4.485
 8038SOL    HW125013   6.841   1.915   4.399
 8038SOL    HW225014   6.873   2.051   4.484
 8039SOL     OW25015   2.340   6.594   4.269
 8039SOL    HW125016   2.295   6.506   4.283
 8039SOL    HW225017   2.390   6.620   4.352
 8040SOL     OW25018   0.285   5.284   0.793
 8040SOL    HW125019   0.201   5.326   0.758
 8040SOL    HW225020   0.264   5.229   0.873
 8041SOL     OW25021   4.326   1.620   0.851
 8041SOL    HW125022   4.402   1.664   0.899
 8041SOL    HW225023   4.336   1.634   0.753
 8042SOL     OW25024   2.847   3.404   1.200
 8042SOL    HW125025   2.825   3.337   1.271
 8042SOL    HW225026   2.946   3.417   1.196
 8043SOL     OW25027   2.514   0.140   1.711
 8043SOL    HW125028   2.470   0.215   1.760
 8043SOL    HW225029   2.613   0.153   1.709
 8044SOL     OW25030   3.282   3.730   2.073
 8044SOL    HW125031   3.363   3.744   2.129
 8044SOL    HW225032   3.209   3.790   2.106
 8045SOL     OW25033   6.378   2.681   3.133
 8045SOL    HW125034   6.460   2.643   3.091
 8045SOL    HW225035   6.403   2.724   3.220
 8046SOL     OW25036   6.880   5.027   6.058
 8046SOL    HW125037   6.898   5.030   6.156
 8046SOL    HW225038   6.788   5.062   6.040
 8047SOL     OW25039   3.637   5.985   3.904
 8047SOL    HW125040   3.561   6.049   3.890
 8047SOL    HW225041   3.668   5.992   3.999
 8048SOL     OW25042   6.773   0.232   5.579
 8048SOL    HW125043   6.855   0.267   5.534
 8048SOL    HW225044   6.750   0.142   5.540
 8049SOL     OW25045   1.447   5.242   0.553
 8049SOL    HW125046   1.513   5.198   0.492
 8049SOL    HW225047   1.480   5.334   0.578
 8050SOL     OW25048   1.456   2.797   1.343
 8050SOL    HW125049   1.389   2.736   1.386
 8050SOL    HW225050   1.505   2.848   1.414
 8051SOL     OW25051   4.303   1.456   3.343
 8051SOL    HW125052   4.227   1.499   3.295
 8051SOL    HW225053   4.389   1.495   3.310
 8052SOL     OW25054   3.135   2.024   2.904
 8052SOL    HW125055   3.117   1.972   2.821
 8052SOL    HW225056   3.207   2.092   2.886
 8053SOL     OW25057   3.927   3.394   2.229
 8053SOL    HW125058   3.930   3.468   2.162
 8053SOL    HW225059   3.856   3.414   2.297
 8054SOL     OW25060   4.019   6.437   4.964
 8054SOL    HW125061   4.034   6.390   4.877
 8054SOL    HW225062   4.070   6.391   5.036
 8055SOL     OW25063   1.406   6.926   5.348
 8055SOL    HW125064   1.491   6.882   5.375
 8055SOL    HW225065   1.410   6.950   5.251
 8056SOL     OW25066   4.327   1.677   3.045
 8056SOL    HW125067   4.253   1.618   3.078
 8056SOL    HW225068   4.348   1.746   3.115
 8057SOL     OW25069   3.716   6.398   4.006
 8057SOL    HW125070   3.756   6.323   3.954
 8057SOL    HW225071   3.774   6.479   3.996
 8058SOL     OW25072   1.874   1.099   3.053
 8058SOL    HW125073   1.785   1.130   3.084
 8058SOL    HW225074   1.901   1.017   3.104
 8059SOL     OW25075   2.698   1.738   4.019
 8059SOL    HW125076   2.786   1.718   3.976
 8059SOL    HW225077   2.626   1.736   3.951
 8060SOL     OW25078   0.813   1.506   4.587
 8060SOL    HW125079   0.788   1.494   4.491
 8060SOL    HW225080   0.859   1.423   4.620
 8061SOL     OW25081   0.261   5.636   1.680
 8061SOL    HW125082   0.276   5.734   1.693
 8061SOL    HW225083   0.190   5.605   1.743
 8062SOL     OW25084   2.096   3.638   2.746
 8062SOL    HW125085   2.112   3.540   2.758
 8062SOL    HW225086   2.074   3.678   2.835
 8063SOL     OW25087   3.161   3.228   6.881
 8063SOL    HW125088   3.068   3.250   6.849
 8063SOL    HW225089   3.164   3.134   6.913
 8064SOL     OW25090   6.607   3.544   0.098
 8064SOL    HW125091   6.657   3.513   0.017
 8064SOL    HW225092   6.520   3.494   0.104
 8065SOL     OW25093   4.514   6.947   6.303
 8065SOL    HW125094   4.587   7.010   6.275
 8065SOL    HW225095   4.483   6.895   6.224
 8066SOL     OW25096   2.069   0.297   1.883
 8066SOL    HW125097   2.037   0.362   1.814
 8066SOL    HW225098   2.020   0.313   1.968
 8067SOL     OW25099   5.067   2.469   1.689
 8067SOL    HW125100   4.968   2.460   1.691
 8067SOL    HW225101   5.099   2.510   1.775
 8068SOL     OW25102   0.793   4.495   3.955
 8068SOL    HW125103   0.856   4.433   4.003
 8068SOL    HW225104   0.822   4.506   3.860
 8069SOL     OW25105   1.541   6.397   2.198
 8069SOL    HW125106   1.594   6.324   2.241
 8069SOL    HW225107   1.603   6.470   2.167
 8070SOL     OW25108   3.865   0.151   1.570
 8070SOL    HW125109   3.891   0.063   1.531
 8070SOL    HW225110   3.796   0.194   1.512
 8071SOL     OW25111   4.187   6.154   0.054
 8071SOL    HW125112   4.149   6.185   0.141
 8071SOL    HW225113   4.263   6.092   0.071
 8072SOL     OW25114   5.276   0.566   1.548
 8072SOL    HW125115   5.239   0.579   1.456
 8072SOL    HW225116   5.209   0.517   1.604
 8073SOL     OW25117   4.224   6.439   5.674
 8073SOL    HW125118   4.283   6.517   5.650
 8073SOL    HW225119   4.187   6.453   5.765
 8074SOL     OW25120   3.282   3.859   0.041
 8074SOL    HW125121   3.253   3.882   6.973
 8074SOL    HW225122   3.210   3.807   0.087
 8075SOL     OW25123   5.640   1.691   2.720
 8075SOL    HW125124   5.696   1.613   2.693
 8075SOL    HW225125   5.642   1.702   2.819
 8076SOL     OW25126   5.660   3.175   6.531
 8076SOL    HW125127   5.667   3.240   6.455
 8076SOL    HW225128   5.581   3.116   6.517
 8077SOL     OW25129   1.424   0.819   0.732
 8077SOL    HW125130   1.354   0.859   0.673
 8077SOL    HW225131   1.382   0.789   0.818
 8078SOL     OW25132   6.095   3.289   0.429
 8078SOL    HW125133   6.152   3.367   0.404
 8078SOL    HW225134   6.153   3.209   0.447
 8079SOL     OW25135   6.700   1.539   1.907
 8079SOL    HW125136   6.794   1.514   1.930
 8079SOL    HW225137   6.652   1.566   1.991
 8080SOL     OW25138   3.508   5.319   0.495
 8080SOL    HW125139   3.498   5.418   0.505
 8080SOL    HW225140   3.486   5.293   0.401
 8081SOL     OW25141   5.840   0.942   5.718
 8081SOL    HW125142   5.906   0.875   5.683
 8081SOL    HW225143   5.747   0.906   5.704
 8082SOL     OW25144   6.440   3.027   4.077
 8082SOL    HW125145   6.489   3.057   4.159
 8082SOL    HW225146   6.504   2.984   4.013
 8083SOL     OW25147   4.675   2.684   4.229
 8083SOL    HW125148   4.607   2.629   4.277
 8083SOL    HW225149   4.664   2.674   4.131
 8084SOL     OW25150   6.526   0.051   1.249
 8084SOL    HW125151   6.438   0.068   1.204
 8084SOL    HW225152   6.596   0.108   1.207
 8085SOL     OW25153   6.104   1.885   1.455
 8085SOL    HW125154   6.195   1.905   1.492
 8085SOL    HW225155   6.041   1.865   1.529
 8086SOL     OW25156   3.476   6.840   5.265
 8086SOL    HW125157   3.425   6.904   5.323
 8086SOL    HW225158   3.485   6.879   5.174
 8087SOL     OW25159   3.143   3.348   1.342
 8087SOL    HW125160   3.118   3.299   1.425
 8087SOL    HW225161   3.240   3.373   1.345
 8088SOL     OW25162   4.317   0.941   2.954
 8088SOL    HW125163   4.303   1.028   2.906
 8088SOL    HW225164   4.258   0.938   3.034
 8089SOL     OW25165   5.986   2.738   0.584
 8089SOL    HW125166   5.892   2.725   0.552
 8089SOL    HW225167   5.986   2.754   0.682
 8090SOL     OW25168   4.873   2.624   5.042
 8090SOL    HW125169   4.864   2.524   5.044
 8090SOL    HW225170   4.796   2.665   5.091
 8091SOL     OW25171   3.248   5.347   5.892
 8091SOL    HW125172   3.272   5.251   5.898
 8091SOL    HW225173   3.295   5.389   5.815
 8092SOL     OW25174   0.741   1.906   4.033
 8092SOL    HW125175   0.792   1.836   4.084
 8092SOL    HW225176   0.643   1.893   4.048
 8093SOL     OW25177   5.911   5.866   1.441
 8093SOL    HW125178   5.860   5.952   1.438
 8093SOL    HW225179   5.847   5.790   1.445
 8094SOL     OW25180   1.137   3.317   4.652
 8094SOL    HW125181   1.174   3.236   4.697
 8094SOL    HW225182   1.142   3.394   4.715
 8095SOL     OW25183   5.742   3.999   4.190
 8095SOL    HW125184   5.718   3.983   4.286
 8095SOL    HW225185   5.841   4.001   4.180
 8096SOL     OW25186   3.893   6.175   1.648
 8096SOL    HW125187   3.985   6.138   1.632
 8096SOL    HW225188   3.900   6.264   1.692
 8097SOL     OW25189   4.822   1.320   4.847
 8097SOL    HW125190   4.900   1.365   4.803
 8097SOL    HW225191   4.828   1.333   4.946
 8098SOL     OW25192   2.844   6.888   3.597
 8098SOL    HW125193   2.874   6.945   3.521
 8098SOL    HW225194   2.775   6.823   3.565
 8099SOL     OW25195   5.568   6.611   4.951
 8099SOL    HW125196   5.594   6.528   4.902
 8099SOL    HW225197   5.485   6.649   4.912
 8100SOL     OW25198   0.983   6.674   0.747
 8100SOL    HW125199   0.962   6.770   0.731
 8100SOL    HW225200   0.929   6.617   0.685
 8101SOL     OW25201   1.507   5.709   3.203
 8101SOL    HW125202   1.557   5.730   3.118
 8101SOL    HW225203   1.493   5.793   3.255
 8102SOL     OW25204   6.728   6.362   6.001
 8102SOL    HW125205   6.634   6.339   5.977
 8102SOL    HW225206   6.728   6.419   6.083
 8103SOL     OW25207   2.747   1.678   2.254
 8103SOL    HW125208   2.652   1.658   2.231
 8103SOL    HW225209   2.750   1.750   2.323
 8104SOL     OW25210   2.248   6.477   5.997
 8104SOL    HW125211   2.243   6.411   5.922
 8104SOL    HW225212   2.342   6.481   6.031
 8105SOL     OW25213   1.586   2.342   2.853
 8105SOL    HW125214   1.519   2.407   2.890
 8105SOL    HW225215   1.551   2.304   2.767
 8106SOL     OW25216   0.712   3.942   4.523
 8106SOL    HW125217   0.740   4.027   4.477
 8106SOL    HW225218   0.783   3.914   4.587
 8107SOL     OW25219   1.976   6.157   6.033
 8107SOL    HW125220   2.018   6.067   6.020
 8107SOL    HW225221   1.927   6.183   5.950
 8108SOL     OW25222   1.645   3.148   4.372
 8108SOL    HW125223   1.596   3.226   4.412
 8108SOL    HW225224   1.668   3.083   4.444
 8109SOL     OW25225   1.148   4.949   5.408
 8109SOL    HW125226   1.216   4.917   5.342
 8109SOL    HW225227   1.078   4.879   5.421
 8110SOL     OW25228   1.780   4.532   0.959
 8110SOL    HW125229   1.681   4.523   0.944
 8110SOL    HW225230   1.816   4.445   0.994
 8111SOL     OW25231   2.550   5.536   4.304
 8111SOL    HW125232   2.560   5.441   4.332
 8111SOL    HW225233   2.532   5.539   4.205
 8112SOL     OW25234   3.040   1.231   4.670
 8112SOL    HW125235   3.090   1.157   4.626
 8112SOL    HW225236   2.945   1.203   4.684
 8113SOL     OW25237   3.679   3.211   6.020
 8113SOL    HW125238   3.706   3.114   6.017
 8113SOL    HW225239   3.629   3.229   6.105
 8114SOL     OW25240   2.717   3.804   1.128
 8114SOL    HW125241   2.672   3.717   1.107
 8114SOL    HW225242   2.806   3.807   1.082
 8115SOL     OW25243   3.950   1.678   1.168
 8115SOL    HW125244   3.865   1.630   1.147
 8115SOL    HW225245   3.931   1.776   1.178
 8116SOL     OW25246   6.139   0.862   5.412
 8116SOL    HW125247   6.130   0.953   5.453
 8116SOL    HW225248   6.050   0.832   5.379
 8117SOL     OW25249   2.392   2.150   5.857
 8117SOL    HW125250   2.339   2.145   5.773
 8117SOL    HW225251   2.466   2.217   5.846
 8118SOL     OW25252   1.210   2.548   4.670
 8118SOL    HW125253   1.211   2.646   4.691
 8118SOL    HW225254   1.210   2.536   4.571
 8119SOL     OW25255   1.305   5.705   2.041
 8119SOL    HW125256   1.272   5.794   2.072
 8119SOL    HW225257   1.402   5.712   2.017
 8120SOL     OW25258   4.457   4.158   1.393
 8120SOL    HW125259   4.378   4.200   1.439
 8120SOL    HW225260   4.540   4.179   1.445
 8121SOL     OW25261   6.796   6.852   2.975
 8121SOL    HW125262   6.806   6.890   2.883
 8121SOL    HW225263   6.856   6.901   3.038
 8122SOL     OW25264   0.454   6.343   1.567
 8122SOL    HW125265   0.547   6.315   1.542
 8122SOL    HW225266   0.446   6.442   1.558
 8123SOL     OW25267   0.718   5.591   0.204
 8123SOL    HW125268   0.730   5.551   0.295
 8123SOL    HW225269   0.657   5.533   0.150
 8124SOL     OW25270   0.789   6.189   2.389
 8124SOL    HW125271   0.716   6.218   2.328
 8124SOL    HW225272   0.825   6.268   2.439
 8125SOL     OW25273   5.595   5.609   2.624
 8125SOL    HW125274   5.620   5.515   2.648
 8125SOL    HW225275   5.648   5.639   2.545
 8126SOL     OW25276   6.072   4.629   2.071
 8126SOL    HW125277   6.050   4.599   2.164
 8126SOL    HW225278   5.988   4.657   2.025
 8127SOL     OW25279   3.256   4.447   0.910
 8127SOL    HW125280   3.312   4.529   0.900
 8127SOL    HW225281   3.265   4.413   1.004
 8128SOL     OW25282   3.740   2.623   5.329
 8128SOL    HW125283   3.839   2.618   5.341
 8128SOL    HW225284   3.718   2.703   5.273
 8129SOL     OW25285   4.994   6.983   0.247
 8129SOL    HW125286   5.060   6.914   0.217
 8129SOL    HW225287   4.908   6.970   0.198
 8130SOL     OW25288   0.950   6.935   0.719
 8130SOL    HW125289   1.023   7.003   0.733
 8130SOL    HW225290   0.875   6.977   0.668
 8131SOL     OW25291   1.130   1.129   0.540
 8131SOL    HW125292   1.187   1.199   0.584
 8131SOL    HW225293   1.098   1.163   0.452
 8132SOL     OW25294   6.593   5.052   3.510
 8132SOL    HW125295   6.652   4.985   3.466
 8132SOL    HW225296   6.556   5.115   3.442
 8133SOL     OW25297   0.862   5.666   1.964
 8133SOL    HW125298   0.910   5.751   1.985
 8133SOL    HW225299   0.897   5.629   1.878
 8134SOL     OW25300   2.052   2.725   1.934
 8134SOL    HW125301   2.028   2.724   1.837
 8134SOL    HW225302   2.106   2.807   1.953
 8135SOL     OW25303   4.125   5.872   2.194
 8135SOL    HW125304   4.173   5.915   2.271
 8135SOL    HW225305   4.045   5.927   2.170
 8136SOL     OW25306   3.925   6.116   1.048
 8136SOL    HW125307   3.894   6.128   0.953
 8136SOL    HW225308   3.902   6.198   1.101
 8137SOL     OW25309   3.058   3.674   5.637
 8137SOL    HW125310   2.980   3.615   5.616
 8137SOL    HW225311   3.097   3.710   5.553
 8138SOL     OW25312   4.620   0.930   3.627
 8138SOL    HW125313   4.593   0.912   3.721
 8138SOL    HW225314   4.634   0.844   3.579
 8139SOL     OW25315   1.835   2.678   3.856
 8139SOL    HW125316   1.763   2.611   3.837
 8139SOL    HW225317   1.809   2.767   3.819
 8140SOL     OW25318   4.512   0.243   1.037
 8140SOL    HW125319   4.436   0.297   1.075
 8140SOL    HW225320   4.526   0.161   1.094
 8141SOL     OW25321   5.457   0.963   5.142
 8141SOL    HW125322   5.542   0.940   5.095
 8141SOL    HW225323   5.477   0.981   5.239
 8142SOL     OW25324   2.613   5.312   1.444
 8142SOL    HW125325   2.542   5.284   1.508
 8142SOL    HW225326   2.571   5.349   1.361
 8143SOL     OW25327   6.398   5.257   0.907
 8143SOL    HW125328   6.320   5.288   0.961
 8143SOL    HW225329   6.405   5.312   0.823
 8144SOL     OW25330   0.068   5.168   0.165
 8144SOL    HW125331   0.117   5.091   0.206
 8144SOL    HW225332   0.128   5.248   0.164
 8145SOL     OW25333   5.447   5.446   6.889
 8145SOL    HW125334   5.544   5.445   6.914
 8145SOL    HW225335   5.437   5.475   6.794
 8146SOL     OW25336   6.161   0.416   4.238
 8146SOL    HW125337   6.237   0.474   4.207
 8146SOL    HW225338   6.187   0.320   4.229
 8147SOL     OW25339   2.532   1.082   6.418
 8147SOL    HW125340   2.579   1.077   6.507
 8147SOL    HW225341   2.548   0.998   6.367
 8148SOL     OW25342   4.780   4.793   0.661
 8148SOL    HW125343   4.853   4.767   0.724
 8148SOL    HW225344   4.742   4.711   0.618
 8149SOL     OW25345   0.383   6.899   5.073
 8149SOL    HW125346   0.472   6.944   5.069
 8149SOL    HW225347   0.326   6.933   4.998
 8150SOL     OW25348   0.291   4.158   0.649
 8150SOL    HW125349   0.328   4.187   0.738
 8150SOL    HW225350   0.267   4.239   0.595
 8151SOL     OW25351   6.504   6.177   2.792
 8151SOL    HW125352   6.413   6.210   2.819
 8151SOL    HW225353   6.502   6.148   2.696
 8152SOL     OW25354   4.840   1.315   3.213
 8152SOL    HW125355   4.760   1.347   3.164
 8152SOL    HW225356   4.920   1.317   3.152
 8153SOL     OW25357   0.286   1.331   1.818
 8153SOL    HW125358   0.196   1.340   1.861
 8153SOL    HW225359   0.357   1.330   1.889
 8154SOL     OW25360   1.856   0.437   3.002
 8154SOL    HW125361   1.903   0.356   2.966
 8154SOL    HW225362   1.792   0.409   3.074
 8155SOL     OW25363   2.085   5.038   3.337
 8155SOL    HW125364   2.049   5.084   3.418
 8155SOL    HW225365   2.075   4.939   3.347
 8156SOL     OW25366   0.893   4.541   1.279
 8156SOL    HW125367   0.896   4.633   1.317
 8156SOL    HW225368   0.846   4.480   1.342
 8157SOL     OW25369   6.724   3.740   4.703
 8157SOL    HW125370   6.792   3.771   4.636
 8157SOL    HW225371   6.765   3.671   4.763
 8158SOL     OW25372   6.321   5.661   6.812
 8158SOL    HW125373   6.260   5.632   6.886
 8158SOL    HW225374   6.268   5.678   6.729
 8159SOL     OW25375   3.096   0.055   5.162
 8159SOL    HW125376   3.049   0.035   5.075
 8159SOL    HW225377   3.170   0.120   5.145
 8160SOL     OW25378   5.597   1.336   2.310
 8160SOL    HW125379   5.683   1.325   2.259
 8160SOL    HW225380   5.583   1.256   2.369
 8161SOL     OW25381   5.813   3.649   1.692
 8161SOL    HW125382   5.746   3.673   1.623
 8161SOL    HW225383   5.812   3.550   1.708
 8162SOL     OW25384   0.310   5.385   5.804
 8162SOL    HW125385   0.317   5.329   5.721
 8162SOL    HW225386   0.280   5.477   5.780
 8163SOL     OW25387   4.539   4.815   5.257
 8163SOL    HW125388   4.593   4.771   5.329
 8163SOL    HW225389   4.565   4.912   5.251
 8164SOL     OW25390   5.460   1.539   1.553
 8164SOL    HW125391   5.502   1.582   1.633
 8164SOL    HW225392   5.529   1.489   1.502
 8165SOL     OW25393   0.051   1.117   0.296
 8165SOL    HW125394   0.062   1.095   0.199
 8165SOL    HW225395   6.985   1.088   0.327
 8166SOL     OW25396   1.461   1.713   5.175
 8166SOL    HW125397   1.454   1.636   5.111
 8166SOL    HW225398   1.469   1.798   5.123
 8167SOL     OW25399   1.905   3.207   4.149
 8167SOL    HW125400   1.858   3.164   4.226
 8167SOL    HW225401   1.838   3.238   4.082
 8168SOL     OW25402   1.700   0.784   2.362
 8168SOL    HW125403   1.750   0.850   2.307
 8168SOL    HW225404   1.602   0.806   2.362
 8169SOL     OW25405   5.320   2.505   0.329
 8169SOL    HW125406   5.248   2.552   0.278
 8169SOL    HW225407   5.314   2.529   0.426
 8170SOL     OW25408   6.533   4.969   2.375
 8170SOL    HW125409   6.452   4.976   2.433
 8170SOL    HW225410   6.587   5.053   2.384
 8171SOL     OW25411   2.422   0.989   0.656
 8171SOL    HW125412   2.436   0.892   0.676
 8171SOL    HW225413   2.379   1.033   0.734
 8172SOL     OW25414   1.054   2.519   0.576
 8172SOL    HW125415   0.959   2.487   0.577
 8172SOL    HW225416   1.113   2.447   0.539
 8173SOL     OW25417   5.698   0.912   1.436
 8173SOL    HW125418   5.680   1.009   1.417
 8173SOL    HW225419   5.699   0.862   1.349
 8174SOL     OW25420   3.182   5.944   3.207
 8174SOL    HW125421   3.235   5.861   3.189
 8174SOL    HW225422   3.163   5.991   3.122
 8175SOL     OW25423   0.350   1.354   5.643
 8175SOL    HW125424   0.376   1.442   5.684
 8175SOL    HW225425   0.370   1.281   5.707
 8176SOL     OW25426   2.324   4.249   0.320
 8176SOL    HW125427   2.414   4.206   0.321
 8176SOL    HW225428   2.297   4.272   0.414
 8177SOL     OW25429   3.231   0.699   3.448
 8177SOL    HW125430   3.263   0.654   3.531
 8177SOL    HW225431   3.289   0.778   3.428
 8178SOL     OW25432   2.910   6.862   1.690
 8178SOL    HW125433   2.930   6.912   1.774
 8178SOL    HW225434   2.859   6.779   1.712
 8179SOL     OW25435   5.571   1.053   3.275
 8179SOL    HW125436   5.500   0.983   3.276
 8179SOL    HW225437   5.606   1.066   3.368
 8180SOL     OW25438   4.969   6.367   0.078
 8180SOL    HW125439   5.063   6.378   0.110
 8180SOL    HW225440   4.912   6.441   0.114
 8181SOL     OW25441   0.206   0.363   0.077
 8181SOL    HW125442   0.137   0.415   0.026
 8181SOL    HW225443   0.195   0.379   0.175
 8182SOL     OW25444   3.038   3.516   4.679
 8182SOL    HW125445   3.110   3.566   4.631
 8182SOL    HW225446   2.974   3.478   4.612
 8183SOL     OW25447   6.931   0.119   5.174
 8183SOL    HW125448   6.949   0.182   5.098
 8183SOL    HW225449   6.838   0.083   5.166
 8184SOL     OW25450   0.957   6.207   6.975
 8184SOL    HW125451   0.871   6.251   6.948
 8184SOL    HW225452   0.938   6.141   0.024
 8185SOL     OW25453   0.631   6.386   6.153
 8185SOL    HW125454   0.670   6.396   6.244
 8185SOL    HW225455   0.702   6.358   6.089
 8186SOL     OW25456   1.876   5.560   6.238
 8186SOL    HW125457   1.851   5.531   6.146
 8186SOL    HW225458   1.945   5.633   6.233
 8187SOL     OW25459   0.988   0.924   5.843
 8187SOL    HW125460   0.900   0.954   5.805
 8187SOL    HW225461   0.992   0.948   5.940
 8188SOL     OW25462   1.983   3.035   3.329
 8188SOL    HW125463   1.910   2.972   3.303
 8188SOL    HW225464   2.071   2.987   3.326
 8189SOL     OW25465   5.643   5.344   3.545
 8189SOL    HW125466   5.704   5.309   3.474
 8189SOL    HW225467   5.602   5.430   3.515
 8190SOL     OW25468   0.111   4.138   2.686
 8190SOL    HW125469   0.205   4.171   2.695
 8190SOL    HW225470   0.103   4.081   2.605
 8191SOL     OW25471   3.980   5.465   0.562
 8191SOL    HW125472   4.067   5.421   0.585
 8191SOL    HW225473   3.905   5.403   0.581
 8192SOL     OW25474   0.558   5.707   3.920
 8192SOL    HW125475   0.654   5.733   3.933
 8192SOL    HW225476   0.499   5.776   3.961
 8193SOL     OW25477   0.776   4.574   4.484
 8193SOL    HW125478   0.818   4.663   4.505
 8193SOL    HW225479   0.677   4.586   4.472
 8194SOL     OW25480   4.672   6.751   1.941
 8194SOL    HW125481   4.584   6.736   1.895
 8194SOL    HW225482   4.659   6.812   2.019
 8195SOL     OW25483   6.408   6.486   2.786
 8195SOL    HW125484   6.319   6.529   2.798
 8195SOL    HW225485   6.433   6.435   2.868
 8196SOL     OW25486   4.761   0.869   0.910
 8196SOL    HW125487   4.742   0.803   0.983
 8196SOL    HW225488   4.798   0.821   0.831
 8197SOL     OW25489   3.784   1.430   2.484
 8197SOL    HW125490   3.850   1.505   2.492
 8197SOL    HW225491   3.806   1.359   2.551
 8198SOL     OW25492   1.404   6.956   1.844
 8198SOL    HW125493   1.417   6.858   1.860
 8198SOL    HW225494   1.480   7.007   1.884
 8199SOL     OW25495   5.453   2.767   0.109
 8199SOL    HW125496   5.548   2.775   0.078
 8199SOL    HW225497   5.405   2.701   0.051
 8200SOL     OW25498   4.615   3.238   0.484
 8200SOL    HW125499   4.702   3.287   0.492
 8200SOL    HW225500   4.605   3.175   0.560
 8201SOL     OW25501   5.929   0.048   4.930
 8201SOL    HW125502   5.943   6.988   4.983
 8201SOL    HW225503   5.832   0.062   4.913
 8202SOL     OW25504   0.931   6.742   2.243
 8202SOL    HW125505   0.964   6.735   2.149
 8202SOL    HW225506   0.861   6.671   2.259
 8203SOL     OW25507   1.455   3.246   1.797
 8203SOL    HW125508   1.525   3.290   1.854
 8203SOL    HW225509   1.447   3.296   1.710
 8204SOL     OW25510   2.993   2.833   1.253
 8204SOL    HW125511   2.985   2.924   1.293
 8204SOL    HW225512   3.041   2.773   1.316
 8205SOL     OW25513   0.942   3.413   0.082
 8205SOL    HW125514   0.969   3.423   0.178
 8205SOL    HW225515   1.023   3.422   0.024
 8206SOL     OW25516   3.652   0.489   0.530
 8206SOL    HW125517   3.700   0.444   0.606
 8206SOL    HW225518   3.669   0.440   0.445
 8207SOL     OW25519   4.192   3.355   5.153
 8207SOL    HW125520   4.212   3.321   5.061
 8207SOL    HW225521   4.255   3.428   5.177
 8208SOL     OW25522   2.466   0.705   0.497
 8208SOL    HW125523   2.539   0.772   0.483
 8208SOL    HW225524   2.493   0.640   0.567
 8209SOL     OW25525   6.087   1.524   4.917
 8209SOL    HW125526   6.179   1.492   4.898
 8209SOL    HW225527   6.070   1.609   4.867
 8210SOL     OW25528   2.084   2.280   6.789
 8210SOL    HW125529   2.037   2.203   6.746
 8210SOL    HW225530   2.017   2.343   6.827
 8211SOL     OW25531   3.474   4.385   1.424
 8211SOL    HW125532   3.463   4.429   1.513
 8211SOL    HW225533   3.571   4.368   1.406
 8212SOL     OW25534   1.727   2.914   3.812
 8212SOL    HW125535   1.804   2.977   3.819
 8212SOL    HW225536   1.652   2.945   3.871
 8213SOL     OW25537   6.846   5.288   1.327
 8213SOL    HW125538   6.902   5.272   1.246
 8213SOL    HW225539   6.895   5.256   1.408
 8214SOL     OW25540   5.718   3.899   3.590
 8214SOL    HW125541   5.773   3.972   3.631
 8214SOL    HW225542   5.778   3.826   3.557
 8215SOL     OW25543   3.722   5.464   3.825
 8215SOL    HW125544   3.675   5.440   3.739
 8215SOL    HW225545   3.656   5.505   3.888
 8216SOL     OW25546   5.690   3.576   3.682
 8216SOL    HW125547   5.788   3.599   3.685
 8216SOL    HW225548   5.674   3.506   3.613
 8217SOL     OW25549   2.227   6.331   0.014
 8217SOL    HW125550   2.210   6.289   0.103
 8217SOL    HW225551   2.324   6.322   7.015
 8218SOL     OW25552   6.791   2.045   6.700
 8218SOL    HW125553   6.767   2.048   6.603
 8218SOL    HW225554   6.768   2.132   6.742
 8219SOL     OW25555   6.292   1.811   6.847
 8219SOL    HW125556   6.391   1.822   6.847
 8219SOL    HW225557   6.259   1.804   6.753
 8220SOL     OW25558   3.763   3.513   2.419
 8220SOL    HW125559   3.675   3.473   2.443
 8220SOL    HW225560   3.816   3.532   2.502
 8221SOL     OW25561   5.401   6.204   3.624
 8221SOL    HW125562   5.359   6.115   3.604
 8221SOL    HW225563   5.491   6.208   3.581
 8222SOL     OW25564   5.813   1.721   1.394
 8222SOL    HW125565   5.755   1.641   1.411
 8222SOL    HW225566   5.854   1.751   1.480
 8223SOL     OW25567   0.495   4.889   5.778
 8223SOL    HW125568   0.462   4.893   5.683
 8223SOL    HW225569   0.432   4.939   5.837
 8224SOL     OW25570   1.255   2.864   4.003
 8224SOL    HW125571   1.258   2.930   4.079
 8224SOL    HW225572   1.174   2.806   4.013
 8225SOL     OW25573   4.631   1.210   0.433
 8225SOL    HW125574   4.703   1.262   0.387
 8225SOL    HW225575   4.589   1.266   0.504
 8226SOL     OW25576   5.142   0.530   1.053
 8226SOL    HW125577   5.169   0.518   0.958
 8226SOL    HW225578   5.052   0.490   1.068
 8227SOL     OW25579   6.293   3.301   3.588
 8227SOL    HW125580   6.343   3.347   3.514
 8227SOL    HW225581   6.308   3.202   3.581
 8228SOL     OW25582   6.441   2.715   5.574
 8228SOL    HW125583   6.383   2.758   5.506
 8228SOL    HW225584   6.384   2.669   5.642
 8229SOL     OW25585   3.540   5.205   0.200
 8229SOL    HW125586   3.481   5.147   0.256
 8229SOL    HW225587   3.602   5.148   0.146
 8230SOL     OW25588   5.237   0.341   3.972
 8230SOL    HW125589   5.173   0.415   3.954
 8230SOL    HW225590   5.320   0.354   3.917
 8231SOL     OW25591   4.900   6.163   0.859
 8231SOL    HW125592   4.825   6.193   0.918
 8231SOL    HW225593   4.863   6.122   0.776
 8232SOL     OW25594   3.073   2.465   6.040
 8232SOL    HW125595   3.016   2.442   6.119
 8232SOL    HW225596   3.168   2.439   6.058
 8233SOL     OW25597   0.318   4.915   0.133
 8233SOL    HW125598   0.347   4.898   0.227
 8233SOL    HW225599   0.232   4.867   0.115
 8234SOL     OW25600   3.604   2.103   6.633
 8234SOL    HW125601   3.569   2.010   6.650
 8234SOL    HW225602   3.594   2.157   6.716
 8235SOL     OW25603   4.266   3.094   1.404
 8235SOL    HW125604   4.318   3.014   1.373
 8235SOL    HW225605   4.312   3.135   1.483
 8236SOL     OW25606   5.947   3.177   0.731
 8236SOL    HW125607   5.998   3.230   0.798
 8236SOL    HW225608   5.999   3.172   0.646
 8237SOL     OW25609   4.219   6.194   5.511
 8237SOL    HW125610   4.228   6.264   5.582
 8237SOL    HW225611   4.309   6.154   5.492
 8238SOL     OW25612   1.989   1.880   6.859
 8238SOL    HW125613   2.067   1.834   6.817
 8238SOL    HW225614   1.910   1.873   6.797
 8239SOL     OW25615   0.576   2.110   6.077
 8239SOL    HW125616   0.523   2.098   5.993
 8239SOL    HW225617   0.655   2.049   6.075
 8240SOL     OW25618   4.013   3.859   3.630
 8240SOL    HW125619   4.047   3.816   3.714
 8240SOL    HW225620   3.952   3.934   3.654
 8241SOL     OW25621   3.799   6.655   0.455
 8241SOL    HW125622   3.880   6.663   0.398
 8241SOL    HW225623   3.773   6.559   0.463
 8242SOL     OW25624   0.704   4.140   5.728
 8242SOL    HW125625   0.802   4.156   5.729
 8242SOL    HW225626   0.661   4.190   5.804
 8243SOL     OW25627   0.594   3.688   5.180
 8243SOL    HW125628   0.651   3.640   5.114
 8243SOL    HW225629   0.506   3.642   5.188
 8244SOL     OW25630   0.157   6.968   4.039
 8244SOL    HW125631   0.147   7.021   4.123
 8244SOL    HW225632   0.103   6.884   4.046
 8245SOL     OW25633   3.457   2.806   0.804
 8245SOL    HW125634   3.362   2.809   0.771
 8245SOL    HW225635   3.495   2.716   0.786
 8246SOL     OW25636   5.420   3.216   5.771
 8246SOL    HW125637   5.451   3.298   5.722
 8246SOL    HW225638   5.350   3.240   5.837
 8247SOL     OW25639   1.019   0.374   1.220
 8247SOL    HW125640   0.951   0.328   1.163
 8247SOL    HW225641   1.102   0.390   1.167
 8248SOL     OW25642   6.301   4.284   3.415
 8248SOL    HW125643   6.314   4.316   3.321
 8248SOL    HW225644   6.260   4.357   3.470
 8249SOL     OW25645   2.042   4.897   3.744
 8249SOL    HW125646   1.965   4.902   3.808
 8249SOL    HW225647   2.100   4.819   3.769
 8250SOL     OW25648   4.128   3.737   2.451
 8250SOL    HW125649   4.132   3.785   2.539
 8250SOL    HW225650   4.151   3.641   2.465
 8251SOL     OW25651   5.801   1.906   4.659
 8251SOL    HW125652   5.796   2.000   4.624
 8251SOL    HW225653   5.755   1.844   4.596
 8252SOL     OW25654   1.641   3.069   5.199
 8252SOL    HW125655   1.694   2.998   5.154
 8252SOL    HW225656   1.672   3.078   5.294
 8253SOL     OW25657   3.108   3.125   5.137
 8253SOL    HW125658   3.111   3.170   5.047
 8253SOL    HW225659   3.188   3.067   5.148
 8254SOL     OW25660   3.875   5.671   3.749
 8254SOL    HW125661   3.824   5.586   3.760
 8254SOL    HW225662   3.969   5.658   3.780
 8255SOL     OW25663   4.572   5.303   3.679
 8255SOL    HW125664   4.647   5.278   3.740
 8255SOL    HW225665   4.493   5.332   3.733
 8256SOL     OW25666   6.912   1.591   4.339
 8256SOL    HW125667   6.895   1.502   4.295
 8256SOL    HW225668   7.010   1.604   4.349
 8257SOL     OW25669   6.472   4.444   3.690
 8257SOL    HW125670   6.375   4.447   3.665
 8257SOL    HW225671   6.482   4.403   3.780
 8258SOL     OW25672   4.534   1.301   0.191
 8258SOL    HW125673   4.556   1.242   0.270
 8258SOL    HW225674   4.557   1.395   0.213
 8259SOL     OW25675   3.676   1.708   1.910
 8259SOL    HW125676   3.707   1.782   1.850
 8259SOL    HW225677   3.663   1.743   2.003
 8260SOL     OW25678   2.650   6.044   0.264
 8260SOL    HW125679   2.563   6.079   0.229
 8260SOL    HW225680   2.681   5.969   0.206
 8261SOL     OW25681   5.412   1.456   2.150
 8261SOL    HW125682   5.469   1.393   2.202
 8261SOL    HW225683   5.363   1.517   2.212
 8262SOL     OW25684   0.815   2.094   1.276
 8262SOL    HW125685   0.849   2.184   1.302
 8262SOL    HW225686   0.769   2.052   1.354
 8263SOL     OW25687   6.509   1.455   1.085
 8263SOL    HW125688   6.416   1.461   1.048
 8263SOL    HW225689   6.512   1.383   1.154
 8264SOL     OW25690   2.074   5.132   3.083
 8264SOL    HW125691   2.166   5.142   3.044
 8264SOL    HW225692   2.080   5.096   3.175
 8265SOL     OW25693   1.824   0.579   2.188
 8265SOL    HW125694   1.745   0.595   2.129
 8265SOL    HW225695   1.810   0.624   2.276
 8266SOL     OW25696   3.032   0.032   2.961
 8266SOL    HW125697   2.935   0.011   2.975
 8266SOL    HW225698   3.052   0.035   2.863
 8267SOL     OW25699   0.869   3.419   0.865
 8267SOL    HW125700   0.957   3.380   0.838
 8267SOL    HW225701   0.841   3.380   0.953
 8268SOL     OW25702   2.793   6.898   5.355
 8268SOL    HW125703   2.811   6.978   5.412
 8268SOL    HW225704   2.837   6.818   5.395
 8269SOL     OW25705   5.351   1.751   1.376
 8269SOL    HW125706   5.358   1.654   1.399
 8269SOL    HW225707   5.274   1.765   1.314
 8270SOL     OW25708   3.666   6.299   3.602
 8270SOL    HW125709   3.610   6.223   3.570
 8270SOL    HW225710   3.613   6.357   3.665
 8271SOL     OW25711   6.709   1.797   2.582
 8271SOL    HW125712   6.735   1.886   2.545
 8271SOL    HW225713   6.774   1.770   2.653
 8272SOL     OW25714   3.563   1.029   3.191
 8272SOL    HW125715   3.546   1.102   3.257
 8272SOL    HW225716   3.650   1.045   3.144
 8273SOL     OW25717   2.424   6.216   0.649
 8273SOL    HW125718   2.422   6.198   0.748
 8273SOL    HW225719   2.426   6.315   0.633
 8274SOL     OW25720   5.300   5.256   2.899
 8274SOL    HW125721   5.323   5.160   2.882
 8274SOL    HW225722   5.214   5.262   2.949
 8275SOL     OW25723   4.990   1.975   5.893
 8275SOL    HW125724   4.892   1.987   5.876
 8275SOL    HW225725   5.042   2.015   5.818
 8276SOL     OW25726   0.661   1.889   3.355
 8276SOL    HW125727   0.732   1.921   3.293
 8276SOL    HW225728   0.586   1.849   3.302
 8277SOL     OW25729   6.890   0.045   6.815
 8277SOL    HW125730   6.956   0.054   6.741
 8277SOL    HW225731   6.798   0.044   6.777
 8278SOL     OW25732   2.295   2.522   0.763
 8278SOL    HW125733   2.269   2.541   0.857
 8278SOL    HW225734   2.213   2.499   0.710
 8279SOL     OW25735   6.989   6.244   4.201
 8279SOL    HW125736   0.025   6.164   4.202
 8279SOL    HW225737   6.967   6.268   4.107
 8280SOL     OW25738   3.133   2.557   5.786
 8280SOL    HW125739   3.168   2.522   5.698
 8280SOL    HW225740   3.125   2.481   5.850
 8281SOL     OW25741   0.016   5.882   1.649
 8281SOL    HW125742   0.115   5.885   1.635
 8281SOL    HW225743   7.021   5.850   1.742
 8282SOL     OW25744   5.352   2.209   5.375
 8282SOL    HW125745   5.446   2.240   5.390
 8282SOL    HW225746   5.344   2.113   5.402
 8283SOL     OW25747   1.789   4.177   6.044
 8283SOL    HW125748   1.742   4.245   5.987
 8283SOL    HW225749   1.870   4.142   5.996
 8284SOL     OW25750   0.209   4.449   1.997
 8284SOL    HW125751   0.162   4.388   2.060
 8284SOL    HW225752   0.308   4.435   2.005
 8285SOL     OW25753   3.432   3.346   5.197
 8285SOL    HW125754   3.385   3.352   5.285
 8285SOL    HW225755   3.366   3.365   5.123
 8286SOL     OW25756   6.522   2.230   5.991
 8286SOL    HW125757   6.441   2.172   5.993
 8286SOL    HW225758   6.516   2.292   5.913
 8287SOL     OW25759   2.093   5.421   4.721
 8287SOL    HW125760   2.191   5.402   4.724
 8287SOL    HW225761   2.044   5.354   4.777
 8288SOL     OW25762   2.556   2.454   3.371
 8288SOL    HW125763   2.464   2.413   3.368
 8288SOL    HW225764   2.570   2.498   3.459
 8289SOL     OW25765   0.727   6.314   6.906
 8289SOL    HW125766   0.712   6.289   6.811
 8289SOL    HW225767   0.786   6.395   6.911
 8290SOL     OW25768   6.648   2.515   0.426
 8290SOL    HW125769   6.666   2.419   0.448
 8290SOL    HW225770   6.555   2.539   0.453
 8291SOL     OW25771   4.661   0.226   6.769
 8291SOL    HW125772   4.673   0.234   6.670
 8291SOL    HW225773   4.567   0.198   6.789
 8292SOL     OW25774   3.103   6.697   6.989
 8292SOL    HW125775   3.202   6.707   6.998
 8292SOL    HW225776   3.082   6.605   6.955
 8293SOL     OW25777   5.428   5.799   6.250
 8293SOL    HW125778   5.387   5.871   6.193
 8293SOL    HW225779   5.385   5.711   6.228
 8294SOL     OW25780   5.515   2.392   0.135
 8294SOL    HW125781   5.448   2.433   0.197
 8294SOL    HW225782   5.496   2.294   0.126
 8295SOL     OW25783   4.913   3.851   1.177
 8295SOL    HW125784   4.960   3.913   1.115
 8295SOL    HW225785   4.818   3.841   1.149
 8296SOL     OW25786   1.867   5.450   6.732
 8296SOL    HW125787   1.849   5.353   6.751
 8296SOL    HW225788   1.959   5.474   6.763
 8297SOL     OW25789   0.089   2.722   2.866
 8297SOL    HW125790   0.171   2.766   2.903
 8297SOL    HW225791   0.115   2.661   2.791
 8298SOL     OW25792   4.929   0.652   1.853
 8298SOL    HW125793   4.982   0.710   1.915
 8298SOL    HW225794   4.831   0.663   1.873
 8299SOL     OW25795   6.355   2.049   1.854
 8299SOL    HW125796   6.313   1.980   1.912
 8299SOL    HW225797   6.431   2.092   1.903
 8300SOL     OW25798   0.673   4.949   3.892
 8300SOL    HW125799   0.628   4.900   3.817
 8300SOL    HW225800   0.730   4.885   3.944
 8301SOL     OW25801   3.516   2.817   6.757
 8301SOL    HW125802   3.416   2.818   6.761
 8301SOL    HW225803   3.547   2.748   6.692
 8302SOL     OW25804   5.920   6.384   6.670
 8302SOL    HW125805   5.831   6.417   6.638
 8302SOL    HW225806   5.993   6.427   6.617
 8303SOL     OW25807   0.154   7.005   4.909
 8303SOL    HW125808   0.123   6.966   4.822
 8303SOL    HW225809   0.117   6.951   4.984
 8304SOL     OW25810   0.757   3.808   6.937
 8304SOL    HW125811   0.829   3.876   6.924
 8304SOL    HW225812   0.668   3.849   6.918
 8305SOL     OW25813   3.794   5.270   3.268
 8305SOL    HW125814   3.831   5.346   3.215
 8305SOL    HW225815   3.813   5.285   3.365
 8306SOL     OW25816   0.921   3.134   4.260
 8306SOL    HW125817   0.936   3.036   4.273
 8306SOL    HW225818   0.929   3.181   4.348
 8307SOL     OW25819   4.430   5.668   1.158
 8307SOL    HW125820   4.513   5.691   1.209
 8307SOL    HW225821   4.435   5.573   1.127
 8308SOL     OW25822   3.720   6.699   2.333
 8308SOL    HW125823   3.812   6.686   2.296
 8308SOL    HW225824   3.712   6.650   2.420
 8309SOL     OW25825   5.656   5.476   2.120
 8309SOL    HW125826   5.572   5.459   2.173
 8309SOL    HW225827   5.672   5.575   2.115
 8310SOL     OW25828   7.010   4.671   0.709
 8310SOL    HW125829   6.979   4.749   0.763
 8310SOL    HW225830   0.081   4.650   0.731
 8311SOL     OW25831   6.641   0.650   6.953
 8311SOL    HW125832   6.653   0.640   6.855
 8311SOL    HW225833   6.606   0.742   6.973
 8312SOL     OW25834   5.389   6.818   1.525
 8312SOL    HW125835   5.397   6.865   1.437
 8312SOL    HW225836   5.388   6.719   1.510
 8313SOL     OW25837   3.579   1.233   2.357
 8313SOL    HW125838   3.636   1.310   2.386
 8313SOL    HW225839   3.541   1.252   2.267
 8314SOL     OW25840   6.691   0.277   2.569
 8314SOL    HW125841   6.686   0.231   2.657
 8314SOL    HW225842   6.622   0.350   2.566
 8315SOL     OW25843   4.906   3.837   0.083
 8315SOL    HW125844   4.807   3.840   0.075
 8315SOL    HW225845   4.947   3.901   0.018
 8316SOL     OW25846   1.417   3.756   0.005
 8316SOL    HW125847   1.355   3.784   6.956
 8316SOL    HW225848   1.404   3.816   0.084
 8317SOL     OW25849   2.460   4.566   1.659
 8317SOL    HW125850   2.553   4.532   1.666
 8317SOL    HW225851   2.431   4.565   1.563
 8318SOL     OW25852   3.809   1.566   4.900
 8318SOL    HW125853   3.840   1.652   4.940
 8318SOL    HW225854   3.871   1.492   4.927
 8319SOL     OW25855   3.623   1.406   5.279
 8319SOL    HW125856   3.573   1.375   5.198
 8319SOL    HW225857   3.566   1.393   5.360
 8320SOL     OW25858   3.012   4.544   1.078
 8320SOL    HW125859   2.977   4.613   1.014
 8320SOL    HW225860   2.989   4.453   1.044
 8321SOL     OW25861   0.832   0.047   1.325
 8321SOL    HW125862   0.880   0.103   1.394
 8321SOL    HW225863   0.895   7.002   1.289
 8322SOL     OW25864   6.608   6.768   6.933
 8322SOL    HW125865   6.532   6.732   6.987
 8322SOL    HW225866   6.644   6.851   6.977
 8323SOL     OW25867   1.045   1.725   2.277
 8323SOL    HW125868   1.035   1.636   2.232
 8323SOL    HW225869   0.977   1.789   2.241
 8324SOL     OW25870   6.279   0.820   2.159
 8324SOL    HW125871   6.255   0.745   2.097
 8324SOL    HW225872   6.362   0.864   2.127
 8325SOL     OW25873   3.413   3.154   3.954
 8325SOL    HW125874   3.454   3.131   3.866
 8325SOL    HW225875   3.483   3.148   4.025
 8326SOL     OW25876   4.160   2.836   6.093
 8326SOL    HW125877   4.137   2.775   6.018
 8326SOL    HW225878   4.217   2.911   6.058
 8327SOL     OW25879   5.400   2.325   6.182
 8327SOL    HW125880   5.405   2.421   6.208
 8327SOL    HW225881   5.484   2.298   6.136
 8328SOL     OW25882   2.083   2.211   6.251
 8328SOL    HW125883   2.171   2.230   6.294
 8328SOL    HW225884   2.018   2.283   6.276
 8329SOL     OW25885   6.808   2.936   5.418
 8329SOL    HW125886   6.849   2.976   5.336
 8329SOL    HW225887   6.821   2.997   5.495
 8330SOL     OW25888   2.326   6.433   0.906
 8330SOL    HW125889   2.341   6.484   0.821
 8330SOL    HW225890   2.238   6.459   0.945
 8331SOL     OW25891   2.896   6.722   0.943
 8331SOL    HW125892   2.911   6.796   1.008
 8331SOL    HW225893   2.831   6.750   0.873
 8332SOL     OW25894   4.907   5.053   2.408
 8332SOL    HW125895   4.914   5.145   2.369
 8332SOL    HW225896   4.961   4.989   2.353
 8333SOL     OW25897   0.698   5.846   0.039
 8333SOL    HW125898   0.671   5.815   6.973
 8333SOL    HW225899   0.665   5.782   0.108
 8334SOL     OW25900   6.042   1.911   3.693
 8334SOL    HW125901   6.016   1.922   3.789
 8334SOL    HW225902   6.061   2.001   3.654
 8335SOL     OW25903   6.050   6.379   5.726
 8335SOL    HW125904   6.106   6.459   5.745
 8335SOL    HW225905   5.975   6.374   5.792
 8336SOL     OW25906   0.756   1.717   1.740
 8336SOL    HW125907   0.737   1.619   1.730
 8336SOL    HW225908   0.726   1.765   1.657
 8337SOL     OW25909   0.775   6.379   2.757
 8337SOL    HW125910   0.785   6.471   2.793
 8337SOL    HW225911   0.704   6.330   2.808
 8338SOL     OW25912   1.591   4.697   1.671
 8338SOL    HW125913   1.596   4.746   1.583
 8338SOL    HW225914   1.663   4.629   1.675
 8339SOL     OW25915   5.099   1.705   2.780
 8339SOL    HW125916   5.189   1.681   2.817
 8339SOL    HW225917   5.108   1.724   2.682
 8340SOL     OW25918   5.170   4.104   0.551
 8340SOL    HW125919   5.160   4.036   0.479
 8340SOL    HW225920   5.082   4.116   0.598
 8341SOL     OW25921   2.634   6.195   1.206
 8341SOL    HW125922   2.706   6.254   1.242
 8341SOL    HW225923   2.571   6.170   1.280
 8342SOL     OW25924   4.184   0.955   0.861
 8342SOL    HW125925   4.204   0.888   0.790
 8342SOL    HW225926   4.270   0.988   0.901
 8343SOL     OW25927   1.449   5.253   5.966
 8343SOL    HW125928   1.517   5.250   6.040
 8343SOL    HW225929   1.366   5.298   6.000
 8344SOL     OW25930   4.740   6.246   5.675
 8344SOL    HW125931   4.787   6.290   5.599
 8344SOL    HW225932   4.730   6.148   5.656
 8345SOL     OW25933   6.126   1.069   2.730
 8345SOL    HW125934   6.150   1.022   2.814
 8345SOL    HW225935   6.055   1.018   2.682
 8346SOL     OW25936   2.900   5.571   1.417
 8346SOL    HW125937   2.889   5.475   1.393
 8346SOL    HW225938   2.930   5.578   1.512
 8347SOL     OW25939   3.677   6.747   5.435
 8347SOL    HW125940   3.625   6.669   5.467
 8347SOL    HW225941   3.621   6.802   5.373
 8348SOL     OW25942   1.124   0.687   0.406
 8348SOL    HW125943   1.038   0.679   0.455
 8348SOL    HW225944   1.179   0.761   0.445
 8349SOL     OW25945   5.766   4.235   1.479
 8349SOL    HW125946   5.764   4.136   1.491
 8349SOL    HW225947   5.797   4.278   1.564
 8350SOL     OW25948   6.492   1.032   5.157
 8350SOL    HW125949   6.449   1.024   5.247
 8350SOL    HW225950   6.581   1.076   5.167
 8351SOL     OW25951   3.426   6.163   3.927
 8351SOL    HW125952   3.408   6.260   3.941
 8351SOL    HW225953   3.366   6.128   3.855
 8352SOL     OW25954   6.825   6.398   2.029
 8352SOL    HW125955   6.813   6.475   1.966
 8352SOL    HW225956   6.855   6.432   2.118
 8353SOL     OW25957   0.340   3.429   2.603
 8353SOL    HW125958   0.282   3.368   2.657
 8353SOL    HW225959   0.411   3.377   2.557
 8354SOL     OW25960   2.542   1.090   6.935
 8354SOL    HW125961   2.509   1.171   6.886
 8354SOL    HW225962   2.476   1.065   7.007
 8355SOL     OW25963   3.507   0.050   7.014
 8355SOL    HW125964   3.419   0.087   6.985
 8355SOL    HW225965   3.492   7.001   0.057
 8356SOL     OW25966   2.037   6.070   6.962
 8356SOL    HW125967   1.979   6.136   6.915
 8356SOL    HW225968   2.084   6.114   0.015
 8357SOL     OW25969   4.522   5.904   4.952
 8357SOL    HW125970   4.449   5.964   4.919
 8357SOL    HW225971   4.512   5.890   5.051
 8358SOL     OW25972   1.715   3.055   5.472
 8358SOL    HW125973   1.811   3.027   5.469
 8358SOL    HW225974   1.689   3.075   5.566
 8359SOL     OW25975   4.351   5.454   4.676
 8359SOL    HW125976   4.399   5.487   4.595
 8359SOL    HW225977   4.262   5.499   4.683
 8360SOL     OW25978   5.454   0.200   2.996
 8360SOL    HW125979   5.517   0.198   2.918
 8360SOL    HW225980   5.496   0.152   3.073
 8361SOL     OW25981   2.021   0.504   2.475
 8361SOL    HW125982   2.019   0.587   2.419
 8361SOL    HW225983   2.096   0.445   2.444
 8362SOL     OW25984   2.930   1.930   0.429
 8362SOL    HW125985   3.009   1.959   0.483
 8362SOL    HW225986   2.847   1.938   0.484
 8363SOL     OW25987   6.911   3.146   0.212
 8363SOL    HW125988   6.853   3.178   0.286
 8363SOL    HW225989   6.860   3.147   0.126
 8364SOL     OW25990   6.914   3.684   3.480
 8364SOL    HW125991   6.836   3.631   3.445
 8364SOL    HW225992   6.889   3.727   3.566
 8365SOL     OW25993   1.621   3.464   6.400
 8365SOL    HW125994   1.591   3.550   6.359
 8365SOL    HW225995   1.709   3.478   6.445
 8366SOL     OW25996   3.277   6.758   2.923
 8366SOL    HW125997   3.193   6.752   2.978
 8366SOL    HW225998   3.254   6.794   2.833
 8367SOL     OW25999   5.733   6.582   4.057
 8367SOL    HW126000   5.682   6.548   3.978
 8367SOL    HW226001   5.672   6.632   4.118
 8368SOL     OW26002   3.019   5.263   6.000
 8368SOL    HW126003   3.058   5.177   6.033
 8368SOL    HW226004   3.093   5.324   5.971
 8369SOL     OW26005   1.825   1.611   0.657
 8369SOL    HW126006   1.798   1.603   0.753
 8369SOL    HW226007   1.790   1.697   0.619
 8370SOL     OW26008   1.200   1.608   6.187
 8370SOL    HW126009   1.127   1.608   6.255
 8370SOL    HW226010   1.263   1.683   6.205
 8371SOL     OW26011   1.533   3.039   1.030
 8371SOL    HW126012   1.455   2.996   1.077
 8371SOL    HW226013   1.502   3.080   0.945
 8372SOL     OW26014   6.865   0.864   2.940
 8372SOL    HW126015   6.893   0.960   2.936
 8372SOL    HW226016   6.902   0.814   2.862
 8373SOL     OW26017   1.814   5.705   5.346
 8373SOL    HW126018   1.885   5.637   5.328
 8373SOL    HW226019   1.855   5.781   5.398
 8374SOL     OW26020   6.728   6.994   0.021
 8374SOL    HW126021   6.804   7.017   6.985
 8374SOL    HW226022   6.686   0.053   0.056
 8375SOL     OW26023   3.660   6.542   6.036
 8375SOL    HW126024   3.634   6.454   5.996
 8375SOL    HW226025   3.727   6.587   5.977
 8376SOL     OW26026   2.999   0.882   4.492
 8376SOL    HW126027   2.914   0.884   4.440
 8376SOL    HW226028   3.034   0.789   4.496
 8377SOL     OW26029   5.844   4.554   1.399
 8377SOL    HW126030   5.923   4.498   1.375
 8377SOL    HW226031   5.771   4.540   1.331
 8378SOL     OW26032   4.870   3.001   2.961
 8378SOL    HW126033   4.931   2.940   3.012
 8378SOL    HW226034   4.903   3.095   2.967
 8379SOL     OW26035   6.258   2.840   2.391
 8379SOL    HW126036   6.342   2.809   2.434
 8379SOL    HW226037   6.267   2.836   2.292
 8380SOL     OW26038   4.078   1.898   3.179
 8380SOL    HW126039   4.061   1.909   3.277
 8380SOL    HW226040   4.000   1.851   3.137
 8381SOL     OW26041   1.792   5.407   5.188
 8381SOL    HW126042   1.863   5.444   5.247
 8381SOL    HW226043   1.794   5.307   5.191
 8382SOL     OW26044   1.262   3.153   2.364
 8382SOL    HW126045   1.275   3.219   2.290
 8382SOL    HW226046   1.283   3.061   2.331
 8383SOL     OW26047   2.936   2.346   6.231
 8383SOL    HW126048   2.840   2.322   6.220
 8383SOL    HW226049   2.977   2.288   6.301
 8384SOL     OW26050   0.558   6.825   1.958
 8384SOL    HW126051   0.462   6.820   1.930
 8384SOL    HW226052   0.616   6.823   1.877
 8385SOL     OW26053   4.684   2.169   1.778
 8385SOL    HW126054   4.747   2.247   1.775
 8385SOL    HW226055   4.597   2.198   1.817
 8386SOL     OW26056   1.209   4.100   2.823
 8386SOL    HW126057   1.110   4.098   2.837
 8386SOL    HW226058   1.250   4.169   2.882
 8387SOL     OW26059   0.544   2.620   1.231
 8387SOL    HW126060   0.537   2.574   1.143
 8387SOL    HW226061   0.473   2.691   1.238
 8388SOL     OW26062   2.013   0.733   2.085
 8388SOL    HW126063   1.929   0.678   2.085
 8388SOL    HW226064   2.093   0.673   2.086
 8389SOL     OW26065   5.517   2.825   1.866
 8389SOL    HW126066   5.541   2.814   1.962
 8389SOL    HW226067   5.460   2.749   1.836
 8390SOL     OW26068   5.530   1.739   5.338
 8390SOL    HW126069   5.486   1.680   5.271
 8390SOL    HW226070   5.548   1.688   5.422
 8391SOL     OW26071   6.148   0.552   0.916
 8391SOL    HW126072   6.130   0.643   0.952
 8391SOL    HW226073   6.233   0.553   0.863
 8392SOL     OW26074   5.294   3.266   4.922
 8392SOL    HW126075   5.294   3.302   5.015
 8392SOL    HW226076   5.281   3.342   4.857
 8393SOL     OW26077   5.248   0.142   1.163
 8393SOL    HW126078   5.179   0.214   1.151
 8393SOL    HW226079   5.207   0.053   1.142
 8394SOL     OW26080   6.205   3.342   1.557
 8394SOL    HW126081   6.109   3.342   1.530
 8394SOL    HW226082   6.262   3.348   1.476
 8395SOL     OW26083   1.681   1.117   4.571
 8395SOL    HW126084   1.596   1.085   4.613
 8395SOL    HW226085   1.758   1.095   4.629
 8396SOL     OW26086   4.197   5.650   4.915
 8396SOL    HW126087   4.174   5.596   4.834
 8396SOL    HW226088   4.210   5.745   4.889
 8397SOL     OW26089   6.281   1.076   3.008
 8397SOL    HW126090   6.325   1.162   2.983
 8397SOL    HW226091   6.227   1.089   3.091
 8398SOL     OW26092   4.977   2.144   6.186
 8398SOL    HW126093   4.898   2.172   6.131
 8398SOL    HW226094   5.060   2.152   6.131
 8399SOL     OW26095   6.930   4.915   0.811
 8399SOL    HW126096   7.016   4.959   0.835
 8399SOL    HW226097   6.896   4.952   0.725
 8400SOL     OW26098   1.406   2.228   4.798
 8400SOL    HW126099   1.398   2.225   4.698
 8400SOL    HW226100   1.477   2.165   4.828
 8401SOL     OW26101   3.068   0.538   5.721
 8401SOL    HW126102   3.014   0.615   5.685
 8401SOL    HW226103   3.008   0.462   5.745
 8402SOL     OW26104   4.087   0.525   5.742
 8402SOL    HW126105   4.050   0.448   5.690
 8402SOL    HW226106   4.022   0.553   5.813
 8403SOL     OW26107   5.773   5.150   4.221
 8403SOL    HW126108   5.719   5.233   4.207
 8403SOL    HW226109   5.786   5.103   4.134
 8404SOL     OW26110   1.759   1.879   6.725
 8404SOL    HW126111   1.757   1.779   6.736
 8404SOL    HW226112   1.668   1.916   6.740
 8405SOL     OW26113   3.862   0.948   5.334
 8405SOL    HW126114   3.790   1.012   5.359
 8405SOL    HW226115   3.919   0.987   5.262
 8406SOL     OW26116   4.923   0.759   6.332
 8406SOL    HW126117   4.846   0.796   6.281
 8406SOL    HW226118   4.931   0.661   6.315
 8407SOL     OW26119   3.523   6.902   3.938
 8407SOL    HW126120   3.533   6.989   3.891
 8407SOL    HW226121   3.613   6.871   3.971
 8408SOL     OW26122   4.181   0.952   1.517
 8408SOL    HW126123   4.212   1.039   1.479
 8408SOL    HW226124   4.083   0.941   1.501
 8409SOL     OW26125   4.492   2.487   1.925
 8409SOL    HW126126   4.480   2.561   1.860
 8409SOL    HW226127   4.524   2.524   2.013
 8410SOL     OW26128   6.895   1.943   1.706
 8410SOL    HW126129   6.890   2.015   1.775
 8410SOL    HW226130   6.804   1.923   1.672
 8411SOL     OW26131   1.564   5.429   0.259
 8411SOL    HW126132   1.605   5.519   0.246
 8411SOL    HW226133   1.478   5.439   0.311
 8412SOL     OW26134   2.969   2.720   6.066
 8412SOL    HW126135   2.882   2.692   6.107
 8412SOL    HW226136   3.022   2.639   6.040
 8413SOL     OW26137   4.340   5.548   5.144
 8413SOL    HW126138   4.415   5.486   5.124
 8413SOL    HW226139   4.276   5.550   5.068
 8414SOL     OW26140   0.747   0.925   1.723
 8414SOL    HW126141   0.662   0.914   1.774
 8414SOL    HW226142   0.815   0.861   1.757
 8415SOL     OW26143   1.850   0.846   5.175
 8415SOL    HW126144   1.809   0.854   5.084
 8415SOL    HW226145   1.901   0.929   5.197
 8416SOL     OW26146   6.739   1.531   5.062
 8416SOL    HW126147   6.654   1.516   5.012
 8416SOL    HW226148   6.754   1.457   5.128
 8417SOL     OW26149   1.605   4.283   5.325
 8417SOL    HW126150   1.523   4.274   5.269
 8417SOL    HW226151   1.687   4.279   5.267
 8418SOL     OW26152   0.993   6.014   2.314
 8418SOL    HW126153   0.939   6.094   2.340
 8418SOL    HW226154   0.959   5.934   2.362
 8419SOL     OW26155   4.779   1.603   3.763
 8419SOL    HW126156   4.862   1.627   3.813
 8419SOL    HW226157   4.788   1.630   3.667
 8420SOL     OW26158   2.479   0.309   2.975
 8420SOL    HW126159   2.406   0.377   2.987
 8420SOL    HW226160   2.533   0.333   2.894
 8421SOL     OW26161   4.704   6.218   6.140
 8421SOL    HW126162   4.738   6.289   6.203
 8421SOL    HW226163   4.777   6.152   6.122
 8422SOL     OW26164   4.639   2.611   3.115
 8422SOL    HW126165   4.636   2.691   3.054
 8422SOL    HW226166   4.727   2.565   3.105
 8423SOL     OW26167   6.443   4.938   6.483
 8423SOL    HW126168   6.407   4.845   6.490
 8423SOL    HW226169   6.369   5.004   6.499
 8424SOL     OW26170   2.224   0.134   3.774
 8424SOL    HW126171   2.261   0.227   3.777
 8424SOL    HW226172   2.190   0.108   3.864
 8425SOL     OW26173   4.179   3.384   2.857
 8425SOL    HW126174   4.106   3.445   2.886
 8425SOL    HW226175   4.263   3.437   2.842
 8426SOL     OW26176   3.554   2.846   2.049
 8426SOL    HW126177   3.624   2.909   2.082
 8426SOL    HW226178   3.584   2.805   1.963
 8427SOL     OW26179   3.493   3.734   3.678
 8427SOL    HW126180   3.563   3.769   3.616
 8427SOL    HW226181   3.495   3.786   3.763
 8428SOL     OW26182   6.543   6.905   0.327
 8428SOL    HW126183   6.584   6.951   0.406
 8428SOL    HW226184   6.603   6.831   0.298
 8429SOL     OW26185   2.490   5.439   5.971
 8429SOL    HW126186   2.551   5.415   6.047
 8429SOL    HW226187   2.414   5.493   6.005
 8430SOL     OW26188   4.087   6.878   5.373
 8430SOL    HW126189   4.128   6.886   5.464
 8430SOL    HW226190   4.104   6.786   5.338
 8431SOL     OW26191   3.276   3.958   6.212
 8431SOL    HW126192   3.263   4.054   6.185
 8431SOL    HW226193   3.373   3.935   6.208
 8432SOL     OW26194   6.140   5.379   6.167
 8432SOL    HW126195   6.063   5.347   6.222
 8432SOL    HW226196   6.148   5.479   6.174
 8433SOL     OW26197   5.248   2.813   0.801
 8433SOL    HW126198   5.255   2.913   0.807
 8433SOL    HW226199   5.332   2.772   0.836
 8434SOL     OW26200   2.754   6.256   5.486
 8434SOL    HW126201   2.744   6.190   5.411
 8434SOL    HW226202   2.776   6.207   5.571
 8435SOL     OW26203   4.833   1.028   2.912
 8435SOL    HW126204   4.886   1.104   2.873
 8435SOL    HW226205   4.895   0.965   2.959
 8436SOL     OW26206   2.141   5.990   2.474
 8436SOL    HW126207   2.188   5.910   2.512
 8436SOL    HW226208   2.170   6.072   2.523
 8437SOL     OW26209   2.192   3.910   2.240
 8437SOL    HW126210   2.190   3.820   2.283
 8437SOL    HW226211   2.233   3.902   2.149
 8438SOL     OW26212   1.424   4.221   2.304
 8438SOL    HW126213   1.514   4.262   2.319
 8438SOL    HW226214   1.411   4.145   2.369
 8439SOL     OW26215   6.071   5.277   3.793
 8439SOL    HW126216   6.042   5.342   3.864
 8439SOL    HW226217   5.991   5.231   3.755
 8440SOL     OW26218   1.939   1.476   2.705
 8440SOL    HW126219   2.037   1.478   2.683
 8440SOL    HW226220   1.887   1.444   2.626
 8441SOL     OW26221   5.817   1.027   4.522
 8441SOL    HW126222   5.734   1.069   4.559
 8441SOL    HW226223   5.893   1.091   4.530
 8442SOL     OW26224   3.373   1.532   5.845
 8442SOL    HW126225   3.464   1.563   5.816
 8442SOL    HW226226   3.357   1.440   5.808
 8443SOL     OW26227   0.935   3.811   2.868
 8443SOL    HW126228   0.993   3.791   2.948
 8443SOL    HW226229   0.876   3.732   2.849
 8444SOL     OW26230   4.799   5.047   4.311
 8444SOL    HW126231   4.722   5.047   4.374
 8444SOL    HW226232   4.839   5.138   4.306
 8445SOL     OW26233   4.151   5.862   6.781
 8445SOL    HW126234   4.149   5.762   6.790
 8445SOL    HW226235   4.188   5.902   6.864
 8446SOL     OW26236   6.967   6.049   4.788
 8446SOL    HW126237   6.888   6.103   4.760
 8446SOL    HW226238   0.025   6.105   4.782
 8447SOL     OW26239   3.777   2.110   2.834
 8447SOL    HW126240   3.717   2.146   2.763
 8447SOL    HW226241   3.722   2.075   2.910
 8448SOL     OW26242   4.158   6.436   3.241
 8448SOL    HW126243   4.219   6.367   3.280
 8448SOL    HW226244   4.212   6.515   3.212
 8449SOL     OW26245   2.300   2.361   3.398
 8449SOL    HW126246   2.236   2.426   3.357
 8449SOL    HW226247   2.258   2.271   3.401
 8450SOL     OW26248   0.022   0.826   6.936
 8450SOL    HW126249   7.023   0.732   6.962
 8450SOL    HW226250   6.990   0.890   6.990
 8451SOL     OW26251   4.052   2.610   1.073
 8451SOL    HW126252   4.031   2.708   1.083
 8451SOL    HW226253   4.111   2.597   0.994
 8452SOL     OW26254   5.595   1.973   5.583
 8452SOL    HW126255   5.651   2.047   5.546
 8452SOL    HW226256   5.642   1.886   5.570
 8453SOL     OW26257   0.835   6.164   0.922
 8453SOL    HW126258   0.874   6.079   0.887
 8453SOL    HW226259   0.859   6.174   1.019
 8454SOL     OW26260   6.726   4.042   0.012
 8454SOL    HW126261   6.696   3.948   7.018
 8454SOL    HW226262   6.653   4.105   7.010
 8455SOL     OW26263   6.977   0.593   3.157
 8455SOL    HW126264   6.893   0.557   3.196
 8455SOL    HW226265   6.967   0.604   3.058
 8456SOL     OW26266   5.873   1.293   3.775
 8456SOL    HW126267   5.794   1.292   3.836
 8456SOL    HW226268   5.938   1.222   3.803
 8457SOL     OW26269   6.451   6.498   4.704
 8457SOL    HW126270   6.464   6.594   4.680
 8457SOL    HW226271   6.541   6.456   4.721
 8458SOL     OW26272   0.489   6.593   6.783
 8458SOL    HW126273   0.395   6.590   6.748
 8458SOL    HW226274   0.488   6.618   6.880
 8459SOL     OW26275   1.769   6.012   3.421
 8459SOL    HW126276   1.780   5.923   3.465
 8459SOL    HW226277   1.857   6.060   3.419
 8460SOL     OW26278   3.504   4.188   4.560
 8460SOL    HW126279   3.511   4.188   4.659
 8460SOL    HW226280   3.490   4.281   4.527
 8461SOL     OW26281   6.646   3.762   3.657
 8461SOL    HW126282   6.579   3.769   3.584
 8461SOL    HW226283   6.647   3.668   3.692
 8462SOL     OW26284   1.929   3.067   2.072
 8462SOL    HW126285   1.891   3.155   2.099
 8462SOL    HW226286   2.016   3.052   2.121
 8463SOL     OW26287   5.419   1.055   2.220
 8463SOL    HW126288   5.409   1.115   2.141
 8463SOL    HW226289   5.409   0.960   2.190
 8464SOL     OW26290   6.136   2.385   4.744
 8464SOL    HW126291   6.118   2.347   4.653
 8464SOL    HW226292   6.154   2.483   4.737
 8465SOL     OW26293   1.698   2.172   0.467
 8465SOL    HW126294   1.716   2.168   0.369
 8465SOL    HW226295   1.779   2.140   0.516
 8466SOL     OW26296   0.683   6.543   3.670
 8466SOL    HW126297   0.755   6.548   3.740
 8466SOL    HW226298   0.628   6.460   3.684
 8467SOL     OW26299   2.758   5.396   0.382
 8467SOL    HW126300   2.808   5.443   0.455
 8467SOL    HW226301   2.663   5.426   0.381
 8468SOL     OW26302   4.554   1.592   0.314
 8468SOL    HW126303   4.537   1.586   0.413
 8468SOL    HW226304   4.556   1.688   0.286
 8469SOL     OW26305   3.733   2.394   6.624
 8469SOL    HW126306   3.656   2.405   6.687
 8469SOL    HW226307   3.818   2.391   6.675
 8470SOL     OW26308   2.356   2.268   6.368
 8470SOL    HW126309   2.391   2.296   6.457
 8470SOL    HW226310   2.367   2.344   6.303
 8471SOL     OW26311   3.665   0.956   3.569
 8471SOL    HW126312   3.706   0.884   3.625
 8471SOL    HW226313   3.601   1.009   3.625
 8472SOL     OW26314   1.356   6.399   3.533
 8472SOL    HW126315   1.334   6.495   3.552
 8472SOL    HW226316   1.454   6.385   3.545
 8473SOL     OW26317   6.721   5.880   6.903
 8473SOL    HW126318   6.809   5.871   6.949
 8473SOL    HW226319   6.677   5.791   6.896
 8474SOL     OW26320   3.804   3.916   1.277
 8474SOL    HW126321   3.711   3.940   1.252
 8474SOL    HW226322   3.862   3.916   1.196
 8475SOL     OW26323   4.688   1.020   3.192
 8475SOL    HW126324   4.763   1.082   3.213
 8475SOL    HW226325   4.668   1.023   3.094
 8476SOL     OW26326   4.695   0.137   2.488
 8476SOL    HW126327   4.757   0.081   2.433
 8476SOL    HW226328   4.660   0.212   2.431
 8477SOL     OW26329   3.173   1.392   1.314
 8477SOL    HW126330   3.261   1.344   1.312
 8477SOL    HW226331   3.158   1.436   1.225
 8478SOL     OW26332   1.549   0.432   5.741
 8478SOL    HW126333   1.495   0.513   5.763
 8478SOL    HW226334   1.487   0.355   5.724
 8479SOL     OW26335   5.074   0.943   1.808
 8479SOL    HW126336   5.090   0.932   1.710
 8479SOL    HW226337   4.976   0.954   1.824
 8480SOL     OW26338   1.804   0.900   1.395
 8480SOL    HW126339   1.800   0.828   1.327
 8480SOL    HW226340   1.785   0.862   1.486
 8481SOL     OW26341   4.020   0.344   4.173
 8481SOL    HW126342   3.922   0.364   4.178
 8481SOL    HW226343   4.033   0.250   4.142
 8482SOL     OW26344   1.097   0.568   2.078
 8482SOL    HW126345   1.029   0.599   2.145
 8482SOL    HW226346   1.106   0.468   2.084
 8483SOL     OW26347   4.214   6.032   1.588
 8483SOL    HW126348   4.151   6.016   1.512
 8483SOL    HW226349   4.220   5.949   1.644
 8484SOL     OW26350   0.813   4.705   4.937
 8484SOL    HW126351   0.749   4.718   5.012
 8484SOL    HW226352   0.763   4.702   4.850
 8485SOL     OW26353   2.508   3.410   5.974
 8485SOL    HW126354   2.423   3.459   5.996
 8485SOL    HW226355   2.586   3.468   5.997
 8486SOL     OW26356   4.451   1.048   2.529
 8486SOL    HW126357   4.377   1.051   2.460
 8486SOL    HW226358   4.426   1.106   2.606
 8487SOL     OW26359   4.339   6.889   1.192
 8487SOL    HW126360   4.390   6.907   1.108
 8487SOL    HW226361   4.276   6.966   1.209
 8488SOL     OW26362   5.292   2.882   4.751
 8488SOL    HW126363   5.289   2.783   4.736
 8488SOL    HW226364   5.349   2.925   4.681
 8489SOL     OW26365   4.126   4.965   2.457
 8489SOL    HW126366   4.091   4.877   2.489
 8489SOL    HW226367   4.180   5.008   2.529
 8490SOL     OW26368   3.948   5.369   2.665
 8490SOL    HW126369   3.999   5.421   2.734
 8490SOL    HW226370   3.907   5.289   2.708
 8491SOL     OW26371   2.238   1.067   2.657
 8491SOL    HW126372   2.260   1.104   2.747
 8491SOL    HW226373   2.250   0.967   2.659
 8492SOL     OW26374   5.560   3.332   4.811
 8492SOL    HW126375   5.482   3.301   4.865
 8492SOL    HW226376   5.620   3.388   4.868
 8493SOL     OW26377   3.985   2.101   0.987
 8493SOL    HW126378   3.922   2.104   0.909
 8493SOL    HW226379   3.962   2.024   1.046
 8494SOL     OW26380   3.749   5.718   0.000
 8494SOL    HW126381   3.806   5.769   6.959
 8494SOL    HW226382   3.653   5.727   6.999
 8495SOL     OW26383   0.092   2.397   0.939
 8495SOL    HW126384   0.061   2.451   0.862
 8495SOL    HW226385   0.180   2.432   0.971
 8496SOL     OW26386   6.969   2.853   3.041
 8496SOL    HW126387   6.966   2.803   3.127
 8496SOL    HW226388   7.001   2.792   2.968
 8497SOL     OW26389   6.473   5.610   3.290
 8497SOL    HW126390   6.391   5.555   3.306
 8497SOL    HW226391   6.470   5.692   3.348
 8498SOL     OW26392   0.293   0.487   0.607
 8498SOL    HW126393   0.342   0.440   0.680
 8498SOL    HW226394   0.303   0.586   0.618
 8499SOL     OW26395   3.803   4.044   6.481
 8499SOL    HW126396   3.772   3.949   6.472
 8499SOL    HW226397   3.732   4.098   6.525
 8500SOL     OW26398   3.123   0.772   5.997
 8500SOL    HW126399   3.043   0.779   6.056
 8500SOL    HW226400   3.121   0.845   5.929
 8501SOL     OW26401   1.852   4.019   6.580
 8501SOL    HW126402   1.854   4.049   6.675
 8501SOL    HW226403   1.934   3.965   6.561
 8502SOL     OW26404   7.010   0.629   2.315
 8502SOL    HW126405   0.054   0.660   2.381
 8502SOL    HW226406   6.920   0.663   2.341
 8503SOL     OW26407   2.667   5.756   2.933
 8503SOL    HW126408   2.672   5.744   3.032
 8503SOL    HW226409   2.632   5.672   2.891
 8504SOL     OW26410   1.405   6.056   3.756
 8504SOL    HW126411   1.497   6.052   3.716
 8504SOL    HW226412   1.338   6.027   3.687
 8505SOL     OW26413   4.915   3.075   3.645
 8505SOL    HW126414   4.874   3.086   3.554
 8505SOL    HW226415   5.003   3.028   3.637
 8506SOL     OW26416   1.364   6.682   0.132
 8506SOL    HW126417   1.438   6.658   0.196
 8506SOL    HW226418   1.286   6.716   0.183
 8507SOL     OW26419   1.394   0.668   5.058
 8507SOL    HW126420   1.435   0.723   5.131
 8507SOL    HW226421   1.463   0.606   5.021
 8508SOL     OW26422   1.199   2.526   6.547
 8508SOL    HW126423   1.284   2.559   6.507
 8508SOL    HW226424   1.220   2.474   6.630
 8509SOL     OW26425   6.295   1.926   4.517
 8509SOL    HW126426   6.281   1.843   4.570
 8509SOL    HW226427   6.224   1.934   4.447
 8510SOL     OW26428   5.388   0.067   2.471
 8510SOL    HW126429   5.486   0.082   2.485
 8510SOL    HW226430   5.336   0.146   2.504
 8511SOL     OW26431   6.570   4.697   1.778
 8511SOL    HW126432   6.581   4.691   1.877
 8511SOL    HW226433   6.660   4.701   1.734
 8512SOL     OW26434   4.617   1.838   0.212
 8512SOL    HW126435   4.713   1.838   0.241
 8512SOL    HW226436   4.611   1.866   0.117
 8513SOL     OW26437   6.848   4.027   1.051
 8513SOL    HW126438   6.816   3.961   0.983
 8513SOL    HW226439   6.836   4.120   1.017
 8514SOL     OW26440   2.481   2.544   5.721
 8514SOL    HW126441   2.390   2.555   5.760
 8514SOL    HW226442   2.528   2.468   5.767
 8515SOL     OW26443   1.157   0.405   0.979
 8515SOL    HW126444   1.185   0.360   0.894
 8515SOL    HW226445   1.066   0.445   0.968
 8516SOL     OW26446   5.645   2.155   3.443
 8516SOL    HW126447   5.709   2.083   3.468
 8516SOL    HW226448   5.646   2.227   3.513
 8517SOL     OW26449   1.901   2.274   5.228
 8517SOL    HW126450   1.879   2.324   5.312
 8517SOL    HW226451   1.949   2.335   5.165
 8518SOL     OW26452   5.494   5.114   0.077
 8518SOL    HW126453   5.577   5.167   0.088
 8518SOL    HW226454   5.415   5.170   0.100
 8519SOL     OW26455   1.518   3.618   0.804
 8519SOL    HW126456   1.530   3.674   0.886
 8519SOL    HW226457   1.603   3.567   0.787
 8520SOL     OW26458   4.073   3.656   5.962
 8520SOL    HW126459   4.016   3.575   5.948
 8520SOL    HW226460   4.018   3.728   6.003
 8521SOL     OW26461   2.222   6.300   5.793
 8521SOL    HW126462   2.267   6.231   5.736
 8521SOL    HW226463   2.176   6.366   5.734
 8522SOL     OW26464   1.475   6.437   0.486
 8522SOL    HW126465   1.519   6.490   0.414
 8522SOL    HW226466   1.378   6.426   0.465
 8523SOL     OW26467   2.673   0.902   0.121
 8523SOL    HW126468   2.763   0.929   0.154
 8523SOL    HW226469   2.644   0.964   0.048
 8524SOL     OW26470   2.148   5.625   4.916
 8524SOL    HW126471   2.101   5.567   4.849
 8524SOL    HW226472   2.243   5.637   4.888
 8525SOL     OW26473   6.752   4.794   1.313
 8525SOL    HW126474   6.828   4.856   1.334
 8525SOL    HW226475   6.665   4.841   1.325
 8526SOL     OW26476   1.715   5.983   0.608
 8526SOL    HW126477   1.650   6.058   0.618
 8526SOL    HW226478   1.803   6.009   0.648
 8527SOL     OW26479   3.392   0.971   5.638
 8527SOL    HW126480   3.370   0.980   5.540
 8527SOL    HW226481   3.435   0.882   5.654
 8528SOL     OW26482   4.717   2.134   0.467
 8528SOL    HW126483   4.634   2.082   0.488
 8528SOL    HW226484   4.752   2.108   0.377
 8529SOL     OW26485   1.263   6.296   6.579
 8529SOL    HW126486   1.191   6.253   6.634
 8529SOL    HW226487   1.274   6.392   6.606
 8530SOL     OW26488   3.149   4.076   4.460
 8530SOL    HW126489   3.193   4.145   4.516
 8530SOL    HW226490   3.087   4.021   4.516
 8531SOL     OW26491   6.916   5.644   3.596
 8531SOL    HW126492   6.843   5.637   3.665
 8531SOL    HW226493   6.888   5.710   3.526
 8532SOL     OW26494   2.548   5.553   4.601
 8532SOL    HW126495   2.577   5.574   4.694
 8532SOL    HW226496   2.559   5.634   4.543
 8533SOL     OW26497   2.019   6.014   5.228
 8533SOL    HW126498   2.064   5.924   5.233
 8533SOL    HW226499   2.087   6.083   5.201
 8534SOL     OW26500   3.088   2.196   4.068
 8534SOL    HW126501   3.054   2.237   3.984
 8534SOL    HW226502   3.171   2.144   4.048
 8535SOL     OW26503   6.304   0.529   2.982
 8535SOL    HW126504   6.260   0.596   3.041
 8535SOL    HW226505   6.308   0.565   2.888
 8536SOL     OW26506   0.196   0.989   4.351
 8536SOL    HW126507   0.279   0.985   4.296
 8536SOL    HW226508   0.186   1.081   4.390
 8537SOL     OW26509   6.918   1.135   2.920
 8537SOL    HW126510   7.014   1.162   2.908
 8537SOL    HW226511   6.861   1.184   2.855
 8538SOL     OW26512   1.661   2.473   6.935
 8538SOL    HW126513   1.635   2.474   0.007
 8538SOL    HW226514   1.596   2.527   6.882
 8539SOL     OW26515   6.185   2.603   2.797
 8539SOL    HW126516   6.149   2.594   2.704
 8539SOL    HW226517   6.111   2.588   2.863
 8540SOL     OW26518   4.078   7.017   0.589
 8540SOL    HW126519   4.093   0.008   0.492
 8540SOL    HW226520   4.158   0.022   0.641
 8541SOL     OW26521   1.855   2.540   4.270
 8541SOL    HW126522   1.859   2.625   4.322
 8541SOL    HW226523   1.909   2.549   4.187
 8542SOL     OW26524   3.846   4.398   0.311
 8542SOL    HW126525   3.813   4.314   0.353
 8542SOL    HW226526   3.933   4.425   0.353
 8543SOL     OW26527   2.185   2.569   6.495
 8543SOL    HW126528   2.237   2.509   6.556
 8543SOL    HW226529   2.177   2.526   6.405
 8544SOL     OW26530   6.463   2.779   3.373
 8544SOL    HW126531   6.561   2.792   3.382
 8544SOL    HW226532   6.434   2.701   3.428
 8545SOL     OW26533   5.058   6.574   4.779
 8545SOL    HW126534   5.155   6.566   4.753
 8545SOL    HW226535   5.052   6.612   4.871
 8546SOL     OW26536   4.184   1.922   5.250
 8546SOL    HW126537   4.189   1.899   5.153
 8546SOL    HW226538   4.090   1.947   5.274
 8547SOL     OW26539   0.861   4.211   3.253
 8547SOL    HW126540   0.861   4.132   3.191
 8547SOL    HW226541   0.921   4.192   3.331
 8548SOL     OW26542   5.841   1.637   5.775
 8548SOL    HW126543   5.887   1.555   5.809
 8548SOL    HW226544   5.788   1.679   5.850
 8549SOL     OW26545   5.933   3.589   4.632
 8549SOL    HW126546   5.917   3.670   4.576
 8549SOL    HW226547   5.986   3.614   4.713
 8550SOL     OW26548   0.728   4.132   6.323
 8550SOL    HW126549   0.756   4.087   6.408
 8550SOL    HW226550   0.782   4.096   6.247
 8551SOL     OW26551   3.575   4.023   0.372
 8551SOL    HW126552   3.509   3.952   0.395
 8551SOL    HW226553   3.529   4.095   0.319
 8552SOL     OW26554   2.662   6.747   4.016
 8552SOL    HW126555   2.736   6.689   3.982
 8552SOL    HW226556   2.579   6.693   4.027
 8553SOL     OW26557   5.815   6.587   0.492
 8553SOL    HW126558   5.810   6.652   0.568
 8553SOL    HW226559   5.908   6.584   0.457
 8554SOL     OW26560   5.973   3.792   6.958
 8554SOL    HW126561   5.925   3.833   6.881
 8554SOL    HW226562   5.951   3.694   6.963
 8555SOL     OW26563   1.369   6.852   3.893
 8555SOL    HW126564   1.276   6.890   3.894
 8555SOL    HW226565   1.370   6.764   3.941
 8556SOL     OW26566   6.246   0.438   3.661
 8556SOL    HW126567   6.192   0.465   3.581
 8556SOL    HW226568   6.342   0.464   3.647
 8557SOL     OW26569   0.169   0.516   1.311
 8557SOL    HW126570   0.160   0.600   1.257
 8557SOL    HW226571   0.114   0.444   1.270
 8558SOL     OW26572   1.387   5.066   1.884
 8558SOL    HW126573   1.472   5.097   1.841
 8558SOL    HW226574   1.332   5.145   1.910
 8559SOL     OW26575   1.107   0.523   6.816
 8559SOL    HW126576   1.140   0.588   6.885
 8559SOL    HW226577   1.172   0.519   6.741
 8560SOL     OW26578   6.029   2.016   0.121
 8560SOL    HW126579   5.933   2.027   0.091
 8560SOL    HW226580   6.048   2.080   0.196
 8561SOL     OW26581   4.687   6.615   4.209
 8561SOL    HW126582   4.636   6.686   4.257
 8561SOL    HW226583   4.666   6.526   4.249
 8562SOL     OW26584   3.686   6.916   4.509
 8562SOL    HW126585   3.602   6.933   4.560
 8562SOL    HW226586   3.673   6.942   4.413
 8563SOL     OW26587   2.591   2.936   5.845
 8563SOL    HW126588   2.506   2.930   5.792
 8563SOL    HW226589   2.659   2.986   5.792
 8564SOL     OW26590   0.712   0.398   4.116
 8564SOL    HW126591   0.726   0.443   4.027
 8564SOL    HW226592   0.664   0.312   4.102
 8565SOL     OW26593   3.998   6.925   1.817
 8565SOL    HW126594   4.007   6.920   1.916
 8565SOL    HW226595   4.036   6.842   1.776
 8566SOL     OW26596   2.219   3.004   3.623
 8566SOL    HW126597   2.186   3.098   3.623
 8566SOL    HW226598   2.211   2.966   3.715
 8567SOL     OW26599   5.077   0.220   0.871
 8567SOL    HW126600   5.058   0.217   0.773
 8567SOL    HW226601   5.046   0.135   0.914
 8568SOL     OW26602   5.261   1.196   0.452
 8568SOL    HW126603   5.180   1.148   0.418
 8568SOL    HW226604   5.253   1.208   0.551
 8569SOL     OW26605   4.253   1.674   4.491
 8569SOL    HW126606   4.177   1.612   4.470
 8569SOL    HW226607   4.222   1.769   4.478
 8570SOL     OW26608   0.275   3.967   0.064
 8570SOL    HW126609   0.176   3.977   0.072
 8570SOL    HW226610   0.315   3.952   0.154
 8571SOL     OW26611   6.879   4.335   5.452
 8571SOL    HW126612   6.788   4.376   5.459
 8571SOL    HW226613   6.948   4.403   5.474
 8572SOL     OW26614   2.848   4.836   5.415
 8572SOL    HW126615   2.907   4.755   5.415
 8572SOL    HW226616   2.789   4.834   5.495
 8573SOL     OW26617   3.774   5.797   5.202
 8573SOL    HW126618   3.732   5.724   5.149
 8573SOL    HW226619   3.753   5.886   5.160
 8574SOL     OW26620   0.380   3.912   5.054
 8574SOL    HW126621   0.316   3.954   5.118
 8574SOL    HW226622   0.453   3.866   5.105
 8575SOL     OW26623   3.383   3.335   7.021
 8575SOL    HW126624   3.295   3.353   6.977
 8575SOL    HW226625   3.377   3.251   0.050
 8576SOL     OW26626   1.716   6.946   1.598
 8576SOL    HW126627   1.617   6.949   1.586
 8576SOL    HW226628   1.758   7.024   1.551
 8577SOL     OW26629   6.516   5.986   3.281
 8577SOL    HW126630   6.572   5.926   3.223
 8577SOL    HW226631   6.537   5.969   3.377
 8578SOL     OW26632   4.254   6.874   3.460
 8578SOL    HW126633   4.352   6.890   3.447
 8578SOL    HW226634   4.212   6.956   3.499
 8579SOL     OW26635   0.793   5.662   3.302
 8579SOL    HW126636   0.839   5.729   3.360
 8579SOL    HW226637   0.775   5.579   3.355
 8580SOL     OW26638   2.312   4.273   6.675
 8580SOL    HW126639   2.340   4.178   6.682
 8580SOL    HW226640   2.245   4.294   6.746
 8581SOL     OW26641   2.595   2.570   1.009
 8581SOL    HW126642   2.534   2.590   0.933
 8581SOL    HW226643   2.544   2.526   1.083
 8582SOL     OW26644   4.335   4.081   1.134
 8582SOL    HW126645   4.324   3.983   1.119
 8582SOL    HW226646   4.384   4.097   1.219
 8583SOL     OW26647   6.313   0.173   6.510
 8583SOL    HW126648   6.297   0.271   6.525
 8583SOL    HW226649   6.226   0.128   6.492
 8584SOL     OW26650   6.712   5.328   7.003
 8584SOL    HW126651   6.735   5.346   6.908
 8584SOL    HW226652   6.613   5.337   7.016
 8585SOL     OW26653   0.454   1.504   0.320
 8585SOL    HW126654   0.382   1.505   0.389
 8585SOL    HW226655   0.427   1.560   0.241
 8586SOL     OW26656   4.140   5.667   3.833
 8586SOL    HW126657   4.151   5.727   3.753
 8586SOL    HW226658   4.228   5.623   3.853
 8587SOL     OW26659   6.996   1.470   1.256
 8587SOL    HW126660   6.944   1.390   1.226
 8587SOL    HW226661   6.972   1.549   1.200
 8588SOL     OW26662   4.762   2.277   0.183
 8588SOL    HW126663   4.718   2.362   0.208
 8588SOL    HW226664   4.707   2.229   0.114
 8589SOL     OW26665   3.137   1.941   4.691
 8589SOL    HW126666   3.057   1.928   4.749
 8589SOL    HW226667   3.213   1.974   4.746
 8590SOL     OW26668   6.195   4.687   5.381
 8590SOL    HW126669   6.138   4.675   5.462
 8590SOL    HW226670   6.280   4.732   5.406
 8591SOL     OW26671   0.997   3.308   6.755
 8591SOL    HW126672   1.072   3.259   6.710
 8591SOL    HW226673   0.912   3.256   6.742
 8592SOL     OW26674   6.121   5.416   6.719
 8592SOL    HW126675   6.142   5.319   6.728
 8592SOL    HW226676   6.072   5.448   6.801
 8593SOL     OW26677   1.033   0.273   2.433
 8593SOL    HW126678   1.123   0.228   2.438
 8593SOL    HW226679   1.041   0.365   2.469
 8594SOL     OW26680   3.767   3.514   4.384
 8594SOL    HW126681   3.748   3.595   4.329
 8594SOL    HW226682   3.745   3.432   4.332
 8595SOL     OW26683   1.657   1.942   1.907
 8595SOL    HW126684   1.659   2.018   1.841
 8595SOL    HW226685   1.703   1.970   1.991
 8596SOL     OW26686   6.400   4.688   2.585
 8596SOL    HW126687   6.334   4.670   2.658
 8596SOL    HW226688   6.354   4.733   2.508
 8597SOL     OW26689   1.407   1.342   1.005
 8597SOL    HW126690   1.358   1.314   1.087
 8597SOL    HW226691   1.441   1.261   0.957
 8598SOL     OW26692   5.242   4.630   0.287
 8598SOL    HW126693   5.321   4.667   0.239
 8598SOL    HW226694   5.268   4.549   0.338
 8599SOL     OW26695   1.488   3.404   2.495
 8599SOL    HW126696   1.409   3.460   2.470
 8599SOL    HW226697   1.561   3.418   2.428
 8600SOL     OW26698   6.305   4.242   6.450
 8600SOL    HW126699   6.323   4.166   6.512
 8600SOL    HW226700   6.337   4.219   6.358
 8601SOL     OW26701   6.843   0.068   3.855
 8601SOL    HW126702   6.852   6.995   3.834
 8601SOL    HW226703   6.774   0.109   3.794
 8602SOL     OW26704   3.141   6.633   2.329
 8602SOL    HW126705   3.221   6.621   2.270
 8602SOL    HW226706   3.077   6.696   2.286
 8603SOL     OW26707   4.327   3.394   1.004
 8603SOL    HW126708   4.296   3.307   0.968
 8603SOL    HW226709   4.415   3.418   0.963
 8604SOL     OW26710   5.199   2.540   2.438
 8604SOL    HW126711   5.198   2.478   2.516
 8604SOL    HW226712   5.164   2.492   2.357
 8605SOL     OW26713   2.781   6.644   1.834
 8605SOL    HW126714   2.760   6.567   1.775
 8605SOL    HW226715   2.709   6.713   1.827
 8606SOL     OW26716   4.025   4.939   5.622
 8606SOL    HW126717   3.981   4.869   5.566
 8606SOL    HW226718   4.068   5.008   5.563
 8607SOL     OW26719   4.381   5.748   1.875
 8607SOL    HW126720   4.301   5.769   1.820
 8607SOL    HW226721   4.353   5.705   1.960
 8608SOL     OW26722   4.622   6.243   2.431
 8608SOL    HW126723   4.594   6.199   2.345
 8608SOL    HW226724   4.589   6.337   2.433
 8609SOL     OW26725   3.695   0.696   5.216
 8609SOL    HW126726   3.732   0.622   5.272
 8609SOL    HW226727   3.710   0.784   5.261
 8610SOL     OW26728   6.793   6.750   4.237
 8610SOL    HW126729   6.836   6.766   4.148
 8610SOL    HW226730   6.847   6.684   4.289
 8611SOL     OW26731   1.761   1.955   3.223
 8611SOL    HW126732   1.716   1.987   3.139
 8611SOL    HW226733   1.835   1.893   3.198
 8612SOL     OW26734   4.228   2.977   5.434
 8612SOL    HW126735   4.283   2.908   5.386
 8612SOL    HW226736   4.212   3.054   5.373
 8613SOL     OW26737   1.591   1.264   0.148
 8613SOL    HW126738   1.509   1.320   0.134
 8613SOL    HW226739   1.626   1.279   0.241
 8614SOL     OW26740   1.062   1.848   3.338
 8614SOL    HW126741   1.054   1.891   3.248
 8614SOL    HW226742   1.157   1.852   3.368
 8615SOL     OW26743   4.344   2.756   5.330
 8615SOL    HW126744   4.423   2.696   5.341
 8615SOL    HW226745   4.273   2.709   5.276
 8616SOL     OW26746   1.578   3.507   6.860
 8616SOL    HW126747   1.664   3.534   6.817
 8616SOL    HW226748   1.536   3.587   6.903
 8617SOL     OW26749   5.815   2.799   1.156
 8617SOL    HW126750   5.756   2.853   1.217
 8617SOL    HW226751   5.883   2.860   1.114
 8618SOL     OW26752   4.519   0.837   4.116
 8618SOL    HW126753   4.580   0.794   4.049
 8618SOL    HW226754   4.526   0.789   4.203
 8619SOL     OW26755   4.785   5.701   0.814
 8619SOL    HW126756   4.728   5.623   0.788
 8619SOL    HW226757   4.727   5.780   0.833
 8620SOL     OW26758   6.206   6.494   3.003
 8620SOL    HW126759   6.183   6.455   3.092
 8620SOL    HW226760   6.198   6.594   3.007
 8621SOL     OW26761   6.001   0.806   3.171
 8621SOL    HW126762   5.990   0.848   3.261
 8621SOL    HW226763   6.004   0.878   3.101
 8622SOL     OW26764   5.260   5.253   0.151
 8622SOL    HW126765   5.164   5.283   0.155
 8622SOL    HW226766   5.274   5.179   0.217
 8623SOL     OW26767   6.488   3.521   2.457
 8623SOL    HW126768   6.395   3.490   2.474
 8623SOL    HW226769   6.486   3.605   2.403
 8624SOL     OW26770   0.756   5.433   3.823
 8624SOL    HW126771   0.769   5.349   3.769
 8624SOL    HW226772   0.659   5.457   3.824
 8625SOL     OW26773   3.491   0.628   5.031
 8625SOL    HW126774   3.527   0.557   4.971
 8625SOL    HW226775   3.561   0.653   5.098
 8626SOL     OW26776   3.092   3.833   3.156
 8626SOL    HW126777   3.157   3.757   3.157
 8626SOL    HW226778   3.053   3.846   3.247
 8627SOL     OW26779   1.992   0.372   6.695
 8627SOL    HW126780   2.035   0.371   6.605
 8627SOL    HW226781   2.061   0.357   6.765
 8628SOL     OW26782   5.714   1.499   0.387
 8628SOL    HW126783   5.787   1.526   0.450
 8628SOL    HW226784   5.627   1.496   0.436
 8629SOL     OW26785   1.248   4.614   3.957
 8629SOL    HW126786   1.168   4.668   3.933
 8629SOL    HW226787   1.322   4.674   3.985
 8630SOL     OW26788   5.361   4.210   4.058
 8630SOL    HW126789   5.401   4.150   4.126
 8630SOL    HW226790   5.311   4.155   3.990
 8631SOL     OW26791   3.653   6.280   4.512
 8631SOL    HW126792   3.570   6.228   4.532
 8631SOL    HW226793   3.676   6.338   4.590
 8632SOL     OW26794   4.596   0.522   3.658
 8632SOL    HW126795   4.624   0.486   3.569
 8632SOL    HW226796   4.510   0.572   3.648
 8633SOL     OW26797   6.087   1.043   4.169
 8633SOL    HW126798   6.067   1.140   4.156
 8633SOL    HW226799   6.040   0.990   4.099
 8634SOL     OW26800   6.643   5.151   2.074
 8634SOL    HW126801   6.629   5.058   2.038
 8634SOL    HW226802   6.629   5.151   2.173
 8635SOL     OW26803   6.283   4.013   4.872
 8635SOL    HW126804   6.293   3.971   4.782
 8635SOL    HW226805   6.316   3.950   4.942
 8636SOL     OW26806   5.965   5.740   0.554
 8636SOL    HW126807   5.886   5.799   0.574
 8636SOL    HW226808   5.969   5.666   0.622
 8637SOL     OW26809   2.358   0.626   1.361
 8637SOL    HW126810   2.285   0.691   1.382
 8637SOL    HW226811   2.350   0.596   1.266
 8638SOL     OW26812   3.873   5.034   0.558
 8638SOL    HW126813   3.781   4.994   0.558
 8638SOL    HW226814   3.916   5.018   0.647
 8639SOL     OW26815   6.752   3.141   2.751
 8639SOL    HW126816   6.812   3.086   2.810
 8639SOL    HW226817   6.657   3.123   2.774
 8640SOL     OW26818   5.068   5.959   1.019
 8640SOL    HW126819   5.135   5.912   0.962
 8640SOL    HW226820   5.034   6.040   0.971
 8641SOL     OW26821   5.601   4.652   3.277
 8641SOL    HW126822   5.629   4.582   3.212
 8641SOL    HW226823   5.657   4.645   3.360
 8642SOL     OW26824   4.698   1.485   1.614
 8642SOL    HW126825   4.613   1.515   1.569
 8642SOL    HW226826   4.759   1.445   1.546
 8643SOL     OW26827   4.562   0.828   6.026
 8643SOL    HW126828   4.464   0.810   6.027
 8643SOL    HW226829   4.581   0.905   5.965
 8644SOL     OW26830   6.256   3.425   5.170
 8644SOL    HW126831   6.323   3.405   5.242
 8644SOL    HW226832   6.263   3.521   5.144
 8645SOL     OW26833   6.107   4.805   1.609
 8645SOL    HW126834   6.203   4.833   1.621
 8645SOL    HW226835   6.071   4.845   1.525
 8646SOL     OW26836   5.199   0.844   0.772
 8646SOL    HW126837   5.256   0.925   0.781
 8646SOL    HW226838   5.250   0.772   0.726
 8647SOL     OW26839   4.428   4.756   1.247
 8647SOL    HW126840   4.519   4.719   1.228
 8647SOL    HW226841   4.436   4.842   1.296
 8648SOL     OW26842   5.485   1.922   4.532
 8648SOL    HW126843   5.544   1.852   4.494
 8648SOL    HW226844   5.493   1.922   4.632
 8649SOL     OW26845   6.912   4.629   5.645
 8649SOL    HW126846   7.003   4.647   5.609
 8649SOL    HW226847   6.909   4.537   5.684
 8650SOL     OW26848   1.626   4.743   2.282
 8650SOL    HW126849   1.611   4.813   2.212
 8650SOL    HW226850   1.721   4.713   2.280
 8651SOL     OW26851   3.188   1.487   1.071
 8651SOL    HW126852   3.280   1.461   1.041
 8651SOL    HW226853   3.155   1.562   1.013
 8652SOL     OW26854   1.459   3.369   3.870
 8652SOL    HW126855   1.448   3.468   3.884
 8652SOL    HW226856   1.373   3.330   3.837
 8653SOL     OW26857   6.758   3.369   6.946
 8653SOL    HW126858   6.750   3.396   6.850
 8653SOL    HW226859   6.777   3.271   6.952
 8654SOL     OW26860   0.553   0.155   2.726
 8654SOL    HW126861   0.632   0.114   2.680
 8654SOL    HW226862   0.584   0.213   2.802
 8655SOL     OW26863   5.823   5.970   4.221
 8655SOL    HW126864   5.913   5.926   4.217
 8655SOL    HW226865   5.834   6.062   4.260
 8656SOL     OW26866   6.002   2.183   1.386
 8656SOL    HW126867   6.050   2.095   1.393
 8656SOL    HW226868   5.928   2.175   1.319
 8657SOL     OW26869   3.462   4.143   6.955
 8657SOL    HW126870   3.478   4.052   6.917
 8657SOL    HW226871   3.503   4.148   0.022
 8658SOL     OW26872   6.818   5.112   0.449
 8658SOL    HW126873   6.857   5.025   0.419
 8658SOL    HW226874   6.805   5.172   0.370
 8659SOL     OW26875   5.332   0.205   4.410
 8659SOL    HW126876   5.248   0.156   4.388
 8659SOL    HW226877   5.343   0.211   4.509
 8660SOL     OW26878   5.672   4.796   1.309
 8660SOL    HW126879   5.600   4.838   1.365
 8660SOL    HW226880   5.632   4.724   1.253
 8661SOL     OW26881   6.599   3.477   1.563
 8661SOL    HW126882   6.581   3.489   1.661
 8661SOL    HW226883   6.670   3.541   1.534
 8662SOL     OW26884   0.228   0.025   0.860
 8662SOL    HW126885   0.303   0.085   0.832
 8662SOL    HW226886   0.212   6.980   0.789
 8663SOL     OW26887   2.525   5.537   0.376
 8663SOL    HW126888   2.484   5.625   0.353
 8663SOL    HW226889   2.482   5.501   0.459
 8664SOL     OW26890   4.327   5.502   0.813
 8664SOL    HW126891   4.425   5.480   0.815
 8664SOL    HW226892   4.283   5.449   0.740
 8665SOL     OW26893   5.289   5.086   5.369
 8665SOL    HW126894   5.339   5.069   5.454
 8665SOL    HW226895   5.350   5.128   5.302
 8666SOL     OW26896   5.123   3.167   4.716
 8666SOL    HW126897   5.169   3.209   4.637
 8666SOL    HW226898   5.170   3.195   4.800
 8667SOL     OW26899   4.551   1.811   3.697
 8667SOL    HW126900   4.476   1.798   3.761
 8667SOL    HW226901   4.562   1.728   3.641
 8668SOL     OW26902   4.128   1.957   4.192
 8668SOL    HW126903   4.142   1.999   4.282
 8668SOL    HW226904   4.061   1.883   4.199
 8669SOL     OW26905   4.127   0.651   6.006
 8669SOL    HW126906   4.175   0.563   6.012
 8669SOL    HW226907   4.077   0.667   6.091
 8670SOL     OW26908   3.610   5.095   4.196
 8670SOL    HW126909   3.514   5.076   4.174
 8670SOL    HW226910   3.649   5.155   4.127
 8671SOL     OW26911   5.535   6.719   3.063
 8671SOL    HW126912   5.486   6.742   3.147
 8671SOL    HW226913   5.534   6.620   3.050
 8672SOL     OW26914   3.357   5.107   4.705
 8672SOL    HW126915   3.291   5.061   4.764
 8672SOL    HW226916   3.391   5.044   4.636
 8673SOL     OW26917   5.836   2.015   0.841
 8673SOL    HW126918   5.815   2.082   0.912
 8673SOL    HW226919   5.790   1.929   0.862
 8674SOL     OW26920   0.731   6.877   2.626
 8674SOL    HW126921   0.768   6.946   2.688
 8674SOL    HW226922   0.657   6.917   2.572
 8675SOL     OW26923   2.063   1.192   2.509
 8675SOL    HW126924   1.994   1.206   2.580
 8675SOL    HW226925   2.146   1.155   2.551
 8676SOL     OW26926   4.500   0.615   3.111
 8676SOL    HW126927   4.463   0.553   3.042
 8676SOL    HW226928   4.541   0.694   3.065
 8677SOL     OW26929   2.569   4.177   5.900
 8677SOL    HW126930   2.630   4.141   5.830
 8677SOL    HW226931   2.599   4.269   5.926
 8678SOL     OW26932   1.421   7.012   6.249
 8678SOL    HW126933   1.410   0.078   6.290
 8678SOL    HW226934   1.515   6.980   6.262
 8679SOL     OW26935   6.956   2.214   4.608
 8679SOL    HW126936   6.897   2.185   4.684
 8679SOL    HW226937   0.017   2.252   4.644
 8680SOL     OW26938   1.388   3.077   0.228
 8680SOL    HW126939   1.373   3.171   0.259
 8680SOL    HW226940   1.301   3.037   0.198
 8681SOL     OW26941   3.402   4.121   0.706
 8681SOL    HW126942   3.439   4.133   0.798
 8681SOL    HW226943   3.428   4.031   0.671
 8682SOL     OW26944   1.961   6.015   2.772
 8682SOL    HW126945   1.914   6.036   2.686
 8682SOL    HW226946   1.946   6.089   2.837
 8683SOL     OW26947   6.528   3.201   0.159
 8683SOL    HW126948   6.563   3.213   0.252
 8683SOL    HW226949   6.449   3.260   0.145
 8684SOL     OW26950   6.241   2.760   4.081
 8684SOL    HW126951   6.334   2.725   4.071
 8684SOL    HW226952   6.236   2.816   4.164
 8685SOL     OW26953   1.259   2.379   5.401
 8685SOL    HW126954   1.327   2.349   5.468
 8685SOL    HW226955   1.235   2.475   5.419
 8686SOL     OW26956   6.709   2.631   3.694
 8686SOL    HW126957   6.712   2.602   3.790
 8686SOL    HW226958   6.624   2.597   3.652
 8687SOL     OW26959   3.818   7.023   3.628
 8687SOL    HW126960   3.815   0.098   3.615
 8687SOL    HW226961   3.909   6.996   3.659
 8688SOL     OW26962   2.259   0.559   2.160
 8688SOL    HW126963   2.273   0.627   2.232
 8688SOL    HW226964   2.338   0.559   2.098
 8689SOL     OW26965   4.584   5.874   0.931
 8689SOL    HW126966   4.604   5.906   0.838
 8689SOL    HW226967   4.494   5.908   0.959
 8690SOL     OW26968   0.148   1.401   2.376
 8690SOL    HW126969   0.092   1.319   2.389
 8690SOL    HW226970   0.089   1.481   2.368
 8691SOL     OW26971   5.237   2.016   0.558
 8691SOL    HW126972   5.294   2.079   0.506
 8691SOL    HW226973   5.223   2.051   0.651
 8692SOL     OW26974   2.008   1.561   4.077
 8692SOL    HW126975   2.049   1.572   4.167
 8692SOL    HW226976   1.956   1.643   4.054
 8693SOL     OW26977   5.211   2.145   0.807
 8693SOL    HW126978   5.193   2.083   0.884
 8693SOL    HW226979   5.175   2.236   0.830
 8694SOL     OW26980   4.785   6.901   5.743
 8694SOL    HW126981   4.781   6.902   5.643
 8694SOL    HW226982   4.851   6.833   5.774
 8695SOL     OW26983   4.412   4.359   5.843
 8695SOL    HW126984   4.459   4.307   5.771
 8695SOL    HW226985   4.399   4.453   5.812
 8696SOL     OW26986   2.372   5.292   1.591
 8696SOL    HW126987   2.345   5.197   1.610
 8696SOL    HW226988   2.314   5.353   1.645
 8697SOL     OW26989   6.137   4.708   1.010
 8697SOL    HW126990   6.181   4.795   1.033
 8697SOL    HW226991   6.146   4.644   1.086
 8698SOL     OW26992   5.153   5.787   4.453
 8698SOL    HW126993   5.102   5.722   4.510
 8698SOL    HW226994   5.251   5.772   4.465
 8699SOL     OW26995   1.086   1.736   5.004
 8699SOL    HW126996   0.997   1.776   5.023
 8699SOL    HW226997   1.158   1.796   5.041
 8700SOL     OW26998   3.124   1.376   5.756
 8700SOL    HW126999   3.065   1.394   5.677
 8700SOL    HW227000   3.068   1.373   5.839
 8701SOL     OW27001   0.827   1.845   5.026
 8701SOL    HW127002   0.814   1.915   5.096
 8701SOL    HW227003   0.781   1.873   4.942
 8702SOL     OW27004   4.777   6.184   0.140
 8702SOL    HW127005   4.774   6.126   0.059
 8702SOL    HW227006   4.835   6.263   0.123
 8703SOL     OW27007   2.590   5.520   0.815
 8703SOL    HW127008   2.528   5.598   0.808
 8703SOL    HW227009   2.645   5.529   0.898
 8704SOL     OW27010   0.211   4.008   1.585
 8704SOL    HW127011   0.287   4.066   1.614
 8704SOL    HW227012   0.150   4.060   1.525
 8705SOL     OW27013   4.854   0.153   5.714
 8705SOL    HW127014   4.828   0.067   5.758
 8705SOL    HW227015   4.778   0.218   5.719
 8706SOL     OW27016   5.440   1.823   0.635
 8706SOL    HW127017   5.521   1.881   0.624
 8706SOL    HW227018   5.359   1.875   0.608
 8707SOL     OW27019   5.217   2.720   5.977
 8707SOL    HW127020   5.150   2.655   6.012
 8707SOL    HW227021   5.229   2.706   5.879
 8708SOL     OW27022   3.952   1.187   1.513
 8708SOL    HW127023   3.994   1.160   1.427
 8708SOL    HW227024   3.910   1.277   1.502
 8709SOL     OW27025   7.005   4.312   0.798
 8709SOL    HW127026   6.991   4.213   0.794
 8709SOL    HW227027   0.020   4.344   0.712
 8710SOL     OW27028   1.696   3.484   3.481
 8710SOL    HW127029   1.737   3.456   3.394
 8710SOL    HW227030   1.620   3.423   3.502
 8711SOL     OW27031   0.120   0.971   3.690
 8711SOL    HW127032   0.063   0.986   3.770
 8711SOL    HW227033   0.161   0.879   3.695
 8712SOL     OW27034   3.233   2.067   5.693
 8712SOL    HW127035   3.183   2.078   5.607
 8712SOL    HW227036   3.293   1.987   5.686
 8713SOL     OW27037   0.253   4.674   3.641
 8713SOL    HW127038   0.266   4.575   3.645
 8713SOL    HW227039   0.325   4.715   3.584
 8714SOL     OW27040   1.375   1.601   4.822
 8714SOL    HW127041   1.422   1.606   4.734
 8714SOL    HW227042   1.428   1.545   4.886
 8715SOL     OW27043   6.372   1.874   1.470
 8715SOL    HW127044   6.385   1.822   1.555
 8715SOL    HW227045   6.389   1.815   1.391
 8716SOL     OW27046   1.250   2.296   1.073
 8716SOL    HW127047   1.289   2.362   1.138
 8716SOL    HW227048   1.264   2.328   0.980
 8717SOL     OW27049   3.684   3.443   1.268
 8717SOL    HW127050   3.681   3.351   1.305
 8717SOL    HW227051   3.711   3.440   1.171
 8718SOL     OW27052   6.041   3.233   5.226
 8718SOL    HW127053   6.114   3.284   5.180
 8718SOL    HW227054   6.049   3.136   5.205
 8719SOL     OW27055   0.084   0.455   6.015
 8719SOL    HW127056   0.082   0.543   6.061
 8719SOL    HW227057   0.179   0.426   6.002
 8720SOL     OW27058   5.005   3.608   6.438
 8720SOL    HW127059   4.931   3.620   6.504
 8720SOL    HW227060   5.048   3.696   6.419
 8721SOL     OW27061   0.102   2.495   3.955
 8721SOL    HW127062   0.201   2.478   3.948
 8721SOL    HW227063   0.081   2.531   4.045
 8722SOL     OW27064   3.739   2.416   0.151
 8722SOL    HW127065   3.742   2.490   0.218
 8722SOL    HW227066   3.671   2.436   0.081
 8723SOL     OW27067   6.848   4.479   1.247
 8723SOL    HW127068   6.751   4.486   1.226
 8723SOL    HW227069   6.859   4.449   1.342
 8724SOL     OW27070   4.996   0.014   6.108
 8724SOL    HW127071   5.017   7.005   6.199
 8724SOL    HW227072   5.080   0.047   6.065
 8725SOL     OW27073   2.884   5.677   0.457
 8725SOL    HW127074   2.962   5.734   0.483
 8725SOL    HW227075   2.890   5.655   0.359
 8726SOL     OW27076   5.724   0.263   1.204
 8726SOL    HW127077   5.629   0.249   1.176
 8726SOL    HW227078   5.752   0.355   1.178
 8727SOL     OW27079   6.518   6.084   1.157
 8727SOL    HW127080   6.591   6.026   1.121
 8727SOL    HW227081   6.538   6.180   1.135
 8728SOL     OW27082   2.761   0.017   5.068
 8728SOL    HW127083   2.851   7.021   5.107
 8728SOL    HW227084   2.698   0.042   5.142
 8729SOL     OW27085   5.463   6.059   4.282
 8729SOL    HW127086   5.528   6.129   4.314
 8729SOL    HW227087   5.372   6.081   4.316
 8730SOL     OW27088   0.296   5.935   1.781
 8730SOL    HW127089   0.233   6.011   1.768
 8730SOL    HW227090   0.389   5.970   1.791
 8731SOL     OW27091   0.483   1.671   2.540
 8731SOL    HW127092   0.536   1.643   2.620
 8731SOL    HW227093   0.545   1.698   2.467
 8732SOL     OW27094   5.571   4.039   1.682
 8732SOL    HW127095   5.473   4.020   1.678
 8732SOL    HW227096   5.585   4.134   1.710
 8733SOL     OW27097   0.882   6.366   1.403
 8733SOL    HW127098   0.820   6.326   1.471
 8733SOL    HW227099   0.866   6.465   1.396
 8734SOL     OW27100   6.577   5.494   1.162
 8734SOL    HW127101   6.649   5.549   1.203
 8734SOL    HW227102   6.549   5.423   1.227
 8735SOL     OW27103   6.810   1.878   6.900
 8735SOL    HW127104   6.897   1.833   6.920
 8735SOL    HW227105   6.826   1.954   6.836
 8736SOL     OW27106   0.335   4.797   6.574
 8736SOL    HW127107   0.283   4.874   6.612
 8736SOL    HW227108   0.356   4.732   6.646
 8737SOL     OW27109   3.969   5.897   6.251
 8737SOL    HW127110   3.982   5.860   6.159
 8737SOL    HW227111   3.999   5.992   6.254
 8738SOL     OW27112   0.923   3.720   4.394
 8738SOL    HW127113   0.917   3.773   4.478
 8738SOL    HW227114   0.855   3.646   4.396
 8739SOL     OW27115   0.380   3.015   5.146
 8739SOL    HW127116   0.302   2.999   5.207
 8739SOL    HW227117   0.348   3.021   5.051
 8740SOL     OW27118   2.087   6.102   1.428
 8740SOL    HW127119   2.098   6.053   1.514
 8740SOL    HW227120   2.061   6.197   1.447
 8741SOL     OW27121   1.291   3.535   2.748
 8741SOL    HW127122   1.387   3.510   2.763
 8741SOL    HW227123   1.282   3.635   2.747
 8742SOL     OW27124   4.739   0.308   1.855
 8742SOL    HW127125   4.646   0.313   1.818
 8742SOL    HW227126   4.793   0.245   1.799
 8743SOL     OW27127   2.428   5.066   2.740
 8743SOL    HW127128   2.384   4.984   2.775
 8743SOL    HW227129   2.526   5.050   2.730
 8744SOL     OW27130   3.352   2.407   6.079
 8744SOL    HW127131   3.353   2.367   5.988
 8744SOL    HW227132   3.443   2.399   6.120
 8745SOL     OW27133   6.459   2.481   6.105
 8745SOL    HW127134   6.526   2.419   6.064
 8745SOL    HW227135   6.506   2.552   6.157
 8746SOL     OW27136   5.246   4.466   5.648
 8746SOL    HW127137   5.146   4.464   5.641
 8746SOL    HW227138   5.286   4.442   5.559
 8747SOL     OW27139   1.817   2.254   4.366
 8747SOL    HW127140   1.898   2.241   4.423
 8747SOL    HW227141   1.825   2.340   4.316
 8748SOL     OW27142   2.161   6.911   6.735
 8748SOL    HW127143   2.209   6.985   6.690
 8748SOL    HW227144   2.122   6.944   6.822
 8749SOL     OW27145   3.876   0.583   3.437
 8749SOL    HW127146   3.853   0.562   3.532
 8749SOL    HW227147   3.974   0.570   3.422
 8750SOL     OW27148   2.262   1.557   5.117
 8750SOL    HW127149   2.239   1.532   5.023
 8750SOL    HW227150   2.187   1.530   5.178
 8751SOL     OW27151   1.827   6.895   3.144
 8751SOL    HW127152   1.849   6.851   3.057
 8751SOL    HW227153   1.729   6.917   3.146
 8752SOL     OW27154   1.639   2.238   6.198
 8752SOL    HW127155   1.655   2.160   6.260
 8752SOL    HW227156   1.596   2.205   6.114
 8753SOL     OW27157   5.235   1.362   4.843
 8753SOL    HW127158   5.310   1.402   4.894
 8753SOL    HW227159   5.193   1.431   4.784
 8754SOL     OW27160   1.562   1.677   5.431
 8754SOL    HW127161   1.545   1.683   5.333
 8754SOL    HW227162   1.602   1.588   5.453
 8755SOL     OW27163   2.055   1.848   1.330
 8755SOL    HW127164   2.096   1.928   1.374
 8755SOL    HW227165   2.112   1.819   1.254
 8756SOL     OW27166   1.903   3.677   4.660
 8756SOL    HW127167   1.906   3.769   4.699
 8756SOL    HW227168   1.816   3.664   4.612
 8757SOL     OW27169   5.105   6.118   5.167
 8757SOL    HW127170   5.043   6.091   5.241
 8757SOL    HW227171   5.089   6.214   5.144
 8758SOL     OW27172   6.036   6.248   1.425
 8758SOL    HW127173   5.980   6.167   1.442
 8758SOL    HW227174   6.117   6.223   1.373
 8759SOL     OW27175   5.300   0.802   5.883
 8759SOL    HW127176   5.230   0.756   5.937
 8759SOL    HW227177   5.272   0.897   5.867
 8760SOL     OW27178   1.692   2.063   4.248
 8760SOL    HW127179   1.712   2.148   4.296
 8760SOL    HW227180   1.778   2.021   4.219
 8761SOL     OW27181   4.437   6.776   7.016
 8761SOL    HW127182   4.464   6.723   0.073
 8761SOL    HW227183   4.462   6.726   6.934
 8762SOL     OW27184   0.901   4.101   0.962
 8762SOL    HW127185   0.817   4.152   0.978
 8762SOL    HW227186   0.951   4.143   0.886
 8763SOL     OW27187   0.387   6.223   6.162
 8763SOL    HW127188   0.386   6.323   6.160
 8763SOL    HW227189   0.322   6.189   6.094
 8764SOL     OW27190   3.907   1.779   5.012
 8764SOL    HW127191   3.913   1.750   5.107
 8764SOL    HW227192   3.852   1.863   5.006
 8765SOL     OW27193   6.695   0.453   4.251
 8765SOL    HW127194   6.791   0.433   4.234
 8765SOL    HW227195   6.687   0.514   4.330
 8766SOL     OW27196   2.314   4.726   2.271
 8766SOL    HW127197   2.391   4.668   2.297
 8766SOL    HW227198   2.288   4.784   2.348
 8767SOL     OW27199   4.234   1.316   3.914
 8767SOL    HW127200   4.334   1.325   3.906
 8767SOL    HW227201   4.191   1.352   3.831
 8768SOL     OW27202   1.345   3.147   6.968
 8768SOL    HW127203   1.276   3.081   6.998
 8768SOL    HW227204   1.349   3.147   6.868
 8769SOL     OW27205   1.550   0.221   5.492
 8769SOL    HW127206   1.640   0.179   5.494
 8769SOL    HW227207   1.502   0.202   5.577
 8770SOL     OW27208   5.472   2.423   2.047
 8770SOL    HW127209   5.547   2.364   2.078
 8770SOL    HW227210   5.392   2.366   2.025
 8771SOL     OW27211   1.242   1.869   6.589
 8771SOL    HW127212   1.261   1.825   6.677
 8771SOL    HW227213   1.324   1.915   6.557
 8772SOL     OW27214   5.302   0.958   7.013
 8772SOL    HW127215   5.366   0.907   6.956
 8772SOL    HW227216   5.346   0.981   0.076
 8773SOL     OW27217   2.918   2.218   3.444
 8773SOL    HW127218   2.843   2.227   3.509
 8773SOL    HW227219   2.899   2.142   3.381
 8774SOL     OW27220   1.054   0.607   0.138
 8774SOL    HW127221   1.071   0.659   0.222
 8774SOL    HW227222   1.127   0.540   0.125
 8775SOL     OW27223   6.660   0.089   3.324
 8775SOL    HW127224   6.734   0.087   3.391
 8775SOL    HW227225   6.664   0.007   3.267
 8776SOL     OW27226   3.313   3.316   4.519
 8776SOL    HW127227   3.222   3.286   4.490
 8776SOL    HW227228   3.330   3.285   4.612
 8777SOL     OW27229   6.704   6.202   1.407
 8777SOL    HW127230   6.613   6.162   1.420
 8777SOL    HW227231   6.764   6.171   1.481
 8778SOL     OW27232   0.440   2.187   3.117
 8778SOL    HW127233   0.393   2.196   3.205
 8778SOL    HW227234   0.530   2.231   3.123
 8779SOL     OW27235   1.366   4.395   0.716
 8779SOL    HW127236   1.324   4.357   0.634
 8779SOL    HW227237   1.353   4.494   0.718
 8780SOL     OW27238   1.475   5.616   4.175
 8780SOL    HW127239   1.454   5.584   4.267
 8780SOL    HW227240   1.556   5.568   4.141
 8781SOL     OW27241   0.574   1.962   1.907
 8781SOL    HW127242   0.525   1.916   1.832
 8781SOL    HW227243   0.671   1.967   1.885
 8782SOL     OW27244   4.247   1.783   2.750
 8782SOL    HW127245   4.189   1.832   2.815
 8782SOL    HW227246   4.241   1.685   2.768
 8783SOL     OW27247   5.527   3.348   5.210
 8783SOL    HW127248   5.590   3.380   5.140
 8783SOL    HW227249   5.440   3.398   5.203
 8784SOL     OW27250   5.428   4.504   4.782
 8784SOL    HW127251   5.494   4.579   4.786
 8784SOL    HW227252   5.357   4.519   4.851
 8785SOL     OW27253   5.925   4.885   6.390
 8785SOL    HW127254   5.876   4.817   6.444
 8785SOL    HW227255   5.878   4.899   6.303
 8786SOL     OW27256   2.069   6.566   0.211
 8786SOL    HW127257   2.044   6.485   0.157
 8786SOL    HW227258   2.102   6.537   0.301
 8787SOL     OW27259   0.444   3.372   0.552
 8787SOL    HW127260   0.424   3.469   0.565
 8787SOL    HW227261   0.432   3.347   0.456
 8788SOL     OW27262   0.964   1.778   5.375
 8788SOL    HW127263   1.021   1.797   5.295
 8788SOL    HW227264   0.868   1.794   5.352
 8789SOL     OW27265   0.089   6.820   6.121
 8789SOL    HW127266   0.174   6.873   6.118
 8789SOL    HW227267   0.021   6.863   6.062
 8790SOL     OW27268   5.598   1.870   0.354
 8790SOL    HW127269   5.691   1.845   0.328
 8790SOL    HW227270   5.601   1.927   0.437
 8791SOL     OW27271   4.791   6.577   5.607
 8791SOL    HW127272   4.723   6.504   5.616
 8791SOL    HW227273   4.812   6.591   5.511
 8792SOL     OW27274   4.949   0.045   3.061
 8792SOL    HW127275   5.042   0.057   3.027
 8792SOL    HW227276   4.945   6.991   3.123
 8793SOL     OW27277   0.850   5.643   4.438
 8793SOL    HW127278   0.832   5.601   4.527
 8793SOL    HW227279   0.885   5.574   4.375
 8794SOL     OW27280   2.415   6.732   2.592
 8794SOL    HW127281   2.416   6.676   2.675
 8794SOL    HW227282   2.328   6.721   2.545
 8795SOL     OW27283   2.040   6.075   5.604
 8795SOL    HW127284   2.095   6.065   5.686
 8795SOL    HW227285   2.100   6.076   5.524
 8796SOL     OW27286   5.444   2.374   5.123
 8796SOL    HW127287   5.404   2.342   5.208
 8796SOL    HW227288   5.538   2.339   5.115
 8797SOL     OW27289   0.531   6.418   6.557
 8797SOL    HW127290   0.531   6.493   6.623
 8797SOL    HW227291   0.466   6.347   6.586
 8798SOL     OW27292   4.620   3.742   5.410
 8798SOL    HW127293   4.523   3.758   5.423
 8798SOL    HW227294   4.635   3.688   5.327
 8799SOL     OW27295   3.820   5.862   2.873
 8799SOL    HW127296   3.763   5.838   2.951
 8799SOL    HW227297   3.867   5.949   2.891
 8800SOL     OW27298   4.321   4.879   0.008
 8800SOL    HW127299   4.233   4.833   0.023
 8800SOL    HW227300   4.308   4.954   6.967
 8801SOL     OW27301   2.635   0.501   5.015
 8801SOL    HW127302   2.700   0.535   4.947
 8801SOL    HW227303   2.685   0.455   5.089
 8802SOL     OW27304   2.646   0.053   2.504
 8802SOL    HW127305   2.669   0.096   2.591
 8802SOL    HW227306   2.560   0.003   2.513
 8803SOL     OW27307   4.281   6.030   0.852
 8803SOL    HW127308   4.271   5.939   0.894
 8803SOL    HW227309   4.284   6.099   0.924
 8804SOL     OW27310   4.419   0.500   1.185
 8804SOL    HW127311   4.443   0.543   1.098
 8804SOL    HW227312   4.398   0.570   1.252
 8805SOL     OW27313   0.447   0.441   2.714
 8805SOL    HW127314   0.383   0.389   2.770
 8805SOL    HW227315   0.540   0.432   2.751
 8806SOL     OW27316   2.212   4.703   6.937
 8806SOL    HW127317   2.279   4.631   6.922
 8806SOL    HW227318   2.145   4.703   6.863
 8807SOL     OW27319   1.101   5.961   6.238
 8807SOL    HW127320   1.197   5.955   6.213
 8807SOL    HW227321   1.092   5.995   6.331
 8808SOL     OW27322   6.083   1.009   0.727
 8808SOL    HW127323   6.045   1.002   0.635
 8808SOL    HW227324   6.176   1.047   0.723
 8809SOL     OW27325   5.993   4.055   1.233
 8809SOL    HW127326   5.903   4.028   1.268
 8809SOL    HW227327   6.047   3.973   1.214
 8810SOL     OW27328   4.680   1.734   4.124
 8810SOL    HW127329   4.650   1.639   4.136
 8810SOL    HW227330   4.622   1.780   4.057
 8811SOL     OW27331   0.999   1.555   3.339
 8811SOL    HW127332   1.007   1.653   3.353
 8811SOL    HW227333   0.933   1.517   3.404
 8812SOL     OW27334   2.333   0.523   1.063
 8812SOL    HW127335   2.325   0.443   1.003
 8812SOL    HW227336   2.430   0.539   1.084
 8813SOL     OW27337   1.640   5.094   1.083
 8813SOL    HW127338   1.719   5.095   1.021
 8813SOL    HW227339   1.615   5.000   1.103
 8814SOL     OW27340   5.823   0.733   6.223
 8814SOL    HW127341   5.755   0.715   6.295
 8814SOL    HW227342   5.784   0.796   6.156
 8815SOL     OW27343   0.710   6.082   2.636
 8815SOL    HW127344   0.619   6.121   2.629
 8815SOL    HW227345   0.756   6.087   2.547
 8816SOL     OW27346   0.946   5.719   1.364
 8816SOL    HW127347   0.977   5.640   1.311
 8816SOL    HW227348   0.912   5.790   1.301
 8817SOL     OW27349   2.287   4.960   5.538
 8817SOL    HW127350   2.347   4.927   5.612
 8817SOL    HW227351   2.268   4.885   5.475
 8818SOL     OW27352   0.158   5.453   3.990
 8818SOL    HW127353   0.229   5.395   3.950
 8818SOL    HW227354   0.159   5.542   3.946
 8819SOL     OW27355   4.856   6.947   4.360
 8819SOL    HW127356   4.776   6.987   4.405
 8819SOL    HW227357   4.926   7.017   4.348
 8820SOL     OW27358   1.587   2.363   3.920
 8820SOL    HW127359   1.590   2.444   3.978
 8820SOL    HW227360   1.493   2.347   3.891
 8821SOL     OW27361   1.890   1.271   6.080
 8821SOL    HW127362   1.893   1.177   6.046
 8821SOL    HW227363   1.976   1.294   6.125
 8822SOL     OW27364   0.332   2.798   3.235
 8822SOL    HW127365   0.367   2.884   3.198
 8822SOL    HW227366   0.408   2.746   3.273
 8823SOL     OW27367   2.596   6.032   1.859
 8823SOL    HW127368   2.628   6.052   1.767
 8823SOL    HW227369   2.551   6.114   1.897
 8824SOL     OW27370   3.770   3.813   0.807
 8824SOL    HW127371   3.826   3.764   0.874
 8824SOL    HW227372   3.687   3.760   0.789
 8825SOL     OW27373   0.888   1.326   1.272
 8825SOL    HW127374   0.953   1.396   1.304
 8825SOL    HW227375   0.917   1.236   1.304
 8826SOL     OW27376   5.817   1.530   6.883
 8826SOL    HW127377   5.791   1.549   6.977
 8826SOL    HW227378   5.916   1.538   6.873
 8827SOL     OW27379   1.337   1.386   3.612
 8827SOL    HW127380   1.313   1.307   3.555
 8827SOL    HW227381   1.335   1.469   3.556
 8828SOL     OW27382   2.167   6.600   2.929
 8828SOL    HW127383   2.087   6.584   2.987
 8828SOL    HW227384   2.199   6.694   2.942
 8829SOL     OW27385   0.398   1.697   0.118
 8829SOL    HW127386   0.418   1.708   0.020
 8829SOL    HW227387   0.346   1.776   0.150
 8830SOL     OW27388   0.607   2.281   0.610
 8830SOL    HW127389   0.605   2.190   0.569
 8830SOL    HW227390   0.688   2.330   0.578
 8831SOL     OW27391   6.625   0.467   2.837
 8831SOL    HW127392   6.622   0.546   2.898
 8831SOL    HW227393   6.587   0.387   2.885
 8832SOL     OW27394   6.767   1.257   2.450
 8832SOL    HW127395   6.673   1.252   2.485
 8832SOL    HW227396   6.767   1.303   2.362
 8833SOL     OW27397   2.206   4.606   3.794
 8833SOL    HW127398   2.198   4.572   3.887
 8833SOL    HW227399   2.264   4.545   3.740
 8834SOL     OW27400   5.686   3.944   4.467
 8834SOL    HW127401   5.636   3.864   4.497
 8834SOL    HW227402   5.737   3.983   4.544
 8835SOL     OW27403   0.255   6.606   6.633
 8835SOL    HW127404   0.271   6.632   6.538
 8835SOL    HW227405   0.165   6.638   6.662
 8836SOL     OW27406   4.950   1.909   0.753
 8836SOL    HW127407   4.973   1.910   0.656
 8836SOL    HW227408   4.957   2.001   0.790
 8837SOL     OW27409   0.290   0.956   1.531
 8837SOL    HW127410   0.282   1.042   1.481
 8837SOL    HW227411   0.262   0.970   1.626
 8838SOL     OW27412   2.195   5.572   3.888
 8838SOL    HW127413   2.170   5.648   3.829
 8838SOL    HW227414   2.165   5.592   3.982
 8839SOL     OW27415   6.436   6.550   3.765
 8839SOL    HW127416   6.508   6.494   3.725
 8839SOL    HW227417   6.424   6.633   3.712
 8840SOL     OW27418   5.187   1.907   2.173
 8840SOL    HW127419   5.140   1.822   2.196
 8840SOL    HW227420   5.200   1.961   2.257
 8841SOL     OW27421   1.656   0.907   4.360
 8841SOL    HW127422   1.672   0.810   4.375
 8841SOL    HW227423   1.683   0.958   4.442
 8842SOL     OW27424   2.150   2.966   2.204
 8842SOL    HW127425   2.157   2.881   2.151
 8842SOL    HW227426   2.137   2.944   2.301
 8843SOL     OW27427   0.284   3.261   4.661
 8843SOL    HW127428   0.262   3.173   4.702
 8843SOL    HW227429   0.212   3.327   4.683
 8844SOL     OW27430   6.718   1.602   6.506
 8844SOL    HW127431   6.630   1.616   6.551
 8844SOL    HW227432   6.766   1.526   6.549
 8845SOL     OW27433   5.441   4.642   7.008
 8845SOL    HW127434   5.539   4.636   6.987
 8845SOL    HW227435   5.418   4.572   0.052
 8846SOL     OW27436   1.727   4.674   3.590
 8846SOL    HW127437   1.720   4.692   3.688
 8846SOL    HW227438   1.713   4.576   3.573
 8847SOL     OW27439   2.735   0.809   2.773
 8847SOL    HW127440   2.724   0.750   2.853
 8847SOL    HW227441   2.653   0.803   2.716
 8848SOL     OW27442   1.565   0.484   2.731
 8848SOL    HW127443   1.620   0.494   2.647
 8848SOL    HW227444   1.493   0.416   2.716
 8849SOL     OW27445   3.016   6.933   1.087
 8849SOL    HW127446   3.079   6.963   1.016
 8849SOL    HW227447   2.980   7.012   1.136
 8850SOL     OW27448   3.527   2.545   7.024
 8850SOL    HW127449   3.584   2.626   7.011
 8850SOL    HW227450   3.523   2.494   6.938
 8851SOL     OW27451   1.293   3.445   3.038
 8851SOL    HW127452   1.330   3.361   2.997
 8851SOL    HW227453   1.241   3.495   2.969
 8852SOL     OW27454   0.815   1.957   5.974
 8852SOL    HW127455   0.859   2.045   5.993
 8852SOL    HW227456   0.794   1.952   5.876
 8853SOL     OW27457   5.069   1.207   0.916
 8853SOL    HW127458   4.970   1.199   0.909
 8853SOL    HW227459   5.105   1.130   0.968
 8854SOL     OW27460   0.764   2.297   4.502
 8854SOL    HW127461   0.822   2.354   4.560
 8854SOL    HW227462   0.809   2.209   4.486
 8855SOL     OW27463   5.810   5.263   0.953
 8855SOL    HW127464   5.834   5.298   1.044
 8855SOL    HW227465   5.751   5.183   0.962
 8856SOL     OW27466   6.767   6.995   5.475
 8856SOL    HW127467   6.768   6.899   5.504
 8856SOL    HW227468   6.860   7.024   5.452
 8857SOL     OW27469   6.427   1.557   5.999
 8857SOL    HW127470   6.499   1.505   6.044
 8857SOL    HW227471   6.441   1.555   5.900
 8858SOL     OW27472   5.802   5.816   4.491
 8858SOL    HW127473   5.729   5.834   4.425
 8858SOL    HW227474   5.763   5.798   4.581
 8859SOL     OW27475   0.570   6.774   3.582
 8859SOL    HW127476   0.530   6.745   3.495
 8859SOL    HW227477   0.620   6.698   3.623
 8860SOL     OW27478   0.331   4.295   2.770
 8860SOL    HW127479   0.328   4.355   2.850
 8860SOL    HW227480   0.421   4.301   2.727
 8861SOL     OW27481   4.556   3.167   0.944
 8861SOL    HW127482   4.585   3.186   1.037
 8861SOL    HW227483   4.617   3.099   0.903
 8862SOL     OW27484   4.823   4.761   5.041
 8862SOL    HW127485   4.812   4.662   5.053
 8862SOL    HW227486   4.733   4.802   5.023
 8863SOL     OW27487   2.078   3.814   3.407
 8863SOL    HW127488   2.108   3.851   3.319
 8863SOL    HW227489   2.001   3.868   3.441
 8864SOL     OW27490   6.325   1.962   5.323
 8864SOL    HW127491   6.383   2.041   5.343
 8864SOL    HW227492   6.283   1.973   5.233
 8865SOL     OW27493   2.569   1.582   0.316
 8865SOL    HW127494   2.641   1.567   0.384
 8865SOL    HW227495   2.540   1.678   0.319
 8866SOL     OW27496   5.937   6.786   2.169
 8866SOL    HW127497   5.867   6.855   2.189
 8866SOL    HW227498   5.906   6.726   2.095
 8867SOL     OW27499   6.450   3.532   2.927
 8867SOL    HW127500   6.531   3.474   2.930
 8867SOL    HW227501   6.429   3.554   2.832
 8868SOL     OW27502   6.744   2.880   3.618
 8868SOL    HW127503   6.744   2.887   3.519
 8868SOL    HW227504   6.730   2.785   3.646
 8869SOL     OW27505   3.918   6.647   3.658
 8869SOL    HW127506   3.825   6.664   3.624
 8869SOL    HW227507   3.929   6.691   3.747
 8870SOL     OW27508   1.195   0.730   2.880
 8870SOL    HW127509   1.180   0.799   2.951
 8870SOL    HW227510   1.291   0.733   2.851
 8871SOL     OW27511   6.868   0.560   2.648
 8871SOL    HW127512   6.781   0.510   2.646
 8871SOL    HW227513   6.863   0.636   2.583
 8872SOL     OW27514   6.191   4.495   3.588
 8872SOL    HW127515   6.119   4.519   3.654
 8872SOL    HW227516   6.206   4.572   3.527
 8873SOL     OW27517   2.057   1.713   2.803
 8873SOL    HW127518   2.128   1.691   2.870
 8873SOL    HW227519   2.006   1.630   2.780
 8874SOL     OW27520   3.326   6.270   0.971
 8874SOL    HW127521   3.231   6.262   1.003
 8874SOL    HW227522   3.386   6.291   1.048
 8875SOL     OW27523   6.593   3.353   4.128
 8875SOL    HW127524   6.679   3.403   4.136
 8875SOL    HW227525   6.518   3.410   4.162
 8876SOL     OW27526   4.404   0.197   6.331
 8876SOL    HW127527   4.332   0.228   6.393
 8876SOL    HW227528   4.468   0.272   6.313
 8877SOL     OW27529   1.070   4.077   1.178
 8877SOL    HW127530   1.001   4.097   1.109
 8877SOL    HW227531   1.155   4.125   1.155
 8878SOL     OW27532   4.375   3.844   0.993
 8878SOL    HW127533   4.315   3.789   1.050
 8878SOL    HW227534   4.345   3.837   0.897
 8879SOL     OW27535   6.697   4.856   2.902
 8879SOL    HW127536   6.766   4.927   2.914
 8879SOL    HW227537   6.707   4.814   2.811
 8880SOL     OW27538   4.168   0.864   3.603
 8880SOL    HW127539   4.224   0.911   3.535
 8880SOL    HW227540   4.130   0.931   3.667
 8881SOL     OW27541   4.086   4.896   4.072
 8881SOL    HW127542   4.101   4.847   3.986
 8881SOL    HW227543   4.011   4.853   4.122
 8882SOL     OW27544   4.360   0.670   0.712
 8882SOL    HW127545   4.261   0.658   0.715
 8882SOL    HW227546   4.383   0.741   0.646
 8883SOL     OW27547   6.657   6.326   4.986
 8883SOL    HW127548   6.659   6.245   5.044
 8883SOL    HW227549   6.643   6.299   4.891
 8884SOL     OW27550   5.232   3.715   5.268
 8884SOL    HW127551   5.138   3.688   5.286
 8884SOL    HW227552   5.260   3.785   5.334
 8885SOL     OW27553   5.837   5.987   0.976
 8885SOL    HW127554   5.781   5.906   0.993
 8885SOL    HW227555   5.934   5.960   0.971
 8886SOL     OW27556   4.330   5.740   6.589
 8886SOL    HW127557   4.293   5.802   6.658
 8886SOL    HW227558   4.273   5.743   6.507
 8887SOL     OW27559   4.809   0.319   2.114
 8887SOL    HW127560   4.754   0.272   2.183
 8887SOL    HW227561   4.770   0.301   2.023
 8888SOL     OW27562   2.836   1.834   2.490
 8888SOL    HW127563   2.744   1.848   2.525
 8888SOL    HW227564   2.899   1.815   2.566
 8889SOL     OW27565   1.599   5.458   6.247
 8889SOL    HW127566   1.679   5.518   6.244
 8889SOL    HW227567   1.627   5.364   6.227
 8890SOL     OW27568   1.078   6.424   0.069
 8890SOL    HW127569   1.053   6.484   7.017
 8890SOL    HW227570   1.041   6.333   0.054
 8891SOL     OW27571   6.296   4.035   5.997
 8891SOL    HW127572   6.296   4.123   5.950
 8891SOL    HW227573   6.387   3.993   5.988
 8892SOL     OW27574   3.281   5.626   4.606
 8892SOL    HW127575   3.301   5.528   4.606
 8892SOL    HW227576   3.346   5.674   4.547
 8893SOL     OW27577   1.019   5.139   5.286
 8893SOL    HW127578   1.069   5.066   5.333
 8893SOL    HW227579   1.081   5.215   5.269
 8894SOL     OW27580   4.685   1.944   0.905
 8894SOL    HW127581   4.642   1.995   0.830
 8894SOL    HW227582   4.782   1.931   0.885
 8895SOL     OW27583   6.830   3.670   0.596
 8895SOL    HW127584   6.899   3.693   0.665
 8895SOL    HW227585   6.847   3.723   0.513
 8896SOL     OW27586   0.245   2.334   4.257
 8896SOL    HW127587   0.325   2.297   4.210
 8896SOL    HW227588   0.226   2.279   4.338
 8897SOL     OW27589   1.685   4.634   4.120
 8897SOL    HW127590   1.742   4.552   4.110
 8897SOL    HW227591   1.711   4.683   4.203
 8898SOL     OW27592   4.612   4.358   2.783
 8898SOL    HW127593   4.540   4.395   2.725
 8898SOL    HW227594   4.604   4.396   2.875
 8899SOL     OW27595   1.174   3.447   3.876
 8899SOL    HW127596   1.174   3.464   3.975
 8899SOL    HW227597   1.174   3.535   3.827
 8900SOL     OW27598   5.135   2.283   4.207
 8900SOL    HW127599   5.114   2.238   4.120
 8900SOL    HW227600   5.051   2.321   4.246
 8901SOL     OW27601   1.428   3.909   4.662
 8901SOL    HW127602   1.528   3.902   4.652
 8901SOL    HW227603   1.386   3.913   4.572
 8902SOL     OW27604   0.268   4.622   0.264
 8902SOL    HW127605   0.168   4.627   0.264
 8902SOL    HW227606   0.306   4.697   0.319
 8903SOL     OW27607   0.956   6.904   5.245
 8903SOL    HW127608   0.973   6.860   5.333
 8903SOL    HW227609   1.015   6.984   5.235
 8904SOL     OW27610   0.273   0.839   3.377
 8904SOL    HW127611   0.192   0.897   3.371
 8904SOL    HW227612   0.350   0.893   3.412
 8905SOL     OW27613   0.919   3.883   2.607
 8905SOL    HW127614   1.003   3.882   2.553
 8905SOL    HW227615   0.937   3.841   2.696
 8906SOL     OW27616   6.271   6.864   6.816
 8906SOL    HW127617   6.319   6.807   6.749
 8906SOL    HW227618   6.326   6.873   6.898
 8907SOL     OW27619   2.697   3.603   5.276
 8907SOL    HW127620   2.655   3.692   5.294
 8907SOL    HW227621   2.796   3.614   5.266
 8908SOL     OW27622   1.409   4.915   6.955
 8908SOL    HW127623   1.392   4.831   6.904
 8908SOL    HW227624   1.341   4.923   0.004
 8909SOL     OW27625   2.280   6.883   1.672
 8909SOL    HW127626   2.254   6.969   1.717
 8909SOL    HW227627   2.253   6.886   1.576
 8910SOL     OW27628   1.554   0.335   3.842
 8910SOL    HW127629   1.561   0.235   3.841
 8910SOL    HW227630   1.461   0.362   3.818
 8911SOL     OW27631   4.385   2.440   4.601
 8911SOL    HW127632   4.395   2.456   4.699
 8911SOL    HW227633   4.458   2.488   4.552
 8912SOL     OW27634   3.698   3.755   4.244
 8912SOL    HW127635   3.702   3.814   4.163
 8912SOL    HW227636   3.726   3.808   4.325
 8913SOL     OW27637   5.250   6.539   6.982
 8913SOL    HW127638   5.167   6.576   6.940
 8913SOL    HW227639   5.316   6.515   6.911
 8914SOL     OW27640   4.652   4.935   6.307
 8914SOL    HW127641   4.707   4.851   6.307
 8914SOL    HW227642   4.710   5.013   6.281
 8915SOL     OW27643   1.221   0.971   3.037
 8915SOL    HW127644   1.232   0.967   3.136
 8915SOL    HW227645   1.167   1.051   3.013
 8916SOL     OW27646   4.779   1.265   0.711
 8916SOL    HW127647   4.876   1.283   0.692
 8916SOL    HW227648   4.723   1.338   0.673
 8917SOL     OW27649   6.055   1.715   0.899
 8917SOL    HW127650   5.964   1.695   0.936
 8917SOL    HW227651   6.103   1.778   0.961
 8918SOL     OW27652   0.608   3.651   2.846
 8918SOL    HW127653   0.577   3.652   2.941
 8918SOL    HW227654   0.689   3.594   2.838
 8919SOL     OW27655   6.387   3.451   1.385
 8919SOL    HW127656   6.454   3.473   1.456
 8919SOL    HW227657   6.422   3.375   1.329
 8920SOL     OW27658   6.292   1.273   0.358
 8920SOL    HW127659   6.310   1.191   0.304
 8920SOL    HW227660   6.334   1.353   0.314
 8921SOL     OW27661   2.290   2.918   2.684
 8921SOL    HW127662   2.285   2.853   2.609
 8921SOL    HW227663   2.267   2.873   2.770
 8922SOL     OW27664   4.435   5.990   4.201
 8922SOL    HW127665   4.512   5.988   4.264
 8922SOL    HW227666   4.349   5.987   4.252
 8923SOL     OW27667   2.049   1.624   4.349
 8923SOL    HW127668   1.972   1.580   4.395
 8923SOL    HW227669   2.064   1.715   4.389
 8924SOL     OW27670   6.153   4.951   5.005
 8924SOL    HW127671   6.127   5.035   4.957
 8924SOL    HW227672   6.154   4.875   4.940
 8925SOL     OW27673   1.009   5.887   2.697
 8925SOL    HW127674   0.977   5.874   2.603
 8925SOL    HW227675   0.980   5.977   2.729
 8926SOL     OW27676   5.554   1.802   6.472
 8926SOL    HW127677   5.520   1.893   6.491
 8926SOL    HW227678   5.650   1.795   6.500
 8927SOL     OW27679   1.630   1.026   5.600
 8927SOL    HW127680   1.546   1.079   5.605
 8927SOL    HW227681   1.610   0.935   5.562
 8928SOL     OW27682   1.316   6.286   5.266
 8928SOL    HW127683   1.273   6.372   5.291
 8928SOL    HW227684   1.327   6.230   5.349
 8929SOL     OW27685   0.228   2.173   4.478
 8929SOL    HW127686   0.227   2.096   4.541
 8929SOL    HW227687   0.198   2.256   4.525
 8930SOL     OW27688   2.258   4.187   3.754
 8930SOL    HW127689   2.165   4.223   3.752
 8930SOL    HW227690   2.256   4.089   3.775
 8931SOL     OW27691   4.158   2.601   0.806
 8931SOL    HW127692   4.177   2.669   0.735
 8931SOL    HW227693   4.087   2.538   0.774
 8932SOL     OW27694   0.678   3.402   3.362
 8932SOL    HW127695   0.668   3.452   3.448
 8932SOL    HW227696   0.751   3.444   3.308
 8933SOL     OW27697   3.771   2.124   5.271
 8933SOL    HW127698   3.760   2.195   5.340
 8933SOL    HW227699   3.866   2.122   5.240
 8934SOL     OW27700   3.452   5.749   3.295
 8934SOL    HW127701   3.414   5.769   3.205
 8934SOL    HW227702   3.552   5.757   3.291
 8935SOL     OW27703   0.082   4.312   1.237
 8935SOL    HW127704   0.057   4.233   1.292
 8935SOL    HW227705   0.012   4.383   1.245
 8936SOL     OW27706   2.705   1.865   1.238
 8936SOL    HW127707   2.642   1.880   1.314
 8936SOL    HW227708   2.661   1.808   1.168
 8937SOL     OW27709   0.215   6.148   5.953
 8937SOL    HW127710   0.125   6.192   5.960
 8937SOL    HW227711   0.272   6.200   5.890
 8938SOL     OW27712   5.365   5.734   1.474
 8938SOL    HW127713   5.452   5.687   1.489
 8938SOL    HW227714   5.351   5.802   1.547
 8939SOL     OW27715   4.837   2.267   4.990
 8939SOL    HW127716   4.742   2.293   4.976
 8939SOL    HW227717   4.874   2.229   4.905
 8940SOL     OW27718   5.891   0.589   3.045
 8940SOL    HW127719   5.931   0.654   3.110
 8940SOL    HW227720   5.802   0.622   3.016
 8941SOL     OW27721   4.926   1.927   6.321
 8941SOL    HW127722   4.964   1.835   6.306
 8941SOL    HW227723   4.977   1.994   6.267
 8942SOL     OW27724   0.391   2.446   5.349
 8942SOL    HW127725   0.303   2.494   5.344
 8942SOL    HW227726   0.436   2.452   5.260
 8943SOL     OW27727   5.315   3.928   0.794
 8943SOL    HW127728   5.319   4.000   0.863
 8943SOL    HW227729   5.268   3.962   0.712
 8944SOL     OW27730   4.430   5.406   1.115
 8944SOL    HW127731   4.465   5.369   1.201
 8944SOL    HW227732   4.400   5.331   1.057
 8945SOL     OW27733   1.759   0.930   4.102
 8945SOL    HW127734   1.717   0.923   4.193
 8945SOL    HW227735   1.695   0.975   4.040
 8946SOL     OW27736   3.789   1.883   4.314
 8946SOL    HW127737   3.812   1.793   4.277
 8946SOL    HW227738   3.706   1.917   4.270
 8947SOL     OW27739   4.067   3.758   5.204
 8947SOL    HW127740   4.158   3.723   5.182
 8947SOL    HW227741   4.075   3.841   5.259
 8948SOL     OW27742   6.349   5.165   2.970
 8948SOL    HW127743   6.429   5.225   2.970
 8948SOL    HW227744   6.341   5.120   3.060
 8949SOL     OW27745   1.995   6.040   0.635
 8949SOL    HW127746   2.034   6.069   0.722
 8949SOL    HW227747   1.956   6.119   0.588
 8950SOL     OW27748   4.699   2.909   4.858
 8950SOL    HW127749   4.656   2.998   4.843
 8950SOL    HW227750   4.783   2.903   4.804
 8951SOL     OW27751   1.997   2.729   5.706
 8951SOL    HW127752   2.057   2.689   5.637
 8951SOL    HW227753   1.932   2.659   5.737
 8952SOL     OW27754   6.426   0.460   2.636
 8952SOL    HW127755   6.353   0.526   2.648
 8952SOL    HW227756   6.497   0.475   2.705
 8953SOL     OW27757   1.265   3.818   6.794
 8953SOL    HW127758   1.204   3.747   6.761
 8953SOL    HW227759   1.337   3.834   6.727
 8954SOL     OW27760   2.159   5.945   5.938
 8954SOL    HW127761   2.230   5.943   5.868
 8954SOL    HW227762   2.113   5.856   5.941
 8955SOL     OW27763   6.459   3.719   3.121
 8955SOL    HW127764   6.442   3.642   3.058
 8955SOL    HW227765   6.372   3.763   3.144
 8956SOL     OW27766   1.270   0.911   5.816
 8956SOL    HW127767   1.173   0.925   5.835
 8956SOL    HW227768   1.295   0.956   5.730
 8957SOL     OW27769   3.164   5.000   2.523
 8957SOL    HW127770   3.094   5.011   2.453
 8957SOL    HW227771   3.250   4.972   2.480
 8958SOL     OW27772   2.181   0.128   4.399
 8958SOL    HW127773   2.084   0.110   4.382
 8958SOL    HW227774   2.197   0.132   4.498
 8959SOL     OW27775   2.080   4.251   0.745
 8959SOL    HW127776   2.022   4.272   0.824
 8959SOL    HW227777   2.102   4.153   0.745
 8960SOL     OW27778   3.669   5.980   1.642
 8960SOL    HW127779   3.762   5.989   1.607
 8960SOL    HW227780   3.668   6.003   1.739
 8961SOL     OW27781   1.277   1.621   3.465
 8961SOL    HW127782   1.191   1.571   3.460
 8961SOL    HW227783   1.288   1.678   3.383
 8962SOL     OW27784   5.304   0.123   3.350
 8962SOL    HW127785   5.270   0.067   3.275
 8962SOL    HW227786   5.381   0.077   3.394
 8963SOL     OW27787   6.490   0.881   4.142
 8963SOL    HW127788   6.509   0.797   4.193
 8963SOL    HW227789   6.449   0.949   4.204
 8964SOL     OW27790   6.061   5.094   2.667
 8964SOL    HW127791   6.096   5.181   2.703
 8964SOL    HW227792   6.090   5.019   2.726
 8965SOL     OW27793   1.304   4.832   2.031
 8965SOL    HW127794   1.388   4.778   2.033
 8965SOL    HW227795   1.321   4.918   1.981
 8966SOL     OW27796   2.765   2.811   5.531
 8966SOL    HW127797   2.832   2.883   5.555
 8966SOL    HW227798   2.801   2.722   5.560
 8967SOL     OW27799   3.887   0.687   0.486
 8967SOL    HW127800   3.932   0.637   0.413
 8967SOL    HW227801   3.802   0.640   0.511
 8968SOL     OW27802   5.066   4.868   2.282
 8968SOL    HW127803   5.145   4.928   2.293
 8968SOL    HW227804   5.094   4.772   2.292
 8969SOL     OW27805   6.344   0.853   4.484
 8969SOL    HW127806   6.312   0.931   4.430
 8969SOL    HW227807   6.268   0.790   4.500
 8970SOL     OW27808   3.472   2.058   1.205
 8970SOL    HW127809   3.512   2.097   1.289
 8970SOL    HW227810   3.378   2.029   1.224
 8971SOL     OW27811   3.704   5.908   2.444
 8971SOL    HW127812   3.665   5.829   2.397
 8971SOL    HW227813   3.721   5.982   2.379
 8972SOL     OW27814   5.681   0.199   4.893
 8972SOL    HW127815   5.735   0.274   4.857
 8972SOL    HW227816   5.606   0.235   4.949
 8973SOL     OW27817   1.497   5.467   6.751
 8973SOL    HW127818   1.595   5.450   6.744
 8973SOL    HW227819   1.464   5.504   6.664
 8974SOL     OW27820   0.677   3.264   4.612
 8974SOL    HW127821   0.645   3.185   4.560
 8974SOL    HW227822   0.723   3.232   4.696
 8975SOL     OW27823   2.934   0.012   0.401
 8975SOL    HW127824   2.985   0.096   0.381
 8975SOL    HW227825   2.928   6.981   0.318
 8976SOL     OW27826   0.348   5.622   4.366
 8976SOL    HW127827   0.378   5.530   4.392
 8976SOL    HW227828   0.385   5.689   4.430
 8977SOL     OW27829   6.007   1.643   6.086
 8977SOL    HW127830   5.917   1.668   6.050
 8977SOL    HW227831   6.077   1.663   6.018
 8978SOL     OW27832   5.552   6.500   0.886
 8978SOL    HW127833   5.563   6.447   0.970
 8978SOL    HW227834   5.534   6.438   0.810
 8979SOL     OW27835   1.895   4.415   4.651
 8979SOL    HW127836   1.932   4.359   4.578
 8979SOL    HW227837   1.954   4.409   4.731
 8980SOL     OW27838   3.713   2.920   4.439
 8980SOL    HW127839   3.787   2.952   4.381
 8980SOL    HW227840   3.626   2.927   4.390
 8981SOL     OW27841   3.578   1.907   5.200
 8981SOL    HW127842   3.644   1.982   5.190
 8981SOL    HW227843   3.624   1.821   5.180
 8982SOL     OW27844   2.790   4.419   0.758
 8982SOL    HW127845   2.739   4.482   0.817
 8982SOL    HW227846   2.727   4.364   0.704
 8983SOL     OW27847   5.010   5.099   0.473
 8983SOL    HW127848   4.958   5.023   0.434
 8983SOL    HW227849   5.003   5.178   0.412
 8984SOL     OW27850   1.874   5.946   3.139
 8984SOL    HW127851   1.931   6.028   3.133
 8984SOL    HW227852   1.860   5.923   3.236
 8985SOL     OW27853   3.584   3.225   6.457
 8985SOL    HW127854   3.545   3.200   6.369
 8985SOL    HW227855   3.607   3.142   6.508
 8986SOL     OW27856   3.527   6.285   2.813
 8986SOL    HW127857   3.586   6.255   2.888
 8986SOL    HW227858   3.434   6.254   2.830
 8987SOL     OW27859   4.877   6.189   2.436
 8987SOL    HW127860   4.918   6.160   2.349
 8987SOL    HW227861   4.783   6.218   2.420
 8988SOL     OW27862   0.228   5.604   4.754
 8988SOL    HW127863   0.201   5.681   4.697
 8988SOL    HW227864   0.323   5.614   4.782
 8989SOL     OW27865   3.315   3.237   6.670
 8989SOL    HW127866   3.409   3.209   6.651
 8989SOL    HW227867   3.287   3.204   6.760
 8990SOL     OW27868   0.194   6.353   3.925
 8990SOL    HW127869   0.101   6.318   3.918
 8990SOL    HW227870   0.252   6.306   3.858
 8991SOL     OW27871   0.760   2.028   5.244
 8991SOL    HW127872   0.805   2.108   5.204
 8991SOL    HW227873   0.738   2.048   5.340
 8992SOL     OW27874   6.095   2.063   6.514
 8992SOL    HW127875   6.129   2.157   6.518
 8992SOL    HW227876   6.002   2.059   6.551
 8993SOL     OW27877   4.359   2.410   0.090
 8993SOL    HW127878   4.448   2.433   0.129
 8993SOL    HW227879   4.305   2.359   0.156
 8994SOL     OW27880   1.582   5.238   4.196
 8994SOL    HW127881   1.634   5.311   4.150
 8994SOL    HW227882   1.591   5.249   4.295
 8995SOL     OW27883   0.006   1.559   0.804
 8995SOL    HW127884   7.003   1.486   0.741
 8995SOL    HW227885   7.017   1.648   0.760
 8996SOL     OW27886   5.158   4.773   6.201
 8996SOL    HW127887   5.208   4.687   6.201
 8996SOL    HW227888   5.077   4.765   6.143
 8997SOL     OW27889   5.213   0.512   4.524
 8997SOL    HW127890   5.277   0.496   4.600
 8997SOL    HW227891   5.259   0.495   4.437
 8998SOL     OW27892   6.330   3.424   4.227
 8998SOL    HW127893   6.315   3.481   4.308
 8998SOL    HW227894   6.248   3.371   4.208
 8999SOL     OW27895   4.333   6.310   6.140
 8999SOL    HW127896   4.373   6.349   6.223
 8999SOL    HW227897   4.405   6.271   6.083
 9000SOL     OW27898   1.833   3.838   1.597
 9000SOL    HW127899   1.807   3.761   1.656
 9000SOL    HW227900   1.889   3.902   1.650
 9001SOL     OW27901   0.733   5.360   2.404
 9001SOL    HW127902   0.683   5.432   2.357
 9001SOL    HW227903   0.828   5.389   2.418
 9002SOL     OW27904   0.991   4.311   0.001
 9002SOL    HW127905   1.006   4.225   6.977
 9002SOL    HW227906   1.069   4.329   0.061
 9003SOL     OW27907   5.379   0.880   1.459
 9003SOL    HW127908   5.441   0.957   1.444
 9003SOL    HW227909   5.401   0.807   1.394
 9004SOL     OW27910   4.241   4.794   0.744
 9004SOL    HW127911   4.240   4.715   0.683
 9004SOL    HW227912   4.334   4.833   0.746
 9005SOL     OW27913   5.505   1.362   5.340
 9005SOL    HW127914   5.444   1.313   5.403
 9005SOL    HW227915   5.572   1.298   5.303
 9006SOL     OW27916   3.605   5.835   0.981
 9006SOL    HW127917   3.695   5.866   1.011
 9006SOL    HW227918   3.616   5.762   0.913
 9007SOL     OW27919   2.581   1.335   2.938
 9007SOL    HW127920   2.568   1.306   2.843
 9007SOL    HW227921   2.541   1.267   2.999
 9008SOL     OW27922   6.917   5.559   2.843
 9008SOL    HW127923   6.949   5.507   2.923
 9008SOL    HW227924   6.987   5.626   2.818
 9009SOL     OW27925   4.273   5.756   0.949
 9009SOL    HW127926   4.278   5.691   0.873
 9009SOL    HW227927   4.347   5.736   1.014
 9010SOL     OW27928   1.741   6.471   4.247
 9010SOL    HW127929   1.705   6.564   4.243
 9010SOL    HW227930   1.804   6.457   4.171
 9011SOL     OW27931   3.215   1.344   2.241
 9011SOL    HW127932   3.181   1.316   2.331
 9011SOL    HW227933   3.248   1.438   2.246
 9012SOL     OW27934   1.825   5.934   6.404
 9012SOL    HW127935   1.908   5.943   6.349
 9012SOL    HW227936   1.822   6.006   6.473
 9013SOL     OW27937   1.387   6.615   4.035
 9013SOL    HW127938   1.407   6.658   4.123
 9013SOL    HW227939   1.443   6.533   4.024
 9014SOL     OW27940   5.665   2.649   3.096
 9014SOL    HW127941   5.706   2.736   3.067
 9014SOL    HW227942   5.590   2.626   3.034
 9015SOL     OW27943   5.183   1.919   0.209
 9015SOL    HW127944   5.136   1.913   0.296
 9015SOL    HW227945   5.206   2.015   0.190
 9016SOL     OW27946   5.670   5.341   6.298
 9016SOL    HW127947   5.743   5.382   6.243
 9016SOL    HW227948   5.710   5.298   6.379
 9017SOL     OW27949   3.223   1.045   4.571
 9017SOL    HW127950   3.268   1.105   4.505
 9017SOL    HW227951   3.138   1.010   4.533
 9018SOL     OW27952   4.449   3.843   6.254
 9018SOL    HW127953   4.503   3.893   6.186
 9018SOL    HW227954   4.391   3.776   6.208
 9019SOL     OW27955   0.405   3.500   3.671
 9019SOL    HW127956   0.375   3.437   3.743
 9019SOL    HW227957   0.343   3.579   3.669
 9020SOL     OW27958   6.028   6.316   1.934
 9020SOL    HW127959   6.117   6.311   1.979
 9020SOL    HW227960   6.030   6.263   1.849
 9021SOL     OW27961   0.117   0.749   4.019
 9021SOL    HW127962   0.207   0.705   4.020
 9021SOL    HW227963   0.059   0.704   3.952
 9022SOL     OW27964   4.683   2.836   6.306
 9022SOL    HW127965   4.651   2.787   6.387
 9022SOL    HW227966   4.683   2.935   6.325
 9023SOL     OW27967   5.321   3.661   1.004
 9023SOL    HW127968   5.338   3.706   0.916
 9023SOL    HW227969   5.225   3.631   1.008
 9024SOL     OW27970   1.861   5.049   6.498
 9024SOL    HW127971   1.766   5.025   6.518
 9024SOL    HW227972   1.919   5.023   6.576
 9025SOL     OW27973   0.966   5.364   0.867
 9025SOL    HW127974   0.883   5.340   0.816
 9025SOL    HW227975   1.001   5.282   0.913
 9026SOL     OW27976   4.104   1.645   0.469
 9026SOL    HW127977   4.129   1.668   0.375
 9026SOL    HW227978   4.017   1.688   0.492
 9027SOL     OW27979   0.080   3.765   3.283
 9027SOL    HW127980   0.069   3.754   3.184
 9027SOL    HW227981   0.008   3.713   3.330
 9028SOL     OW27982   3.417   4.261   5.516
 9028SOL    HW127983   3.327   4.231   5.550
 9028SOL    HW227984   3.405   4.345   5.463
 9029SOL     OW27985   4.345   6.990   5.155
 9029SOL    HW127986   4.256   7.007   5.113
 9029SOL    HW227987   4.366   6.892   5.151
 9030SOL     OW27988   2.188   1.779   3.193
 9030SOL    HW127989   2.202   1.711   3.121
 9030SOL    HW227990   2.109   1.753   3.249
 9031SOL     OW27991   4.255   0.229   4.905
 9031SOL    HW127992   4.156   0.229   4.914
 9031SOL    HW227993   4.284   0.312   4.857
 9032SOL     OW27994   4.705   3.840   1.628
 9032SOL    HW127995   4.725   3.862   1.532
 9032SOL    HW227996   4.640   3.907   1.664
 9033SOL     OW27997   1.213   5.915   3.111
 9033SOL    HW127998   1.238   5.987   3.047
 9033SOL    HW227999   1.283   5.908   3.182
 9034SOL     OW28000   3.989   6.488   4.454
 9034SOL    HW128001   3.909   6.536   4.490
 9034SOL    HW228002   4.071   6.522   4.500
 9035SOL     OW28003   1.092   5.274   6.983
 9035SOL    HW128004   1.180   5.274   6.935
 9035SOL    HW228005   1.030   5.340   6.940
 9036SOL     OW28006   1.462   3.461   5.963
 9036SOL    HW128007   1.470   3.502   6.054
 9036SOL    HW228008   1.547   3.475   5.912
 9037SOL     OW28009   0.752   1.760   2.697
 9037SOL    HW128010   0.746   1.704   2.780
 9037SOL    HW228011   0.767   1.855   2.723
 9038SOL     OW28012   4.145   3.135   5.644
 9038SOL    HW128013   4.183   3.081   5.569
 9038SOL    HW228014   4.070   3.086   5.687
 9039SOL     OW28015   4.049   5.506   0.285
 9039SOL    HW128016   4.053   5.540   0.380
 9039SOL    HW228017   4.141   5.508   0.246
 9040SOL     OW28018   2.268   1.757   1.167
 9040SOL    HW128019   2.322   1.675   1.184
 9040SOL    HW228020   2.324   1.838   1.186
 9041SOL     OW28021   0.350   1.810   1.394
 9041SOL    HW128022   0.262   1.828   1.349
 9041SOL    HW228023   0.422   1.861   1.348
 9042SOL     OW28024   3.863   5.770   6.750
 9042SOL    HW128025   3.942   5.831   6.753
 9042SOL    HW228026   3.855   5.729   6.659
 9043SOL     OW28027   3.225   1.573   0.001
 9043SOL    HW128028   3.135   1.567   0.045
 9043SOL    HW228029   3.225   1.648   6.959
 9044SOL     OW28030   0.723   0.590   6.628
 9044SOL    HW128031   0.669   0.606   6.546
 9044SOL    HW228032   0.676   0.525   6.687
 9045SOL     OW28033   4.041   1.112   3.421
 9045SOL    HW128034   4.074   1.089   3.512
 9045SOL    HW228035   4.116   1.146   3.365
 9046SOL     OW28036   3.386   3.920   3.009
 9046SOL    HW128037   3.349   3.850   3.069
 9046SOL    HW228038   3.316   3.989   2.990
 9047SOL     OW28039   0.949   3.955   6.221
 9047SOL    HW128040   0.925   3.901   6.141
 9047SOL    HW228041   1.037   4.000   6.206
 9048SOL     OW28042   6.339   1.847   6.150
 9048SOL    HW128043   6.416   1.800   6.192
 9048SOL    HW228044   6.281   1.780   6.102
 9049SOL     OW28045   3.279   6.436   6.773
 9049SOL    HW128046   3.183   6.428   6.800
 9049SOL    HW228047   3.332   6.474   6.849
 9050SOL     OW28048   0.213   5.045   0.566
 9050SOL    HW128049   0.120   5.025   0.534
 9050SOL    HW228050   0.213   5.050   0.665
 9051SOL     OW28051   2.457   1.563   1.151
 9051SOL    HW128052   2.480   1.481   1.099
 9051SOL    HW228053   2.475   1.546   1.248
 9052SOL     OW28054   1.323   3.066   5.224
 9052SOL    HW128055   1.358   3.009   5.298
 9052SOL    HW228056   1.398   3.110   5.175
 9053SOL     OW28057   2.100   1.244   0.638
 9053SOL    HW128058   2.010   1.289   0.628
 9053SOL    HW228059   2.099   1.156   0.590
 9054SOL     OW28060   2.486   5.677   3.397
 9054SOL    HW128061   2.464   5.580   3.387
 9054SOL    HW228062   2.407   5.733   3.372
 9055SOL     OW28063   0.034   4.211   4.637
 9055SOL    HW128064   0.052   4.309   4.645
 9055SOL    HW228065   0.020   4.172   4.728
 9056SOL     OW28066   6.083   2.503   2.519
 9056SOL    HW128067   6.009   2.496   2.586
 9056SOL    HW228068   6.045   2.533   2.431
 9057SOL     OW28069   4.447   2.304   4.319
 9057SOL    HW128070   4.434   2.380   4.382
 9057SOL    HW228071   4.529   2.253   4.345
 9058SOL     OW28072   1.917   1.022   5.950
 9058SOL    HW128073   1.862   1.075   5.886
 9058SOL    HW228074   1.982   0.965   5.900
 9059SOL     OW28075   1.281   2.145   3.276
 9059SOL    HW128076   1.376   2.154   3.307
 9059SOL    HW228077   1.268   2.198   3.192
 9060SOL     OW28078   5.119   2.635   4.941
 9060SOL    HW128079   5.196   2.637   5.005
 9060SOL    HW228080   5.034   2.650   4.991
 9061SOL     OW28081   3.940   5.700   2.704
 9061SOL    HW128082   3.920   5.767   2.776
 9061SOL    HW228083   3.870   5.628   2.705
 9062SOL     OW28084   1.962   5.366   1.087
 9062SOL    HW128085   1.966   5.458   1.124
 9062SOL    HW228086   2.047   5.318   1.108
 9063SOL     OW28087   3.236   1.317   1.761
 9063SOL    HW128088   3.257   1.350   1.853
 9063SOL    HW228089   3.158   1.255   1.765
 9064SOL     OW28090   5.622   3.296   0.432
 9064SOL    HW128091   5.651   3.201   0.424
 9064SOL    HW228092   5.589   3.329   0.344
 9065SOL     OW28093   2.576   0.957   0.368
 9065SOL    HW128094   2.595   0.938   0.271
 9065SOL    HW228095   2.493   1.011   0.375
 9066SOL     OW28096   4.748   6.852   0.371
 9066SOL    HW128097   4.825   6.898   0.415
 9066SOL    HW228098   4.673   6.843   0.436
 9067SOL     OW28099   1.758   6.212   2.824
 9067SOL    HW128100   1.708   6.131   2.854
 9067SOL    HW228101   1.705   6.294   2.846
 9068SOL     OW28102   1.902   6.289   6.802
 9068SOL    HW128103   1.804   6.275   6.818
 9068SOL    HW228104   1.919   6.383   6.773
 9069SOL     OW28105   1.454   2.589   6.771
 9069SOL    HW128106   1.391   2.513   6.790
 9069SOL    HW228107   1.455   2.609   6.673
 9070SOL     OW28108   1.020   4.059   3.441
 9070SOL    HW128109   0.927   4.083   3.466
 9070SOL    HW228110   1.074   4.045   3.524
 9071SOL     OW28111   5.049   6.667   6.821
 9071SOL    HW128112   5.097   6.693   6.737
 9071SOL    HW228113   5.029   6.749   6.875
 9072SOL     OW28114   5.208   5.359   6.797
 9072SOL    HW128115   5.292   5.382   6.847
 9072SOL    HW228116   5.228   5.290   6.728
 9073SOL     OW28117   1.954   0.472   1.713
 9073SOL    HW128118   1.858   0.500   1.714
 9073SOL    HW228119   2.011   0.550   1.685
 9074SOL     OW28120   1.180   6.604   2.899
 9074SOL    HW128121   1.178   6.609   2.999
 9074SOL    HW228122   1.162   6.694   2.860
 9075SOL     OW28123   0.487   1.136   2.553
 9075SOL    HW128124   0.420   1.204   2.581
 9075SOL    HW228125   0.522   1.088   2.633
 9076SOL     OW28126   6.361   1.612   5.202
 9076SOL    HW128127   6.348   1.529   5.257
 9076SOL    HW228128   6.421   1.675   5.251
 9077SOL     OW28129   5.927   6.652   1.725
 9077SOL    HW128130   5.932   6.580   1.655
 9077SOL    HW228131   5.860   6.720   1.697
 9078SOL     OW28132   3.405   2.969   4.533
 9078SOL    HW128133   3.482   2.934   4.587
 9078SOL    HW228134   3.321   2.960   4.585
 9079SOL     OW28135   3.783   0.586   6.327
 9079SOL    HW128136   3.776   0.602   6.426
 9079SOL    HW228137   3.828   0.499   6.310
 9080SOL     OW28138   4.877   1.676   0.390
 9080SOL    HW128139   4.801   1.656   0.451
 9080SOL    HW228140   4.926   1.757   0.423
 9081SOL     OW28141   5.391   0.103   2.098
 9081SOL    HW128142   5.383   0.162   2.017
 9081SOL    HW228143   5.442   0.152   2.169
 9082SOL     OW28144   2.925   1.277   3.505
 9082SOL    HW128145   2.985   1.310   3.432
 9082SOL    HW228146   2.859   1.347   3.529
 9083SOL     OW28147   3.997   4.836   4.337
 9083SOL    HW128148   3.939   4.831   4.418
 9083SOL    HW228149   4.090   4.863   4.363
 9084SOL     OW28150   3.779   3.782   2.916
 9084SOL    HW128151   3.815   3.832   2.838
 9084SOL    HW228152   3.781   3.840   2.997
 9085SOL     OW28153   1.098   1.844   0.438
 9085SOL    HW128154   1.106   1.777   0.365
 9085SOL    HW228155   1.164   1.824   0.510
 9086SOL     OW28156   0.124   3.918   0.634
 9086SOL    HW128157   0.182   3.998   0.619
 9086SOL    HW228158   0.095   3.881   0.546
 9087SOL     OW28159   4.529   3.613   1.643
 9087SOL    HW128160   4.555   3.529   1.691
 9087SOL    HW228161   4.611   3.666   1.623
 9088SOL     OW28162   5.337   6.648   0.774
 9088SOL    HW128163   5.428   6.615   0.801
 9088SOL    HW228164   5.291   6.577   0.720
 9089SOL     OW28165   4.278   0.044   5.957
 9089SOL    HW128166   4.348   0.099   5.910
 9089SOL    HW228167   4.320   7.021   6.035
 9090SOL     OW28168   6.338   1.201   3.956
 9090SOL    HW128169   6.348   1.151   4.042
 9090SOL    HW228170   6.428   1.229   3.923
 9091SOL     OW28171   2.964   2.951   6.724
 9091SOL    HW128172   2.917   2.960   6.812
 9091SOL    HW228173   2.914   3.002   6.654
 9092SOL     OW28174   0.050   2.652   6.424
 9092SOL    HW128175   0.091   2.724   6.480
 9092SOL    HW228176   0.026   2.574   6.483
 9093SOL     OW28177   1.851   5.928   5.492
 9093SOL    HW128178   1.914   5.971   5.557
 9093SOL    HW228179   1.826   5.994   5.422
 9094SOL     OW28180   0.724   3.861   1.896
 9094SOL    HW128181   0.729   3.766   1.926
 9094SOL    HW228182   0.811   3.888   1.855
 9095SOL     OW28183   6.401   6.555   4.989
 9095SOL    HW128184   6.363   6.596   4.906
 9095SOL    HW228185   6.469   6.486   4.964
 9096SOL     OW28186   6.834   5.553   3.276
 9096SOL    HW128187   6.777   5.551   3.194
 9096SOL    HW228188   6.830   5.644   3.318
 9097SOL     OW28189   1.536   2.342   6.600
 9097SOL    HW128190   1.562   2.271   6.664
 9097SOL    HW228191   1.617   2.390   6.568
 9098SOL     OW28192   1.887   3.751   4.222
 9098SOL    HW128193   1.904   3.659   4.257
 9098SOL    HW228194   1.951   3.815   4.264
 9099SOL     OW28195   2.754   2.275   6.850
 9099SOL    HW128196   2.776   2.184   6.814
 9099SOL    HW228197   2.731   2.268   6.947
 9100SOL     OW28198   1.124   4.548   3.288
 9100SOL    HW128199   1.106   4.467   3.344
 9100SOL    HW228200   1.222   4.555   3.270
 9101SOL     OW28201   0.747   2.151   0.823
 9101SOL    HW128202   0.805   2.231   0.832
 9101SOL    HW228203   0.683   2.164   0.748
 9102SOL     OW28204   4.102   6.800   2.929
 9102SOL    HW128205   4.102   6.863   2.852
 9102SOL    HW228206   4.187   6.749   2.930
 9103SOL     OW28207   6.417   0.538   0.783
 9103SOL    HW128208   6.504   0.533   0.832
 9103SOL    HW228209   6.412   0.625   0.733
 9104SOL     OW28210   5.634   2.296   6.047
 9104SOL    HW128211   5.705   2.363   6.068
 9104SOL    HW228212   5.595   2.316   5.957
 9105SOL     OW28213   1.882   1.130   5.500
 9105SOL    HW128214   1.844   1.147   5.410
 9105SOL    HW228215   1.808   1.120   5.567
 9106SOL     OW28216   1.359   3.999   0.174
 9106SOL    HW128217   1.337   4.093   0.152
 9106SOL    HW228218   1.311   3.972   0.257
 9107SOL     OW28219   2.793   1.546   0.466
 9107SOL    HW128220   2.758   1.559   0.560
 9107SOL    HW228221   2.866   1.612   0.449
 9108SOL     OW28222   5.834   5.389   6.057
 9108SOL    HW128223   5.827   5.469   5.997
 9108SOL    HW228224   5.784   5.312   6.016
 9109SOL     OW28225   5.421   3.573   2.482
 9109SOL    HW128226   5.414   3.594   2.384
 9109SOL    HW228227   5.339   3.522   2.510
 9110SOL     OW28228   2.336   6.277   3.813
 9110SOL    HW128229   2.323   6.233   3.724
 9110SOL    HW228230   2.269   6.351   3.823
 9111SOL     OW28231   4.252   2.411   6.466
 9111SOL    HW128232   4.184   2.467   6.419
 9111SOL    HW228233   4.313   2.369   6.399
 9112SOL     OW28234   1.119   5.270   1.376
 9112SOL    HW128235   1.208   5.231   1.349
 9112SOL    HW228236   1.133   5.358   1.420
 9113SOL     OW28237   5.751   0.891   4.073
 9113SOL    HW128238   5.752   0.849   4.164
 9113SOL    HW228239   5.670   0.948   4.063
 9114SOL     OW28240   1.380   6.134   5.514
 9114SOL    HW128241   1.432   6.049   5.524
 9114SOL    HW228242   1.284   6.116   5.534
 9115SOL     OW28243   4.892   4.453   4.413
 9115SOL    HW128244   4.918   4.399   4.334
 9115SOL    HW228245   4.792   4.457   4.421
 9116SOL     OW28246   1.373   0.400   3.017
 9116SOL    HW128247   1.316   0.333   3.064
 9116SOL    HW228248   1.460   0.357   2.992
 9117SOL     OW28249   2.445   6.205   0.174
 9117SOL    HW128250   2.347   6.186   0.179
 9117SOL    HW228251   2.463   6.299   0.201
 9118SOL     OW28252   6.546   4.363   2.140
 9118SOL    HW128253   6.509   4.287   2.194
 9118SOL    HW228254   6.614   4.412   2.194
 9119SOL     OW28255   3.126   0.256   0.111
 9119SOL    HW128256   3.026   0.257   0.106
 9119SOL    HW228257   3.156   0.307   0.192
 9120SOL     OW28258   6.304   3.830   4.648
 9120SOL    HW128259   6.259   3.890   4.582
 9120SOL    HW228260   6.398   3.860   4.662
 9121SOL     OW28261   3.356   0.812   4.627
 9121SOL    HW128262   3.320   0.897   4.591
 9121SOL    HW228263   3.370   0.821   4.726
 9122SOL     OW28264   1.274   3.736   1.916
 9122SOL    HW128265   1.180   3.744   1.882
 9122SOL    HW228266   1.299   3.821   1.964
 9123SOL     OW28267   6.765   6.362   4.346
 9123SOL    HW128268   6.823   6.332   4.271
 9123SOL    HW228269   6.761   6.290   4.416
 9124SOL     OW28270   2.960   5.200   0.656
 9124SOL    HW128271   2.895   5.145   0.604
 9124SOL    HW228272   2.926   5.294   0.665
 9125SOL     OW28273   5.117   6.532   1.562
 9125SOL    HW128274   5.125   6.447   1.615
 9125SOL    HW228275   5.205   6.554   1.521
 9126SOL     OW28276   4.347   4.375   1.119
 9126SOL    HW128277   4.368   4.277   1.117
 9126SOL    HW228278   4.326   4.403   1.213
 9127SOL     OW28279   6.635   5.099   4.942
 9127SOL    HW128280   6.629   5.150   4.857
 9127SOL    HW228281   6.563   5.030   4.945
 9128SOL     OW28282   5.284   4.219   5.881
 9128SOL    HW128283   5.318   4.165   5.958
 9128SOL    HW228284   5.317   4.313   5.888
 9129SOL     OW28285   0.928   2.772   0.863
 9129SOL    HW128286   0.904   2.676   0.875
 9129SOL    HW228287   0.913   2.799   0.768
 9130SOL     OW28288   2.890   3.419   4.999
 9130SOL    HW128289   2.948   3.500   4.993
 9130SOL    HW228290   2.795   3.444   4.986
 9131SOL     OW28291   4.559   2.380   0.551
 9131SOL    HW128292   4.607   2.424   0.627
 9131SOL    HW228293   4.614   2.303   0.517
 9132SOL     OW28294   0.519   3.747   3.873
 9132SOL    HW128295   0.466   3.766   3.790
 9132SOL    HW228296   0.502   3.653   3.902
 9133SOL     OW28297   5.674   0.817   0.904
 9133SOL    HW128298   5.726   0.885   0.853
 9133SOL    HW228299   5.696   0.726   0.870
 9134SOL     OW28300   4.673   5.069   0.905
 9134SOL    HW128301   4.688   5.151   0.960
 9134SOL    HW228302   4.723   5.079   0.818
 9135SOL     OW28303   6.232   6.659   2.585
 9135SOL    HW128304   6.324   6.673   2.622
 9135SOL    HW228305   6.233   6.679   2.487
 9136SOL     OW28306   6.185   4.366   0.256
 9136SOL    HW128307   6.130   4.336   0.178
 9136SOL    HW228308   6.125   4.391   0.332
 9137SOL     OW28309   5.499   6.352   5.673
 9137SOL    HW128310   5.501   6.412   5.593
 9137SOL    HW228311   5.542   6.399   5.750
 9138SOL     OW28312   2.366   3.483   0.221
 9138SOL    HW128313   2.432   3.557   0.232
 9138SOL    HW228314   2.275   3.521   0.206
 9139SOL     OW28315   6.496   0.019   0.672
 9139SOL    HW128316   6.503   0.112   0.635
 9139SOL    HW228317   6.588   7.005   0.684
 9140SOL     OW28318   1.992   3.566   3.316
 9140SOL    HW128319   1.901   3.545   3.280
 9140SOL    HW228320   1.995   3.662   3.345
 9141SOL     OW28321   6.873   5.166   5.062
 9141SOL    HW128322   6.928   5.111   5.125
 9141SOL    HW228323   6.784   5.122   5.049
 9142SOL     OW28324   1.013   4.784   4.792
 9142SOL    HW128325   0.934   4.748   4.841
 9142SOL    HW228326   1.083   4.811   4.858
 9143SOL     OW28327   6.958   4.296   2.474
 9143SOL    HW128328   6.940   4.388   2.437
 9143SOL    HW228329   6.938   4.295   2.572
 9144SOL     OW28330   3.151   4.176   5.678
 9144SOL    HW128331   3.133   4.131   5.591
 9144SOL    HW228332   3.206   4.115   5.736
 9145SOL     OW28333   1.562   5.922   5.560
 9145SOL    HW128334   1.564   5.943   5.658
 9145SOL    HW228335   1.653   5.895   5.530
 9146SOL     OW28336   5.801   2.997   3.208
 9146SOL    HW128337   5.848   2.917   3.246
 9146SOL    HW228338   5.781   2.980   3.111
 9147SOL     OW28339   4.105   0.441   5.098
 9147SOL    HW128340   4.137   0.393   5.179
 9147SOL    HW228341   4.184   0.478   5.048
 9148SOL     OW28342   5.997   5.931   1.678
 9148SOL    HW128343   6.056   5.863   1.721
 9148SOL    HW228344   5.971   5.900   1.587
 9149SOL     OW28345   0.337   3.816   1.020
 9149SOL    HW128346   0.414   3.862   1.065
 9149SOL    HW228347   0.255   3.872   1.027
 9150SOL     OW28348   2.587   3.160   0.008
 9150SOL    HW128349   2.555   3.089   6.969
 9150SOL    HW228350   2.642   3.227   6.983
 9151SOL     OW28351   1.686   2.867   4.251
 9151SOL    HW128352   1.691   2.890   4.348
 9151SOL    HW228353   1.778   2.861   4.213
 9152SOL     OW28354   1.833   4.199   2.801
 9152SOL    HW128355   1.805   4.294   2.781
 9152SOL    HW228356   1.782   4.165   2.879
 9153SOL     OW28357   0.899   3.207   6.347
 9153SOL    HW128358   0.824   3.187   6.410
 9153SOL    HW228359   0.895   3.144   6.269
 9154SOL     OW28360   5.796   4.857   3.053
 9154SOL    HW128361   5.731   4.864   2.976
 9154SOL    HW228362   5.747   4.870   3.139
 9155SOL     OW28363   1.264   5.841   2.725
 9155SOL    HW128364   1.270   5.743   2.703
 9155SOL    HW228365   1.171   5.874   2.708
 9156SOL     OW28366   6.787   4.034   6.357
 9156SOL    HW128367   6.699   4.073   6.332
 9156SOL    HW228368   6.843   4.022   6.276
 9157SOL     OW28369   1.720   4.363   5.791
 9157SOL    HW128370   1.642   4.374   5.728
 9157SOL    HW228371   1.712   4.429   5.866
 9158SOL     OW28372   6.544   3.968   4.707
 9158SOL    HW128373   6.591   3.901   4.764
 9158SOL    HW228374   6.604   4.046   4.690
 9159SOL     OW28375   2.141   1.383   3.919
 9159SOL    HW128376   2.234   1.421   3.915
 9159SOL    HW228377   2.083   1.443   3.974
 9160SOL     OW28378   1.216   3.554   0.395
 9160SOL    HW128379   1.192   3.635   0.449
 9160SOL    HW228380   1.298   3.572   0.341
 9161SOL     OW28381   6.196   3.828   2.446
 9161SOL    HW128382   6.138   3.896   2.402
 9161SOL    HW228383   6.288   3.832   2.408
 9162SOL     OW28384   4.038   2.289   1.870
 9162SOL    HW128385   4.087   2.212   1.910
 9162SOL    HW228386   3.960   2.255   1.816
 9163SOL     OW28387   2.598   2.159   3.544
 9163SOL    HW128388   2.550   2.242   3.517
 9163SOL    HW228389   2.638   2.171   3.635
 9164SOL     OW28390   2.438   6.537   6.482
 9164SOL    HW128391   2.410   6.476   6.407
 9164SOL    HW228392   2.478   6.483   6.556
 9165SOL     OW28393   5.635   2.063   6.148
 9165SOL    HW128394   5.601   2.001   6.077
 9165SOL    HW228395   5.639   2.157   6.111
 9166SOL     OW28396   5.080   6.231   1.884
 9166SOL    HW128397   5.136   6.270   1.810
 9166SOL    HW228398   5.006   6.295   1.906
 9167SOL     OW28399   1.645   1.225   4.313
 9167SOL    HW128400   1.688   1.312   4.338
 9167SOL    HW228401   1.642   1.166   4.394
 9168SOL     OW28402   6.489   6.069   5.180
 9168SOL    HW128403   6.482   5.970   5.193
 9168SOL    HW228404   6.451   6.115   5.261
 9169SOL     OW28405   6.977   5.990   1.105
 9169SOL    HW128406   6.955   6.085   1.127
 9169SOL    HW228407   6.999   5.941   1.189
 9170SOL     OW28408   1.304   1.093   5.590
 9170SOL    HW128409   1.258   1.063   5.506
 9170SOL    HW228410   1.304   1.192   5.594
 9171SOL     OW28411   3.703   5.395   6.636
 9171SOL    HW128412   3.769   5.352   6.698
 9171SOL    HW228413   3.644   5.457   6.687
 9172SOL     OW28414   5.119   1.766   5.466
 9172SOL    HW128415   5.103   1.772   5.367
 9172SOL    HW228416   5.144   1.672   5.489
 9173SOL     OW28417   5.716   3.691   5.361
 9173SOL    HW128418   5.700   3.595   5.383
 9173SOL    HW228419   5.806   3.700   5.318
 9174SOL     OW28420   6.957   4.929   1.389
 9174SOL    HW128421   0.022   4.955   1.351
 9174SOL    HW228422   6.933   4.991   1.464
 9175SOL     OW28423   2.419   6.790   1.005
 9175SOL    HW128424   2.376   6.820   1.090
 9175SOL    HW228425   2.492   6.853   0.981
 9176SOL     OW28426   1.332   1.267   2.192
 9176SOL    HW128427   1.243   1.287   2.233
 9176SOL    HW228428   1.325   1.184   2.137
 9177SOL     OW28429   0.389   6.493   3.774
 9177SOL    HW128430   0.365   6.582   3.735
 9177SOL    HW228431   0.426   6.507   3.866
 9178SOL     OW28432   1.500   4.516   0.985
 9178SOL    HW128433   1.461   4.424   0.993
 9178SOL    HW228434   1.487   4.565   1.071
 9179SOL     OW28435   3.333   5.422   4.195
 9179SOL    HW128436   3.422   5.456   4.225
 9179SOL    HW228437   3.269   5.498   4.188
 9180SOL     OW28438   0.377   1.161   5.831
 9180SOL    HW128439   0.394   1.068   5.798
 9180SOL    HW228440   0.294   1.162   5.887
 9181SOL     OW28441   2.560   2.559   3.625
 9181SOL    HW128442   2.482   2.517   3.671
 9181SOL    HW228443   2.551   2.658   3.627
 9182SOL     OW28444   0.626   2.045   2.148
 9182SOL    HW128445   0.554   2.095   2.196
 9182SOL    HW228446   0.597   2.025   2.055
 9183SOL     OW28447   1.867   1.723   6.326
 9183SOL    HW128448   1.956   1.677   6.332
 9183SOL    HW228449   1.882   1.822   6.317
 9184SOL     OW28450   3.732   3.197   0.662
 9184SOL    HW128451   3.771   3.135   0.731
 9184SOL    HW228452   3.647   3.237   0.697
 9185SOL     OW28453   1.616   0.524   6.469
 9185SOL    HW128454   1.539   0.584   6.445
 9185SOL    HW228455   1.689   0.535   6.401
 9186SOL     OW28456   4.907   0.488   6.296
 9186SOL    HW128457   4.853   0.459   6.217
 9186SOL    HW228458   4.979   0.420   6.314
 9187SOL     OW28459   5.544   2.376   1.070
 9187SOL    HW128460   5.451   2.359   1.103
 9187SOL    HW228461   5.589   2.441   1.132
 9188SOL     OW28462   1.848   0.161   1.540
 9188SOL    HW128463   1.791   0.232   1.497
 9188SOL    HW228464   1.940   0.198   1.557
 9189SOL     OW28465   4.024   1.038   5.770
 9189SOL    HW128466   4.064   0.972   5.833
 9189SOL    HW228467   3.960   1.097   5.819
 9190SOL     OW28468   4.704   1.122   5.144
 9190SOL    HW128469   4.720   1.053   5.214
 9190SOL    HW228470   4.608   1.148   5.144
 9191SOL     OW28471   5.499   6.961   1.832
 9191SOL    HW128472   5.515   7.024   1.908
 9191SOL    HW228473   5.564   6.979   1.758
 9192SOL     OW28474   4.974   3.556   4.078
 9192SOL    HW128475   4.978   3.604   4.166
 9192SOL    HW228476   4.935   3.465   4.091
 9193SOL     OW28477   4.008   3.101   3.480
 9193SOL    HW128478   3.982   3.118   3.385
 9193SOL    HW228479   3.939   3.044   3.524
 9194SOL     OW28480   3.836   5.100   2.496
 9194SOL    HW128481   3.803   5.187   2.458
 9194SOL    HW228482   3.882   5.117   2.583
 9195SOL     OW28483   0.941   2.504   2.954
 9195SOL    HW128484   0.899   2.561   2.883
 9195SOL    HW228485   0.905   2.412   2.948
 9196SOL     OW28486   5.157   6.822   4.031
 9196SOL    HW128487   5.184   6.913   3.998
 9196SOL    HW228488   5.058   6.812   4.024
 9197SOL     OW28489   4.176   1.491   6.156
 9197SOL    HW128490   4.158   1.568   6.216
 9197SOL    HW228491   4.262   1.448   6.182
 9198SOL     OW28492   6.185   2.214   5.438
 9198SOL    HW128493   6.266   2.163   5.406
 9198SOL    HW228494   6.102   2.165   5.411
 9199SOL     OW28495   1.487   2.894   6.045
 9199SOL    HW128496   1.492   2.952   6.126
 9199SOL    HW228497   1.417   2.928   5.984
 9200SOL     OW28498   5.541   6.039   0.709
 9200SOL    HW128499   5.488   6.070   0.629
 9200SOL    HW228500   5.605   6.111   0.736
 9201SOL     OW28501   1.012   4.341   2.448
 9201SOL    HW128502   1.027   4.433   2.412
 9201SOL    HW228503   0.992   4.278   2.372
 9202SOL     OW28504   2.537   5.986   4.027
 9202SOL    HW128505   2.622   6.005   3.977
 9202SOL    HW228506   2.461   5.980   3.962
 9203SOL     OW28507   5.133   0.716   0.220
 9203SOL    HW128508   5.074   0.728   0.300
 9203SOL    HW228509   5.080   0.674   0.146
 9204SOL     OW28510   5.376   4.489   2.772
 9204SOL    HW128511   5.299   4.455   2.717
 9204SOL    HW228512   5.427   4.411   2.808
 9205SOL     OW28513   4.698   2.705   1.941
 9205SOL    HW128514   4.663   2.694   2.034
 9205SOL    HW228515   4.739   2.796   1.931
 9206SOL     OW28516   6.720   5.995   3.938
 9206SOL    HW128517   6.628   5.974   3.906
 9206SOL    HW228518   6.787   5.951   3.878
 9207SOL     OW28519   4.187   6.028   6.514
 9207SOL    HW128520   4.217   6.041   6.608
 9207SOL    HW228521   4.112   6.090   6.494
 9208SOL     OW28522   4.545   4.067   1.674
 9208SOL    HW128523   4.459   4.115   1.693
 9208SOL    HW228524   4.617   4.133   1.654
 9209SOL     OW28525   3.748   0.496   3.077
 9209SOL    HW128526   3.707   0.586   3.072
 9209SOL    HW228527   3.844   0.502   3.049
 9210SOL     OW28528   1.520   6.659   0.342
 9210SOL    HW128529   1.473   6.687   0.425
 9210SOL    HW228530   1.598   6.720   0.325
 9211SOL     OW28531   4.978   1.239   6.149
 9211SOL    HW128532   4.997   1.262   6.244
 9211SOL    HW228533   4.894   1.185   6.144
 9212SOL     OW28534   5.453   4.172   5.263
 9212SOL    HW128535   5.403   4.174   5.176
 9212SOL    HW228536   5.551   4.174   5.245
 9213SOL     OW28537   6.526   6.646   1.962
 9213SOL    HW128538   6.506   6.739   1.934
 9213SOL    HW228539   6.451   6.585   1.934
 9214SOL     OW28540   1.939   2.431   5.704
 9214SOL    HW128541   1.952   2.366   5.779
 9214SOL    HW228542   1.845   2.463   5.704
 9215SOL     OW28543   0.268   3.241   3.297
 9215SOL    HW128544   0.222   3.329   3.296
 9215SOL    HW228545   0.276   3.208   3.391
 9216SOL     OW28546   2.413   6.064   3.454
 9216SOL    HW128547   2.403   5.972   3.491
 9216SOL    HW228548   2.481   6.114   3.508
 9217SOL     OW28549   4.169   1.599   6.816
 9217SOL    HW128550   4.180   1.698   6.824
 9217SOL    HW228551   4.148   1.576   6.721
 9218SOL     OW28552   5.528   5.537   6.573
 9218SOL    HW128553   5.448   5.503   6.522
 9218SOL    HW228554   5.581   5.599   6.515
 9219SOL     OW28555   2.991   2.290   5.485
 9219SOL    HW128556   3.075   2.343   5.479
 9219SOL    HW228557   2.939   2.301   5.400
 9220SOL     OW28558   0.289   6.402   3.219
 9220SOL    HW128559   0.367   6.350   3.185
 9220SOL    HW228560   0.256   6.361   3.304
 9221SOL     OW28561   2.821   1.370   1.115
 9221SOL    HW128562   2.851   1.398   1.206
 9221SOL    HW228563   2.899   1.334   1.063
 9222SOL     OW28564   1.700   3.902   4.512
 9222SOL    HW128565   1.680   3.876   4.418
 9222SOL    HW228566   1.786   3.953   4.515
 9223SOL     OW28567   6.912   3.297   4.756
 9223SOL    HW128568   6.856   3.357   4.699
 9223SOL    HW228569   6.854   3.227   4.798
 9224SOL     OW28570   2.363   5.121   3.011
 9224SOL    HW128571   2.380   5.023   3.019
 9224SOL    HW228572   2.400   5.155   2.925
 9225SOL     OW28573   5.840   6.053   5.729
 9225SOL    HW128574   5.807   6.144   5.704
 9225SOL    HW228575   5.844   6.045   5.828
 9226SOL     OW28576   1.255   0.820   6.795
 9226SOL    HW128577   1.182   0.836   6.728
 9226SOL    HW228578   1.296   0.730   6.778
 9227SOL     OW28579   2.808   3.944   0.213
 9227SOL    HW128580   2.848   4.033   0.235
 9227SOL    HW228581   2.830   3.920   0.119
 9228SOL     OW28582   3.795   2.880   4.927
 9228SOL    HW128583   3.839   2.791   4.933
 9228SOL    HW228584   3.861   2.952   4.951
 9229SOL     OW28585   6.871   5.246   0.673
 9229SOL    HW128586   6.862   5.198   0.586
 9229SOL    HW228587   6.941   5.316   0.665
 9230SOL     OW28588   4.327   1.169   4.746
 9230SOL    HW128589   4.417   1.211   4.758
 9230SOL    HW228590   4.318   1.135   4.652
 9231SOL     OW28591   6.169   5.759   1.829
 9231SOL    HW128592   6.095   5.706   1.870
 9231SOL    HW228593   6.211   5.817   1.899
 9232SOL     OW28594   0.832   5.139   2.104
 9232SOL    HW128595   0.774   5.061   2.125
 9232SOL    HW228596   0.775   5.219   2.084
 9233SOL     OW28597   1.126   6.446   5.734
 9233SOL    HW128598   1.215   6.423   5.695
 9233SOL    HW228599   1.061   6.466   5.660
 9234SOL     OW28600   2.603   3.627   6.291
 9234SOL    HW128601   2.604   3.539   6.340
 9234SOL    HW228602   2.664   3.622   6.212
 9235SOL     OW28603   1.986   2.339   3.282
 9235SOL    HW128604   2.022   2.352   3.189
 9235SOL    HW228605   2.036   2.265   3.327
 9236SOL     OW28606   1.640   3.278   6.216
 9236SOL    HW128607   1.579   3.203   6.242
 9236SOL    HW228608   1.643   3.346   6.290
 9237SOL     OW28609   6.361   5.732   2.772
 9237SOL    HW128610   6.391   5.642   2.741
 9237SOL    HW228611   6.442   5.790   2.788
 9238SOL     OW28612   1.971   2.767   4.429
 9238SOL    HW128613   2.044   2.830   4.401
 9238SOL    HW228614   1.966   2.765   4.529
 9239SOL     OW28615   0.853   5.035   6.318
 9239SOL    HW128616   0.777   5.029   6.382
 9239SOL    HW228617   0.917   4.960   6.335
 9240SOL     OW28618   4.239   1.997   3.509
 9240SOL    HW128619   4.226   2.094   3.532
 9240SOL    HW228620   4.178   1.941   3.566
 9241SOL     OW28621   5.214   0.029   0.375
 9241SOL    HW128622   5.127   0.011   0.331
 9241SOL    HW228623   5.229   0.128   0.380
 9242SOL     OW28624   1.726   2.358   1.181
 9242SOL    HW128625   1.813   2.381   1.139
 9242SOL    HW228626   1.682   2.441   1.215
 9243SOL     OW28627   1.758   0.512   0.131
 9243SOL    HW128628   1.758   0.484   0.227
 9243SOL    HW228629   1.702   0.449   0.077
 9244SOL     OW28630   3.127   6.083   5.979
 9244SOL    HW128631   3.175   6.004   6.017
 9244SOL    HW228632   3.043   6.054   5.934
 9245SOL     OW28633   1.467   5.453   2.631
 9245SOL    HW128634   1.480   5.361   2.668
 9245SOL    HW228635   1.533   5.469   2.558
 9246SOL     OW28636   4.666   6.364   6.821
 9246SOL    HW128637   4.701   6.436   6.761
 9246SOL    HW228638   4.648   6.402   6.912
 9247SOL     OW28639   4.017   6.174   2.657
 9247SOL    HW128640   3.974   6.202   2.571
 9247SOL    HW228641   4.063   6.086   2.643
 9248SOL     OW28642   2.394   0.632   6.492
 9248SOL    HW128643   2.342   0.667   6.570
 9248SOL    HW228644   2.432   0.542   6.516
 9249SOL     OW28645   2.522   6.718   0.348
 9249SOL    HW128646   2.617   6.698   0.369
 9249SOL    HW228647   2.517   6.773   0.265
 9250SOL     OW28648   0.357   2.917   3.599
 9250SOL    HW128649   0.392   2.825   3.582
 9250SOL    HW228650   0.303   2.918   3.683
 9251SOL     OW28651   3.467   1.730   1.016
 9251SOL    HW128652   3.529   1.801   0.985
 9251SOL    HW228653   3.375   1.768   1.027
 9252SOL     OW28654   5.723   1.293   4.727
 9252SOL    HW128655   5.688   1.241   4.805
 9252SOL    HW228656   5.816   1.263   4.707
 9253SOL     OW28657   1.621   5.442   4.973
 9253SOL    HW128658   1.528   5.451   5.009
 9253SOL    HW228659   1.685   5.432   5.049
 9254SOL     OW28660   6.903   5.134   2.571
 9254SOL    HW128661   6.810   5.158   2.543
 9254SOL    HW228662   6.942   5.068   2.507
 9255SOL     OW28663   6.440   4.706   0.717
 9255SOL    HW128664   6.524   4.676   0.763
 9255SOL    HW228665   6.367   4.641   0.735
 9256SOL     OW28666   3.058   6.522   0.962
 9256SOL    HW128667   3.123   6.538   0.888
 9256SOL    HW228668   2.979   6.582   0.950
 9257SOL     OW28669   5.475   5.405   4.410
 9257SOL    HW128670   5.512   5.322   4.451
 9257SOL    HW228671   5.394   5.382   4.356
 9258SOL     OW28672   3.795   5.473   1.267
 9258SOL    HW128673   3.848   5.552   1.237
 9258SOL    HW228674   3.857   5.403   1.303
 9259SOL     OW28675   0.670   2.072   6.802
 9259SOL    HW128676   0.655   2.021   6.718
 9259SOL    HW228677   0.590   2.064   6.862
 9260SOL     OW28678   5.021   3.882   4.250
 9260SOL    HW128679   4.992   3.807   4.310
 9260SOL    HW228680   5.120   3.878   4.238
 9261SOL     OW28681   1.964   1.644   1.486
 9261SOL    HW128682   1.873   1.641   1.528
 9261SOL    HW228683   1.986   1.738   1.461
 9262SOL     OW28684   6.474   6.310   5.887
 9262SOL    HW128685   6.521   6.369   5.821
 9262SOL    HW228686   6.393   6.270   5.844
 9263SOL     OW28687   1.836   4.821   3.119
 9263SOL    HW128688   1.918   4.776   3.153
 9263SOL    HW228689   1.790   4.763   3.052
 9264SOL     OW28690   5.801   4.284   6.625
 9264SOL    HW128691   5.875   4.251   6.566
 9264SOL    HW228692   5.832   4.363   6.678
 9265SOL     OW28693   5.483   0.988   1.799
 9265SOL    HW128694   5.391   1.021   1.824
 9265SOL    HW228695   5.477   0.892   1.772
 9266SOL     OW28696   1.630   4.311   0.776
 9266SOL    HW128697   1.622   4.221   0.734
 9266SOL    HW228698   1.540   4.355   0.780
 9267SOL     OW28699   0.174   1.233   4.100
 9267SOL    HW128700   0.155   1.215   4.196
 9267SOL    HW228701   0.135   1.160   4.044
 9268SOL     OW28702   0.320   0.264   1.703
 9268SOL    HW128703   0.365   0.189   1.752
 9268SOL    HW228704   0.364   0.276   1.614
 9269SOL     OW28705   3.654   0.871   6.758
 9269SOL    HW128706   3.585   0.924   6.708
 9269SOL    HW228707   3.616   0.843   6.846
 9270SOL     OW28708   2.620   0.620   6.206
 9270SOL    HW128709   2.665   0.701   6.169
 9270SOL    HW228710   2.623   0.624   6.306
 9271SOL     OW28711   1.462   5.178   5.258
 9271SOL    HW128712   1.435   5.119   5.335
 9271SOL    HW228713   1.547   5.143   5.218
 9272SOL     OW28714   6.333   6.582   5.824
 9272SOL    HW128715   6.422   6.541   5.805
 9272SOL    HW228716   6.313   6.653   5.756
 9273SOL     OW28717   5.442   3.587   3.385
 9273SOL    HW128718   5.458   3.488   3.384
 9273SOL    HW228719   5.408   3.614   3.474
 9274SOL     OW28720   0.737   3.253   0.646
 9274SOL    HW128721   0.793   3.312   0.704
 9274SOL    HW228722   0.664   3.308   0.604
 9275SOL     OW28723   5.785   0.890   0.677
 9275SOL    HW128724   5.833   0.807   0.648
 9275SOL    HW228725   5.852   0.961   0.699
 9276SOL     OW28726   2.719   5.015   0.066
 9276SOL    HW128727   2.776   5.026   7.009
 9276SOL    HW228728   2.716   5.101   0.117
 9277SOL     OW28729   4.659   4.920   2.491
 9277SOL    HW128730   4.753   4.947   2.472
 9277SOL    HW228731   4.659   4.839   2.549
 9278SOL     OW28732   0.577   0.009   5.523
 9278SOL    HW128733   0.568   6.940   5.489
 9278SOL    HW228734   0.636   0.010   5.604
 9279SOL     OW28735   3.343   5.932   2.069
 9279SOL    HW128736   3.246   5.908   2.075
 9279SOL    HW228737   3.395   5.852   2.039
 9280SOL     OW28738   1.856   5.775   2.899
 9280SOL    HW128739   1.885   5.806   2.989
 9280SOL    HW228740   1.881   5.844   2.831
 9281SOL     OW28741   1.689   5.439   1.039
 9281SOL    HW128742   1.777   5.401   1.069
 9281SOL    HW228743   1.625   5.437   1.116
 9282SOL     OW28744   3.022   0.019   4.871
 9282SOL    HW128745   3.036   6.984   4.792
 9282SOL    HW228746   2.948   0.083   4.852
 9283SOL     OW28747   4.455   6.923   0.924
 9283SOL    HW128748   4.456   6.834   0.880
 9283SOL    HW228749   4.382   6.979   0.885
 9284SOL     OW28750   4.054   4.503   6.006
 9284SOL    HW128751   4.015   4.537   6.092
 9284SOL    HW228752   4.052   4.403   6.005
 9285SOL     OW28753   0.227   5.956   2.968
 9285SOL    HW128754   0.306   5.895   2.974
 9285SOL    HW228755   0.257   6.043   2.928
 9286SOL     OW28756   4.154   0.112   1.728
 9286SOL    HW128757   4.097   0.030   1.720
 9286SOL    HW228758   4.097   0.190   1.756
 9287SOL     OW28759   4.570   3.787   5.949
 9287SOL    HW128760   4.647   3.752   5.896
 9287SOL    HW228761   4.539   3.874   5.910
 9288SOL     OW28762   3.396   1.709   1.840
 9288SOL    HW128763   3.325   1.763   1.886
 9288SOL    HW228764   3.479   1.709   1.896
 9289SOL     OW28765   5.175   6.872   0.762
 9289SOL    HW128766   5.112   6.879   0.685
 9289SOL    HW228767   5.215   6.781   0.766
 9290SOL     OW28768   6.346   1.513   3.914
 9290SOL    HW128769   6.311   1.420   3.913
 9290SOL    HW228770   6.289   1.571   3.855
 9291SOL     OW28771   0.436   3.770   5.953
 9291SOL    HW128772   0.495   3.843   5.986
 9291SOL    HW228773   0.441   3.765   5.853
 9292SOL     OW28774   0.751   1.032   6.432
 9292SOL    HW128775   0.715   1.049   6.340
 9292SOL    HW228776   0.831   1.090   6.447
 9293SOL     OW28777   4.897   2.198   4.744
 9293SOL    HW128778   4.823   2.259   4.717
 9293SOL    HW228779   4.878   2.106   4.711
 9294SOL     OW28780   4.735   0.079   6.196
 9294SOL    HW128781   4.708   0.172   6.170
 9294SOL    HW228782   4.824   0.058   6.155
 9295SOL     OW28783   6.238   1.586   4.488
 9295SOL    HW128784   6.273   1.643   4.563
 9295SOL    HW228785   6.304   1.585   4.413
 9296SOL     OW28786   2.108   5.209   5.793
 9296SOL    HW128787   2.095   5.131   5.732
 9296SOL    HW228788   2.206   5.231   5.799
 9297SOL     OW28789   6.681   5.212   2.367
 9297SOL    HW128790   6.632   5.298   2.381
 9297SOL    HW228791   6.766   5.229   2.319
 9298SOL     OW28792   1.114   3.799   6.408
 9298SOL    HW128793   1.157   3.862   6.475
 9298SOL    HW228794   1.048   3.850   6.353
 9299SOL     OW28795   2.285   2.354   4.886
 9299SOL    HW128796   2.371   2.353   4.937
 9299SOL    HW228797   2.301   2.322   4.792
 9300SOL     OW28798   2.364   5.939   4.501
 9300SOL    HW128799   2.399   5.980   4.417
 9300SOL    HW228800   2.352   6.010   4.571
 9301SOL     OW28801   0.351   4.396   4.158
 9301SOL    HW128802   0.417   4.460   4.119
 9301SOL    HW228803   0.397   4.310   4.179
 9302SOL     OW28804   1.878   4.106   4.480
 9302SOL    HW128805   1.901   4.112   4.382
 9302SOL    HW228806   1.951   4.148   4.533
 9303SOL     OW28807   2.279   4.449   0.134
 9303SOL    HW128808   2.292   4.388   0.212
 9303SOL    HW228809   2.296   4.543   0.161
 9304SOL     OW28810   5.296   5.494   6.436
 9304SOL    HW128811   5.225   5.560   6.410
 9304SOL    HW228812   5.254   5.418   6.486
 9305SOL     OW28813   1.536   2.113   1.207
 9305SOL    HW128814   1.598   2.191   1.200
 9305SOL    HW228815   1.497   2.110   1.299
 9306SOL     OW28816   6.979   6.361   4.859
 9306SOL    HW128817   0.043   6.372   4.904
 9306SOL    HW228818   6.953   6.447   4.815
 9307SOL     OW28819   2.001   3.770   1.068
 9307SOL    HW128820   2.091   3.808   1.092
 9307SOL    HW228821   1.958   3.734   1.151
 9308SOL     OW28822   2.083   3.306   1.809
 9308SOL    HW128823   2.165   3.352   1.842
 9308SOL    HW228824   2.076   3.215   1.851
 9309SOL     OW28825   4.951   5.017   6.717
 9309SOL    HW128826   4.994   5.037   6.629
 9309SOL    HW228827   4.852   5.035   6.712
 9310SOL     OW28828   5.850   5.605   6.299
 9310SOL    HW128829   5.876   5.513   6.328
 9310SOL    HW228830   5.756   5.625   6.330
 9311SOL     OW28831   5.015   4.464   0.624
 9311SOL    HW128832   4.942   4.471   0.692
 9311SOL    HW228833   4.979   4.484   0.533
 9312SOL     OW28834   0.327   2.870   2.924
 9312SOL    HW128835   0.386   2.912   2.856
 9312SOL    HW228836   0.359   2.777   2.944
 9313SOL     OW28837   0.418   0.841   2.247
 9313SOL    HW128838   0.416   0.778   2.325
 9313SOL    HW228839   0.327   0.881   2.234
 9314SOL     OW28840   5.338   4.837   1.097
 9314SOL    HW128841   5.269   4.786   1.149
 9314SOL    HW228842   5.382   4.904   1.157
 9315SOL     OW28843   5.566   6.345   6.060
 9315SOL    HW128844   5.574   6.351   6.159
 9315SOL    HW228845   5.552   6.249   6.033
 9316SOL     OW28846   4.765   0.074   6.981
 9316SOL    HW128847   4.746   0.152   6.922
 9316SOL    HW228848   4.718   0.086   0.045
 9317SOL     OW28849   3.083   6.179   3.372
 9317SOL    HW128850   3.175   6.157   3.339
 9317SOL    HW228851   3.024   6.098   3.363
 9318SOL     OW28852   4.016   6.830   2.070
 9318SOL    HW128853   3.921   6.833   2.102
 9318SOL    HW228854   4.043   6.735   2.057
 9319SOL     OW28855   4.479   1.920   0.434
 9319SOL    HW128856   4.382   1.923   0.409
 9319SOL    HW228857   4.534   1.905   0.351
 9320SOL     OW28858   6.872   6.438   6.994
 9320SOL    HW128859   6.905   6.522   6.952
 9320SOL    HW228860   6.945   6.370   6.994
 9321SOL     OW28861   0.967   3.331   4.439
 9321SOL    HW128862   0.895   3.400   4.433
 9321SOL    HW228863   1.002   3.329   4.533
 9322SOL     OW28864   5.316   3.049   0.101
 9322SOL    HW128865   5.226   3.037   0.058
 9322SOL    HW228866   5.357   2.959   0.117
 9323SOL     OW28867   0.781   2.245   5.876
 9323SOL    HW128868   0.826   2.334   5.863
 9323SOL    HW228869   0.716   2.252   5.952
 9324SOL     OW28870   0.530   4.216   1.362
 9324SOL    HW128871   0.500   4.180   1.274
 9324SOL    HW228872   0.474   4.294   1.388
 9325SOL     OW28873   0.533   4.828   3.702
 9325SOL    HW128874   0.498   4.857   3.613
 9325SOL    HW228875   0.528   4.729   3.709
 9326SOL     OW28876   4.550   4.132   0.672
 9326SOL    HW128877   4.472   4.191   0.651
 9326SOL    HW228878   4.593   4.102   0.586
 9327SOL     OW28879   2.764   1.053   3.328
 9327SOL    HW128880   2.678   1.007   3.348
 9327SOL    HW228881   2.807   1.082   3.414
 9328SOL     OW28882   2.341   1.001   3.818
 9328SOL    HW128883   2.321   1.064   3.742
 9328SOL    HW228884   2.422   0.947   3.796
 9329SOL     OW28885   0.338   5.557   6.970
 9329SOL    HW128886   0.319   5.585   6.876
 9329SOL    HW228887   0.253   5.557   7.022
 9330SOL     OW28888   0.191   6.423   0.412
 9330SOL    HW128889   0.191   6.355   0.338
 9330SOL    HW228890   0.244   6.388   0.489
 9331SOL     OW28891   2.140   3.870   4.303
 9331SOL    HW128892   2.159   3.772   4.297
 9331SOL    HW228893   2.150   3.900   4.398
 9332SOL     OW28894   6.252   5.213   0.628
 9332SOL    HW128895   6.159   5.192   0.599
 9332SOL    HW228896   6.281   5.146   0.697
 9333SOL     OW28897   3.174   3.860   1.095
 9333SOL    HW128898   3.132   3.951   1.099
 9333SOL    HW228899   3.212   3.837   1.185
 9334SOL     OW28900   6.078   6.010   5.634
 9334SOL    HW128901   5.988   6.030   5.674
 9334SOL    HW228902   6.094   5.911   5.634
 9335SOL     OW28903   0.982   3.582   1.376
 9335SOL    HW128904   0.946   3.673   1.355
 9335SOL    HW228905   0.970   3.564   1.474
 9336SOL     OW28906   5.583   0.493   5.670
 9336SOL    HW128907   5.524   0.425   5.714
 9336SOL    HW228908   5.532   0.578   5.657
 9337SOL     OW28909   2.399   1.401   5.492
 9337SOL    HW128910   2.452   1.400   5.407
 9337SOL    HW228911   2.368   1.309   5.514
 9338SOL     OW28912   5.470   6.459   0.157
 9338SOL    HW128913   5.401   6.492   0.092
 9338SOL    HW228914   5.561   6.488   0.126
 9339SOL     OW28915   7.005   3.708   5.506
 9339SOL    HW128916   0.015   3.779   5.567
 9339SOL    HW228917   6.998   3.744   5.413
 9340SOL     OW28918   2.914   4.686   1.489
 9340SOL    HW128919   2.815   4.700   1.483
 9340SOL    HW228920   2.945   4.706   1.582
 9341SOL     OW28921   5.257   4.822   6.520
 9341SOL    HW128922   5.293   4.832   6.427
 9341SOL    HW228923   5.158   4.835   6.518
 9342SOL     OW28924   2.910   0.460   4.577
 9342SOL    HW128925   2.924   0.361   4.567
 9342SOL    HW228926   2.999   0.506   4.582
 9343SOL     OW28927   4.977   3.740   0.838
 9343SOL    HW128928   5.053   3.793   0.800
 9343SOL    HW228929   5.006   3.697   0.923
 9344SOL     OW28930   5.987   0.562   5.444
 9344SOL    HW128931   6.011   0.538   5.350
 9344SOL    HW228932   5.945   0.652   5.446
 9345SOL     OW28933   0.007   4.579   0.310
 9345SOL    HW128934   6.952   4.591   0.370
 9345SOL    HW228935   0.018   4.481   0.289
 9346SOL     OW28936   5.571   6.758   2.022
 9346SOL    HW128937   5.574   6.665   1.986
 9346SOL    HW228938   5.530   6.819   1.953
 9347SOL     OW28939   4.022   5.938   1.423
 9347SOL    HW128940   4.088   5.890   1.365
 9347SOL    HW228941   3.931   5.932   1.382
 9348SOL     OW28942   2.392   5.692   1.551
 9348SOL    HW128943   2.388   5.735   1.641
 9348SOL    HW228944   2.486   5.696   1.516
 9349SOL     OW28945   6.871   6.073   1.599
 9349SOL    HW128946   6.871   6.148   1.666
 9349SOL    HW228947   6.948   6.012   1.617
 9350SOL     OW28948   6.436   0.572   0.083
 9350SOL    HW128949   6.531   0.582   0.053
 9350SOL    HW228950   6.405   0.479   0.064
 9351SOL     OW28951   3.951   2.909   5.688
 9351SOL    HW128952   3.986   2.839   5.749
 9351SOL    HW228953   3.942   2.872   5.596
 9352SOL     OW28954   2.821   3.009   6.492
 9352SOL    HW128955   2.846   3.098   6.453
 9352SOL    HW228956   2.864   2.936   6.439
 9353SOL     OW28957   0.427   3.458   1.259
 9353SOL    HW128958   0.353   3.433   1.196
 9353SOL    HW228959   0.513   3.462   1.208
 9354SOL     OW28960   5.016   1.570   1.994
 9354SOL    HW128961   5.107   1.536   1.970
 9354SOL    HW228962   4.971   1.605   1.912
 9355SOL     OW28963   6.428   1.301   2.964
 9355SOL    HW128964   6.453   1.275   3.057
 9355SOL    HW228965   6.453   1.396   2.948
 9356SOL     OW28966   4.859   4.467   2.830
 9356SOL    HW128967   4.848   4.389   2.769
 9356SOL    HW228968   4.771   4.490   2.872
 9357SOL     OW28969   3.348   3.404   0.662
 9357SOL    HW128970   3.333   3.306   0.668
 9357SOL    HW228971   3.319   3.437   0.572
 9358SOL     OW28972   5.184   4.158   2.052
 9358SOL    HW128973   5.268   4.164   2.106
 9358SOL    HW228974   5.198   4.201   1.963
 9359SOL     OW28975   5.323   4.523   5.945
 9359SOL    HW128976   5.243   4.526   5.885
 9359SOL    HW228977   5.402   4.558   5.896
 9360SOL     OW28978   1.262   0.241   5.440
 9360SOL    HW128979   1.325   0.206   5.509
 9360SOL    HW228980   1.303   0.320   5.394
 9361SOL     OW28981   2.422   1.073   2.345
 9361SOL    HW128982   2.448   1.109   2.434
 9361SOL    HW228983   2.360   1.136   2.299
 9362SOL     OW28984   1.547   1.678   2.885
 9362SOL    HW128985   1.640   1.710   2.905
 9362SOL    HW228986   1.550   1.585   2.849
 9363SOL     OW28987   2.610   6.869   1.783
 9363SOL    HW128988   2.594   6.909   1.693
 9363SOL    HW228989   2.656   6.936   1.841
 9364SOL     OW28990   5.497   5.234   0.912
 9364SOL    HW128991   5.505   5.238   0.812
 9364SOL    HW228992   5.527   5.145   0.945
 9365SOL     OW28993   1.731   1.209   4.909
 9365SOL    HW128994   1.665   1.282   4.892
 9365SOL    HW228995   1.823   1.242   4.888
 9366SOL     OW28996   2.716   1.183   1.556
 9366SOL    HW128997   2.621   1.163   1.578
 9366SOL    HW228998   2.760   1.225   1.636
 9367SOL     OW28999   6.545   6.160   3.552
 9367SOL    HW129000   6.555   6.242   3.495
 9367SOL    HW229001   6.481   6.179   3.626
 9368SOL     OW29002   3.967   2.733   1.491
 9368SOL    HW129003   4.057   2.690   1.484
 9368SOL    HW229004   3.969   2.803   1.563
 9369SOL     OW29005   0.073   2.223   5.343
 9369SOL    HW129006   0.111   2.134   5.365
 9369SOL    HW229007   0.060   2.231   5.244
 9370SOL     OW29008   5.959   6.773   3.253
 9370SOL    HW129009   5.904   6.696   3.220
 9370SOL    HW229010   5.914   6.815   3.331
 9371SOL     OW29011   1.338   6.809   0.492
 9371SOL    HW129012   1.260   6.780   0.437
 9371SOL    HW229013   1.320   6.790   0.589
 9372SOL     OW29014   6.673   6.322   6.448
 9372SOL    HW129015   6.585   6.327   6.400
 9372SOL    HW229016   6.684   6.230   6.487
 9373SOL     OW29017   4.594   2.146   3.998
 9373SOL    HW129018   4.523   2.193   3.947
 9373SOL    HW229019   4.648   2.089   3.936
 9374SOL     OW29020   5.318   3.818   0.387
 9374SOL    HW129021   5.407   3.784   0.416
 9374SOL    HW229022   5.252   3.806   0.461
 9375SOL     OW29023   0.659   1.607   3.539
 9375SOL    HW129024   0.636   1.621   3.635
 9375SOL    HW229025   0.709   1.522   3.529
 9376SOL     OW29026   2.203   2.776   2.476
 9376SOL    HW129027   2.115   2.728   2.475
 9376SOL    HW229028   2.268   2.727   2.418
 9377SOL     OW29029   5.860   5.309   2.879
 9377SOL    HW129030   5.824   5.247   2.810
 9377SOL    HW229031   5.955   5.331   2.858
 9378SOL     OW29032   3.045   6.267   1.038
 9378SOL    HW129033   2.966   6.229   0.991
 9378SOL    HW229034   3.049   6.366   1.021
 9379SOL     OW29035   5.980   4.291   5.278
 9379SOL    HW129036   6.005   4.297   5.181
 9379SOL    HW229037   5.904   4.227   5.289
 9380SOL     OW29038   5.837   6.130   6.445
 9380SOL    HW129039   5.779   6.112   6.365
 9380SOL    HW229040   5.789   6.193   6.507
 9381SOL     OW29041   2.944   0.917   0.147
 9381SOL    HW129042   3.039   0.946   0.136
 9381SOL    HW229043   2.931   0.878   0.239
 9382SOL     OW29044   5.084   2.043   2.384
 9382SOL    HW129045   4.998   1.999   2.361
 9382SOL    HW229046   5.093   2.050   2.483
 9383SOL     OW29047   5.505   5.634   5.905
 9383SOL    HW129048   5.519   5.598   5.997
 9383SOL    HW229049   5.423   5.594   5.865
 9384SOL     OW29050   4.747   6.148   1.842
 9384SOL    HW129051   4.655   6.143   1.881
 9384SOL    HW229052   4.770   6.243   1.822
 9385SOL     OW29053   3.824   1.676   3.346
 9385SOL    HW129054   3.737   1.661   3.299
 9385SOL    HW229055   3.818   1.756   3.404
 9386SOL     OW29056   3.639   0.386   4.459
 9386SOL    HW129057   3.719   0.347   4.504
 9386SOL    HW229058   3.659   0.480   4.431
 9387SOL     OW29059   4.132   0.115   0.333
 9387SOL    HW129060   4.125   0.202   0.382
 9387SOL    HW229061   4.047   0.097   0.285
 9388SOL     OW29062   6.966   0.148   2.723
 9388SOL    HW129063   6.897   0.219   2.734
 9388SOL    HW229064   7.010   0.157   2.634
 9389SOL     OW29065   2.997   0.482   6.168
 9389SOL    HW129066   3.085   0.489   6.120
 9389SOL    HW229067   2.987   0.390   6.206
 9390SOL     OW29068   3.177   6.493   2.565
 9390SOL    HW129069   3.152   6.550   2.486
 9390SOL    HW229070   3.249   6.429   2.538
 9391SOL     OW29071   0.945   0.978   5.319
 9391SOL    HW129072   1.011   0.950   5.388
 9391SOL    HW229073   0.989   0.978   5.229
 9392SOL     OW29074   1.530   6.323   4.326
 9392SOL    HW129075   1.502   6.247   4.267
 9392SOL    HW229076   1.595   6.381   4.276
 9393SOL     OW29077   3.778   2.336   5.440
 9393SOL    HW129078   3.754   2.304   5.531
 9393SOL    HW229079   3.851   2.404   5.447
 9394SOL     OW29080   5.152   2.300   2.284
 9394SOL    HW129081   5.124   2.214   2.326
 9394SOL    HW229082   5.251   2.312   2.293
 9395SOL     OW29083   1.919   2.479   6.914
 9395SOL    HW129084   1.823   2.478   6.941
 9395SOL    HW229085   1.938   2.562   6.861
 9396SOL     OW29086   6.812   0.318   6.827
 9396SOL    HW129087   6.718   0.326   6.860
 9396SOL    HW229088   6.830   0.224   6.798
 9397SOL     OW29089   3.177   0.784   0.884
 9397SOL    HW129090   3.119   0.731   0.946
 9397SOL    HW229091   3.274   0.766   0.905
 9398SOL     OW29092   2.631   1.979   6.941
 9398SOL    HW129093   2.575   2.060   6.961
 9398SOL    HW229094   2.625   1.958   6.843
 9399SOL     OW29095   6.827   0.755   5.273
 9399SOL    HW129096   6.780   0.758   5.184
 9399SOL    HW229097   6.890   0.678   5.274
 9400SOL     OW29098   5.224   2.091   3.402
 9400SOL    HW129099   5.196   2.158   3.470
 9400SOL    HW229100   5.142   2.054   3.357
 9401SOL     OW29101   3.065   0.321   2.899
 9401SOL    HW129102   3.101   0.236   2.859
 9401SOL    HW229103   3.085   0.397   2.837
 9402SOL     OW29104   2.389   5.490   6.611
 9402SOL    HW129105   2.349   5.582   6.621
 9402SOL    HW229106   2.487   5.499   6.591
 9403SOL     OW29107   5.285   1.673   4.221
 9403SOL    HW129108   5.269   1.737   4.296
 9403SOL    HW229109   5.312   1.584   4.257
 9404SOL     OW29110   0.075   4.302   6.090
 9404SOL    HW129111   0.141   4.267   6.157
 9404SOL    HW229112   0.003   4.353   6.137
 9405SOL     OW29113   6.269   0.023   1.079
 9405SOL    HW129114   6.294   6.997   0.997
 9405SOL    HW229115   6.210   0.100   1.056
 9406SOL     OW29116   0.044   1.020   5.603
 9406SOL    HW129117   6.985   1.000   5.551
 9406SOL    HW229118   0.070   1.115   5.590
 9407SOL     OW29119   3.376   6.428   3.112
 9407SOL    HW129120   3.324   6.409   3.028
 9407SOL    HW229121   3.429   6.511   3.100
 9408SOL     OW29122   3.866   1.624   6.451
 9408SOL    HW129123   3.844   1.553   6.383
 9408SOL    HW229124   3.958   1.607   6.488
 9409SOL     OW29125   5.515   4.050   3.024
 9409SOL    HW129126   5.551   4.090   3.108
 9409SOL    HW229127   5.488   4.122   2.961
 9410SOL     OW29128   4.803   6.207   2.823
 9410SOL    HW129129   4.852   6.263   2.756
 9410SOL    HW229130   4.767   6.266   2.895
 9411SOL     OW29131   4.807   5.527   1.122
 9411SOL    HW129132   4.793   5.620   1.087
 9411SOL    HW229133   4.822   5.531   1.220
 9412SOL     OW29134   6.424   2.505   1.141
 9412SOL    HW129135   6.487   2.499   1.219
 9412SOL    HW229136   6.477   2.508   1.056
 9413SOL     OW29137   3.682   6.261   5.258
 9413SOL    HW129138   3.680   6.354   5.222
 9413SOL    HW229139   3.775   6.241   5.292
 9414SOL     OW29140   2.589   1.517   1.666
 9414SOL    HW129141   2.508   1.471   1.704
 9414SOL    HW229142   2.664   1.511   1.731
 9415SOL     OW29143   2.995   0.531   2.340
 9415SOL    HW129144   3.029   0.472   2.266
 9415SOL    HW229145   2.976   0.622   2.303
 9416SOL     OW29146   0.485   2.387   1.368
 9416SOL    HW129147   0.532   2.464   1.323
 9416SOL    HW229148   0.462   2.413   1.462
 9417SOL     OW29149   1.897   6.655   4.728
 9417SOL    HW129150   1.825   6.615   4.784
 9417SOL    HW229151   1.946   6.583   4.679
 9418SOL     OW29152   3.665   4.784   0.798
 9418SOL    HW129153   3.596   4.715   0.822
 9418SOL    HW229154   3.647   4.819   0.706
 9419SOL     OW29155   3.622   6.176   5.565
 9419SOL    HW129156   3.649   6.224   5.481
 9419SOL    HW229157   3.589   6.085   5.542
 9420SOL     OW29158   0.673   1.590   3.819
 9420SOL    HW129159   0.623   1.540   3.890
 9420SOL    HW229160   0.767   1.556   3.815
 9421SOL     OW29161   1.750   4.621   5.297
 9421SOL    HW129162   1.763   4.575   5.385
 9421SOL    HW229163   1.759   4.555   5.223
 9422SOL     OW29164   4.004   1.603   2.068
 9422SOL    HW129165   4.078   1.549   2.108
 9422SOL    HW229166   3.959   1.657   2.139
 9423SOL     OW29167   4.913   1.044   4.978
 9423SOL    HW129168   4.888   0.971   4.915
 9423SOL    HW229169   4.830   1.082   5.019
 9424SOL     OW29170   3.169   6.413   4.479
 9424SOL    HW129171   3.149   6.508   4.502
 9424SOL    HW229172   3.116   6.352   4.538
 9425SOL     OW29173   1.156   3.964   3.921
 9425SOL    HW129174   1.161   4.028   3.998
 9425SOL    HW229175   1.131   3.873   3.954
 9426SOL     OW29176   3.470   6.486   0.337
 9426SOL    HW129177   3.527   6.554   0.290
 9426SOL    HW229178   3.488   6.396   0.298
 9427SOL     OW29179   2.941   5.051   4.216
 9427SOL    HW129180   2.927   5.150   4.221
 9427SOL    HW229181   2.950   5.014   4.309
 9428SOL     OW29182   5.253   6.557   2.965
 9428SOL    HW129183   5.236   6.572   3.062
 9428SOL    HW229184   5.317   6.481   2.953
 9429SOL     OW29185   0.414   3.552   2.261
 9429SOL    HW129186   0.392   3.646   2.283
 9429SOL    HW229187   0.337   3.493   2.285
 9430SOL     OW29188   6.101   6.918   1.973
 9430SOL    HW129189   6.086   6.872   2.061
 9430SOL    HW229190   6.109   6.849   1.901
 9431SOL     OW29191   0.027   4.473   1.807
 9431SOL    HW129192   6.964   4.458   1.855
 9431SOL    HW229193   0.097   4.496   1.874
 9432SOL     OW29194   6.502   6.724   4.545
 9432SOL    HW129195   6.457   6.813   4.542
 9432SOL    HW229196   6.515   6.690   4.452
 9433SOL     OW29197   2.853   4.814   4.794
 9433SOL    HW129198   2.764   4.848   4.766
 9433SOL    HW229199   2.842   4.744   4.864
 9434SOL     OW29200   5.238   5.578   2.863
 9434SOL    HW129201   5.327   5.548   2.830
 9434SOL    HW229202   5.169   5.564   2.793
 9435SOL     OW29203   1.424   0.720   4.467
 9435SOL    HW129204   1.340   0.683   4.509
 9435SOL    HW229205   1.405   0.742   4.371
 9436SOL     OW29206   2.306   2.481   6.938
 9436SOL    HW129207   2.226   2.437   6.897
 9436SOL    HW229208   2.281   2.519   0.003
 9437SOL     OW29209   0.969   5.132   4.141
 9437SOL    HW129210   0.870   5.141   4.142
 9437SOL    HW229211   0.996   5.050   4.192
 9438SOL     OW29212   1.363   6.364   1.993
 9438SOL    HW129213   1.371   6.281   1.938
 9438SOL    HW229214   1.440   6.370   2.056
 9439SOL     OW29215   0.386   2.718   1.580
 9439SOL    HW129216   0.329   2.652   1.532
 9439SOL    HW229217   0.329   2.794   1.612
 9440SOL     OW29218   4.970   6.048   5.823
 9440SOL    HW129219   4.919   6.081   5.744
 9440SOL    HW229220   5.067   6.069   5.811
 9441SOL     OW29221   1.565   4.821   5.144
 9441SOL    HW129222   1.605   4.759   5.212
 9441SOL    HW229223   1.601   4.913   5.157
 9442SOL     OW29224   0.554   3.893   1.683
 9442SOL    HW129225   0.614   3.865   1.758
 9442SOL    HW229226   0.475   3.832   1.679
 9443SOL     OW29227   1.744   3.635   1.772
 9443SOL    HW129228   1.660   3.604   1.728
 9443SOL    HW229229   1.818   3.570   1.753
 9444SOL     OW29230   6.998   3.304   6.708
 9444SOL    HW129231   6.948   3.386   6.736
 9444SOL    HW229232   6.948   3.223   6.740
 9445SOL     OW29233   5.704   3.442   1.377
 9445SOL    HW129234   5.606   3.427   1.386
 9445SOL    HW229235   5.752   3.355   1.388
 9446SOL     OW29236   6.222   5.352   1.293
 9446SOL    HW129237   6.165   5.380   1.370
 9446SOL    HW229238   6.317   5.342   1.324
 9447SOL     OW29239   6.009   2.363   1.616
 9447SOL    HW129240   5.978   2.303   1.542
 9447SOL    HW229241   6.083   2.318   1.667
 9448SOL     OW29242   6.194   6.363   0.273
 9448SOL    HW129243   6.247   6.327   0.196
 9448SOL    HW229244   6.254   6.375   0.352
 9449SOL     OW29245   0.020   5.329   5.732
 9449SOL    HW129246   7.005   5.378   5.810
 9449SOL    HW229247   0.101   5.378   5.700
 9450SOL     OW29248   3.224   5.010   4.453
 9450SOL    HW129249   3.160   4.988   4.527
 9450SOL    HW229250   3.228   5.110   4.442
 9451SOL     OW29251   4.184   4.697   5.896
 9451SOL    HW129252   4.133   4.625   5.943
 9451SOL    HW229253   4.281   4.689   5.920
 9452SOL     OW29254   2.596   4.347   1.266
 9452SOL    HW129255   2.499   4.321   1.267
 9452SOL    HW229256   2.614   4.408   1.342
 9453SOL     OW29257   3.241   5.113   1.907
 9453SOL    HW129258   3.158   5.061   1.923
 9453SOL    HW229259   3.319   5.067   1.950
 9454SOL     OW29260   2.310   2.785   5.163
 9454SOL    HW129261   2.314   2.866   5.103
 9454SOL    HW229262   2.390   2.783   5.222
 9455SOL     OW29263   3.236   1.836   2.053
 9455SOL    HW129264   3.213   1.933   2.063
 9455SOL    HW229265   3.152   1.782   2.048
 9456SOL     OW29266   1.629   2.837   1.540
 9456SOL    HW129267   1.601   2.864   1.633
 9456SOL    HW229268   1.725   2.862   1.526
 9457SOL     OW29269   0.056   3.738   0.842
 9457SOL    HW129270   0.087   3.817   0.789
 9457SOL    HW229271   0.071   3.655   0.790
 9458SOL     OW29272   6.749   5.817   5.063
 9458SOL    HW129273   6.803   5.733   5.058
 9458SOL    HW229274   6.663   5.798   5.111
 9459SOL     OW29275   5.681   5.677   1.613
 9459SOL    HW129276   5.662   5.683   1.515
 9459SOL    HW229277   5.739   5.598   1.630
 9460SOL     OW29278   0.702   2.190   5.478
 9460SOL    HW129279   0.617   2.222   5.437
 9460SOL    HW229280   0.759   2.268   5.502
 9461SOL     OW29281   1.344   0.790   3.377
 9461SOL    HW129282   1.328   0.721   3.307
 9461SOL    HW229283   1.310   0.879   3.345
 9462SOL     OW29284   0.669   3.034   2.926
 9462SOL    HW129285   0.670   3.134   2.927
 9462SOL    HW229286   0.641   3.001   3.017
 9463SOL     OW29287   4.996   1.418   0.610
 9463SOL    HW129288   5.014   1.432   0.512
 9463SOL    HW229289   5.074   1.371   0.651
 9464SOL     OW29290   5.236   0.428   6.189
 9464SOL    HW129291   5.198   0.375   6.265
 9464SOL    HW229292   5.319   0.383   6.156
 9465SOL     OW29293   6.012   0.872   3.955
 9465SOL    HW129294   5.925   0.859   4.003
 9465SOL    HW229295   6.012   0.817   3.872
 9466SOL     OW29296   2.972   2.681   6.712
 9466SOL    HW129297   2.905   2.658   6.641
 9466SOL    HW229298   2.993   2.778   6.708
 9467SOL     OW29299   2.124   3.275   2.182
 9467SOL    HW129300   2.147   3.339   2.109
 9467SOL    HW229301   2.194   3.203   2.187
 9468SOL     OW29302   7.017   2.734   5.463
 9468SOL    HW129303   6.936   2.790   5.446
 9468SOL    HW229304   0.028   2.754   5.555
 9469SOL     OW29305   6.534   4.932   1.938
 9469SOL    HW129306   6.606   4.869   1.909
 9469SOL    HW229307   6.505   4.988   1.860
 9470SOL     OW29308   5.117   4.042   1.067
 9470SOL    HW129309   5.156   4.121   1.019
 9470SOL    HW229310   5.185   4.005   1.130
 9471SOL     OW29311   6.785   1.822   6.083
 9471SOL    HW129312   6.746   1.847   6.172
 9471SOL    HW229313   6.872   1.776   6.098
 9472SOL     OW29314   6.557   3.817   4.237
 9472SOL    HW129315   6.635   3.871   4.206
 9472SOL    HW229316   6.530   3.753   4.165
 9473SOL     OW29317   3.541   5.578   5.241
 9473SOL    HW129318   3.490   5.663   5.231
 9473SOL    HW229319   3.599   5.564   5.161
 9474SOL     OW29320   4.047   5.167   2.267
 9474SOL    HW129321   3.985   5.144   2.342
 9474SOL    HW229322   4.005   5.140   2.180
 9475SOL     OW29323   2.318   3.437   1.007
 9475SOL    HW129324   2.344   3.529   1.038
 9475SOL    HW229325   2.318   3.435   0.907
 9476SOL     OW29326   3.447   3.914   5.546
 9476SOL    HW129327   3.545   3.923   5.525
 9476SOL    HW229328   3.431   3.935   5.642
 9477SOL     OW29329   1.322   2.911   1.130
 9477SOL    HW129330   1.367   2.887   1.217
 9477SOL    HW229331   1.254   2.842   1.108
 9478SOL     OW29332   5.434   4.299   5.510
 9478SOL    HW129333   5.526   4.331   5.489
 9478SOL    HW229334   5.404   4.233   5.442
 9479SOL     OW29335   6.313   5.889   6.110
 9479SOL    HW129336   6.257   5.954   6.161
 9479SOL    HW229337   6.400   5.874   6.157
 9480SOL     OW29338   5.793   4.777   0.053
 9480SOL    HW129339   5.863   4.822   0.109
 9480SOL    HW229340   5.775   4.686   0.091
 9481SOL     OW29341   0.121   3.388   2.059
 9481SOL    HW129342   0.054   3.386   2.133
 9481SOL    HW229343   0.198   3.329   2.081
 9482SOL     OW29344   4.184   0.681   2.881
 9482SOL    HW129345   4.237   0.598   2.864
 9482SOL    HW229346   4.242   0.762   2.865
 9483SOL     OW29347   1.538   2.025   6.819
 9483SOL    HW129348   1.458   2.074   6.855
 9483SOL    HW229349   1.617   2.086   6.819
 9484SOL     OW29350   6.597   1.526   3.374
 9484SOL    HW129351   6.550   1.552   3.459
 9484SOL    HW229352   6.555   1.443   3.337
 9485SOL     OW29353   0.889   0.337   2.880
 9485SOL    HW129354   0.970   0.367   2.830
 9485SOL    HW229355   0.903   0.351   2.978
 9486SOL     OW29356   3.094   5.804   2.220
 9486SOL    HW129357   3.132   5.739   2.155
 9486SOL    HW229358   3.145   5.798   2.306
 9487SOL     OW29359   3.185   2.981   3.980
 9487SOL    HW129360   3.274   3.016   4.010
 9487SOL    HW229361   3.196   2.891   3.939
 9488SOL     OW29362   1.780   6.768   1.004
 9488SOL    HW129363   1.756   6.671   1.009
 9488SOL    HW229364   1.870   6.782   1.044
 9489SOL     OW29365   3.572   4.374   0.702
 9489SOL    HW129366   3.518   4.431   0.640
 9489SOL    HW229367   3.522   4.291   0.723
 9490SOL     OW29368   5.316   1.477   0.966
 9490SOL    HW129369   5.223   1.502   0.991
 9490SOL    HW229370   5.362   1.555   0.923
 9491SOL     OW29371   5.782   5.418   6.664
 9491SOL    HW129372   5.703   5.467   6.624
 9491SOL    HW229373   5.861   5.479   6.665
 9492SOL     OW29374   3.024   4.034   1.912
 9492SOL    HW129375   3.096   4.101   1.896
 9492SOL    HW229376   3.029   4.000   2.005
 9493SOL     OW29377   4.860   6.177   3.206
 9493SOL    HW129378   4.807   6.258   3.179
 9493SOL    HW229379   4.884   6.184   3.303
 9494SOL     OW29380   4.062   3.384   5.568
 9494SOL    HW129381   3.964   3.385   5.546
 9494SOL    HW229382   4.087   3.295   5.604
 9495SOL     OW29383   5.714   2.458   5.393
 9495SOL    HW129384   5.778   2.492   5.461
 9495SOL    HW229385   5.714   2.518   5.313
 9496SOL     OW29386   5.404   4.084   6.782
 9496SOL    HW129387   5.330   4.103   6.846
 9496SOL    HW229388   5.481   4.042   6.830
 9497SOL     OW29389   5.946   5.991   6.067
 9497SOL    HW129390   5.899   6.030   6.146
 9497SOL    HW229391   6.038   6.030   6.060
 9498SOL     OW29392   4.471   0.218   5.801
 9498SOL    HW129393   4.554   0.254   5.843
 9498SOL    HW229394   4.427   0.291   5.748
 9499SOL     OW29395   4.157   4.139   5.740
 9499SOL    HW129396   4.174   4.168   5.646
 9499SOL    HW229397   4.143   4.219   5.798
 9500SOL     OW29398   5.431   6.079   1.660
 9500SOL    HW129399   5.457   6.134   1.739
 9500SOL    HW229400   5.443   5.982   1.682
 9501SOL     OW29401   3.440   2.078   4.480
 9501SOL    HW129402   3.381   2.093   4.560
 9501SOL    HW229403   3.407   2.132   4.403
 9502SOL     OW29404   6.019   3.341   5.741
 9502SOL    HW129405   6.081   3.347   5.662
 9502SOL    HW229406   5.924   3.338   5.709
 9503SOL     OW29407   2.023   6.725   1.116
 9503SOL    HW129408   1.954   6.716   1.188
 9503SOL    HW229409   2.038   6.636   1.073
 9504SOL     OW29410   0.824   2.772   6.734
 9504SOL    HW129411   0.734   2.791   6.695
 9504SOL    HW229412   0.819   2.688   6.788
 9505SOL     OW29413   5.938   2.936   2.773
 9505SOL    HW129414   6.011   2.955   2.707
 9505SOL    HW229415   5.886   3.019   2.790
 9506SOL     OW29416   6.191   3.928   0.391
 9506SOL    HW129417   6.119   3.882   0.339
 9506SOL    HW229418   6.155   4.014   0.427
 9507SOL     OW29419   1.284   2.071   3.768
 9507SOL    HW129420   1.230   2.109   3.694
 9507SOL    HW229421   1.318   1.981   3.742
 9508SOL     OW29422   5.759   2.290   0.509
 9508SOL    HW129423   5.765   2.191   0.496
 9508SOL    HW229424   5.845   2.324   0.547
 9509SOL     OW29425   2.332   6.683   5.359
 9509SOL    HW129426   2.392   6.614   5.399
 9509SOL    HW229427   2.326   6.761   5.421
 9510SOL     OW29428   6.171   4.550   3.011
 9510SOL    HW129429   6.090   4.496   2.987
 9510SOL    HW229430   6.232   4.495   3.068
 9511SOL     OW29431   0.699   1.415   0.793
 9511SOL    HW129432   0.711   1.366   0.879
 9511SOL    HW229433   0.698   1.350   0.717
 9512SOL     OW29434   1.329   2.357   3.811
 9512SOL    HW129435   1.324   2.257   3.809
 9512SOL    HW229436   1.238   2.396   3.796
 9513SOL     OW29437   2.416   4.309   3.938
 9513SOL    HW129438   2.373   4.282   3.851
 9513SOL    HW229439   2.434   4.227   3.992
 9514SOL     OW29440   1.926   3.257   6.551
 9514SOL    HW129441   1.990   3.235   6.625
 9514SOL    HW229442   1.917   3.178   6.490
 9515SOL     OW29443   2.018   5.663   6.486
 9515SOL    HW129444   2.023   5.724   6.407
 9515SOL    HW229445   2.091   5.687   6.551
 9516SOL     OW29446   5.412   3.475   4.031
 9516SOL    HW129447   5.320   3.504   4.003
 9516SOL    HW229448   5.404   3.415   4.111
 9517SOL     OW29449   0.323   5.635   2.206
 9517SOL    HW129450   0.276   5.547   2.195
 9517SOL    HW229451   0.360   5.642   2.299
 9518SOL     OW29452   0.784   2.577   5.889
 9518SOL    HW129453   0.832   2.579   5.976
 9518SOL    HW229454   0.759   2.670   5.862
 9519SOL     OW29455   3.551   3.351   2.956
 9519SOL    HW129456   3.473   3.296   2.930
 9519SOL    HW229457   3.596   3.387   2.874
 9520SOL     OW29458   5.989   0.736   5.663
 9520SOL    HW129459   6.045   0.716   5.583
 9520SOL    HW229460   6.048   0.765   5.738
 9521SOL     OW29461   3.861   0.408   1.083
 9521SOL    HW129462   3.880   0.457   1.168
 9521SOL    HW229463   3.830   0.315   1.104
 9522SOL     OW29464   3.714   6.596   2.607
 9522SOL    HW129465   3.791   6.549   2.651
 9522SOL    HW229466   3.639   6.604   2.672
 9523SOL     OW29467   2.794   4.929   3.828
 9523SOL    HW129468   2.724   4.935   3.899
 9523SOL    HW229469   2.762   4.870   3.754
 9524SOL     OW29470   2.480   3.971   1.102
 9524SOL    HW129471   2.562   3.921   1.129
 9524SOL    HW229472   2.507   4.057   1.059
 9525SOL     OW29473   1.890   3.271   5.232
 9525SOL    HW129474   1.941   3.187   5.249
 9525SOL    HW229475   1.939   3.326   5.164
 9526SOL     OW29476   4.962   5.157   0.170
 9526SOL    HW129477   4.982   5.163   0.072
 9526SOL    HW229478   4.882   5.213   0.191
 9527SOL     OW29479   4.145   0.303   3.064
 9527SOL    HW129480   4.185   0.236   3.001
 9527SOL    HW229481   4.093   0.255   3.135
 9528SOL     OW29482   5.817   2.093   1.212
 9528SOL    HW129483   5.805   2.157   1.136
 9528SOL    HW229484   5.763   2.011   1.196
 9529SOL     OW29485   6.407   0.870   1.368
 9529SOL    HW129486   6.425   0.784   1.416
 9529SOL    HW229487   6.351   0.929   1.426
 9530SOL     OW29488   0.895   5.407   4.300
 9530SOL    HW129489   0.834   5.395   4.222
 9530SOL    HW229490   0.990   5.395   4.270
 9531SOL     OW29491   3.730   5.358   2.468
 9531SOL    HW129492   3.667   5.412   2.525
 9531SOL    HW229493   3.822   5.365   2.506
 9532SOL     OW29494   6.573   5.299   2.966
 9532SOL    HW129495   6.579   5.399   2.976
 9532SOL    HW229496   6.660   5.263   2.933
 9533SOL     OW29497   2.236   3.921   3.144
 9533SOL    HW129498   2.300   3.851   3.110
 9533SOL    HW229499   2.144   3.900   3.112
 9534SOL     OW29500   5.403   4.428   4.524
 9534SOL    HW129501   5.409   4.446   4.622
 9534SOL    HW229502   5.435   4.336   4.505
 9535SOL     OW29503   0.873   1.246   5.427
 9535SOL    HW129504   0.825   1.238   5.514
 9535SOL    HW229505   0.893   1.155   5.391
 9536SOL     OW29506   3.813   3.715   5.121
 9536SOL    HW129507   3.753   3.657   5.176
 9536SOL    HW229508   3.905   3.714   5.160
 9537SOL     OW29509   0.790   1.130   3.707
 9537SOL    HW129510   0.796   1.122   3.806
 9537SOL    HW229511   0.788   1.038   3.666
 9538SOL     OW29512   4.385   0.755   5.161
 9538SOL    HW129513   4.329   0.710   5.091
 9538SOL    HW229514   4.330   0.826   5.206
 9539SOL     OW29515   3.533   3.386   2.495
 9539SOL    HW129516   3.485   3.427   2.572
 9539SOL    HW229517   3.501   3.292   2.481
 9540SOL     OW29518   4.809   4.737   3.700
 9540SOL    HW129519   4.720   4.692   3.699
 9540SOL    HW229520   4.848   4.737   3.608
 9541SOL     OW29521   2.017   5.524   5.314
 9541SOL    HW129522   2.079   5.481   5.249
 9541SOL    HW229523   2.049   5.505   5.407
 9542SOL     OW29524   6.236   4.247   4.331
 9542SOL    HW129525   6.153   4.265   4.279
 9542SOL    HW229526   6.311   4.224   4.269
 9543SOL     OW29527   2.315   0.259   5.728
 9543SOL    HW129528   2.301   0.354   5.758
 9543SOL    HW229529   2.378   0.213   5.791
 9544SOL     OW29530   5.653   3.551   3.953
 9544SOL    HW129531   5.561   3.534   3.987
 9544SOL    HW229532   5.649   3.579   3.857
 9545SOL     OW29533   1.526   4.374   1.486
 9545SOL    HW129534   1.506   4.304   1.555
 9545SOL    HW229535   1.504   4.338   1.395
 9546SOL     OW29536   2.564   2.285   6.680
 9546SOL    HW129537   2.634   2.284   6.751
 9546SOL    HW229538   2.591   2.223   6.607
 9547SOL     OW29539   4.183   5.964   4.333
 9547SOL    HW129540   4.150   5.870   4.318
 9547SOL    HW229541   4.121   6.010   4.396
 9548SOL     OW29542   1.184   4.849   0.113
 9548SOL    HW129543   1.111   4.782   0.116
 9548SOL    HW229544   1.147   4.941   0.130
 9549SOL     OW29545   4.698   3.093   1.318
 9549SOL    HW129546   4.740   3.177   1.281
 9549SOL    HW229547   4.607   3.114   1.352
 9550SOL     OW29548   5.391   3.044   1.340
 9550SOL    HW129549   5.330   2.977   1.382
 9550SOL    HW229550   5.370   3.053   1.243
 9551SOL     OW29551   6.479   2.508   6.637
 9551SOL    HW129552   6.521   2.484   6.549
 9551SOL    HW229553   6.532   2.581   6.679
 9552SOL     OW29554   3.245   2.226   6.742
 9552SOL    HW129555   3.194   2.291   6.686
 9552SOL    HW229556   3.278   2.151   6.685
 9553SOL     OW29557   5.449   1.653   6.752
 9553SOL    HW129558   5.445   1.751   6.770
 9553SOL    HW229559   5.544   1.626   6.736
 9554SOL     OW29560   2.532   6.549   3.505
 9554SOL    HW129561   2.435   6.534   3.521
 9554SOL    HW229562   2.584   6.526   3.588
 9555SOL     OW29563   6.281   0.675   3.810
 9555SOL    HW129564   6.275   0.667   3.909
 9555SOL    HW229565   6.263   0.586   3.768
 9556SOL     OW29566   1.948   4.650   0.298
 9556SOL    HW129567   1.923   4.681   0.389
 9556SOL    HW229568   1.900   4.566   0.276
 9557SOL     OW29569   5.110   0.144   1.480
 9557SOL    HW129570   5.113   0.169   1.383
 9557SOL    HW229571   5.062   0.215   1.531
 9558SOL     OW29572   4.756   6.401   6.326
 9558SOL    HW129573   4.749   6.486   6.274
 9558SOL    HW229574   4.837   6.405   6.385
 9559SOL     OW29575   1.479   4.422   0.282
 9559SOL    HW129576   1.548   4.350   0.291
 9559SOL    HW229577   1.524   4.508   0.257
 9560SOL     OW29578   3.594   0.026   2.021
 9560SOL    HW129579   3.519   7.010   2.074
 9560SOL    HW229580   3.596   0.125   2.035
 9561SOL     OW29581   0.740   1.202   0.602
 9561SOL    HW129582   0.720   1.275   0.536
 9561SOL    HW229583   0.662   1.139   0.607
 9562SOL     OW29584   3.170   5.857   3.710
 9562SOL    HW129585   3.089   5.814   3.749
 9562SOL    HW229586   3.167   5.849   3.610
 9563SOL     OW29587   0.841   5.969   1.239
 9563SOL    HW129588   0.883   6.053   1.206
 9563SOL    HW229589   0.742   5.975   1.227
 9564SOL     OW29590   1.097   0.104   6.948
 9564SOL    HW129591   1.041   0.187   6.952
 9564SOL    HW229592   1.141   0.098   6.859
 9565SOL     OW29593   2.940   1.760   3.734
 9565SOL    HW129594   3.022   1.733   3.684
 9565SOL    HW229595   2.871   1.793   3.670
 9566SOL     OW29596   2.644   0.431   0.423
 9566SOL    HW129597   2.596   0.383   0.496
 9566SOL    HW229598   2.584   0.443   0.345
 9567SOL     OW29599   6.483   4.071   1.110
 9567SOL    HW129600   6.529   4.005   1.169
 9567SOL    HW229601   6.454   4.150   1.164
 9568SOL     OW29602   4.873   1.339   7.024
 9568SOL    HW129603   4.831   1.423   0.035
 9568SOL    HW229604   4.960   1.361   6.980
 9569SOL     OW29605   5.197   1.110   2.384
 9569SOL    HW129606   5.279   1.098   2.328
 9569SOL    HW229607   5.156   1.021   2.403
 9570SOL     OW29608   0.243   3.122   1.201
 9570SOL    HW129609   0.329   3.169   1.222
 9570SOL    HW229610   0.185   3.181   1.146
 9571SOL     OW29611   3.227   1.791   6.808
 9571SOL    HW129612   3.174   1.852   6.866
 9571SOL    HW229613   3.167   1.719   6.772
 9572SOL     OW29614   2.212   3.930   3.837
 9572SOL    HW129615   2.231   3.832   3.826
 9572SOL    HW229616   2.223   3.955   3.933
 9573SOL     OW29617   6.257   1.228   4.586
 9573SOL    HW129618   6.332   1.163   4.576
 9573SOL    HW229619   6.263   1.298   4.514
 9574SOL     OW29620   3.400   3.384   1.401
 9574SOL    HW129621   3.482   3.327   1.391
 9574SOL    HW229622   3.426   3.481   1.393
 9575SOL     OW29623   6.253   6.530   1.441
 9575SOL    HW129624   6.289   6.439   1.461
 9575SOL    HW229625   6.154   6.530   1.453
 9576SOL     OW29626   0.768   6.814   7.000
 9576SOL    HW129627   0.866   6.814   6.982
 9576SOL    HW229628   0.751   6.836   0.072
 9577SOL     OW29629   6.294   5.286   1.978
 9577SOL    HW129630   6.267   5.329   1.892
 9577SOL    HW229631   6.309   5.357   2.047
 9578SOL     OW29632   1.995   2.701   3.160
 9578SOL    HW129633   1.911   2.647   3.151
 9578SOL    HW229634   1.994   2.774   3.091
 9579SOL     OW29635   5.751   6.226   1.930
 9579SOL    HW129636   5.763   6.135   1.892
 9579SOL    HW229637   5.841   6.269   1.943
 9580SOL     OW29638   4.867   5.067   2.738
 9580SOL    HW129639   4.905   4.986   2.784
 9580SOL    HW229640   4.868   5.053   2.639
 9581SOL     OW29641   6.207   1.422   6.973
 9581SOL    HW129642   6.294   1.471   6.969
 9581SOL    HW229643   6.224   1.326   6.994
 9582SOL     OW29644   4.794   6.349   4.097
 9582SOL    HW129645   4.796   6.251   4.113
 9582SOL    HW229646   4.699   6.381   4.096
 9583SOL     OW29647   3.387   4.445   1.668
 9583SOL    HW129648   3.464   4.497   1.706
 9583SOL    HW229649   3.302   4.493   1.690
 9584SOL     OW29650   2.282   5.064   4.584
 9584SOL    HW129651   2.371   5.094   4.550
 9584SOL    HW229652   2.272   5.094   4.679
 9585SOL     OW29653   4.459   5.286   1.798
 9585SOL    HW129654   4.555   5.261   1.790
 9585SOL    HW229655   4.425   5.317   1.709
 9586SOL     OW29656   4.856   4.603   2.168
 9586SOL    HW129657   4.763   4.567   2.161
 9586SOL    HW229658   4.888   4.630   2.077
 9587SOL     OW29659   2.671   6.388   1.769
 9587SOL    HW129660   2.584   6.354   1.804
 9587SOL    HW229661   2.746   6.335   1.809
 9588SOL     OW29662   6.601   5.851   0.536
 9588SOL    HW129663   6.526   5.822   0.476
 9588SOL    HW229664   6.686   5.808   0.507
 9589SOL     OW29665   1.676   3.731   6.393
 9589SOL    HW129666   1.745   3.701   6.458
 9589SOL    HW229667   1.685   3.830   6.378
 9590SOL     OW29668   5.207   1.773   2.523
 9590SOL    HW129669   5.118   1.801   2.487
 9590SOL    HW229670   5.242   1.696   2.471
 9591SOL     OW29671   3.515   0.288   6.224
 9591SOL    HW129672   3.577   0.214   6.253
 9591SOL    HW229673   3.569   0.365   6.190
 9592SOL     OW29674   2.468   5.032   5.985
 9592SOL    HW129675   2.429   5.109   5.933
 9592SOL    HW229676   2.566   5.045   5.993
 9593SOL     OW29677   1.820   1.736   4.792
 9593SOL    HW129678   1.845   1.730   4.696
 9593SOL    HW229679   1.890   1.787   4.843
 9594SOL     OW29680   0.501   6.072   4.034
 9594SOL    HW129681   0.512   6.170   4.014
 9594SOL    HW229682   0.404   6.048   4.032
 9595SOL     OW29683   0.315   3.364   3.916
 9595SOL    HW129684   0.243   3.321   3.971
 9595SOL    HW229685   0.358   3.437   3.969
 9596SOL     OW29686   0.394   6.649   0.572
 9596SOL    HW129687   0.474   6.707   0.566
 9596SOL    HW229688   0.407   6.568   0.513
 9597SOL     OW29689   0.768   4.115   2.604
 9597SOL    HW129690   0.766   4.163   2.517
 9597SOL    HW229691   0.794   4.019   2.590
 9598SOL     OW29692   1.388   3.935   3.046
 9598SOL    HW129693   1.316   3.958   3.112
 9598SOL    HW229694   1.351   3.941   2.953
 9599SOL     OW29695   3.552   6.936   3.631
 9599SOL    HW129696   3.576   6.841   3.608
 9599SOL    HW229697   3.630   6.979   3.677
 9600SOL     OW29698   3.343   0.491   1.350
 9600SOL    HW129699   3.245   0.485   1.329
 9600SOL    HW229700   3.367   0.420   1.417
 9601SOL     OW29701   6.522   4.200   1.390
 9601SOL    HW129702   6.575   4.256   1.326
 9601SOL    HW229703   6.539   4.232   1.483
 9602SOL     OW29704   4.692   4.096   5.585
 9602SOL    HW129705   4.610   4.050   5.551
 9602SOL    HW229706   4.747   4.032   5.639
 9603SOL     OW29707   5.781   5.398   5.384
 9603SOL    HW129708   5.875   5.379   5.357
 9603SOL    HW229709   5.718   5.372   5.311
 9604SOL     OW29710   5.235   0.218   0.649
 9604SOL    HW129711   5.307   0.195   0.715
 9604SOL    HW229712   5.274   0.220   0.557
 9605SOL     OW29713   6.501   6.481   3.414
 9605SOL    HW129714   6.555   6.449   3.492
 9605SOL    HW229715   6.505   6.414   3.341
 9606SOL     OW29716   1.476   1.613   6.418
 9606SOL    HW129717   1.430   1.653   6.498
 9606SOL    HW229718   1.418   1.542   6.378
 9607SOL     OW29719   3.303   3.039   6.156
 9607SOL    HW129720   3.217   3.017   6.110
 9607SOL    HW229721   3.284   3.075   6.248
 9608SOL     OW29722   6.417   4.063   3.271
 9608SOL    HW129723   6.400   4.107   3.182
 9608SOL    HW229724   6.438   4.133   3.339
 9609SOL     OW29725   4.010   2.518   6.052
 9609SOL    HW129726   3.968   2.445   6.106
 9609SOL    HW229727   4.108   2.499   6.041
 9610SOL     OW29728   1.635   3.981   2.635
 9610SOL    HW129729   1.611   4.028   2.720
 9610SOL    HW229730   1.730   4.001   2.611
 9611SOL     OW29731   1.469   0.548   0.669
 9611SOL    HW129732   1.467   0.642   0.706
 9611SOL    HW229733   1.548   0.538   0.609
 9612SOL     OW29734   0.883   2.961   2.766
 9612SOL    HW129735   0.954   3.019   2.807
 9612SOL    HW229736   0.797   2.974   2.815
 9613SOL     OW29737   5.916   5.338   3.385
 9613SOL    HW129738   6.001   5.360   3.434
 9613SOL    HW229739   5.922   5.246   3.348
 9614SOL     OW29740   5.065   1.850   3.036
 9614SOL    HW129741   5.132   1.794   3.086
 9614SOL    HW229742   5.113   1.917   2.980
 9615SOL     OW29743   2.354   2.817   1.215
 9615SOL    HW129744   2.391   2.863   1.135
 9615SOL    HW229745   2.258   2.844   1.228
 9616SOL     OW29746   3.235   2.833   6.716
 9616SOL    HW129747   3.179   2.843   6.634
 9616SOL    HW229748   3.198   2.891   6.789
 9617SOL     OW29749   2.451   2.508   4.160
 9617SOL    HW129750   2.495   2.501   4.250
 9617SOL    HW229751   2.411   2.600   4.151
 9618SOL     OW29752   3.155   1.034   0.738
 9618SOL    HW129753   3.228   1.099   0.757
 9618SOL    HW229754   3.173   0.949   0.788
 9619SOL     OW29755   2.283   1.222   4.889
 9619SOL    HW129756   2.197   1.240   4.842
 9619SOL    HW229757   2.328   1.143   4.848
 9620SOL     OW29758   5.960   6.857   5.102
 9620SOL    HW129759   5.916   6.886   5.187
 9620SOL    HW229760   6.058   6.841   5.119
 9621SOL     OW29761   1.818   2.690   2.851
 9621SOL    HW129762   1.913   2.668   2.874
 9621SOL    HW229763   1.758   2.660   2.925
 9622SOL     OW29764   5.745   0.793   1.178
 9622SOL    HW129765   5.844   0.787   1.166
 9622SOL    HW229766   5.701   0.798   1.088
 9623SOL     OW29767   3.526   3.497   6.463
 9623SOL    HW129768   3.527   3.404   6.502
 9623SOL    HW229769   3.460   3.501   6.389
 9624SOL     OW29770   6.176   3.312   3.288
 9624SOL    HW129771   6.154   3.216   3.308
 9624SOL    HW229772   6.103   3.371   3.323
 9625SOL     OW29773   6.320   6.337   0.504
 9625SOL    HW129774   6.384   6.262   0.487
 9625SOL    HW229775   6.352   6.392   0.581
 9626SOL     OW29776   3.882   6.105   6.733
 9626SOL    HW129777   3.826   6.172   6.684
 9626SOL    HW229778   3.847   6.013   6.714
 9627SOL     OW29779   1.282   6.590   6.507
 9627SOL    HW129780   1.281   6.660   6.435
 9627SOL    HW229781   1.339   6.621   6.583
 9628SOL     OW29782   4.435   5.950   1.436
 9628SOL    HW129783   4.488   6.030   1.463
 9628SOL    HW229784   4.338   5.976   1.428
 9629SOL     OW29785   3.130   6.534   1.636
 9629SOL    HW129786   3.139   6.590   1.554
 9629SOL    HW229787   3.070   6.457   1.617
 9630SOL     OW29788   6.522   0.765   5.687
 9630SOL    HW129789   6.446   0.700   5.688
 9630SOL    HW229790   6.605   0.719   5.654
 9631SOL     OW29791   6.293   6.077   6.720
 9631SOL    HW129792   6.202   6.042   6.697
 9631SOL    HW229793   6.293   6.177   6.709
 9632SOL     OW29794   1.630   6.630   1.609
 9632SOL    HW129795   1.543   6.678   1.620
 9632SOL    HW229796   1.693   6.657   1.681
 9633SOL     OW29797   6.491   5.415   6.100
 9633SOL    HW129798   6.437   5.477   6.042
 9633SOL    HW229799   6.449   5.410   6.191
 9634SOL     OW29800   0.818   6.328   4.743
 9634SOL    HW129801   0.731   6.351   4.788
 9634SOL    HW229802   0.891   6.383   4.783
 9635SOL     OW29803   2.546   5.195   5.154
 9635SOL    HW129804   2.548   5.112   5.098
 9635SOL    HW229805   2.458   5.241   5.144
 9636SOL     OW29806   4.199   1.015   5.569
 9636SOL    HW129807   4.252   1.099   5.562
 9636SOL    HW229808   4.147   1.016   5.655
 9637SOL     OW29809   2.204   1.721   6.794
 9637SOL    HW129810   2.162   1.631   6.785
 9637SOL    HW229811   2.231   1.735   6.889
 9638SOL     OW29812   6.356   2.312   5.113
 9638SOL    HW129813   6.360   2.274   5.021
 9638SOL    HW229814   6.418   2.390   5.120
 9639SOL     OW29815   4.200   1.326   2.579
 9639SOL    HW129816   4.209   1.357   2.484
 9639SOL    HW229817   4.277   1.360   2.632
 9640SOL     OW29818   2.290   2.150   2.448
 9640SOL    HW129819   2.200   2.108   2.438
 9640SOL    HW229820   2.307   2.170   2.545
 9641SOL     OW29821   6.560   6.046   0.215
 9641SOL    HW129822   6.581   6.136   0.179
 9641SOL    HW229823   6.496   5.999   0.153
 9642SOL     OW29824   3.138   0.623   4.585
 9642SOL    HW129825   3.191   0.697   4.626
 9642SOL    HW229826   3.200   0.559   4.539
 9643SOL     OW29827   4.539   4.410   3.798
 9643SOL    HW129828   4.482   4.479   3.843
 9643SOL    HW229829   4.635   4.427   3.821
 9644SOL     OW29830   1.879   2.374   6.289
 9644SOL    HW129831   1.804   2.340   6.232
 9644SOL    HW229832   1.846   2.390   6.382
 9645SOL     OW29833   3.029   5.218   4.827
 9645SOL    HW129834   2.980   5.152   4.883
 9645SOL    HW229835   3.029   5.188   4.732
 9646SOL     OW29836   3.986   4.755   2.541
 9646SOL    HW129837   3.903   4.770   2.487
 9646SOL    HW229838   4.042   4.684   2.498
 9647SOL     OW29839   6.487   3.210   0.448
 9647SOL    HW129840   6.473   3.242   0.542
 9647SOL    HW229841   6.399   3.191   0.406
 9648SOL     OW29842   4.667   2.924   0.901
 9648SOL    HW129843   4.659   2.908   1.000
 9648SOL    HW229844   4.763   2.930   0.876
 9649SOL     OW29845   2.251   5.936   0.787
 9649SOL    HW129846   2.199   5.876   0.848
 9649SOL    HW229847   2.237   6.031   0.815
 9650SOL     OW29848   6.878   6.268   1.805
 9650SOL    HW129849   6.963   6.314   1.782
 9650SOL    HW229850   6.847   6.298   1.896
 9651SOL     OW29851   0.493   1.248   6.063
 9651SOL    HW129852   0.459   1.209   5.977
 9651SOL    HW229853   0.525   1.341   6.046
 9652SOL     OW29854   0.522   5.585   2.955
 9652SOL    HW129855   0.499   5.516   2.886
 9652SOL    HW229856   0.605   5.557   3.004
 9653SOL     OW29857   5.597   5.175   4.503
 9653SOL    HW129858   5.694   5.158   4.517
 9653SOL    HW229859   5.550   5.175   4.591
 9654SOL     OW29860   2.286   2.672   2.145
 9654SOL    HW129861   2.333   2.698   2.060
 9654SOL    HW229862   2.187   2.677   2.131
 9655SOL     OW29863   6.511   2.252   0.094
 9655SOL    HW129864   6.433   2.196   0.063
 9655SOL    HW229865   6.596   2.208   0.066
 9656SOL     OW29866   3.391   0.937   2.645
 9656SOL    HW129867   3.460   0.990   2.694
 9656SOL    HW229868   3.434   0.886   2.571
 9657SOL     OW29869   6.779   0.204   4.444
 9657SOL    HW129870   6.797   0.293   4.485
 9657SOL    HW229871   6.722   0.150   4.505
 9658SOL     OW29872   6.434   2.670   2.512
 9658SOL    HW129873   6.407   2.608   2.585
 9658SOL    HW229874   6.495   2.623   2.448
 9659SOL     OW29875   0.580   4.627   7.006
 9659SOL    HW129876   0.675   4.600   7.020
 9659SOL    HW229877   0.520   4.566   0.035
 9660SOL     OW29878   0.532   5.114   0.190
 9660SOL    HW129879   0.552   5.054   0.267
 9660SOL    HW229880   0.586   5.086   0.111
 9661SOL     OW29881   4.265   6.621   1.150
 9661SOL    HW129882   4.292   6.605   1.055
 9661SOL    HW229883   4.269   6.719   1.170
 9662SOL     OW29884   6.108   0.643   4.492
 9662SOL    HW129885   6.173   0.568   4.496
 9662SOL    HW229886   6.056   0.647   4.577
 9663SOL     OW29887   2.529   5.576   2.258
 9663SOL    HW129888   2.528   5.571   2.158
 9663SOL    HW229889   2.610   5.529   2.293
 9664SOL     OW29890   3.117   6.347   2.199
 9664SOL    HW129891   3.164   6.266   2.233
 9664SOL    HW229892   3.031   6.358   2.248
 9665SOL     OW29893   5.515   4.174   4.476
 9665SOL    HW129894   5.519   4.116   4.395
 9665SOL    HW229895   5.522   4.118   4.558
 9666SOL     OW29896   5.449   4.438   3.944
 9666SOL    HW129897   5.369   4.461   3.890
 9666SOL    HW229898   5.439   4.346   3.982
 9667SOL     OW29899   3.965   3.145   4.076
 9667SOL    HW129900   3.997   3.141   3.982
 9667SOL    HW229901   3.973   3.239   4.110
 9668SOL     OW29902   0.730   0.650   5.709
 9668SOL    HW129903   0.757   0.612   5.620
 9668SOL    HW229904   0.735   0.749   5.706
 9669SOL     OW29905   1.465   5.668   0.886
 9669SOL    HW129906   1.477   5.569   0.886
 9669SOL    HW229907   1.486   5.704   0.795
 9670SOL     OW29908   5.463   5.539   0.149
 9670SOL    HW129909   5.399   5.519   0.223
 9670SOL    HW229910   5.435   5.489   0.066
 9671SOL     OW29911   6.843   6.529   5.806
 9671SOL    HW129912   6.856   6.609   5.866
 9671SOL    HW229913   6.807   6.453   5.860
 9672SOL     OW29914   0.337   6.591   4.732
 9672SOL    HW129915   0.302   6.535   4.807
 9672SOL    HW229916   0.298   6.559   4.645
 9673SOL     OW29917   2.846   3.503   6.472
 9673SOL    HW129918   2.758   3.510   6.519
 9673SOL    HW229919   2.913   3.560   6.519
 9674SOL     OW29920   3.403   6.752   2.559
 9674SOL    HW129921   3.402   6.672   2.618
 9674SOL    HW229922   3.424   6.725   2.465
 9675SOL     OW29923   6.591   2.810   2.198
 9675SOL    HW129924   6.543   2.898   2.207
 9675SOL    HW229925   6.690   2.827   2.200
 9676SOL     OW29926   6.801   3.452   4.573
 9676SOL    HW129927   6.772   3.536   4.528
 9676SOL    HW229928   6.871   3.407   4.517
 9677SOL     OW29929   1.675   3.502   5.723
 9677SOL    HW129930   1.624   3.570   5.671
 9677SOL    HW229931   1.729   3.446   5.660
 9678SOL     OW29932   3.078   3.361   3.189
 9678SOL    HW129933   3.140   3.311   3.250
 9678SOL    HW229934   3.124   3.378   3.102
 9679SOL     OW29935   0.952   3.396   1.962
 9679SOL    HW129936   1.048   3.375   1.945
 9679SOL    HW229937   0.937   3.412   2.059
 9680SOL     OW29938   5.790   5.708   3.533
 9680SOL    HW129939   5.817   5.691   3.628
 9680SOL    HW229940   5.871   5.724   3.477
 9681SOL     OW29941   1.798   0.653   2.865
 9681SOL    HW129942   1.703   0.656   2.834
 9681SOL    HW229943   1.818   0.562   2.901
 9682SOL     OW29944   6.252   3.984   3.008
 9682SOL    HW129945   6.175   4.033   2.968
 9682SOL    HW229946   6.317   3.960   2.936
 9683SOL     OW29947   4.827   5.850   6.989
 9683SOL    HW129948   4.878   5.790   6.927
 9683SOL    HW229949   4.838   5.945   6.960
 9684SOL     OW29950   1.331   3.554   4.199
 9684SOL    HW129951   1.263   3.539   4.271
 9684SOL    HW229952   1.386   3.472   4.187
 9685SOL     OW29953   2.058   2.487   0.116
 9685SOL    HW129954   2.110   2.570   0.138
 9685SOL    HW229955   2.007   2.501   0.031
 9686SOL     OW29956   5.944   1.030   1.548
 9686SOL    HW129957   5.904   1.047   1.458
 9686SOL    HW229958   5.900   1.088   1.616
 9687SOL     OW29959   3.472   0.335   3.632
 9687SOL    HW129960   3.445   0.272   3.705
 9687SOL    HW229961   3.523   0.285   3.563
 9688SOL     OW29962   0.282   1.351   2.759
 9688SOL    HW129963   0.360   1.376   2.816
 9688SOL    HW229964   0.297   1.383   2.666
 9689SOL     OW29965   2.356   6.151   5.999
 9689SOL    HW129966   2.288   6.087   6.035
 9689SOL    HW229967   2.320   6.195   5.917
 9690SOL     OW29968   6.117   4.549   1.224
 9690SOL    HW129969   6.201   4.514   1.266
 9690SOL    HW229970   6.047   4.477   1.224
 9691SOL     OW29971   1.883   4.151   2.026
 9691SOL    HW129972   1.959   4.196   2.074
 9691SOL    HW229973   1.831   4.220   1.975
 9692SOL     OW29974   2.462   5.491   1.255
 9692SOL    HW129975   2.481   5.413   1.195
 9692SOL    HW229976   2.493   5.575   1.211
 9693SOL     OW29977   6.392   5.899   1.576
 9693SOL    HW129978   6.305   5.887   1.528
 9693SOL    HW229979   6.393   5.841   1.658
 9694SOL     OW29980   1.951   2.202   0.040
 9694SOL    HW129981   2.026   2.138   0.026
 9694SOL    HW229982   1.984   2.295   0.030
 9695SOL     OW29983   6.191   4.145   1.421
 9695SOL    HW129984   6.102   4.138   1.375
 9695SOL    HW229985   6.227   4.238   1.410
 9696SOL     OW29986   3.860   3.093   1.563
 9696SOL    HW129987   3.872   3.141   1.476
 9696SOL    HW229988   3.935   3.117   1.625
 9697SOL     OW29989   0.940   5.920   0.554
 9697SOL    HW129990   0.847   5.893   0.527
 9697SOL    HW229991   0.971   5.994   0.494
 9698SOL     OW29992   5.976   1.914   4.883
 9698SOL    HW129993   5.905   1.941   4.818
 9698SOL    HW229994   6.015   1.827   4.856
 9699SOL     OW29995   1.885   3.319   6.945
 9699SOL    HW129996   1.827   3.319   0.002
 9699SOL    HW229997   1.841   3.264   6.873
 9700SOL     OW29998   3.254   4.000   4.833
 9700SOL    HW129999   3.300   4.088   4.826
 9700SOL    HW230000   3.289   3.937   4.763
 9701SOL     OW30001   5.710   4.512   5.047
 9701SOL    HW130002   5.679   4.573   4.974
 9701SOL    HW230003   5.715   4.419   5.012
 9702SOL     OW30004   4.422   0.663   0.972
 9702SOL    HW130005   4.356   0.710   1.030
 9702SOL    HW230006   4.400   0.679   0.876
 9703SOL     OW30007   2.869   6.600   3.903
 9703SOL    HW130008   2.918   6.653   3.834
 9703SOL    HW230009   2.911   6.510   3.914
 9704SOL     OW30010   3.046   0.432   3.548
 9704SOL    HW130011   3.031   0.526   3.518
 9704SOL    HW230012   3.117   0.389   3.492
 9705SOL     OW30013   3.592   3.581   0.452
 9705SOL    HW130014   3.542   3.556   0.369
 9705SOL    HW230015   3.651   3.659   0.433
 9706SOL     OW30016   5.263   3.175   2.912
 9706SOL    HW130017   5.223   3.129   2.832
 9706SOL    HW230018   5.239   3.124   2.994
 9707SOL     OW30019   2.608   5.374   2.582
 9707SOL    HW130020   2.534   5.309   2.563
 9707SOL    HW230021   2.659   5.392   2.498
 9708SOL     OW30022   2.397   1.805   2.765
 9708SOL    HW130023   2.441   1.731   2.816
 9708SOL    HW230024   2.457   1.834   2.690
 9709SOL     OW30025   2.039   5.572   2.836
 9709SOL    HW130026   1.979   5.651   2.829
 9709SOL    HW230027   2.006   5.512   2.909
 9710SOL     OW30028   0.477   0.798   3.008
 9710SOL    HW130029   0.555   0.748   2.969
 9710SOL    HW230030   0.427   0.737   3.070
 9711SOL     OW30031   0.887   4.083   5.217
 9711SOL    HW130032   0.834   4.156   5.262
 9711SOL    HW230033   0.849   3.994   5.243
 9712SOL     OW30034   5.043   1.943   4.164
 9712SOL    HW130035   5.037   2.018   4.099
 9712SOL    HW230036   5.106   1.874   4.129
 9713SOL     OW30037   6.819   5.308   2.817
 9713SOL    HW130038   6.859   5.292   2.727
 9713SOL    HW230039   6.819   5.406   2.838
 9714SOL     OW30040   1.638   2.309   1.554
 9714SOL    HW130041   1.615   2.400   1.520
 9714SOL    HW230042   1.586   2.240   1.503
 9715SOL     OW30043   4.791   5.522   5.177
 9715SOL    HW130044   4.814   5.605   5.126
 9715SOL    HW230045   4.810   5.536   5.274
 9716SOL     OW30046   4.084   2.015   6.427
 9716SOL    HW130047   4.074   2.025   6.328
 9716SOL    HW230048   4.166   1.962   6.447
 9717SOL     OW30049   5.594   5.090   3.648
 9717SOL    HW130050   5.569   5.088   3.745
 9717SOL    HW230051   5.601   5.185   3.618
 9718SOL     OW30052   4.845   3.023   1.538
 9718SOL    HW130053   4.783   2.967   1.594
 9718SOL    HW230054   4.802   3.041   1.449
 9719SOL     OW30055   0.586   1.445   0.015
 9719SOL    HW130056   0.570   1.471   0.111
 9719SOL    HW230057   0.667   1.386   0.011
 9720SOL     OW30058   6.980   0.122   2.031
 9720SOL    HW130059   7.003   0.218   2.013
 9720SOL    HW230060   0.040   0.068   2.035
 9721SOL     OW30061   6.667   3.949   2.495
 9721SOL    HW130062   6.759   3.924   2.464
 9721SOL    HW230063   6.672   4.034   2.548
 9722SOL     OW30064   1.013   0.105   4.053
 9722SOL    HW130065   1.041   0.023   4.003
 9722SOL    HW230066   0.929   0.086   4.104
 9723SOL     OW30067   0.022   0.988   3.417
 9723SOL    HW130068   0.038   1.078   3.377
 9723SOL    HW230069   0.035   0.994   3.516
 9724SOL     OW30070   3.513   2.664   1.476
 9724SOL    HW130071   3.575   2.742   1.480
 9724SOL    HW230072   3.531   2.602   1.552
 9725SOL     OW30073   4.331   3.324   5.819
 9725SOL    HW130074   4.323   3.257   5.746
 9725SOL    HW230075   4.426   3.354   5.827
 9726SOL     OW30076   5.113   6.775   5.063
 9726SOL    HW130077   5.140   6.821   5.148
 9726SOL    HW230078   5.181   6.706   5.039
 9727SOL     OW30079   1.563   2.370   5.788
 9727SOL    HW130080   1.627   2.306   5.831
 9727SOL    HW230081   1.534   2.438   5.856
 9728SOL     OW30082   3.219   5.334   0.053
 9728SOL    HW130083   3.288   5.313   7.008
 9728SOL    HW230084   3.249   5.413   0.107
 9729SOL     OW30085   2.917   5.073   2.703
 9729SOL    HW130086   2.939   5.137   2.629
 9729SOL    HW230087   2.973   5.094   2.783
 9730SOL     OW30088   6.648   3.345   2.942
 9730SOL    HW130089   6.582   3.270   2.940
 9730SOL    HW230090   6.737   3.311   2.910
 9731SOL     OW30091   4.324   5.007   1.126
 9731SOL    HW130092   4.227   5.002   1.150
 9731SOL    HW230093   4.354   4.917   1.092
 9732SOL     OW30094   6.516   6.401   2.531
 9732SOL    HW130095   6.479   6.423   2.441
 9732SOL    HW230096   6.475   6.460   2.600
 9733SOL     OW30097   5.425   4.518   6.388
 9733SOL    HW130098   5.367   4.546   6.465
 9733SOL    HW230099   5.453   4.423   6.401
 9734SOL     OW30100   5.031   2.642   4.697
 9734SOL    HW130101   5.068   2.640   4.790
 9734SOL    HW230102   5.103   2.670   4.633
 9735SOL     OW30103   1.371   4.252   0.979
 9735SOL    HW130104   1.413   4.162   0.968
 9735SOL    HW230105   1.339   4.285   0.890
 9736SOL     OW30106   3.450   1.306   0.622
 9736SOL    HW130107   3.487   1.394   0.649
 9736SOL    HW230108   3.426   1.253   0.703
 9737SOL     OW30109   4.231   2.266   5.251
 9737SOL    HW130110   4.325   2.254   5.282
 9737SOL    HW230111   4.226   2.344   5.189
 9738SOL     OW30112   1.535   0.425   2.311
 9738SOL    HW130113   1.451   0.476   2.292
 9738SOL    HW230114   1.598   0.482   2.362
 9739SOL     OW30115   5.207   4.646   1.529
 9739SOL    HW130116   5.252   4.702   1.597
 9739SOL    HW230117   5.200   4.552   1.562
 9740SOL     OW30118   6.915   4.431   3.189
 9740SOL    HW130119   6.954   4.432   3.281
 9740SOL    HW230120   6.980   4.471   3.124
 9741SOL     OW30121   4.441   2.218   1.906
 9741SOL    HW130122   4.465   2.315   1.900
 9741SOL    HW230123   4.431   2.192   2.003
 9742SOL     OW30124   4.952   1.889   4.430
 9742SOL    HW130125   4.883   1.823   4.459
 9742SOL    HW230126   4.951   1.896   4.330
 9743SOL     OW30127   1.660   2.835   5.744
 9743SOL    HW130128   1.676   2.785   5.830
 9743SOL    HW230129   1.648   2.932   5.764
 9744SOL     OW30130   1.631   0.625   1.986
 9744SOL    HW130131   1.535   0.602   1.974
 9744SOL    HW230132   1.680   0.610   1.901
 9745SOL     OW30133   0.111   2.501   5.021
 9745SOL    HW130134   0.089   2.510   5.119
 9745SOL    HW230135   0.043   2.550   4.967
 9746SOL     OW30136   6.004   1.196   4.720
 9746SOL    HW130137   6.041   1.193   4.813
 9746SOL    HW230138   6.079   1.207   4.655
 9747SOL     OW30139   0.505   6.817   6.635
 9747SOL    HW130140   0.574   6.877   6.677
 9747SOL    HW230141   0.491   6.737   6.694
 9748SOL     OW30142   0.014   5.963   4.177
 9748SOL    HW130143   6.996   5.894   4.118
 9748SOL    HW230144   7.009   5.947   4.271
 9749SOL     OW30145   0.799   4.765   4.031
 9749SOL    HW130146   0.773   4.673   4.003
 9749SOL    HW230147   0.725   4.806   4.085
 9750SOL     OW30148   4.138   4.757   3.549
 9750SOL    HW130149   4.147   4.832   3.483
 9750SOL    HW230150   4.222   4.704   3.550
 9751SOL     OW30151   2.039   2.442   0.638
 9751SOL    HW130152   1.967   2.440   0.707
 9751SOL    HW230153   2.032   2.361   0.580
 9752SOL     OW30154   3.736   1.365   5.712
 9752SOL    HW130155   3.711   1.293   5.777
 9752SOL    HW230156   3.823   1.341   5.668
 9753SOL     OW30157   0.128   5.802   5.426
 9753SOL    HW130158   0.134   5.863   5.505
 9753SOL    HW230159   0.041   5.753   5.429
 9754SOL     OW30160   0.573   2.019   6.327
 9754SOL    HW130161   0.670   2.014   6.350
 9754SOL    HW230162   0.562   2.050   6.233
 9755SOL     OW30163   4.017   4.775   5.188
 9755SOL    HW130164   4.033   4.815   5.098
 9755SOL    HW230165   4.105   4.759   5.233
 9756SOL     OW30166   6.130   2.685   6.284
 9756SOL    HW130167   6.182   2.727   6.358
 9756SOL    HW230168   6.037   2.666   6.315
 9757SOL     OW30169   6.005   2.310   3.795
 9757SOL    HW130170   5.956   2.392   3.767
 9757SOL    HW230171   5.950   2.259   3.861
 9758SOL     OW30172   2.934   0.311   6.638
 9758SOL    HW130173   3.004   0.323   6.708
 9758SOL    HW230174   2.977   0.277   6.554
 9759SOL     OW30175   3.528   5.735   1.311
 9759SOL    HW130176   3.503   5.817   1.261
 9759SOL    HW230177   3.483   5.656   1.269
 9760SOL     OW30178   5.714   4.285   6.222
 9760SOL    HW130179   5.619   4.264   6.247
 9760SOL    HW230180   5.726   4.272   6.124
 9761SOL     OW30181   5.621   5.785   2.159
 9761SOL    HW130182   5.667   5.802   2.072
 9761SOL    HW230183   5.551   5.854   2.174
 9762SOL     OW30184   2.407   1.641   4.694
 9762SOL    HW130185   2.456   1.616   4.611
 9762SOL    HW230186   2.347   1.566   4.722
 9763SOL     OW30187   2.457   1.466   1.428
 9763SOL    HW130188   2.376   1.524   1.436
 9763SOL    HW230189   2.521   1.487   1.502
 9764SOL     OW30190   1.536   2.269   2.246
 9764SOL    HW130191   1.605   2.196   2.252
 9764SOL    HW230192   1.579   2.356   2.270
 9765SOL     OW30193   0.097   1.269   5.569
 9765SOL    HW130194   0.192   1.286   5.593
 9765SOL    HW230195   0.054   1.355   5.539
 9766SOL     OW30196   2.899   0.987   2.430
 9766SOL    HW130197   2.962   1.011   2.503
 9766SOL    HW230198   2.854   1.070   2.396
 9767SOL     OW30199   4.845   0.451   5.364
 9767SOL    HW130200   4.891   0.363   5.352
 9767SOL    HW230201   4.891   0.503   5.435
 9768SOL     OW30202   4.457   2.407   2.775
 9768SOL    HW130203   4.445   2.500   2.808
 9768SOL    HW230204   4.518   2.357   2.836
 9769SOL     OW30205   0.694   1.881   1.497
 9769SOL    HW130206   0.651   1.866   1.407
 9769SOL    HW230207   0.665   1.969   1.533
 9770SOL     OW30208   6.029   4.644   6.050
 9770SOL    HW130209   6.036   4.568   5.985
 9770SOL    HW230210   5.965   4.620   6.122
 9771SOL     OW30211   3.896   6.159   5.795
 9771SOL    HW130212   3.894   6.253   5.761
 9771SOL    HW230213   3.856   6.098   5.726
 9772SOL     OW30214   6.669   0.311   1.474
 9772SOL    HW130215   6.578   0.269   1.466
 9772SOL    HW230216   6.681   0.346   1.566
 9773SOL     OW30217   5.777   5.544   3.258
 9773SOL    HW130218   5.816   5.464   3.305
 9773SOL    HW230219   5.798   5.627   3.309
 9774SOL     OW30220   0.362   5.201   3.414
 9774SOL    HW130221   0.330   5.213   3.507
 9774SOL    HW230222   0.383   5.290   3.373
 9775SOL     OW30223   2.591   2.488   4.828
 9775SOL    HW130224   2.535   2.497   4.911
 9775SOL    HW230225   2.585   2.572   4.775
 9776SOL     OW30226   0.258   5.347   4.646
 9776SOL    HW130227   0.265   5.441   4.678
 9776SOL    HW230228   0.317   5.334   4.567
 9777SOL     OW30229   5.669   4.938   6.646
 9777SOL    HW130230   5.621   4.915   6.561
 9777SOL    HW230231   5.662   5.037   6.663
 9778SOL     OW30232   4.024   1.120   2.871
 9778SOL    HW130233   3.970   1.040   2.898
 9778SOL    HW230234   4.077   1.099   2.789
 9779SOL     OW30235   2.902   1.945   6.154
 9779SOL    HW130236   2.884   1.852   6.123
 9779SOL    HW230237   2.843   2.009   6.104
 9780SOL     OW30238   3.517   4.482   0.175
 9780SOL    HW130239   3.588   4.513   0.238
 9780SOL    HW230240   3.427   4.498   0.215
 9781SOL     OW30241   1.658   4.979   4.160
 9781SOL    HW130242   1.637   5.077   4.170
 9781SOL    HW230243   1.661   4.936   4.250
 9782SOL     OW30244   6.582   0.465   1.243
 9782SOL    HW130245   6.649   0.533   1.274
 9782SOL    HW230246   6.587   0.384   1.301
 9783SOL     OW30247   4.958   1.224   2.779
 9783SOL    HW130248   4.910   1.285   2.717
 9783SOL    HW230249   5.051   1.210   2.746
 9784SOL     OW30250   4.924   1.036   4.256
 9784SOL    HW130251   4.963   1.084   4.334
 9784SOL    HW230252   4.844   0.984   4.286
 9785SOL     OW30253   0.781   2.921   1.783
 9785SOL    HW130254   0.803   3.014   1.813
 9785SOL    HW230255   0.865   2.873   1.759
 9786SOL     OW30256   2.784   6.783   4.705
 9786SOL    HW130257   2.882   6.775   4.726
 9786SOL    HW230258   2.741   6.845   4.771
 9787SOL     OW30259   5.571   4.308   1.841
 9787SOL    HW130260   5.610   4.400   1.850
 9787SOL    HW230261   5.625   4.244   1.896
 9788SOL     OW30262   0.710   0.973   5.394
 9788SOL    HW130263   0.804   0.963   5.362
 9788SOL    HW230264   0.650   0.913   5.340
 9789SOL     OW30265   1.845   5.817   4.679
 9789SOL    HW130266   1.891   5.770   4.604
 9789SOL    HW230267   1.747   5.821   4.661
 9790SOL     OW30268   6.491   1.812   4.328
 9790SOL    HW130269   6.418   1.862   4.376
 9790SOL    HW230270   6.502   1.848   4.236
 9791SOL     OW30271   1.011   2.258   0.952
 9791SOL    HW130272   0.993   2.172   1.000
 9791SOL    HW230273   1.091   2.302   0.992
 9792SOL     OW30274   4.396   5.492   2.235
 9792SOL    HW130275   4.392   5.450   2.144
 9792SOL    HW230276   4.471   5.558   2.238
 9793SOL     OW30277   4.705   5.845   2.611
 9793SOL    HW130278   4.764   5.870   2.534
 9793SOL    HW230279   4.758   5.846   2.696
 9794SOL     OW30280   3.620   3.066   6.679
 9794SOL    HW130281   3.713   3.041   6.707
 9794SOL    HW230282   3.558   2.991   6.701
 9795SOL     OW30283   2.148   3.936   4.583
 9795SOL    HW130284   2.170   3.882   4.665
 9795SOL    HW230285   2.137   4.032   4.608
 9796SOL     OW30286   3.621   5.460   0.049
 9796SOL    HW130287   3.703   5.409   0.076
 9796SOL    HW230288   3.648   5.540   7.019
 9797SOL     OW30289   5.044   3.142   5.189
 9797SOL    HW130290   4.968   3.087   5.221
 9797SOL    HW230291   5.075   3.108   5.100
 9798SOL     OW30292   1.668   2.188   1.814
 9798SOL    HW130293   1.759   2.216   1.843
 9798SOL    HW230294   1.647   2.229   1.725
 9799SOL     OW30295   3.036   3.895   2.170
 9799SOL    HW130296   2.983   3.818   2.206
 9799SOL    HW230297   3.071   3.950   2.246
 9800SOL     OW30298   3.968   5.282   6.695
 9800SOL    HW130299   3.954   5.285   6.596
 9800SOL    HW230300   4.064   5.300   6.717
 9801SOL     OW30301   4.616   5.032   0.115
 9801SOL    HW130302   4.634   5.128   0.093
 9801SOL    HW230303   4.521   5.009   0.093
 9802SOL     OW30304   0.137   4.040   1.069
 9802SOL    HW130305   0.164   4.095   1.148
 9802SOL    HW230306   0.038   4.026   1.071
 9803SOL     OW30307   5.938   0.969   6.367
 9803SOL    HW130308   5.872   1.035   6.332
 9803SOL    HW230309   5.914   0.877   6.336
 9804SOL     OW30310   5.235   5.333   4.350
 9804SOL    HW130311   5.204   5.327   4.445
 9804SOL    HW230312   5.169   5.387   4.297
 9805SOL     OW30313   3.311   4.260   0.404
 9805SOL    HW130314   3.329   4.346   0.451
 9805SOL    HW230315   3.228   4.218   0.441
 9806SOL     OW30316   6.216   1.987   2.862
 9806SOL    HW130317   6.279   2.038   2.920
 9806SOL    HW230318   6.267   1.936   2.793
 9807SOL     OW30319   3.530   2.582   0.698
 9807SOL    HW130320   3.509   2.574   0.600
 9807SOL    HW230321   3.628   2.573   0.712
 9808SOL     OW30322   1.028   1.482   5.125
 9808SOL    HW130323   1.038   1.564   5.068
 9808SOL    HW230324   0.934   1.476   5.159
 9809SOL     OW30325   1.302   0.782   4.827
 9809SOL    HW130326   1.270   0.707   4.770
 9809SOL    HW230327   1.341   0.744   4.912
 9810SOL     OW30328   3.991   0.850   3.948
 9810SOL    HW130329   3.945   0.933   3.980
 9810SOL    HW230330   4.080   0.843   3.993
 9811SOL     OW30331   1.351   6.606   2.673
 9811SOL    HW130332   1.265   6.608   2.723
 9811SOL    HW230333   1.337   6.564   2.583
 9812SOL     OW30334   4.947   2.840   5.397
 9812SOL    HW130335   4.974   2.881   5.484
 9812SOL    HW230336   5.014   2.769   5.372
 9813SOL     OW30337   6.407   4.778   0.436
 9813SOL    HW130338   6.430   4.751   0.529
 9813SOL    HW230339   6.393   4.877   0.433
 9814SOL     OW30340   6.947   0.303   5.370
 9814SOL    HW130341   6.945   0.230   5.301
 9814SOL    HW230342   7.005   0.378   5.337
 9815SOL     OW30343   6.639   3.869   2.965
 9815SOL    HW130344   6.693   3.913   3.037
 9815SOL    HW230345   6.579   3.800   3.005
 9816SOL     OW30346   6.817   0.385   6.021
 9816SOL    HW130347   6.781   0.405   5.930
 9816SOL    HW230348   6.909   0.346   6.013
 9817SOL     OW30349   2.810   0.075   0.001
 9817SOL    HW130350   2.901   0.037   7.011
 9817SOL    HW230351   2.768   0.094   6.936
 9818SOL     OW30352   0.812   6.673   3.289
 9818SOL    HW130353   0.845   6.748   3.231
 9818SOL    HW230354   0.739   6.624   3.242
 9819SOL     OW30355   6.663   2.945   4.468
 9819SOL    HW130356   6.599   2.949   4.391
 9819SOL    HW230357   6.660   3.031   4.518
 9820SOL     OW30358   3.972   2.217   5.999
 9820SOL    HW130359   3.895   2.154   6.009
 9820SOL    HW230360   3.985   2.268   6.084
 9821SOL     OW30361   3.495   3.024   1.686
 9821SOL    HW130362   3.562   2.950   1.686
 9821SOL    HW230363   3.505   3.078   1.769
 9822SOL     OW30364   3.620   6.599   5.056
 9822SOL    HW130365   3.569   6.676   5.095
 9822SOL    HW230366   3.661   6.627   4.968
 9823SOL     OW30367   2.763   7.006   2.993
 9823SOL    HW130368   2.675   7.020   2.946
 9823SOL    HW230369   2.774   6.909   3.013
 9824SOL     OW30370   1.099   6.151   5.529
 9824SOL    HW130371   1.066   6.068   5.483
 9824SOL    HW230372   1.068   6.232   5.478
 9825SOL     OW30373   6.068   6.537   4.912
 9825SOL    HW130374   5.971   6.513   4.911
 9825SOL    HW230375   6.121   6.460   4.946
 9826SOL     OW30376   2.436   5.497   4.992
 9826SOL    HW130377   2.439   5.567   4.921
 9826SOL    HW230378   2.518   5.504   5.049
 9827SOL     OW30379   1.934   4.810   2.006
 9827SOL    HW130380   1.879   4.834   1.926
 9827SOL    HW230381   2.031   4.809   1.981
 9828SOL     OW30382   4.726   1.979   4.685
 9828SOL    HW130383   4.722   1.999   4.783
 9828SOL    HW230384   4.663   1.904   4.664
 9829SOL     OW30385   4.768   5.417   5.824
 9829SOL    HW130386   4.712   5.495   5.797
 9829SOL    HW230387   4.841   5.404   5.757
 9830SOL     OW30388   5.710   1.477   3.620
 9830SOL    HW130389   5.765   1.450   3.698
 9830SOL    HW230390   5.696   1.576   3.622
 9831SOL     OW30391   0.814   4.431   2.622
 9831SOL    HW130392   0.882   4.370   2.580
 9831SOL    HW230393   0.854   4.523   2.633
 9832SOL     OW30394   4.490   5.585   4.459
 9832SOL    HW130395   4.585   5.610   4.478
 9832SOL    HW230396   4.487   5.494   4.417
 9833SOL     OW30397   4.054   3.730   3.910
 9833SOL    HW130398   3.967   3.714   3.863
 9833SOL    HW230399   4.037   3.774   3.998
 9834SOL     OW30400   2.724   6.532   5.421
 9834SOL    HW130401   2.806   6.590   5.421
 9834SOL    HW230402   2.749   6.438   5.441
 9835SOL     OW30403   4.029   3.682   4.463
 9835SOL    HW130404   4.069   3.702   4.552
 9835SOL    HW230405   4.016   3.584   4.453
 9836SOL     OW30406   0.078   3.907   5.878
 9836SOL    HW130407   0.035   3.818   5.860
 9836SOL    HW230408   0.140   3.898   5.957
 9837SOL     OW30409   5.728   1.886   3.456
 9837SOL    HW130410   5.776   1.826   3.520
 9837SOL    HW230411   5.753   1.862   3.363
 9838SOL     OW30412   1.840   6.747   1.324
 9838SOL    HW130413   1.747   6.777   1.303
 9838SOL    HW230414   1.873   6.794   1.405
 9839SOL     OW30415   4.594   6.806   3.987
 9839SOL    HW130416   4.583   6.780   3.891
 9839SOL    HW230417   4.610   6.724   4.042
 9840SOL     OW30418   6.426   1.604   6.591
 9840SOL    HW130419   6.350   1.574   6.533
 9840SOL    HW230420   6.413   1.700   6.616
 9841SOL     OW30421   6.641   6.615   2.869
 9841SOL    HW130422   6.696   6.698   2.880
 9841SOL    HW230423   6.616   6.579   2.958
 9842SOL     OW30424   3.754   0.655   6.621
 9842SOL    HW130425   3.713   0.714   6.690
 9842SOL    HW230426   3.854   0.665   6.622
 9843SOL     OW30427   0.395   0.411   1.387
 9843SOL    HW130428   0.465   0.478   1.411
 9843SOL    HW230429   0.311   0.459   1.361
 9844SOL     OW30430   4.736   0.239   4.413
 9844SOL    HW130431   4.719   0.279   4.323
 9844SOL    HW230432   4.830   0.258   4.441
 9845SOL     OW30433   1.736   3.423   2.362
 9845SOL    HW130434   1.817   3.364   2.362
 9845SOL    HW230435   1.763   3.517   2.384
 9846SOL     OW30436   6.148   2.560   1.260
 9846SOL    HW130437   6.222   2.500   1.228
 9846SOL    HW230438   6.186   2.628   1.322
 9847SOL     OW30439   4.091   3.728   6.785
 9847SOL    HW130440   4.024   3.783   6.736
 9847SOL    HW230441   4.043   3.664   6.846
 9848SOL     OW30442   3.534   3.954   5.813
 9848SOL    HW130443   3.561   3.869   5.858
 9848SOL    HW230444   3.597   4.027   5.839
 9849SOL     OW30445   0.552   2.453   4.276
 9849SOL    HW130446   0.589   2.426   4.365
 9849SOL    HW230447   0.532   2.371   4.222
 9850SOL     OW30448   1.785   6.996   4.122
 9850SOL    HW130449   1.812   7.002   4.026
 9850SOL    HW230450   1.769   6.900   4.147
 9851SOL     OW30451   3.560   5.552   4.301
 9851SOL    HW130452   3.612   5.594   4.227
 9851SOL    HW230453   3.604   5.468   4.330
 9852SOL     OW30454   2.063   6.922   0.455
 9852SOL    HW130455   2.158   6.891   0.466
 9852SOL    HW230456   2.014   6.908   0.541
 9853SOL     OW30457   0.242   4.370   3.635
 9853SOL    HW130458   0.222   4.335   3.726
 9853SOL    HW230459   0.312   4.313   3.591
 9854SOL     OW30460   0.695   4.362   6.466
 9854SOL    HW130461   0.689   4.278   6.412
 9854SOL    HW230462   0.678   4.441   6.407
 9855SOL     OW30463   0.854   5.121   0.352
 9855SOL    HW130464   0.903   5.146   0.435
 9855SOL    HW230465   0.837   5.203   0.298
 9856SOL     OW30466   5.638   3.502   3.107
 9856SOL    HW130467   5.623   3.489   3.009
 9856SOL    HW230468   5.726   3.463   3.133
 9857SOL     OW30469   4.728   0.392   5.808
 9857SOL    HW130470   4.799   0.458   5.784
 9857SOL    HW230471   4.639   0.438   5.813
 9858SOL     OW30472   6.561   5.802   1.878
 9858SOL    HW130473   6.475   5.828   1.923
 9858SOL    HW230474   6.587   5.873   1.813
 9859SOL     OW30475   0.140   5.816   3.371
 9859SOL    HW130476   0.056   5.832   3.424
 9859SOL    HW230477   0.120   5.751   3.297
 9860SOL     OW30478   1.450   2.984   4.843
 9860SOL    HW130479   1.438   2.895   4.887
 9860SOL    HW230480   1.371   3.041   4.861
 9861SOL     OW30481   3.353   2.174   2.816
 9861SOL    HW130482   3.375   2.173   2.719
 9861SOL    HW230483   3.437   2.169   2.870
 9862SOL     OW30484   1.004   3.938   6.676
 9862SOL    HW130485   1.065   3.996   6.622
 9862SOL    HW230486   1.037   3.844   6.674
 9863SOL     OW30487   4.390   6.581   1.618
 9863SOL    HW130488   4.343   6.651   1.564
 9863SOL    HW230489   4.423   6.509   1.557
 9864SOL     OW30490   2.384   5.558   5.423
 9864SOL    HW130491   2.433   5.526   5.504
 9864SOL    HW230492   2.337   5.643   5.444
 9865SOL     OW30493   1.433   5.092   5.726
 9865SOL    HW130494   1.354   5.030   5.732
 9865SOL    HW230495   1.421   5.168   5.790
 9866SOL     OW30496   6.915   5.674   5.472
 9866SOL    HW130497   6.867   5.732   5.406
 9866SOL    HW230498   6.848   5.632   5.533
 9867SOL     OW30499   3.592   1.801   2.166
 9867SOL    HW130500   3.681   1.796   2.211
 9867SOL    HW230501   3.523   1.755   2.222
 9868SOL     OW30502   2.357   4.397   3.604
 9868SOL    HW130503   2.326   4.303   3.615
 9868SOL    HW230504   2.390   4.411   3.511
 9869SOL     OW30505   6.750   2.756   0.848
 9869SOL    HW130506   6.800   2.759   0.761
 9869SOL    HW230507   6.810   2.720   0.919
 9870SOL     OW30508   2.605   2.353   2.565
 9870SOL    HW130509   2.565   2.444   2.559
 9870SOL    HW230510   2.619   2.329   2.661
 9871SOL     OW30511   5.546   5.615   3.470
 9871SOL    HW130512   5.513   5.648   3.382
 9871SOL    HW230513   5.631   5.662   3.494
 9872SOL     OW30514   0.736   4.795   5.802
 9872SOL    HW130515   0.808   4.862   5.821
 9872SOL    HW230516   0.650   4.842   5.783
 9873SOL     OW30517   1.377   1.128   5.241
 9873SOL    HW130518   1.410   1.128   5.147
 9873SOL    HW230519   1.355   1.222   5.269
 9874SOL     OW30520   0.175   2.389   4.609
 9874SOL    HW130521   0.140   2.476   4.574
 9874SOL    HW230522   0.228   2.404   4.692
 9875SOL     OW30523   6.325   6.204   0.857
 9875SOL    HW130524   6.309   6.261   0.938
 9875SOL    HW230525   6.335   6.263   0.776
 9876SOL     OW30526   0.486   6.641   3.348
 9876SOL    HW130527   0.570   6.587   3.352
 9876SOL    HW230528   0.409   6.583   3.373
 9877SOL     OW30529   0.913   5.600   5.469
 9877SOL    HW130530   0.858   5.604   5.553
 9877SOL    HW230531   0.997   5.652   5.481
 9878SOL     OW30532   3.342   2.596   6.657
 9878SOL    HW130533   3.261   2.538   6.646
 9878SOL    HW230534   3.312   2.691   6.672
 9879SOL     OW30535   6.856   5.705   5.877
 9879SOL    HW130536   6.930   5.771   5.868
 9879SOL    HW230537   6.805   5.723   5.961
 9880SOL     OW30538   3.105   1.013   1.151
 9880SOL    HW130539   3.082   1.083   1.083
 9880SOL    HW230540   3.036   0.941   1.149
 9881SOL     OW30541   6.158   1.664   3.752
 9881SOL    HW130542   6.157   1.627   3.659
 9881SOL    HW230543   6.143   1.763   3.748
 9882SOL     OW30544   3.405   3.253   4.783
 9882SOL    HW130545   3.441   3.160   4.797
 9882SOL    HW230546   3.449   3.316   4.846
 9883SOL     OW30547   1.835   6.998   2.169
 9883SOL    HW130548   1.830   0.053   2.229
 9883SOL    HW230549   1.912   6.940   2.196
 9884SOL     OW30550   2.871   2.644   5.765
 9884SOL    HW130551   2.817   2.675   5.843
 9884SOL    HW230552   2.964   2.622   5.794
 9885SOL     OW30553   5.027   2.878   5.673
 9885SOL    HW130554   5.091   2.802   5.662
 9885SOL    HW230555   4.958   2.854   5.741
 9886SOL     OW30556   3.292   5.508   1.423
 9886SOL    HW130557   3.361   5.437   1.411
 9886SOL    HW230558   3.284   5.560   1.338
 9887SOL     OW30559   3.500   1.840   6.651
 9887SOL    HW130560   3.598   1.826   6.662
 9887SOL    HW230561   3.456   1.753   6.628
 9888SOL     OW30562   6.512   6.761   3.551
 9888SOL    HW130563   6.510   6.806   3.461
 9888SOL    HW230564   6.508   6.662   3.538
 9889SOL     OW30565   6.591   5.902   2.870
 9889SOL    HW130566   6.569   5.994   2.838
 9889SOL    HW230567   6.649   5.856   2.802
 9890SOL     OW30568   0.640   3.601   2.489
 9890SOL    HW130569   0.645   3.562   2.582
 9890SOL    HW230570   0.569   3.553   2.437
 9891SOL     OW30571   5.505   5.827   1.747
 9891SOL    HW130572   5.455   5.783   1.821
 9891SOL    HW230573   5.562   5.760   1.699
 9892SOL     OW30574   1.379   5.479   3.950
 9892SOL    HW130575   1.281   5.497   3.942
 9892SOL    HW230576   1.404   5.477   4.047
 9893SOL     OW30577   5.495   5.147   4.759
 9893SOL    HW130578   5.524   5.075   4.822
 9893SOL    HW230579   5.493   5.234   4.808
 9894SOL     OW30580   4.554   2.984   5.614
 9894SOL    HW130581   4.600   2.951   5.531
 9894SOL    HW230582   4.527   3.080   5.601
 9895SOL     OW30583   5.755   2.083   0.074
 9895SOL    HW130584   5.670   2.083   0.128
 9895SOL    HW230585   5.733   2.066   7.002
 9896SOL     OW30586   4.230   2.998   0.170
 9896SOL    HW130587   4.145   2.975   0.123
 9896SOL    HW230588   4.212   3.064   0.243
 9897SOL     OW30589   6.477   1.610   3.594
 9897SOL    HW130590   6.541   1.600   3.670
 9897SOL    HW230591   6.464   1.708   3.574
 9898SOL     OW30592   1.560   4.944   6.056
 9898SOL    HW130593   1.485   4.881   6.075
 9898SOL    HW230594   1.538   4.998   5.975
 9899SOL     OW30595   4.911   4.653   2.453
 9899SOL    HW130596   4.825   4.646   2.505
 9899SOL    HW230597   4.891   4.665   2.356
 9900SOL     OW30598   1.216   3.975   3.651
 9900SOL    HW130599   1.265   3.895   3.616
 9900SOL    HW230600   1.189   3.959   3.746
 9901SOL     OW30601   2.676   2.030   6.040
 9901SOL    HW130602   2.698   1.979   5.957
 9901SOL    HW230603   2.581   2.010   6.067
 9902SOL     OW30604   4.777   3.738   0.352
 9902SOL    HW130605   4.769   3.831   0.315
 9902SOL    HW230606   4.699   3.684   0.324
 9903SOL     OW30607   3.781   0.742   1.685
 9903SOL    HW130608   3.789   0.754   1.784
 9903SOL    HW230609   3.685   0.736   1.659
 9904SOL     OW30610   0.228   0.036   1.970
 9904SOL    HW130611   0.312   0.077   1.934
 9904SOL    HW230612   0.197   6.988   1.908
 9905SOL     OW30613   1.659   6.266   6.050
 9905SOL    HW130614   1.708   6.296   6.131
 9905SOL    HW230615   1.697   6.179   6.018
 9906SOL     OW30616   3.935   3.849   6.061
 9906SOL    HW130617   3.853   3.900   6.032
 9906SOL    HW230618   4.017   3.903   6.039
 9907SOL     OW30619   1.046   6.321   2.948
 9907SOL    HW130620   1.072   6.417   2.939
 9907SOL    HW230621   1.128   6.264   2.949
 9908SOL     OW30622   0.461   3.406   4.804
 9908SOL    HW130623   0.516   3.359   4.873
 9908SOL    HW230624   0.425   3.339   4.738
 9909SOL     OW30625   3.316   0.607   2.811
 9909SOL    HW130626   3.350   0.555   2.732
 9909SOL    HW230627   3.292   0.543   2.885
 9910SOL     OW30628   1.146   4.567   1.290
 9910SOL    HW130629   1.067   4.510   1.311
 9910SOL    HW230630   1.212   4.561   1.365
 9911SOL     OW30631   3.904   4.838   2.989
 9911SOL    HW130632   3.898   4.938   3.000
 9911SOL    HW230633   3.812   4.799   2.993
 9912SOL     OW30634   3.935   6.860   1.157
 9912SOL    HW130635   3.943   6.764   1.183
 9912SOL    HW230636   3.978   6.873   1.067
 9913SOL     OW30637   4.227   2.271   2.648
 9913SOL    HW130638   4.168   2.212   2.703
 9913SOL    HW230639   4.302   2.304   2.705
 9914SOL     OW30640   2.278   5.432   5.200
 9914SOL    HW130641   2.325   5.479   5.126
 9914SOL    HW230642   2.312   5.466   5.288
 9915SOL     OW30643   5.954   3.632   3.766
 9915SOL    HW130644   6.001   3.671   3.846
 9915SOL    HW230645   6.013   3.565   3.722
 9916SOL     OW30646   2.756   3.150   0.930
 9916SOL    HW130647   2.824   3.082   0.905
 9916SOL    HW230648   2.740   3.211   0.853
 9917SOL     OW30649   1.944   2.614   4.932
 9917SOL    HW130650   2.043   2.604   4.920
 9917SOL    HW230651   1.925   2.657   5.020
 9918SOL     OW30652   2.274   0.898   4.551
 9918SOL    HW130653   2.296   0.989   4.517
 9918SOL    HW230654   2.357   0.844   4.559
 9919SOL     OW30655   0.165   5.773   2.709
 9919SOL    HW130656   0.248   5.822   2.685
 9919SOL    HW230657   0.109   5.829   2.770
 9920SOL     OW30658   4.370   6.586   2.645
 9920SOL    HW130659   4.406   6.541   2.564
 9920SOL    HW230660   4.422   6.556   2.726
 9921SOL     OW30661   4.736   0.140   3.384
 9921SOL    HW130662   4.687   0.224   3.408
 9921SOL    HW230663   4.742   0.131   3.285
 9922SOL     OW30664   5.218   3.196   1.637
 9922SOL    HW130665   5.199   3.248   1.721
 9922SOL    HW230666   5.192   3.251   1.558
 9923SOL     OW30667   6.468   0.782   6.166
 9923SOL    HW130668   6.392   0.841   6.138
 9923SOL    HW230669   6.446   0.687   6.146
 9924SOL     OW30670   5.004   1.118   3.330
 9924SOL    HW130671   5.055   1.202   3.314
 9924SOL    HW230672   5.056   1.060   3.393
 9925SOL     OW30673   3.348   2.088   4.778
 9925SOL    HW130674   3.339   2.130   4.868
 9925SOL    HW230675   3.440   2.103   4.743
 9926SOL     OW30676   1.811   1.018   6.491
 9926SOL    HW130677   1.870   0.997   6.413
 9926SOL    HW230678   1.718   0.988   6.471
 9927SOL     OW30679   1.137   2.415   2.149
 9927SOL    HW130680   1.174   2.322   2.152
 9927SOL    HW230681   1.059   2.422   2.211
 9928SOL     OW30682   6.988   3.394   2.668
 9928SOL    HW130683   6.993   3.335   2.748
 9928SOL    HW230684   6.895   3.392   2.630
 9929SOL     OW30685   1.521   4.300   5.585
 9929SOL    HW130686   1.590   4.279   5.516
 9929SOL    HW230687   1.491   4.216   5.630
 9930SOL     OW30688   0.512   5.385   0.089
 9930SOL    HW130689   0.487   5.296   0.127
 9930SOL    HW230690   0.436   5.422   0.036
 9931SOL     OW30691   2.941   4.976   6.878
 9931SOL    HW130692   3.003   4.969   6.956
 9931SOL    HW230693   2.948   5.067   6.837
 9932SOL     OW30694   2.007   2.276   1.224
 9932SOL    HW130695   2.090   2.271   1.169
 9932SOL    HW230696   2.002   2.197   1.285
 9933SOL     OW30697   0.505   1.389   2.062
 9933SOL    HW130698   0.475   1.481   2.038
 9933SOL    HW230699   0.526   1.385   2.159
 9934SOL     OW30700   5.023   1.117   0.110
 9934SOL    HW130701   5.040   1.087   0.017
 9934SOL    HW230702   4.977   1.206   0.109
 9935SOL     OW30703   2.640   2.150   1.203
 9935SOL    HW130704   2.657   2.203   1.286
 9935SOL    HW230705   2.701   2.071   1.200
 9936SOL     OW30706   5.528   6.554   5.871
 9936SOL    HW130707   5.437   6.589   5.890
 9936SOL    HW230708   5.553   6.486   5.940
 9937SOL     OW30709   1.579   7.006   3.180
 9937SOL    HW130710   1.606   0.061   3.235
 9937SOL    HW230711   1.481   7.011   3.161
 9938SOL     OW30712   6.646   0.981   3.663
 9938SOL    HW130713   6.591   0.961   3.744
 9938SOL    HW230714   6.674   1.077   3.665
 9939SOL     OW30715   2.818   4.239   1.182
 9939SOL    HW130716   2.725   4.259   1.214
 9939SOL    HW230717   2.869   4.194   1.256
 9940SOL     OW30718   7.000   0.710   3.410
 9940SOL    HW130719   7.012   0.809   3.411
 9940SOL    HW230720   7.005   0.677   3.316
 9941SOL     OW30721   5.666   4.838   0.473
 9941SOL    HW130722   5.583   4.865   0.521
 9941SOL    HW230723   5.662   4.870   0.378
 9942SOL     OW30724   5.724   6.075   2.849
 9942SOL    HW130725   5.700   6.112   2.939
 9942SOL    HW230726   5.690   5.981   2.842
 9943SOL     OW30727   1.217   4.045   5.517
 9943SOL    HW130728   1.304   4.056   5.564
 9943SOL    HW230729   1.144   4.034   5.584
 9944SOL     OW30730   1.548   5.799   5.989
 9944SOL    HW130731   1.462   5.800   6.040
 9944SOL    HW230732   1.570   5.705   5.963
 9945SOL     OW30733   6.758   3.705   6.926
 9945SOL    HW130734   6.710   3.762   6.859
 9945SOL    HW230735   6.703   3.697   7.009
 9946SOL     OW30736   4.929   2.233   1.295
 9946SOL    HW130737   5.016   2.267   1.330
 9946SOL    HW230738   4.901   2.153   1.348
 9947SOL     OW30739   0.513   1.422   2.899
 9947SOL    HW130740   0.537   1.516   2.924
 9947SOL    HW230741   0.585   1.385   2.839
 9948SOL     OW30742   5.554   0.508   4.623
 9948SOL    HW130743   5.626   0.481   4.687
 9948SOL    HW230744   5.554   0.445   4.546
 9949SOL     OW30745   6.655   4.473   3.210
 9949SOL    HW130746   6.650   4.514   3.301
 9949SOL    HW230747   6.751   4.461   3.185
 9950SOL     OW30748   4.505   4.118   5.356
 9950SOL    HW130749   4.450   4.034   5.363
 9950SOL    HW230750   4.589   4.098   5.306
 9951SOL     OW30751   7.000   1.978   2.928
 9951SOL    HW130752   0.067   1.967   2.969
 9951SOL    HW230753   6.993   2.069   2.887
 9952SOL     OW30754   1.524   4.685   1.952
 9952SOL    HW130755   1.519   4.665   1.854
 9952SOL    HW230756   1.615   4.661   1.986
 9953SOL     OW30757   6.216   3.783   3.728
 9953SOL    HW130758   6.137   3.844   3.721
 9953SOL    HW230759   6.204   3.721   3.805
 9954SOL     OW30760   3.663   0.670   1.397
 9954SOL    HW130761   3.629   0.750   1.447
 9954SOL    HW230762   3.743   0.633   1.444
 9955SOL     OW30763   5.504   4.901   1.499
 9955SOL    HW130764   5.406   4.920   1.508
 9955SOL    HW230765   5.524   4.812   1.540
 9956SOL     OW30766   2.136   2.957   3.887
 9956SOL    HW130767   2.048   3.005   3.882
 9956SOL    HW230768   2.124   2.862   3.859
 9957SOL     OW30769   5.434   0.707   0.617
 9957SOL    HW130770   5.455   0.669   0.707
 9957SOL    HW230771   5.480   0.654   0.546
 9958SOL     OW30772   5.989   5.455   6.956
 9958SOL    HW130773   5.940   5.377   6.994
 9958SOL    HW230774   5.925   5.515   6.906
 9959SOL     OW30775   5.506   5.668   0.879
 9959SOL    HW130776   5.585   5.606   0.872
 9959SOL    HW230777   5.423   5.619   0.851
 9960SOL     OW30778   6.622   0.216   0.084
 9960SOL    HW130779   6.585   0.274   0.011
 9960SOL    HW230780   6.556   0.210   0.159
 9961SOL     OW30781   3.422   5.865   0.772
 9961SOL    HW130782   3.336   5.815   0.779
 9961SOL    HW230783   3.460   5.879   0.863
 9962SOL     OW30784   3.364   0.290   1.548
 9962SOL    HW130785   3.411   0.220   1.602
 9962SOL    HW230786   3.291   0.246   1.495
 9963SOL     OW30787   1.174   0.558   6.013
 9963SOL    HW130788   1.153   0.651   6.045
 9963SOL    HW230789   1.089   0.505   6.007
 9964SOL     OW30790   4.343   4.664   6.218
 9964SOL    HW130791   4.396   4.579   6.217
 9964SOL    HW230792   4.248   4.643   6.242
 9965SOL     OW30793   3.038   5.282   3.995
 9965SOL    HW130794   3.072   5.195   4.030
 9965SOL    HW230795   3.002   5.336   4.071
 9966SOL     OW30796   3.662   4.901   3.185
 9966SOL    HW130797   3.577   4.911   3.133
 9966SOL    HW230798   3.646   4.929   3.280
 9967SOL     OW30799   0.072   0.346   3.234
 9967SOL    HW130800   0.016   0.388   3.163
 9967SOL    HW230801   0.014   0.320   3.311
 9968SOL     OW30802   4.151   6.320   0.295
 9968SOL    HW130803   4.056   6.294   0.309
 9968SOL    HW230804   4.159   6.420   0.293
 9969SOL     OW30805   7.008   6.061   3.859
 9969SOL    HW130806   7.021   5.966   3.887
 9969SOL    HW230807   6.939   6.065   3.787
 9970SOL     OW30808   6.695   3.342   2.324
 9970SOL    HW130809   6.716   3.265   2.384
 9970SOL    HW230810   6.615   3.391   2.358
 9971SOL     OW30811   0.015   5.185   4.623
 9971SOL    HW130812   0.023   5.116   4.695
 9971SOL    HW230813   0.105   5.226   4.607
 9972SOL     OW30814   3.322   4.262   5.992
 9972SOL    HW130815   3.295   4.187   5.932
 9972SOL    HW230816   3.244   4.292   6.046
 9973SOL     OW30817   2.320   2.097   3.733
 9973SOL    HW130818   2.416   2.118   3.750
 9973SOL    HW230819   2.310   2.062   3.640
 9974SOL     OW30820   1.376   2.486   3.300
 9974SOL    HW130821   1.282   2.454   3.313
 9974SOL    HW230822   1.437   2.429   3.356
 9975SOL     OW30823   2.435   4.550   6.806
 9975SOL    HW130824   2.506   4.543   6.736
 9975SOL    HW230825   2.420   4.461   6.848
 9976SOL     OW30826   3.943   5.230   6.121
 9976SOL    HW130827   3.917   5.133   6.120
 9976SOL    HW230828   3.867   5.284   6.157
 9977SOL     OW30829   4.359   0.404   5.626
 9977SOL    HW130830   4.360   0.495   5.669
 9977SOL    HW230831   4.435   0.397   5.561
 9978SOL     OW30832   1.165   2.962   0.042
 9978SOL    HW130833   1.107   2.952   6.985
 9978SOL    HW230834   1.127   3.033   0.101
 9979SOL     OW30835   3.297   3.662   5.202
 9979SOL    HW130836   3.276   3.751   5.164
 9979SOL    HW230837   3.265   3.590   5.140
 9980SOL     OW30838   1.508   1.718   1.444
 9980SOL    HW130839   1.547   1.627   1.456
 9980SOL    HW230840   1.547   1.761   1.363
 9981SOL     OW30841   6.165   1.801   0.060
 9981SOL    HW130842   6.132   1.893   0.081
 9981SOL    HW230843   6.242   1.806   7.021
 9982SOL     OW30844   1.723   2.181   4.631
 9982SOL    HW130845   1.822   2.168   4.626
 9982SOL    HW230846   1.702   2.278   4.643
 9983SOL     OW30847   1.153   3.900   2.461
 9983SOL    HW130848   1.178   3.990   2.497
 9983SOL    HW230849   1.236   3.846   2.447
 9984SOL     OW30850   0.508   5.048   1.027
 9984SOL    HW130851   0.586   4.989   1.049
 9984SOL    HW230852   0.530   5.142   1.052
 9985SOL     OW30853   4.855   4.321   7.021
 9985SOL    HW130854   4.915   4.345   6.945
 9985SOL    HW230855   4.804   4.402   0.026
 9986SOL     OW30856   5.672   5.802   6.889
 9986SOL    HW130857   5.709   5.895   6.889
 9986SOL    HW230858   5.662   5.771   6.984
 9987SOL     OW30859   5.945   2.641   1.529
 9987SOL    HW130860   5.892   2.610   1.449
 9987SOL    HW230861   5.989   2.563   1.572
 9988SOL     OW30862   5.753   0.093   3.776
 9988SOL    HW130863   5.661   0.056   3.776
 9988SOL    HW230864   5.818   0.022   3.802
 9989SOL     OW30865   0.340   6.197   2.878
 9989SOL    HW130866   0.274   6.267   2.851
 9989SOL    HW230867   0.413   6.193   2.810
 9990SOL     OW30868   0.270   0.166   3.045
 9990SOL    HW130869   0.261   0.204   3.138
 9990SOL    HW230870   0.182   0.129   3.016
 9991SOL     OW30871   2.064   4.749   2.820
 9991SOL    HW130872   2.034   4.820   2.884
 9991SOL    HW230873   1.998   4.742   2.746
 9992SOL     OW30874   2.308   5.257   0.308
 9992SOL    HW130875   2.328   5.341   0.358
 9992SOL    HW230876   2.270   5.189   0.371
 9993SOL     OW30877   3.813   0.281   4.674
 9993SOL    HW130878   3.877   0.255   4.603
 9993SOL    HW230879   3.836   0.372   4.708
 9994SOL     OW30880   5.955   5.211   4.800
 9994SOL    HW130881   6.018   5.230   4.876
 9994SOL    HW230882   5.897   5.291   4.784
 9995SOL     OW30883   3.523   1.509   6.237
 9995SOL    HW130884   3.439   1.545   6.197
 9995SOL    HW230885   3.546   1.422   6.193
 9996SOL     OW30886   2.957   3.769   0.388
 9996SOL    HW130887   2.919   3.838   0.327
 9996SOL    HW230888   2.936   3.792   0.483
 9997SOL     OW30889   6.458   2.522   3.721
 9997SOL    HW130890   6.405   2.472   3.790
 9997SOL    HW230891   6.395   2.561   3.653
 9998SOL     OW30892   4.795   3.954   2.447
 9998SOL    HW130893   4.744   4.038   2.467
 9998SOL    HW230894   4.859   3.971   2.372
 9999SOL     OW30895   0.571   6.331   3.960
 9999SOL    HW130896   0.597   6.342   4.056
 9999SOL    HW230897   0.644   6.284   3.911
10000SOL     OW30898   4.371   2.713   1.132
10000SOL    HW130899   4.316   2.779   1.082
10000SOL    HW230900   4.450   2.759   1.173
10001SOL     OW30901   3.686   6.303   1.832
10001SOL    HW130902   3.705   6.363   1.910
10001SOL    HW230903   3.648   6.357   1.757
10002SOL     OW30904   2.380   0.989   1.938
10002SOL    HW130905   2.298   0.992   1.996
10002SOL    HW230906   2.460   1.013   1.994
10003SOL     OW30907   1.272   0.632   3.145
10003SOL    HW130908   1.301   0.546   3.104
10003SOL    HW230909   1.326   0.707   3.106
10004SOL     OW30910   6.539   4.899   4.267
10004SOL    HW130911   6.469   4.880   4.198
10004SOL    HW230912   6.630   4.893   4.225
10005SOL     OW30913   2.513   5.111   3.639
10005SOL    HW130914   2.496   5.049   3.715
10005SOL    HW230915   2.444   5.096   3.568
10006SOL     OW30916   5.861   0.816   5.350
10006SOL    HW130917   5.809   0.900   5.338
10006SOL    HW230918   5.834   0.750   5.280
10007SOL     OW30919   1.074   4.910   4.355
10007SOL    HW130920   1.058   4.855   4.273
10007SOL    HW230921   1.169   4.900   4.384
10008SOL     OW30922   3.679   1.829   5.870
10008SOL    HW130923   3.651   1.771   5.793
10008SOL    HW230924   3.602   1.885   5.900
10009SOL     OW30925   1.275   3.904   2.164
10009SOL    HW130926   1.228   3.875   2.247
10009SOL    HW230927   1.361   3.949   2.188
10010SOL     OW30928   2.409   3.764   0.441
10010SOL    HW130929   2.337   3.830   0.463
10010SOL    HW230930   2.498   3.802   0.465
10011SOL     OW30931   2.008   3.068   0.252
10011SOL    HW130932   2.107   3.057   0.262
10011SOL    HW230933   1.976   3.011   0.176
10012SOL     OW30934   5.922   2.575   2.943
10012SOL    HW130935   5.824   2.591   2.929
10012SOL    HW230936   5.942   2.570   3.040
10013SOL     OW30937   0.464   5.966   5.214
10013SOL    HW130938   0.472   5.873   5.252
10013SOL    HW230939   0.543   5.984   5.155
10014SOL     OW30940   0.781   1.023   2.948
10014SOL    HW130941   0.761   1.107   2.998
10014SOL    HW230942   0.780   1.042   2.850
10015SOL     OW30943   4.076   5.767   6.017
10015SOL    HW130944   4.122   5.684   5.985
10015SOL    HW230945   4.136   5.846   6.001
10016SOL     OW30946   2.105   0.428   4.124
10016SOL    HW130947   2.167   0.359   4.163
10016SOL    HW230948   2.116   0.514   4.175
10017SOL     OW30949   2.884   2.238   3.015
10017SOL    HW130950   2.964   2.225   3.075
10017SOL    HW230951   2.801   2.235   3.070
10018SOL     OW30952   6.436   3.368   5.370
10018SOL    HW130953   6.498   3.445   5.384
10018SOL    HW230954   6.487   3.282   5.378
10019SOL     OW30955   0.447   2.234   1.872
10019SOL    HW130956   0.504   2.164   1.830
10019SOL    HW230957   0.350   2.215   1.852
10020SOL     OW30958   6.080   1.112   1.865
10020SOL    HW130959   6.126   1.156   1.942
10020SOL    HW230960   6.074   1.176   1.789
10021SOL     OW30961   1.033   3.279   2.449
10021SOL    HW130962   0.964   3.208   2.438
10021SOL    HW230963   1.124   3.240   2.431
10022SOL     OW30964   2.287   5.018   6.187
10022SOL    HW130965   2.371   5.009   6.133
10022SOL    HW230966   2.217   4.956   6.150
10023SOL     OW30967   0.924   0.964   6.158
10023SOL    HW130968   0.974   1.039   6.203
10023SOL    HW230969   0.859   0.924   6.223
10024SOL     OW30970   1.588   4.908   2.800
10024SOL    HW130971   1.662   4.974   2.793
10024SOL    HW230972   1.601   4.836   2.732
10025SOL     OW30973   1.003   4.302   0.796
10025SOL    HW130974   1.060   4.332   0.872
10025SOL    HW230975   0.911   4.341   0.805
10026SOL     OW30976   5.159   1.714   4.711
10026SOL    HW130977   5.182   1.777   4.785
10026SOL    HW230978   5.166   1.762   4.623
10027SOL     OW30979   2.778   1.801   5.094
10027SOL    HW130980   2.739   1.831   5.008
10027SOL    HW230981   2.840   1.724   5.078
10028SOL     OW30982   4.282   6.774   1.474
10028SOL    HW130983   4.307   6.752   1.380
10028SOL    HW230984   4.341   6.847   1.509
10029SOL     OW30985   0.313   4.357   4.452
10029SOL    HW130986   0.264   4.271   4.441
10029SOL    HW230987   0.321   4.403   4.363
10030SOL     OW30988   2.393   6.956   4.441
10030SOL    HW130989   2.468   6.964   4.375
10030SOL    HW230990   2.334   0.012   4.435
10031SOL     OW30991   2.564   4.886   3.385
10031SOL    HW130992   2.582   4.967   3.328
10031SOL    HW230993   2.647   4.831   3.391
10032SOL     OW30994   3.194   6.652   4.988
10032SOL    HW130995   3.155   6.560   4.980
10032SOL    HW230996   3.292   6.649   4.967
10033SOL     OW30997   2.913   0.683   4.249
10033SOL    HW130998   2.992   0.744   4.236
10033SOL    HW230999   2.862   0.677   4.163
10034SOL     OW31000   2.256   1.125   4.077
10034SOL    HW131001   2.295   1.203   4.027
10034SOL    HW231002   2.243   1.048   4.013
10035SOL     OW31003   6.143   2.661   2.146
10035SOL    HW131004   6.098   2.619   2.068
10035SOL    HW231005   6.241   2.641   2.143
10036SOL     OW31006   0.264   0.558   6.686
10036SOL    HW131007   0.316   0.475   6.668
10036SOL    HW231008   0.318   0.638   6.660
10037SOL     OW31009   6.000   6.713   6.883
10037SOL    HW131010   6.075   6.779   6.894
10037SOL    HW231011   6.031   6.622   6.912
10038SOL     OW31012   4.219   6.399   6.493
10038SOL    HW131013   4.233   6.398   6.592
10038SOL    HW231014   4.303   6.427   6.447
10039SOL     OW31015   0.028   5.924   2.491
10039SOL    HW131016   6.970   5.965   2.531
10039SOL    HW231017   0.066   5.857   2.555
10040SOL     OW31018   3.439   6.790   1.191
10040SOL    HW131019   3.343   6.814   1.180
10040SOL    HW231020   3.467   6.728   1.117
10041SOL     OW31021   6.523   5.265   5.166
10041SOL    HW131022   6.520   5.221   5.255
10041SOL    HW231023   6.572   5.206   5.101
10042SOL     OW31024   0.332   0.449   4.838
10042SOL    HW131025   0.271   0.526   4.858
10042SOL    HW231026   0.297   0.367   4.884
10043SOL     OW31027   0.371   0.659   4.088
10043SOL    HW131028   0.447   0.599   4.116
10043SOL    HW231029   0.407   0.751   4.069
10044SOL     OW31030   3.125   1.544   6.734
10044SOL    HW131031   3.090   1.551   6.640
10044SOL    HW231032   3.052   1.515   6.795
10045SOL     OW31033   3.463   6.998   4.988
10045SOL    HW131034   3.552   7.002   4.941
10045SOL    HW231035   3.407   0.052   4.960
10046SOL     OW31036   0.499   2.594   1.989
10046SOL    HW131037   0.567   2.630   1.925
10046SOL    HW231038   0.408   2.603   1.950
10047SOL     OW31039   0.224   1.993   3.343
10047SOL    HW131040   0.296   1.951   3.398
10047SOL    HW231041   0.210   2.088   3.373
10048SOL     OW31042   3.614   2.213   1.401
10048SOL    HW131043   3.625   2.305   1.364
10048SOL    HW231044   3.557   2.216   1.483
10049SOL     OW31045   1.466   6.839   5.039
10049SOL    HW131046   1.550   6.845   5.093
10049SOL    HW231047   1.429   6.746   5.044
10050SOL     OW31048   5.053   2.644   3.862
10050SOL    HW131049   5.092   2.736   3.856
10050SOL    HW231050   4.966   2.642   3.812
10051SOL     OW31051   5.744   2.795   5.571
10051SOL    HW131052   5.817   2.741   5.528
10051SOL    HW231053   5.658   2.778   5.522
10052SOL     OW31054   0.840   3.658   1.619
10052SOL    HW131055   0.824   3.641   1.717
10052SOL    HW231056   0.752   3.665   1.572
10053SOL     OW31057   3.247   5.718   3.473
10053SOL    HW131058   3.265   5.621   3.489
10053SOL    HW231059   3.313   5.754   3.407
10054SOL     OW31060   3.671   5.782   4.579
10054SOL    HW131061   3.738   5.791   4.505
10054SOL    HW231062   3.703   5.715   4.645
10055SOL     OW31063   6.184   2.853   5.683
10055SOL    HW131064   6.141   2.881   5.769
10055SOL    HW231065   6.195   2.754   5.681
10056SOL     OW31066   6.902   5.145   1.574
10056SOL    HW131067   6.978   5.121   1.634
10056SOL    HW231068   6.831   5.190   1.628
10057SOL     OW31069   3.365   1.769   3.911
10057SOL    HW131070   3.331   1.852   3.957
10057SOL    HW231071   3.324   1.688   3.954
10058SOL     OW31072   1.098   5.457   3.883
10058SOL    HW131073   1.055   5.514   3.814
10058SOL    HW231074   1.076   5.361   3.866
10059SOL     OW31075   5.977   0.308   0.657
10059SOL    HW131076   5.905   0.376   0.668
10059SOL    HW231077   5.960   0.232   0.720
10060SOL     OW31078   2.397   2.921   1.765
10060SOL    HW131079   2.482   2.962   1.734
10060SOL    HW231080   2.352   2.875   1.688
10061SOL     OW31081   6.022   2.020   4.423
10061SOL    HW131082   6.064   2.091   4.479
10061SOL    HW231083   5.924   2.040   4.414
10062SOL     OW31084   6.218   6.239   2.907
10062SOL    HW131085   6.144   6.193   2.857
10062SOL    HW231086   6.185   6.327   2.941
10063SOL     OW31087   1.464   2.971   2.968
10063SOL    HW131088   1.522   2.952   2.888
10063SOL    HW231089   1.513   2.948   3.051
10064SOL     OW31090   5.419   6.869   4.596
10064SOL    HW131091   5.400   6.852   4.499
10064SOL    HW231092   5.451   6.963   4.607
10065SOL     OW31093   0.972   6.468   3.411
10065SOL    HW131094   1.057   6.477   3.359
10065SOL    HW231095   0.905   6.535   3.377
10066SOL     OW31096   0.789   0.216   3.412
10066SOL    HW131097   0.744   0.127   3.425
10066SOL    HW231098   0.772   0.274   3.491
10067SOL     OW31099   3.823   5.120   3.782
10067SOL    HW131100   3.726   5.142   3.788
10067SOL    HW231101   3.835   5.028   3.745
10068SOL     OW31102   4.962   3.687   5.243
10068SOL    HW131103   4.916   3.769   5.276
10068SOL    HW231104   4.901   3.636   5.182
10069SOL     OW31105   3.316   0.953   3.123
10069SOL    HW131106   3.410   0.976   3.149
10069SOL    HW231107   3.304   0.854   3.123
10070SOL     OW31108   0.318   7.000   4.491
10070SOL    HW131109   0.246   7.016   4.423
10070SOL    HW231110   0.312   0.046   4.562
10071SOL     OW31111   5.246   5.778   5.079
10071SOL    HW131112   5.307   5.700   5.073
10071SOL    HW231113   5.211   5.787   5.173
10072SOL     OW31114   0.872   6.650   3.014
10072SOL    HW131115   0.858   6.737   3.060
10072SOL    HW231116   0.784   6.610   2.990
10073SOL     OW31117   0.006   4.725   6.346
10073SOL    HW131118   0.093   4.677   6.349
10073SOL    HW231119   7.021   4.774   6.260
10074SOL     OW31120   2.595   0.419   5.841
10074SOL    HW131121   2.619   0.455   5.751
10074SOL    HW231122   2.588   0.320   5.837
10075SOL     OW31123   1.132   2.560   3.802
10075SOL    HW131124   1.075   2.572   3.883
10075SOL    HW231125   1.219   2.606   3.814
10076SOL     OW31126   5.438   6.973   4.866
10076SOL    HW131127   5.423   6.914   4.787
10076SOL    HW231128   5.517   6.941   4.917
10077SOL     OW31129   3.835   1.393   6.262
10077SOL    HW131130   3.780   1.350   6.190
10077SOL    HW231131   3.917   1.339   6.278
10078SOL     OW31132   5.447   7.023   5.856
10078SOL    HW131133   5.541   6.991   5.844
10078SOL    HW231134   5.406   0.013   5.766
10079SOL     OW31135   0.106   3.560   0.655
10079SOL    HW131136   0.184   3.578   0.594
10079SOL    HW231137   0.119   3.472   0.700
10080SOL     OW31138   1.711   3.204   6.722
10080SOL    HW131139   1.779   3.240   6.659
10080SOL    HW231140   1.623   3.195   6.675
10081SOL     OW31141   0.081   0.571   6.458
10081SOL    HW131142   0.008   0.505   6.476
10081SOL    HW231143   0.155   0.559   6.525
10082SOL     OW31144   6.327   1.220   1.648
10082SOL    HW131145   6.349   1.317   1.638
10082SOL    HW231146   6.365   1.187   1.735
10083SOL     OW31147   4.588   0.614   4.252
10083SOL    HW131148   4.534   0.539   4.214
10083SOL    HW231149   4.655   0.644   4.185
10084SOL     OW31150   2.436   1.377   5.805
10084SOL    HW131151   2.530   1.344   5.818
10084SOL    HW231152   2.426   1.409   5.710
10085SOL     OW31153   0.492   5.465   2.653
10085SOL    HW131154   0.544   5.381   2.639
10085SOL    HW231155   0.554   5.543   2.652
10086SOL     OW31156   6.389   3.693   1.943
10086SOL    HW131157   6.365   3.781   1.983
10086SOL    HW231158   6.326   3.623   1.976
10087SOL     OW31159   1.362   0.087   4.116
10087SOL    HW131160   1.318   0.163   4.165
10087SOL    HW231161   1.406   0.121   4.033
10088SOL     OW31162   0.153   0.052   4.296
10088SOL    HW131163   0.060   0.015   4.292
10088SOL    HW231164   0.151   0.146   4.330
10089SOL     OW31165   1.368   3.329   2.164
10089SOL    HW131166   1.378   3.427   2.148
10089SOL    HW231167   1.458   3.287   2.170
10090SOL     OW31168   0.860   4.830   0.347
10090SOL    HW131169   0.841   4.928   0.339
10090SOL    HW231170   0.929   4.815   0.419
10091SOL     OW31171   0.506   2.562   4.594
10091SOL    HW131172   0.458   2.481   4.560
10091SOL    HW231173   0.561   2.538   4.674
10092SOL     OW31174   1.935   4.199   5.796
10092SOL    HW131175   1.965   4.161   5.709
10092SOL    HW231176   1.862   4.265   5.780
10093SOL     OW31177   6.171   4.892   6.245
10093SOL    HW131178   6.187   4.990   6.234
10093SOL    HW231179   6.077   4.876   6.275
10094SOL     OW31180   1.403   1.528   1.900
10094SOL    HW131181   1.423   1.464   1.827
10094SOL    HW231182   1.420   1.484   1.989
10095SOL     OW31183   6.944   0.890   6.016
10095SOL    HW131184   7.007   0.915   5.943
10095SOL    HW231185   6.982   0.814   6.069
10096SOL     OW31186   0.769   5.620   2.639
10096SOL    HW131187   0.799   5.681   2.566
10096SOL    HW231188   0.839   5.552   2.657
10097SOL     OW31189   1.219   0.408   0.169
10097SOL    HW131190   1.275   0.357   0.105
10097SOL    HW231191   1.273   0.430   0.251
10098SOL     OW31192   2.507   4.889   6.620
10098SOL    HW131193   2.470   4.874   6.529
10098SOL    HW231194   2.457   4.963   6.665
10099SOL     OW31195   6.824   4.314   4.882
10099SOL    HW131196   6.880   4.374   4.825
10099SOL    HW231197   6.859   4.314   4.976
10100SOL     OW31198   5.396   0.712   4.672
10100SOL    HW131199   5.449   0.631   4.649
10100SOL    HW231200   5.456   0.781   4.713
10101SOL     OW31201   0.078   4.727   2.412
10101SOL    HW131202   0.119   4.777   2.488
10101SOL    HW231203   0.130   4.643   2.395
10102SOL     OW31204   2.497   1.639   2.431
10102SOL    HW131205   2.398   1.648   2.428
10102SOL    HW231206   2.525   1.562   2.373
10103SOL     OW31207   2.622   2.140   6.452
10103SOL    HW131208   2.580   2.185   6.373
10103SOL    HW231209   2.691   2.075   6.420
10104SOL     OW31210   1.290   5.924   5.118
10104SOL    HW131211   1.276   5.866   5.198
10104SOL    HW231212   1.295   5.867   5.036
10105SOL     OW31213   2.177   0.493   6.385
10105SOL    HW131214   2.198   0.450   6.297
10105SOL    HW231215   2.248   0.559   6.408
10106SOL     OW31216   5.446   5.972   0.339
10106SOL    HW131217   5.385   6.028   0.395
10106SOL    HW231218   5.485   5.899   0.395
10107SOL     OW31219   5.586   1.450   6.109
10107SOL    HW131220   5.625   1.457   6.201
10107SOL    HW231221   5.487   1.464   6.113
10108SOL     OW31222   6.325   6.681   0.435
10108SOL    HW131223   6.337   6.778   0.456
10108SOL    HW231224   6.412   6.633   0.451
10109SOL     OW31225   4.623   5.036   3.591
10109SOL    HW131226   4.561   4.989   3.654
10109SOL    HW231227   4.631   5.132   3.618
10110SOL     OW31228   3.833   0.436   5.908
10110SOL    HW131229   3.747   0.474   5.941
10110SOL    HW231230   3.814   0.372   5.833
10111SOL     OW31231   0.611   2.805   2.633
10111SOL    HW131232   0.705   2.813   2.665
10111SOL    HW231233   0.610   2.783   2.536
10112SOL     OW31234   4.464   4.472   5.601
10112SOL    HW131235   4.441   4.441   5.508
10112SOL    HW231236   4.469   4.572   5.602
10113SOL     OW31237   3.832   6.783   0.090
10113SOL    HW131238   3.907   6.751   0.148
10113SOL    HW231239   3.863   6.787   7.019
10114SOL     OW31240   4.734   0.446   1.485
10114SOL    HW131241   4.742   0.544   1.462
10114SOL    HW231242   4.646   0.412   1.452
10115SOL     OW31243   1.784   2.179   3.938
10115SOL    HW131244   1.720   2.256   3.934
10115SOL    HW231245   1.852   2.188   3.865
10116SOL     OW31246   1.161   1.038   1.178
10116SOL    HW131247   1.236   0.972   1.175
10116SOL    HW231248   1.081   0.995   1.219
10117SOL     OW31249   5.572   0.718   5.905
10117SOL    HW131250   5.622   0.639   5.871
10117SOL    HW231251   5.474   0.704   5.891
10118SOL     OW31252   0.136   5.465   1.897
10118SOL    HW131253   0.156   5.399   1.970
10118SOL    HW231254   0.063   5.430   1.839
10119SOL     OW31255   2.217   1.121   5.258
10119SOL    HW131256   2.288   1.102   5.190
10119SOL    HW231257   2.260   1.127   5.349
10120SOL     OW31258   0.117   2.927   3.794
10120SOL    HW131259   0.098   2.843   3.743
10120SOL    HW231260   0.042   2.992   3.780
10121SOL     OW31261   6.457   4.571   5.048
10121SOL    HW131262   6.402   4.507   5.101
10121SOL    HW231263   6.507   4.521   4.976
10122SOL     OW31264   5.381   3.522   0.451
10122SOL    HW131265   5.299   3.476   0.418
10122SOL    HW231266   5.440   3.546   0.373
10123SOL     OW31267   0.201   6.219   0.199
10123SOL    HW131268   0.246   6.259   0.119
10123SOL    HW231269   0.114   6.178   0.172
10124SOL     OW31270   3.235   4.233   0.151
10124SOL    HW131271   3.267   4.243   0.245
10124SOL    HW231272   3.307   4.194   0.095
10125SOL     OW31273   1.216   0.722   1.742
10125SOL    HW131274   1.284   0.674   1.797
10125SOL    HW231275   1.220   0.820   1.762
10126SOL     OW31276   6.564   5.131   0.598
10126SOL    HW131277   6.534   5.225   0.580
10126SOL    HW231278   6.660   5.122   0.575
10127SOL     OW31279   3.852   5.640   5.398
10127SOL    HW131280   3.842   5.701   5.320
10127SOL    HW231281   3.781   5.570   5.395
10128SOL     OW31282   0.067   2.433   1.240
10128SOL    HW131283   0.047   2.419   1.143
10128SOL    HW231284   7.006   2.437   1.291
10129SOL     OW31285   6.111   2.580   3.169
10129SOL    HW131286   6.106   2.516   3.246
10129SOL    HW231287   6.205   2.608   3.154
10130SOL     OW31288   6.505   5.334   1.356
10130SOL    HW131289   6.518   5.372   1.447
10130SOL    HW231290   6.554   5.248   1.348
10131SOL     OW31291   0.195   0.734   1.111
10131SOL    HW131292   0.183   0.825   1.150
10131SOL    HW231293   0.151   0.730   1.021
10132SOL     OW31294   3.192   6.869   2.689
10132SOL    HW131295   3.122   6.801   2.669
10132SOL    HW231296   3.279   6.840   2.650
10133SOL     OW31297   4.783   5.758   3.434
10133SOL    HW131298   4.865   5.746   3.377
10133SOL    HW231299   4.703   5.770   3.375
10134SOL     OW31300   0.010   1.600   3.139
10134SOL    HW131301   0.038   1.647   3.222
10134SOL    HW231302   6.935   1.608   3.127
10135SOL     OW31303   4.186   4.896   3.077
10135SOL    HW131304   4.087   4.914   3.074
10135SOL    HW231305   4.205   4.807   3.036
10136SOL     OW31306   5.936   6.881   3.584
10136SOL    HW131307   6.007   6.921   3.642
10136SOL    HW231308   5.850   6.880   3.634
10137SOL     OW31309   6.338   5.176   3.982
10137SOL    HW131310   6.281   5.191   3.902
10137SOL    HW231311   6.378   5.085   3.979
10138SOL     OW31312   5.732   2.535   6.625
10138SOL    HW131313   5.785   2.547   6.709
10138SOL    HW231314   5.672   2.614   6.612
10139SOL     OW31315   3.809   2.972   2.926
10139SOL    HW131316   3.786   2.910   2.851
10139SOL    HW231317   3.857   3.052   2.890
10140SOL     OW31318   6.900   5.066   6.681
10140SOL    HW131319   6.950   5.144   6.644
10140SOL    HW231320   6.821   5.047   6.624
10141SOL     OW31321   1.451   0.717   3.987
10141SOL    HW131322   1.521   0.658   4.027
10141SOL    HW231323   1.492   0.805   3.961
10142SOL     OW31324   4.358   5.816   4.629
10142SOL    HW131325   4.393   5.770   4.548
10142SOL    HW231326   4.419   5.799   4.706
10143SOL     OW31327   4.506   0.085   1.252
10143SOL    HW131328   4.583   0.047   1.304
10143SOL    HW231329   4.424   0.030   1.269
10144SOL     OW31330   3.054   5.772   4.539
10144SOL    HW131331   3.110   5.710   4.593
10144SOL    HW231332   3.112   5.841   4.495
10145SOL     OW31333   3.133   6.198   5.492
10145SOL    HW131334   3.184   6.173   5.574
10145SOL    HW231335   3.055   6.136   5.482
10146SOL     OW31336   4.075   5.643   4.429
10146SOL    HW131337   4.147   5.655   4.361
10146SOL    HW231338   3.997   5.701   4.407
10147SOL     OW31339   4.683   4.610   4.735
10147SOL    HW131340   4.649   4.523   4.773
10147SOL    HW231341   4.605   4.669   4.713
10148SOL     OW31342   5.713   5.875   0.569
10148SOL    HW131343   5.691   5.964   0.609
10148SOL    HW231344   5.632   5.816   0.571
10149SOL     OW31345   4.075   2.403   1.241
10149SOL    HW131346   4.066   2.476   1.173
10149SOL    HW231347   4.002   2.336   1.228
10150SOL     OW31348   4.938   4.267   1.121
10150SOL    HW131349   4.960   4.179   1.081
10150SOL    HW231350   4.854   4.302   1.080
10151SOL     OW31351   1.990   7.023   5.685
10151SOL    HW131352   2.004   6.943   5.626
10151SOL    HW231353   2.026   7.004   5.776
10152SOL     OW31354   0.253   5.688   3.581
10152SOL    HW131355   0.207   5.732   3.504
10152SOL    HW231356   0.253   5.589   3.568
10153SOL     OW31357   5.306   6.414   4.575
10153SOL    HW131358   5.232   6.364   4.530
10153SOL    HW231359   5.387   6.356   4.580
10154SOL     OW31360   6.417   5.658   5.730
10154SOL    HW131361   6.474   5.628   5.654
10154SOL    HW231362   6.428   5.595   5.807
10155SOL     OW31363   3.957   0.769   6.183
10155SOL    HW131364   3.896   0.714   6.240
10155SOL    HW231365   3.962   0.861   6.220
10156SOL     OW31366   5.458   0.861   2.451
10156SOL    HW131367   5.383   0.891   2.392
10156SOL    HW231368   5.521   0.804   2.398
10157SOL     OW31369   5.719   1.444   6.349
10157SOL    HW131370   5.712   1.467   6.446
10157SOL    HW231371   5.813   1.417   6.328
10158SOL     OW31372   4.436   3.406   7.013
10158SOL    HW131373   4.449   3.365   0.079
10158SOL    HW231374   4.343   3.443   7.006
10159SOL     OW31375   1.409   2.039   6.409
10159SOL    HW131376   1.373   2.017   6.318
10159SOL    HW231377   1.507   2.017   6.412
10160SOL     OW31378   0.435   5.392   4.093
10160SOL    HW131379   0.413   5.490   4.086
10160SOL    HW231380   0.385   5.352   4.170
10161SOL     OW31381   3.495   5.443   6.279
10161SOL    HW131382   3.423   5.473   6.216
10161SOL    HW231383   3.522   5.520   6.337
10162SOL     OW31384   3.109   2.452   6.632
10162SOL    HW131385   3.071   2.542   6.656
10162SOL    HW231386   3.034   2.386   6.624
10163SOL     OW31387   6.423   3.605   5.977
10163SOL    HW131388   6.373   3.662   5.912
10163SOL    HW231389   6.508   3.572   5.934
10164SOL     OW31390   6.611   2.776   5.162
10164SOL    HW131391   6.576   2.870   5.158
10164SOL    HW231392   6.607   2.743   5.256
10165SOL     OW31393   0.633   1.853   4.474
10165SOL    HW131394   0.621   1.855   4.574
10165SOL    HW231395   0.730   1.841   4.453
10166SOL     OW31396   2.352   1.292   1.966
10166SOL    HW131397   2.364   1.219   1.899
10166SOL    HW231398   2.331   1.378   1.919
10167SOL     OW31399   4.908   0.348   6.905
10167SOL    HW131400   4.914   0.310   6.997
10167SOL    HW231401   4.823   0.318   6.861
10168SOL     OW31402   6.935   4.370   3.990
10168SOL    HW131403   6.854   4.313   3.980
10168SOL    HW231404   6.987   4.339   4.070
10169SOL     OW31405   6.767   4.163   3.655
10169SOL    HW131406   6.717   4.208   3.729
10169SOL    HW231407   6.702   4.122   3.591
10170SOL     OW31408   1.465   4.202   4.871
10170SOL    HW131409   1.516   4.284   4.894
10170SOL    HW231410   1.524   4.122   4.880
10171SOL     OW31411   6.780   4.230   5.957
10171SOL    HW131412   6.842   4.170   6.008
10171SOL    HW231413   6.687   4.195   5.964
10172SOL     OW31414   4.824   0.722   2.666
10172SOL    HW131415   4.814   0.657   2.742
10172SOL    HW231416   4.762   0.799   2.680
10173SOL     OW31417   1.859   2.039   2.078
10173SOL    HW131418   1.875   2.104   2.005
10173SOL    HW231419   1.941   1.982   2.091
10174SOL     OW31420   6.646   4.784   2.643
10174SOL    HW131421   6.560   4.733   2.639
10174SOL    HW231422   6.684   4.792   2.551
10175SOL     OW31423   6.280   2.304   5.700
10175SOL    HW131424   6.324   2.215   5.711
10175SOL    HW231425   6.243   2.312   5.608
10176SOL     OW31426   1.779   3.758   0.026
10176SOL    HW131427   1.863   3.790   0.069
10176SOL    HW231428   1.703   3.816   0.055
10177SOL     OW31429   2.843   6.427   0.283
10177SOL    HW131430   2.834   6.516   0.238
10177SOL    HW231431   2.809   6.433   0.377
10178SOL     OW31432   6.190   2.924   4.868
10178SOL    HW131433   6.101   2.904   4.908
10178SOL    HW231434   6.255   2.853   4.896
10179SOL     OW31435   1.230   2.563   6.061
10179SOL    HW131436   1.132   2.573   6.079
10179SOL    HW231437   1.252   2.466   6.053
10180SOL     OW31438   2.797   5.661   5.803
10180SOL    HW131439   2.766   5.586   5.860
10180SOL    HW231440   2.817   5.627   5.711
10181SOL     OW31441   5.970   3.050   1.090
10181SOL    HW131442   5.971   3.089   1.182
10181SOL    HW231443   5.921   3.111   1.028
10182SOL     OW31444   5.505   1.126   1.394
10182SOL    HW131445   5.481   1.175   1.478
10182SOL    HW231446   5.476   1.179   1.315
10183SOL     OW31447   1.620   1.686   6.199
10183SOL    HW131448   1.706   1.711   6.243
10183SOL    HW231449   1.555   1.653   6.268
10184SOL     OW31450   4.297   1.175   6.405
10184SOL    HW131451   4.358   1.251   6.384
10184SOL    HW231452   4.340   1.088   6.380
10185SOL     OW31453   4.728   6.898   0.866
10185SOL    HW131454   4.750   6.820   0.807
10185SOL    HW231455   4.630   6.895   0.888
10186SOL     OW31456   4.712   2.788   2.934
10186SOL    HW131457   4.734   2.756   2.842
10186SOL    HW231458   4.736   2.885   2.941
10187SOL     OW31459   0.738   2.242   1.773
10187SOL    HW131460   0.666   2.253   1.842
10187SOL    HW231461   0.805   2.315   1.784
10188SOL     OW31462   4.467   6.309   0.546
10188SOL    HW131463   4.504   6.401   0.558
10188SOL    HW231464   4.527   6.257   0.485
10189SOL     OW31465   2.024   6.470   5.332
10189SOL    HW131466   2.058   6.488   5.240
10189SOL    HW231467   1.928   6.446   5.328
10190SOL     OW31468   4.619   2.712   0.066
10190SOL    HW131469   4.689   2.743   0.130
10190SOL    HW231470   4.558   2.647   0.111
10191SOL     OW31471   5.337   4.911   0.001
10191SOL    HW131472   5.372   4.820   7.004
10191SOL    HW231473   5.412   4.976   0.002
10192SOL     OW31474   3.590   1.153   5.826
10192SOL    HW131475   3.500   1.165   5.784
10192SOL    HW231476   3.633   1.071   5.789
10193SOL     OW31477   4.946   4.168   0.694
10193SOL    HW131478   4.967   4.262   0.664
10193SOL    HW231479   4.860   4.169   0.746
10194SOL     OW31480   5.619   4.057   5.627
10194SOL    HW131481   5.665   4.086   5.543
10194SOL    HW231482   5.521   4.044   5.607
10195SOL     OW31483   6.815   4.348   1.478
10195SOL    HW131484   6.890   4.330   1.541
10195SOL    HW231485   6.744   4.400   1.525
10196SOL     OW31486   0.148   1.499   4.850
10196SOL    HW131487   0.139   1.593   4.882
10196SOL    HW231488   0.208   1.448   4.912
10197SOL     OW31489   6.325   0.555   5.683
10197SOL    HW131490   6.237   0.529   5.643
10197SOL    HW231491   6.334   0.515   5.774
10198SOL     OW31492   3.881   0.060   2.805
10198SOL    HW131493   3.880   0.095   2.711
10198SOL    HW231494   3.961   0.001   2.818
10199SOL     OW31495   1.249   2.775   5.886
10199SOL    HW131496   1.241   2.713   5.964
10199SOL    HW231497   1.228   2.725   5.801
10200SOL     OW31498   6.166   2.995   0.870
10200SOL    HW131499   6.217   3.003   0.955
10200SOL    HW231500   6.069   2.978   0.890
10201SOL     OW31501   1.187   3.906   0.904
10201SOL    HW131502   1.187   3.895   1.004
10201SOL    HW231503   1.271   3.953   0.876
10202SOL     OW31504   3.910   0.817   5.558
10202SOL    HW131505   3.912   0.870   5.473
10202SOL    HW231506   3.929   0.878   5.635
10203SOL     OW31507   6.190   2.709   5.122
10203SOL    HW131508   6.101   2.663   5.112
10203SOL    HW231509   6.253   2.676   5.052
10204SOL     OW31510   5.351   6.602   6.331
10204SOL    HW131511   5.279   6.650   6.381
10204SOL    HW231512   5.382   6.657   6.254
10205SOL     OW31513   1.413   0.710   6.469
10205SOL    HW131514   1.368   0.745   6.387
10205SOL    HW231515   1.459   0.784   6.517
10206SOL     OW31516   1.153   0.646   5.743
10206SOL    HW131517   1.242   0.651   5.787
10206SOL    HW231518   1.090   0.710   5.787
10207SOL     OW31519   1.336   1.356   5.513
10207SOL    HW131520   1.300   1.424   5.577
10207SOL    HW231521   1.302   1.376   5.421
10208SOL     OW31522   6.462   4.785   5.321
10208SOL    HW131523   6.462   4.728   5.239
10208SOL    HW231524   6.555   4.811   5.345
10209SOL     OW31525   6.970   6.682   6.582
10209SOL    HW131526   6.965   6.589   6.546
10209SOL    HW231527   6.878   6.719   6.594
10210SOL     OW31528   4.144   5.648   2.011
10210SOL    HW131529   4.124   5.724   2.073
10210SOL    HW231530   4.165   5.566   2.064
10211SOL     OW31531   4.459   5.962   5.530
10211SOL    HW131532   4.391   5.906   5.576
10211SOL    HW231533   4.536   5.979   5.591
10212SOL     OW31534   0.745   0.165   6.159
10212SOL    HW131535   0.669   0.100   6.155
10212SOL    HW231536   0.769   0.193   6.066
10213SOL     OW31537   5.401   1.785   0.910
10213SOL    HW131538   5.402   1.820   0.816
10213SOL    HW231539   5.332   1.834   0.963
10214SOL     OW31540   0.390   2.604   0.840
10214SOL    HW131541   0.444   2.688   0.828
10214SOL    HW231542   0.434   2.545   0.907
10215SOL     OW31543   3.372   3.505   2.705
10215SOL    HW131544   3.324   3.427   2.746
10215SOL    HW231545   3.306   3.565   2.661
10216SOL     OW31546   6.550   6.713   2.320
10216SOL    HW131547   6.645   6.736   2.300
10216SOL    HW231548   6.490   6.770   2.264
10217SOL     OW31549   3.124   1.345   3.328
10217SOL    HW131550   3.152   1.280   3.258
10217SOL    HW231551   3.160   1.435   3.306
10218SOL     OW31552   1.483   2.537   2.528
10218SOL    HW131553   1.459   2.609   2.464
10218SOL    HW231554   1.406   2.518   2.588
10219SOL     OW31555   0.160   0.915   2.138
10219SOL    HW131556   0.206   1.004   2.136
10219SOL    HW231557   0.062   0.928   2.122
10220SOL     OW31558   3.295   2.771   1.954
10220SOL    HW131559   3.251   2.705   2.015
10220SOL    HW231560   3.391   2.780   1.980
10221SOL     OW31561   0.852   6.199   3.446
10221SOL    HW131562   0.882   6.257   3.522
10221SOL    HW231563   0.817   6.256   3.372
10222SOL     OW31564   3.047   3.933   4.682
10222SOL    HW131565   3.098   3.964   4.762
10222SOL    HW231566   3.104   3.872   4.628
10223SOL     OW31567   0.868   5.700   1.615
10223SOL    HW131568   0.896   5.709   1.519
10223SOL    HW231569   0.899   5.612   1.650
10224SOL     OW31570   5.933   3.818   3.267
10224SOL    HW131571   6.030   3.797   3.255
10224SOL    HW231572   5.901   3.781   3.355
10225SOL     OW31573   2.301   3.539   6.143
10225SOL    HW131574   2.273   3.581   6.057
10225SOL    HW231575   2.330   3.610   6.207
10226SOL     OW31576   4.897   2.558   7.020
10226SOL    HW131577   4.798   2.569   7.023
10226SOL    HW231578   4.920   2.464   6.993
10227SOL     OW31579   5.051   3.602   1.048
10227SOL    HW131580   4.998   3.528   1.008
10227SOL    HW231581   5.005   3.637   1.129
10228SOL     OW31582   5.516   0.534   0.840
10228SOL    HW131583   5.515   0.434   0.827
10228SOL    HW231584   5.481   0.556   0.931
10229SOL     OW31585   6.749   3.668   4.422
10229SOL    HW131586   6.813   3.734   4.459
10229SOL    HW231587   6.667   3.715   4.388
10230SOL     OW31588   0.157   6.333   2.325
10230SOL    HW131589   0.135   6.419   2.369
10230SOL    HW231590   0.171   6.262   2.394
10231SOL     OW31591   1.666   5.519   3.287
10231SOL    HW131592   1.643   5.477   3.375
10231SOL    HW231593   1.600   5.590   3.265
10232SOL     OW31594   4.985   5.494   3.685
10232SOL    HW131595   5.072   5.515   3.728
10232SOL    HW231596   4.910   5.525   3.743
10233SOL     OW31597   3.757   4.165   6.247
10233SOL    HW131598   3.673   4.206   6.281
10233SOL    HW231599   3.800   4.112   6.321
10234SOL     OW31600   6.933   1.188   1.775
10234SOL    HW131601   6.956   1.191   1.678
10234SOL    HW231602   6.848   1.137   1.787
10235SOL     OW31603   1.466   0.970   2.915
10235SOL    HW131604   1.480   0.872   2.924
10235SOL    HW231605   1.393   0.999   2.978
10236SOL     OW31606   2.724   6.995   1.365
10236SOL    HW131607   2.769   0.042   1.419
10236SOL    HW231608   2.776   6.910   1.371
10237SOL     OW31609   0.500   3.555   6.108
10237SOL    HW131610   0.492   3.596   6.199
10237SOL    HW231611   0.476   3.623   6.039
10238SOL     OW31612   3.606   6.116   1.272
10238SOL    HW131613   3.577   6.148   1.363
10238SOL    HW231614   3.661   6.034   1.281
10239SOL     OW31615   1.490   2.717   4.631
10239SOL    HW131616   1.418   2.715   4.700
10239SOL    HW231617   1.449   2.722   4.540
10240SOL     OW31618   2.433   6.532   1.158
10240SOL    HW131619   2.381   6.531   1.073
10240SOL    HW231620   2.530   6.544   1.138
10241SOL     OW31621   3.781   2.348   1.619
10241SOL    HW131622   3.746   2.326   1.710
10241SOL    HW231623   3.808   2.264   1.573
10242SOL     OW31624   0.085   2.748   0.139
10242SOL    HW131625   0.148   2.671   0.156
10242SOL    HW231626   0.038   2.771   0.224
10243SOL     OW31627   2.520   5.242   0.835
10243SOL    HW131628   2.543   5.337   0.817
10243SOL    HW231629   2.593   5.183   0.802
10244SOL     OW31630   2.673   4.664   1.248
10244SOL    HW131631   2.582   4.703   1.261
10244SOL    HW231632   2.695   4.605   1.326
10245SOL     OW31633   4.040   3.933   0.721
10245SOL    HW131634   3.949   3.960   0.750
10245SOL    HW231635   4.053   3.835   0.738
10246SOL     OW31636   2.949   3.825   4.311
10246SOL    HW131637   2.934   3.726   4.316
10246SOL    HW231638   2.861   3.872   4.317
10247SOL     OW31639   0.576   2.383   4.795
10247SOL    HW131640   0.586   2.340   4.705
10247SOL    HW231641   0.480   2.378   4.824
10248SOL     OW31642   1.000   0.215   3.243
10248SOL    HW131643   1.013   0.312   3.224
10248SOL    HW231644   0.924   0.203   3.306
10249SOL     OW31645   2.966   5.167   6.495
10249SOL    HW131646   3.053   5.184   6.449
10249SOL    HW231647   2.982   5.144   6.591
10250SOL     OW31648   4.290   2.338   0.570
10250SOL    HW131649   4.232   2.416   0.548
10250SOL    HW231650   4.386   2.368   0.578
10251SOL     OW31651   2.150   0.042   4.051
10251SOL    HW131652   2.211   0.110   4.093
10251SOL    HW231653   2.150   6.983   4.106
10252SOL     OW31654   5.445   4.133   6.108
10252SOL    HW131655   5.513   4.060   6.096
10252SOL    HW231656   5.449   4.167   6.202
10253SOL     OW31657   4.044   6.242   6.377
10253SOL    HW131658   4.017   6.275   6.287
10253SOL    HW231659   4.122   6.295   6.411
10254SOL     OW31660   5.327   1.031   4.768
10254SOL    HW131661   5.299   0.954   4.711
10254SOL    HW231662   5.246   1.073   4.808
10255SOL     OW31663   3.646   5.230   1.974
10255SOL    HW131664   3.646   5.310   2.034
10255SOL    HW231665   3.647   5.260   1.879
10256SOL     OW31666   4.362   1.178   2.807
10256SOL    HW131667   4.442   1.157   2.863
10256SOL    HW231668   4.314   1.257   2.845
10257SOL     OW31669   3.389   5.343   2.743
10257SOL    HW131670   3.364   5.249   2.770
10257SOL    HW231671   3.306   5.397   2.732
10258SOL     OW31672   1.421   1.371   1.664
10258SOL    HW131673   1.334   1.325   1.644
10258SOL    HW231674   1.484   1.356   1.587
10259SOL     OW31675   1.332   4.212   3.280
10259SOL    HW131676   1.259   4.144   3.283
10259SOL    HW231677   1.384   4.208   3.366
10260SOL     OW31678   0.994   0.542   3.689
10260SOL    HW131679   0.980   0.443   3.694
10260SOL    HW231680   0.986   0.572   3.594
10261SOL     OW31681   6.594   3.666   1.080
10261SOL    HW131682   6.571   3.721   0.999
10261SOL    HW231683   6.692   3.644   1.078
10262SOL     OW31684   3.950   1.182   0.304
10262SOL    HW131685   3.951   1.188   0.204
10262SOL    HW231686   4.036   1.218   0.340
10263SOL     OW31687   6.055   0.710   1.210
10263SOL    HW131688   6.056   0.809   1.224
10263SOL    HW231689   6.128   0.667   1.264
10264SOL     OW31690   6.991   5.771   6.140
10264SOL    HW131691   0.053   5.809   6.108
10264SOL    HW231692   7.009   5.694   6.202
10265SOL     OW31693   2.100   1.903   0.454
10265SOL    HW131694   2.012   1.917   0.408
10265SOL    HW231695   2.084   1.864   0.545
10266SOL     OW31696   2.923   3.584   2.016
10266SOL    HW131697   2.828   3.590   2.047
10266SOL    HW231698   2.933   3.634   1.930
10267SOL     OW31699   5.450   0.969   0.968
10267SOL    HW131700   5.531   0.910   0.968
10267SOL    HW231701   5.470   1.053   0.918
10268SOL     OW31702   4.174   0.071   1.161
10268SOL    HW131703   4.204   0.166   1.152
10268SOL    HW231704   4.136   0.039   1.075
10269SOL     OW31705   2.773   2.249   0.476
10269SOL    HW131706   2.715   2.327   0.453
10269SOL    HW231707   2.813   2.211   0.392
10270SOL     OW31708   2.791   0.025   2.264
10270SOL    HW131709   2.796   6.953   2.235
10270SOL    HW231710   2.731   0.033   2.343
10271SOL     OW31711   1.348   2.161   6.954
10271SOL    HW131712   1.272   2.096   6.958
10271SOL    HW231713   1.349   2.216   0.014
10272SOL     OW31714   6.482   0.358   5.050
10272SOL    HW131715   6.446   0.276   5.006
10272SOL    HW231716   6.418   0.389   5.120
10273SOL     OW31717   2.452   4.851   3.042
10273SOL    HW131718   2.532   4.792   3.036
10273SOL    HW231719   2.426   4.863   3.138
10274SOL     OW31720   0.138   5.489   5.376
10274SOL    HW131721   0.051   5.465   5.332
10274SOL    HW231722   0.159   5.585   5.358
10275SOL     OW31723   0.027   0.525   2.821
10275SOL    HW131724   6.978   0.562   2.764
10275SOL    HW231725   0.088   0.468   2.766
10276SOL     OW31726   3.388   5.910   6.063
10276SOL    HW131727   3.466   5.932   6.005
10276SOL    HW231728   3.421   5.883   6.154
10277SOL     OW31729   0.344   6.630   4.159
10277SOL    HW131730   0.427   6.679   4.184
10277SOL    HW231731   0.293   6.683   4.091
10278SOL     OW31732   6.774   0.486   5.189
10278SOL    HW131733   6.831   0.447   5.261
10278SOL    HW231734   6.679   0.459   5.204
10279SOL     OW31735   2.017   5.938   3.957
10279SOL    HW131736   1.961   5.889   3.890
10279SOL    HW231737   1.972   5.935   4.047
10280SOL     OW31738   5.468   4.135   0.423
10280SOL    HW131739   5.370   4.134   0.444
10280SOL    HW231740   5.520   4.124   0.508
10281SOL     OW31741   6.817   2.090   3.799
10281SOL    HW131742   6.754   2.053   3.731
10281SOL    HW231743   6.785   2.067   3.891
10282SOL     OW31744   5.356   3.303   3.298
10282SOL    HW131745   5.318   3.301   3.390
10282SOL    HW231746   5.413   3.222   3.284
10283SOL     OW31747   0.634   3.257   1.044
10283SOL    HW131748   0.608   3.164   1.019
10283SOL    HW231749   0.575   3.323   0.997
10284SOL     OW31750   0.460   3.092   3.783
10284SOL    HW131751   0.469   3.006   3.732
10284SOL    HW231752   0.446   3.167   3.718
10285SOL     OW31753   5.508   6.343   4.853
10285SOL    HW131754   5.478   6.253   4.886
10285SOL    HW231755   5.530   6.337   4.755
10286SOL     OW31756   2.934   1.539   4.114
10286SOL    HW131757   2.881   1.603   4.171
10286SOL    HW231758   2.886   1.451   4.110
10287SOL     OW31759   2.557   5.775   2.533
10287SOL    HW131760   2.533   5.759   2.629
10287SOL    HW231761   2.495   5.723   2.474
10288SOL     OW31762   3.552   0.016   5.509
10288SOL    HW131763   3.575   7.013   5.603
10288SOL    HW231764   3.456   7.018   5.491
10289SOL     OW31765   3.090   6.027   6.800
10289SOL    HW131766   3.156   5.953   6.782
10289SOL    HW231767   3.128   6.113   6.765
10290SOL     OW31768   2.838   3.444   2.266
10290SOL    HW131769   2.742   3.428   2.289
10290SOL    HW231770   2.884   3.357   2.249
10291SOL     OW31771   2.171   1.633   2.563
10291SOL    HW131772   2.194   1.680   2.477
10291SOL    HW231773   2.114   1.693   2.619
10292SOL     OW31774   6.330   6.483   6.853
10292SOL    HW131775   6.355   6.476   6.756
10292SOL    HW231776   6.232   6.463   6.863
10293SOL     OW31777   1.353   4.179   4.327
10293SOL    HW131778   1.419   4.230   4.271
10293SOL    HW231779   1.317   4.238   4.399
10294SOL     OW31780   3.554   1.512   2.028
10294SOL    HW131781   3.615   1.488   2.104
10294SOL    HW231782   3.602   1.573   1.964
10295SOL     OW31783   1.097   2.035   6.929
10295SOL    HW131784   1.036   1.957   6.947
10295SOL    HW231785   1.062   2.116   6.974
10296SOL     OW31786   5.740   1.293   5.930
10296SOL    HW131787   5.714   1.327   5.840
10296SOL    HW231788   5.682   1.336   6.000
10297SOL     OW31789   3.378   1.332   6.966
10297SOL    HW131790   3.396   1.341   6.868
10297SOL    HW231791   3.322   1.409   6.997
10298SOL     OW31792   0.778   2.323   2.787
10298SOL    HW131793   0.683   2.352   2.790
10298SOL    HW231794   0.811   2.323   2.692
10299SOL     OW31795   3.943   6.114   2.902
10299SOL    HW131796   3.959   6.154   2.812
10299SOL    HW231797   4.005   6.157   2.969
10300SOL     OW31798   0.750   3.550   1.862
10300SOL    HW131799   0.822   3.483   1.880
10300SOL    HW231800   0.661   3.504   1.864
10301SOL     OW31801   4.198   0.424   6.248
10301SOL    HW131802   4.100   0.409   6.235
10301SOL    HW231803   4.230   0.370   6.326
10302SOL     OW31804   2.712   6.119   4.884
10302SOL    HW131805   2.808   6.092   4.877
10302SOL    HW231806   2.678   6.147   4.794
10303SOL     OW31807   1.087   6.205   5.166
10303SOL    HW131808   1.079   6.108   5.143
10303SOL    HW231809   1.179   6.223   5.200
10304SOL     OW31810   6.357   6.676   0.016
10304SOL    HW131811   6.355   6.617   6.959
10304SOL    HW231812   6.366   6.620   0.098
10305SOL     OW31813   2.292   4.151   5.884
10305SOL    HW131814   2.385   4.173   5.914
10305SOL    HW231815   2.293   4.064   5.835
10306SOL     OW31816   4.768   0.251   1.214
10306SOL    HW131817   4.723   0.166   1.185
10306SOL    HW231818   4.701   0.311   1.258
10307SOL     OW31819   2.298   0.001   4.905
10307SOL    HW131820   2.343   0.083   4.939
10307SOL    HW231821   2.264   0.018   4.812
10308SOL     OW31822   2.708   4.700   2.794
10308SOL    HW131823   2.686   4.791   2.758
10308SOL    HW231824   2.719   4.636   2.718
10309SOL     OW31825   6.114   1.190   4.980
10309SOL    HW131826   6.211   1.192   5.005
10309SOL    HW231827   6.060   1.237   5.049
10310SOL     OW31828   2.932   3.226   5.616
10310SOL    HW131829   2.949   3.241   5.713
10310SOL    HW231830   2.964   3.135   5.591
10311SOL     OW31831   5.173   6.338   0.289
10311SOL    HW131832   5.271   6.351   0.276
10311SOL    HW231833   5.135   6.416   0.338
10312SOL     OW31834   4.360   0.307   2.010
10312SOL    HW131835   4.412   0.223   2.028
10312SOL    HW231836   4.294   0.321   2.083
10313SOL     OW31837   4.703   6.389   3.022
10313SOL    HW131838   4.664   6.420   3.109
10313SOL    HW231839   4.792   6.432   3.008
10314SOL     OW31840   0.634   0.215   1.203
10314SOL    HW131841   0.711   0.170   1.248
10314SOL    HW231842   0.548   0.186   1.245
10315SOL     OW31843   5.611   6.474   3.834
10315SOL    HW131844   5.558   6.393   3.854
10315SOL    HW231845   5.622   6.484   3.735
10316SOL     OW31846   0.625   2.301   0.143
10316SOL    HW131847   0.683   2.287   0.223
10316SOL    HW231848   0.576   2.387   0.152
10317SOL     OW31849   3.595   6.000   5.883
10317SOL    HW131850   3.673   5.938   5.889
10317SOL    HW231851   3.619   6.079   5.827
10318SOL     OW31852   5.993   6.536   0.200
10318SOL    HW131853   6.025   6.631   0.205
10318SOL    HW231854   6.065   6.475   0.233
10319SOL     OW31855   0.496   4.583   4.530
10319SOL    HW131856   0.417   4.597   4.470
10319SOL    HW231857   0.465   4.569   4.624
10320SOL     OW31858   0.561   6.904   3.827
10320SOL    HW131859   0.602   6.855   3.904
10320SOL    HW231860   0.550   6.842   3.750
10321SOL     OW31861   5.215   2.279   2.000
10321SOL    HW131862   5.130   2.239   1.964
10321SOL    HW231863   5.204   2.296   2.098
10322SOL     OW31864   4.569   4.409   4.885
10322SOL    HW131865   4.527   4.319   4.875
10322SOL    HW231866   4.501   4.475   4.919
10323SOL     OW31867   0.317   4.347   5.347
10323SOL    HW131868   0.400   4.302   5.316
10323SOL    HW231869   0.272   4.290   5.417
10324SOL     OW31870   3.028   3.199   2.228
10324SOL    HW131871   3.044   3.106   2.194
10324SOL    HW231872   3.104   3.258   2.200
10325SOL     OW31873   0.176   6.037   3.237
10325SOL    HW131874   0.161   5.962   3.302
10325SOL    HW231875   0.203   6.000   3.149
10326SOL     OW31876   5.537   3.344   6.738
10326SOL    HW131877   5.515   3.437   6.709
10326SOL    HW231878   5.560   3.288   6.659
10327SOL     OW31879   2.430   3.739   0.894
10327SOL    HW131880   2.519   3.703   0.868
10327SOL    HW231881   2.431   3.764   0.991
10328SOL     OW31882   6.678   2.965   1.603
10328SOL    HW131883   6.771   2.935   1.581
10328SOL    HW231884   6.633   2.896   1.659
10329SOL     OW31885   3.506   1.362   2.844
10329SOL    HW131886   3.534   1.309   2.764
10329SOL    HW231887   3.424   1.322   2.884
10330SOL     OW31888   4.638   0.649   1.767
10330SOL    HW131889   4.616   0.551   1.773
10330SOL    HW231890   4.602   0.695   1.848
10331SOL     OW31891   6.823   5.757   0.385
10331SOL    HW131892   6.817   5.657   0.376
10331SOL    HW231893   6.838   5.798   0.296
10332SOL     OW31894   1.159   0.988   0.001
10332SOL    HW131895   1.068   1.001   6.987
10332SOL    HW231896   1.219   0.948   6.955
10333SOL     OW31897   0.715   5.610   4.680
10333SOL    HW131898   0.657   5.564   4.748
10333SOL    HW231899   0.789   5.658   4.726
10334SOL     OW31900   3.144   0.077   3.975
10334SOL    HW131901   3.152   0.020   3.894
10334SOL    HW231902   3.130   0.019   4.056
10335SOL     OW31903   0.660   2.820   5.883
10335SOL    HW131904   0.570   2.780   5.900
10335SOL    HW231905   0.672   2.901   5.940
10336SOL     OW31906   5.213   0.387   3.125
10336SOL    HW131907   5.184   0.294   3.104
10336SOL    HW231908   5.313   0.392   3.125
10337SOL     OW31909   6.401   5.334   6.957
10337SOL    HW131910   6.354   5.408   6.908
10337SOL    HW231911   6.372   5.246   6.920
10338SOL     OW31912   2.237   6.488   1.914
10338SOL    HW131913   2.300   6.565   1.900
10338SOL    HW231914   2.217   6.479   2.012
10339SOL     OW31915   6.535   2.430   5.812
10339SOL    HW131916   6.528   2.366   5.735
10339SOL    HW231917   6.462   2.499   5.805
10340SOL     OW31918   2.086   3.836   6.653
10340SOL    HW131919   2.154   3.897   6.612
10340SOL    HW231920   2.114   3.741   6.642
10341SOL     OW31921   2.382   2.414   2.817
10341SOL    HW131922   2.393   2.478   2.894
10341SOL    HW231923   2.401   2.462   2.731
10342SOL     OW31924   0.917   0.765   3.002
10342SOL    HW131925   1.001   0.775   2.949
10342SOL    HW231926   0.863   0.849   2.995
10343SOL     OW31927   2.205   5.614   0.964
10343SOL    HW131928   2.290   5.656   0.995
10343SOL    HW231929   2.128   5.674   0.986
10344SOL     OW31930   4.030   4.588   6.277
10344SOL    HW131931   4.048   4.650   6.353
10344SOL    HW231932   3.991   4.503   6.313
10345SOL     OW31933   1.280   3.240   4.908
10345SOL    HW131934   1.339   3.236   4.989
10345SOL    HW231935   1.245   3.333   4.897
10346SOL     OW31936   7.008   5.441   1.090
10346SOL    HW131937   6.926   5.486   1.054
10346SOL    HW231938   0.063   5.471   1.037
10347SOL     OW31939   4.266   1.600   3.668
10347SOL    HW131940   4.349   1.603   3.613
10347SOL    HW231941   4.279   1.655   3.751
10348SOL     OW31942   6.074   4.132   0.525
10348SOL    HW131943   5.997   4.188   0.494
10348SOL    HW231944   6.157   4.188   0.529
10349SOL     OW31945   0.323   6.283   6.663
10349SOL    HW131946   0.354   6.238   6.747
10349SOL    HW231947   0.226   6.306   6.672
10350SOL     OW31948   2.930   0.293   5.816
10350SOL    HW131949   2.856   0.312   5.881
10350SOL    HW231950   2.920   0.199   5.782
10351SOL     OW31951   4.844   5.487   5.508
10351SOL    HW131952   4.748   5.459   5.504
10351SOL    HW231953   4.903   5.406   5.507
10352SOL     OW31954   3.722   2.951   5.991
10352SOL    HW131955   3.695   2.926   5.898
10352SOL    HW231956   3.762   2.872   6.037
10353SOL     OW31957   6.790   2.401   4.924
10353SOL    HW131958   6.848   2.465   4.974
10353SOL    HW231959   6.722   2.452   4.871
10354SOL     OW31960   5.491   1.815   2.321
10354SOL    HW131961   5.464   1.810   2.225
10354SOL    HW231962   5.437   1.750   2.375
10355SOL     OW31963   2.397   5.827   1.793
10355SOL    HW131964   2.449   5.913   1.793
10355SOL    HW231965   2.327   5.831   1.864
10356SOL     OW31966   6.925   3.567   5.169
10356SOL    HW131967   6.837   3.599   5.205
10356SOL    HW231968   6.966   3.503   5.233
10357SOL     OW31969   2.441   1.612   0.030
10357SOL    HW131970   2.343   1.631   0.026
10357SOL    HW231971   2.461   1.553   0.108
10358SOL     OW31972   0.036   1.829   1.494
10358SOL    HW131973   0.048   1.735   1.526
10358SOL    HW231974   6.988   1.873   1.548
10359SOL     OW31975   0.027   0.812   1.392
10359SOL    HW131976   0.096   0.832   1.462
10359SOL    HW231977   0.033   0.879   1.318
10360SOL     OW31978   5.607   6.454   3.553
10360SOL    HW131979   5.661   6.514   3.495
10360SOL    HW231980   5.600   6.363   3.511
10361SOL     OW31981   2.454   4.823   1.150
10361SOL    HW131982   2.366   4.786   1.122
10361SOL    HW231983   2.441   4.911   1.195
10362SOL     OW31984   2.055   4.361   4.872
10362SOL    HW131985   2.153   4.378   4.866
10362SOL    HW231986   2.024   4.376   4.966
10363SOL     OW31987   4.973   0.931   4.000
10363SOL    HW131988   4.981   0.974   4.090
10363SOL    HW231989   5.030   0.981   3.934
10364SOL     OW31990   1.849   4.081   1.413
10364SOL    HW131991   1.847   4.138   1.496
10364SOL    HW231992   1.858   3.985   1.440
10365SOL     OW31993   4.714   5.752   0.234
10365SOL    HW131994   4.689   5.656   0.229
10365SOL    HW231995   4.710   5.792   0.142
10366SOL     OW31996   3.265   6.602   3.604
10366SOL    HW131997   3.298   6.623   3.512
10366SOL    HW231998   3.266   6.503   3.619
10367SOL     OW31999   6.747   2.348   3.546
10367SOL    HW132000   6.763   2.415   3.618
10367SOL    HW232001   6.828   2.342   3.487
10368SOL     OW32002   2.031   0.522   1.414
10368SOL    HW132003   2.112   0.478   1.374
10368SOL    HW232004   2.023   0.495   1.510
10369SOL     OW32005   3.973   2.948   0.073
10369SOL    HW132006   3.890   2.931   0.020
10369SOL    HW232007   3.959   3.029   0.131
10370SOL     OW32008   3.149   0.911   5.126
10370SOL    HW132009   3.130   0.898   5.028
10370SOL    HW232010   3.186   1.003   5.140
10371SOL     OW32011   5.111   6.413   5.886
10371SOL    HW132012   5.155   6.364   5.810
10371SOL    HW232013   5.092   6.507   5.857
10372SOL     OW32014   1.126   0.467   2.806
10372SOL    HW132015   1.142   0.564   2.823
10372SOL    HW232016   1.139   0.415   2.891
10373SOL     OW32017   0.840   6.058   4.739
10373SOL    HW132018   0.854   6.157   4.731
10373SOL    HW232019   0.790   6.025   4.659
10374SOL     OW32020   3.208   2.201   3.441
10374SOL    HW132021   3.109   2.210   3.435
10374SOL    HW232022   3.250   2.241   3.360
10375SOL     OW32023   6.003   2.086   0.639
10375SOL    HW132024   5.964   2.074   0.730
10375SOL    HW232025   6.009   2.184   0.618
10376SOL     OW32026   0.435   0.933   3.968
10376SOL    HW132027   0.426   0.890   3.878
10376SOL    HW232028   0.421   1.032   3.959
10377SOL     OW32029   0.999   6.818   4.670
10377SOL    HW132030   1.022   6.767   4.587
10377SOL    HW232031   0.915   6.870   4.655
10378SOL     OW32032   0.321   6.990   6.541
10378SOL    HW132033   0.388   0.011   6.481
10378SOL    HW232034   0.365   6.915   6.590
10379SOL     OW32035   5.200   1.798   4.454
10379SOL    HW132036   5.259   1.879   4.467
10379SOL    HW232037   5.110   1.828   4.423
10380SOL     OW32038   5.476   0.546   2.186
10380SOL    HW132039   5.470   0.462   2.240
10380SOL    HW232040   5.572   0.563   2.163
10381SOL     OW32041   4.736   5.270   5.050
10381SOL    HW132042   4.767   5.266   4.955
10381SOL    HW232043   4.746   5.363   5.085
10382SOL     OW32044   2.088   5.555   0.412
10382SOL    HW132045   2.156   5.535   0.342
10382SOL    HW232046   2.074   5.653   0.418
10383SOL     OW32047   6.932   2.312   0.134
10383SOL    HW132048   6.981   2.231   0.167
10383SOL    HW232049   6.944   2.386   0.199
10384SOL     OW32050   6.172   0.026   0.304
10384SOL    HW132051   6.237   7.005   0.243
10384SOL    HW232052   6.215   0.041   0.393
10385SOL     OW32053   5.955   1.893   6.729
10385SOL    HW132054   5.873   1.947   6.752
10385SOL    HW232055   6.016   1.890   6.808
10386SOL     OW32056   6.007   3.027   6.130
10386SOL    HW132057   5.961   2.950   6.175
10386SOL    HW232058   6.001   3.108   6.189
10387SOL     OW32059   2.391   2.664   3.260
10387SOL    HW132060   2.468   2.611   3.297
10387SOL    HW232061   2.306   2.633   3.302
10388SOL     OW32062   1.470   4.627   2.957
10388SOL    HW132063   1.477   4.542   2.904
10388SOL    HW232064   1.450   4.605   3.052
10389SOL     OW32065   0.826   5.442   3.518
10389SOL    HW132066   0.810   5.343   3.511
10389SOL    HW232067   0.919   5.463   3.489
10390SOL     OW32068   1.441   3.289   3.481
10390SOL    HW132069   1.513   3.237   3.527
10390SOL    HW232070   1.355   3.278   3.531
10391SOL     OW32071   3.170   6.726   5.832
10391SOL    HW132072   3.142   6.805   5.779
10391SOL    HW232073   3.263   6.739   5.866
10392SOL     OW32074   6.672   5.068   6.501
10392SOL    HW132075   6.674   5.153   6.449
10392SOL    HW232076   6.580   5.031   6.501
10393SOL     OW32077   1.197   1.518   3.830
10393SOL    HW132078   1.253   1.492   3.751
10393SOL    HW232079   1.220   1.459   3.907
10394SOL     OW32080   2.249   6.662   0.023
10394SOL    HW132081   2.217   6.614   6.966
10394SOL    HW232082   2.197   6.631   0.103
10395SOL     OW32083   1.192   1.251   4.454
10395SOL    HW132084   1.271   1.191   4.448
10395SOL    HW232085   1.222   1.347   4.455
10396SOL     OW32086   0.245   0.230   4.975
10396SOL    HW132087   0.324   0.199   5.028
10396SOL    HW232088   0.213   0.156   4.916
10397SOL     OW32089   4.166   1.894   2.509
10397SOL    HW132090   4.117   1.981   2.520
10397SOL    HW232091   4.191   1.859   2.599
10398SOL     OW32092   6.848   2.839   2.692
10398SOL    HW132093   6.872   2.813   2.598
10398SOL    HW232094   6.749   2.837   2.703
10399SOL     OW32095   6.103   1.801   5.395
10399SOL    HW132096   6.185   1.841   5.356
10399SOL    HW232097   6.102   1.816   5.494
10400SOL     OW32098   2.317   4.318   1.245
10400SOL    HW132099   2.316   4.332   1.146
10400SOL    HW232100   2.243   4.257   1.271
10401SOL     OW32101   0.616   6.503   1.117
10401SOL    HW132102   0.573   6.536   1.034
10401SOL    HW232103   0.628   6.404   1.112
10402SOL     OW32104   0.222   3.149   4.198
10402SOL    HW132105   0.143   3.121   4.143
10402SOL    HW232106   0.306   3.121   4.152
10403SOL     OW32107   5.088   1.633   2.278
10403SOL    HW132108   5.111   1.549   2.326
10403SOL    HW232109   5.044   1.610   2.191
10404SOL     OW32110   0.232   6.541   3.493
10404SOL    HW132111   0.255   6.454   3.535
10404SOL    HW232112   0.220   6.611   3.564
10405SOL     OW32113   1.910   6.986   6.449
10405SOL    HW132114   1.821   6.952   6.418
10405SOL    HW232115   1.983   6.942   6.397
10406SOL     OW32116   2.715   5.109   6.096
10406SOL    HW132117   2.692   5.204   6.112
10406SOL    HW232118   2.780   5.078   6.165
10407SOL     OW32119   1.122   1.255   6.868
10407SOL    HW132120   1.123   1.338   6.924
10407SOL    HW232121   1.104   1.176   6.926
10408SOL     OW32122   4.195   5.241   3.207
10408SOL    HW132123   4.274   5.217   3.264
10408SOL    HW232124   4.220   5.230   3.111
10409SOL     OW32125   6.242   4.479   2.359
10409SOL    HW132126   6.174   4.464   2.431
10409SOL    HW232127   6.280   4.571   2.368
10410SOL     OW32128   6.049   6.875   0.867
10410SOL    HW132129   6.021   6.968   0.842
10410SOL    HW232130   6.143   6.859   0.837
10411SOL     OW32131   1.652   4.696   2.581
10411SOL    HW132132   1.676   4.599   2.592
10411SOL    HW232133   1.637   4.715   2.484
10412SOL     OW32134   0.522   2.045   0.001
10412SOL    HW132135   0.425   2.034   0.020
10412SOL    HW232136   0.570   2.074   0.083
10413SOL     OW32137   0.125   2.093   6.232
10413SOL    HW132138   0.165   2.184   6.245
10413SOL    HW232139   0.081   2.088   6.142
10414SOL     OW32140   5.780   0.150   5.269
10414SOL    HW132141   5.775   0.199   5.356
10414SOL    HW232142   5.688   0.140   5.231
10415SOL     OW32143   0.632   6.033   3.474
10415SOL    HW132144   0.714   6.088   3.489
10415SOL    HW232145   0.613   6.027   3.376
10416SOL     OW32146   4.997   0.201   6.666
10416SOL    HW132147   4.910   0.217   6.619
10416SOL    HW232148   4.995   0.245   6.755
10417SOL     OW32149   3.782   4.902   4.560
10417SOL    HW132150   3.684   4.921   4.555
10417SOL    HW232151   3.833   4.974   4.514
10418SOL     OW32152   6.458   3.642   6.717
10418SOL    HW132153   6.376   3.600   6.755
10418SOL    HW232154   6.517   3.572   6.676
10419SOL     OW32155   2.559   1.578   4.429
10419SOL    HW132156   2.475   1.609   4.385
10419SOL    HW232157   2.634   1.640   4.405
10420SOL     OW32158   5.539   3.064   3.269
10420SOL    HW132159   5.629   3.024   3.251
10420SOL    HW232160   5.474   3.031   3.200
10421SOL     OW32161   0.757   5.171   3.725
10421SOL    HW132162   0.789   5.159   3.631
10421SOL    HW232163   0.741   5.081   3.766
10422SOL     OW32164   5.984   3.659   5.241
10422SOL    HW132165   6.000   3.593   5.315
10422SOL    HW232166   5.985   3.610   5.153
10423SOL     OW32167   2.474   5.008   3.948
10423SOL    HW132168   2.547   5.036   4.011
10423SOL    HW232169   2.451   4.912   3.965
10424SOL     OW32170   3.287   1.375   0.386
10424SOL    HW132171   3.237   1.313   0.325
10424SOL    HW232172   3.222   1.431   0.436
10425SOL     OW32173   1.768   3.090   1.157
10425SOL    HW132174   1.829   3.012   1.150
10425SOL    HW232175   1.685   3.073   1.105
10426SOL     OW32176   6.317   2.054   6.310
10426SOL    HW132177   6.244   2.027   6.372
10426SOL    HW232178   6.328   1.985   6.239
10427SOL     OW32179   5.375   1.411   4.305
10427SOL    HW132180   5.391   1.453   4.395
10427SOL    HW232181   5.362   1.313   4.316
10428SOL     OW32182   1.667   7.010   4.815
10428SOL    HW132183   1.649   6.913   4.798
10428SOL    HW232184   1.635   0.011   4.907
10429SOL     OW32185   1.171   3.121   0.940
10429SOL    HW132186   1.206   3.049   0.999
10429SOL    HW232187   1.097   3.170   0.987
10430SOL     OW32188   3.100   0.335   4.026
10430SOL    HW132189   3.109   0.235   4.026
10430SOL    HW232190   3.093   0.368   3.932
10431SOL     OW32191   3.887   0.744   3.190
10431SOL    HW132192   3.794   0.757   3.156
10431SOL    HW232193   3.885   0.683   3.270
10432SOL     OW32194   0.974   5.752   6.329
10432SOL    HW132195   0.906   5.700   6.277
10432SOL    HW232196   1.036   5.798   6.266
10433SOL     OW32197   3.311   6.871   3.265
10433SOL    HW132198   3.380   6.799   3.276
10433SOL    HW232199   3.300   6.918   3.353
10434SOL     OW32200   5.123   0.719   6.062
10434SOL    HW132201   5.035   0.682   6.092
10434SOL    HW232202   5.191   0.706   6.134
10435SOL     OW32203   2.478   1.852   0.440
10435SOL    HW132204   2.557   1.899   0.480
10435SOL    HW232205   2.408   1.919   0.415
10436SOL     OW32206   0.117   3.745   5.016
10436SOL    HW132207   0.204   3.726   5.062
10436SOL    HW232208   0.041   3.722   5.078
10437SOL     OW32209   6.020   6.478   4.473
10437SOL    HW132210   6.074   6.399   4.502
10437SOL    HW232211   5.937   6.485   4.528
10438SOL     OW32212   7.006   5.653   6.703
10438SOL    HW132213   6.967   5.745   6.697
10438SOL    HW232214   0.079   5.656   6.680
10439SOL     OW32215   6.122   5.398   4.507
10439SOL    HW132216   6.072   5.449   4.437
10439SOL    HW232217   6.075   5.311   4.525
10440SOL     OW32218   6.101   2.697   0.910
10440SOL    HW132219   6.182   2.686   0.854
10440SOL    HW232220   6.051   2.779   0.881
10441SOL     OW32221   4.756   1.540   0.121
10441SOL    HW132222   4.824   1.610   0.096
10441SOL    HW232223   4.718   1.560   0.211
10442SOL     OW32224   1.740   1.508   4.909
10442SOL    HW132225   1.810   1.472   4.970
10442SOL    HW232226   1.764   1.601   4.881
10443SOL     OW32227   1.212   1.028   0.884
10443SOL    HW132228   1.183   1.024   0.980
10443SOL    HW232229   1.133   1.047   0.826
10444SOL     OW32230   3.836   5.078   4.341
10444SOL    HW132231   3.908   5.048   4.278
10444SOL    HW232232   3.747   5.052   4.304
10445SOL     OW32233   1.085   3.552   3.469
10445SOL    HW132234   1.142   3.490   3.416
10445SOL    HW232235   1.062   3.510   3.557
10446SOL     OW32236   2.420   4.879   5.767
10446SOL    HW132237   2.432   4.940   5.845
10446SOL    HW232238   2.510   4.846   5.737
10447SOL     OW32239   0.592   2.431   2.504
10447SOL    HW132240   0.681   2.387   2.486
10447SOL    HW232241   0.574   2.430   2.602
10448SOL     OW32242   2.589   6.540   2.055
10448SOL    HW132243   2.526   6.578   2.122
10448SOL    HW232244   2.637   6.615   2.008
10449SOL     OW32245   3.811   4.979   4.817
10449SOL    HW132246   3.729   4.985   4.874
10449SOL    HW232247   3.788   4.938   4.729
10450SOL     OW32248   6.826   0.712   4.968
10450SOL    HW132249   6.728   0.733   4.974
10450SOL    HW232250   6.838   0.613   4.956
10451SOL     OW32251   3.484   1.722   3.646
10451SOL    HW132252   3.442   1.749   3.733
10451SOL    HW232253   3.473   1.623   3.634
10452SOL     OW32254   6.285   3.083   4.658
10452SOL    HW132255   6.225   3.148   4.613
10452SOL    HW232256   6.233   3.031   4.725
10453SOL     OW32257   4.447   6.039   3.924
10453SOL    HW132258   4.437   6.000   4.015
10453SOL    HW232259   4.536   6.082   3.915
10454SOL     OW32260   6.566   1.300   6.644
10454SOL    HW132261   6.496   1.372   6.648
10454SOL    HW232262   6.530   1.222   6.594
10455SOL     OW32263   0.586   6.011   3.210
10455SOL    HW132264   0.522   5.937   3.228
10455SOL    HW232265   0.649   5.984   3.138
10456SOL     OW32266   1.411   5.581   6.504
10456SOL    HW132267   1.326   5.633   6.511
10456SOL    HW232268   1.433   5.566   6.408
10457SOL     OW32269   3.985   2.143   6.650
10457SOL    HW132270   4.000   2.097   6.563
10457SOL    HW232271   3.972   2.075   6.723
10458SOL     OW32272   0.933   5.965   0.103
10458SOL    HW132273   0.987   5.920   0.033
10458SOL    HW232274   0.836   5.963   0.077
10459SOL     OW32275   6.169   5.154   1.586
10459SOL    HW132276   6.245   5.117   1.534
10459SOL    HW232277   6.199   5.235   1.636
10460SOL     OW32278   6.764   0.418   0.431
10460SOL    HW132279   6.777   0.385   0.337
10460SOL    HW232280   6.713   0.350   0.483
10461SOL     OW32281   6.903   4.640   6.555
10461SOL    HW132282   6.978   4.652   6.619
10461SOL    HW232283   6.929   4.676   6.466
10462SOL     OW32284   4.255   3.188   6.163
10462SOL    HW132285   4.234   3.182   6.260
10462SOL    HW232286   4.225   3.276   6.127
10463SOL     OW32287   4.998   2.226   6.434
10463SOL    HW132288   5.079   2.172   6.458
10463SOL    HW232289   4.969   2.203   6.342
10464SOL     OW32290   6.591   4.466   2.574
10464SOL    HW132291   6.524   4.539   2.561
10464SOL    HW232292   6.673   4.504   2.617
10465SOL     OW32293   5.198   4.617   1.254
10465SOL    HW132294   5.218   4.640   1.349
10465SOL    HW232295   5.248   4.535   1.228
10466SOL     OW32296   6.642   4.521   5.900
10466SOL    HW132297   6.673   4.565   5.816
10466SOL    HW232298   6.642   4.588   5.974
10467SOL     OW32299   0.809   3.178   0.067
10467SOL    HW132300   0.742   3.189   0.140
10467SOL    HW232301   0.842   3.267   0.038
10468SOL     OW32302   1.568   4.372   3.464
10468SOL    HW132303   1.498   4.303   3.481
10468SOL    HW232304   1.555   4.449   3.526
10469SOL     OW32305   0.403   1.203   3.942
10469SOL    HW132306   0.371   1.184   3.849
10469SOL    HW232307   0.325   1.206   4.004
10470SOL     OW32308   2.095   3.301   3.275
10470SOL    HW132309   2.064   3.386   3.318
10470SOL    HW232310   2.055   3.223   3.324
10471SOL     OW32311   2.852   6.465   6.698
10471SOL    HW132312   2.840   6.386   6.758
10471SOL    HW232313   2.932   6.518   6.729
10472SOL     OW32314   3.907   4.890   6.929
10472SOL    HW132315   3.808   4.878   6.917
10472SOL    HW232316   3.951   4.898   6.840
10473SOL     OW32317   5.811   4.887   1.102
10473SOL    HW132318   5.815   4.809   1.039
10473SOL    HW232319   5.767   4.859   1.187
10474SOL     OW32320   5.581   0.896   4.745
10474SOL    HW132321   5.664   0.856   4.706
10474SOL    HW232322   5.598   0.921   4.841
10475SOL     OW32323   1.051   5.205   1.120
10475SOL    HW132324   1.077   5.240   1.209
10475SOL    HW232325   1.132   5.173   1.071
10476SOL     OW32326   4.826   6.732   1.178
10476SOL    HW132327   4.874   6.686   1.104
10476SOL    HW232328   4.847   6.688   1.265
10477SOL     OW32329   0.522   5.739   3.294
10477SOL    HW132330   0.614   5.706   3.272
10477SOL    HW232331   0.520   5.772   3.388
10478SOL     OW32332   6.591   0.915   7.010
10478SOL    HW132333   6.664   0.891   0.049
10478SOL    HW232334   6.614   1.000   6.963
10479SOL     OW32335   0.756   3.084   2.079
10479SOL    HW132336   0.803   2.996   2.073
10479SOL    HW232337   0.770   3.136   1.994
10480SOL     OW32338   2.317   0.700   3.580
10480SOL    HW132339   2.392   0.634   3.585
10480SOL    HW232340   2.260   0.692   3.662
10481SOL     OW32341   6.978   1.190   1.485
10481SOL    HW132342   6.889   1.183   1.438
10481SOL    HW232343   0.021   1.231   1.423
10482SOL     OW32344   5.526   2.915   4.182
10482SOL    HW132345   5.534   2.958   4.093
10482SOL    HW232346   5.617   2.907   4.224
10483SOL     OW32347   6.779   6.340   0.357
10483SOL    HW132348   6.708   6.336   0.428
10483SOL    HW232349   6.741   6.380   0.274
10484SOL     OW32350   6.501   1.182   2.565
10484SOL    HW132351   6.432   1.112   2.550
10484SOL    HW232352   6.480   1.262   2.508
10485SOL     OW32353   5.311   3.459   5.597
10485SOL    HW132354   5.280   3.373   5.558
10485SOL    HW232355   5.238   3.498   5.654
10486SOL     OW32356   5.658   3.090   1.993
10486SOL    HW132357   5.722   3.016   1.971
10486SOL    HW232358   5.648   3.150   1.914
10487SOL     OW32359   5.729   6.842   1.639
10487SOL    HW132360   5.717   6.806   1.546
10487SOL    HW232361   5.816   6.891   1.644
10488SOL     OW32362   2.378   2.731   0.060
10488SOL    HW132363   2.436   2.702   7.008
10488SOL    HW232364   2.433   2.778   0.128
10489SOL     OW32365   1.380   5.468   5.074
10489SOL    HW132366   1.323   5.520   5.011
10489SOL    HW232367   1.324   5.398   5.119
10490SOL     OW32368   7.001   0.283   3.961
10490SOL    HW132369   6.973   0.364   3.910
10490SOL    HW232370   6.947   0.205   3.932
10491SOL     OW32371   0.785   4.501   5.563
10491SOL    HW132372   0.688   4.528   5.564
10491SOL    HW232373   0.819   4.497   5.657
10492SOL     OW32374   3.891   4.020   5.811
10492SOL    HW132375   3.984   4.058   5.808
10492SOL    HW232376   3.882   3.949   5.741
10493SOL     OW32377   3.477   0.936   0.910
10493SOL    HW132378   3.555   0.876   0.894
10493SOL    HW232379   3.446   0.925   1.004
10494SOL     OW32380   5.914   2.643   4.558
10494SOL    HW132381   5.879   2.633   4.651
10494SOL    HW232382   5.868   2.579   4.497
10495SOL     OW32383   1.547   6.874   0.062
10495SOL    HW132384   1.479   6.822   0.114
10495SOL    HW232385   1.561   6.963   0.106
10496SOL     OW32386   6.394   0.256   5.394
10496SOL    HW132387   6.338   0.331   5.359
10496SOL    HW232388   6.335   0.178   5.417
10497SOL     OW32389   1.273   1.286   0.698
10497SOL    HW132390   1.353   1.234   0.728
10497SOL    HW232391   1.220   1.315   0.778
10498SOL     OW32392   2.961   5.439   6.203
10498SOL    HW132393   2.976   5.389   6.118
10498SOL    HW232394   2.874   5.409   6.244
10499SOL     OW32395   3.446   5.244   3.136
10499SOL    HW132396   3.494   5.278   3.055
10499SOL    HW232397   3.385   5.316   3.171
10500SOL     OW32398   1.249   2.407   6.811
10500SOL    HW132399   1.151   2.385   6.808
10500SOL    HW232400   1.296   2.339   6.867
10501SOL     OW32401   1.697   2.611   3.086
10501SOL    HW132402   1.710   2.547   3.162
10501SOL    HW232403   1.612   2.589   3.039
10502SOL     OW32404   3.168   6.449   5.816
10502SOL    HW132405   3.162   6.391   5.897
10502SOL    HW232406   3.153   6.544   5.842
10503SOL     OW32407   2.502   3.256   5.730
10503SOL    HW132408   2.532   3.315   5.804
10503SOL    HW232409   2.581   3.212   5.687
10504SOL     OW32410   3.065   2.800   0.981
10504SOL    HW132411   3.020   2.829   1.065
10504SOL    HW232412   3.079   2.701   0.983
10505SOL     OW32413   0.380   6.886   1.422
10505SOL    HW132414   0.457   6.843   1.374
10505SOL    HW232415   0.349   6.965   1.370
10506SOL     OW32416   0.123   3.929   5.607
10506SOL    HW132417   0.056   3.990   5.565
10506SOL    HW232418   0.136   3.955   5.703
10507SOL     OW32419   0.623   0.251   4.667
10507SOL    HW132420   0.648   0.315   4.594
10507SOL    HW232421   0.637   0.157   4.635
10508SOL     OW32422   5.338   4.402   3.082
10508SOL    HW132423   5.286   4.484   3.060
10508SOL    HW232424   5.302   4.324   3.031
10509SOL     OW32425   1.757   0.465   5.489
10509SOL    HW132426   1.854   0.485   5.504
10509SOL    HW232427   1.720   0.419   5.570
10510SOL     OW32428   6.817   5.896   0.155
10510SOL    HW132429   6.725   5.926   0.178
10510SOL    HW232430   6.883   5.965   0.186
10511SOL     OW32431   5.759   2.427   0.249
10511SOL    HW132432   5.736   2.374   0.330
10511SOL    HW232433   5.674   2.456   0.204
10512SOL     OW32434   3.689   6.465   6.812
10512SOL    HW132435   3.606   6.520   6.825
10512SOL    HW232436   3.716   6.469   6.715
10513SOL     OW32437   6.549   2.507   0.166
10513SOL    HW132438   6.517   2.414   0.151
10513SOL    HW232439   6.603   2.512   0.249
10514SOL     OW32440   6.813   3.655   1.457
10514SOL    HW132441   6.878   3.655   1.533
10514SOL    HW232442   6.782   3.749   1.441
10515SOL     OW32443   6.337   2.224   4.354
10515SOL    HW132444   6.418   2.172   4.378
10515SOL    HW232445   6.360   2.291   4.283
10516SOL     OW32446   4.040   0.118   6.656
10516SOL    HW132447   3.957   0.063   6.642
10516SOL    HW232448   4.049   0.140   6.753
10517SOL     OW32449   0.748   1.649   2.942
10517SOL    HW132450   0.683   1.686   3.008
10517SOL    HW232451   0.807   1.582   2.986
10518SOL     OW32452   0.518   6.844   1.034
10518SOL    HW132453   0.427   6.803   1.033
10518SOL    HW232454   0.549   6.853   1.129
10519SOL     OW32455   3.143   3.485   5.815
10519SOL    HW132456   3.239   3.458   5.805
10519SOL    HW232457   3.115   3.539   5.736
10520SOL     OW32458   4.047   3.396   6.513
10520SOL    HW132459   4.092   3.339   6.582
10520SOL    HW232460   3.969   3.347   6.475
10521SOL     OW32461   6.608   5.327   1.611
10521SOL    HW132462   6.618   5.419   1.649
10521SOL    HW232463   6.554   5.271   1.674
10522SOL     OW32464   6.184   0.489   1.678
10522SOL    HW132465   6.086   0.503   1.695
10522SOL    HW232466   6.207   0.393   1.691
10523SOL     OW32467   0.232   5.737   6.481
10523SOL    HW132468   0.305   5.775   6.423
10523SOL    HW232469   0.151   5.796   6.475
10524SOL     OW32470   3.424   0.993   4.216
10524SOL    HW132471   3.520   0.965   4.225
10524SOL    HW232472   3.406   1.071   4.276
10525SOL     OW32473   2.686   6.239   4.633
10525SOL    HW132474   2.688   6.234   4.534
10525SOL    HW232475   2.707   6.333   4.662
10526SOL     OW32476   5.745   6.849   2.428
10526SOL    HW132477   5.658   6.840   2.380
10526SOL    HW232478   5.781   6.758   2.448
10527SOL     OW32479   1.589   2.426   4.656
10527SOL    HW132480   1.536   2.376   4.725
10527SOL    HW232481   1.564   2.523   4.659
10528SOL     OW32482   6.552   5.163   5.403
10528SOL    HW132483   6.649   5.177   5.383
10528SOL    HW232484   6.543   5.109   5.487
10529SOL     OW32485   6.117   6.345   3.679
10529SOL    HW132486   6.031   6.368   3.634
10529SOL    HW232487   6.129   6.403   3.760
10530SOL     OW32488   2.044   1.935   5.766
10530SOL    HW132489   1.948   1.910   5.783
10530SOL    HW232490   2.103   1.865   5.805
10531SOL     OW32491   1.973   2.837   5.414
10531SOL    HW132492   1.993   2.931   5.386
10531SOL    HW232493   2.027   2.814   5.494
10532SOL     OW32494   3.317   2.939   5.494
10532SOL    HW132495   3.302   3.005   5.567
10532SOL    HW232496   3.262   2.858   5.510
10533SOL     OW32497   2.728   1.239   6.178
10533SOL    HW132498   2.655   1.183   6.138
10533SOL    HW232499   2.796   1.179   6.221
10534SOL     OW32500   5.969   5.582   1.049
10534SOL    HW132501   5.967   5.490   1.089
10534SOL    HW232502   6.055   5.627   1.072
10535SOL     OW32503   0.224   0.987   2.485
10535SOL    HW132504   0.308   1.040   2.475
10535SOL    HW232505   0.145   1.046   2.472
10536SOL     OW32506   4.301   0.361   3.295
10536SOL    HW132507   4.256   0.354   3.206
10536SOL    HW232508   4.253   0.304   3.361
10537SOL     OW32509   0.838   4.651   1.033
10537SOL    HW132510   0.913   4.711   1.007
10537SOL    HW232511   0.864   4.597   1.113
10538SOL     OW32512   5.112   3.426   0.363
10538SOL    HW132513   5.090   3.506   0.307
10538SOL    HW232514   5.181   3.370   0.317
10539SOL     OW32515   0.859   2.849   5.700
10539SOL    HW132516   0.770   2.852   5.745
10539SOL    HW232517   0.858   2.777   5.630
10540SOL     OW32518   2.777   0.563   6.673
10540SOL    HW132519   2.687   0.525   6.650
10540SOL    HW232520   2.848   0.497   6.648
10541SOL     OW32521   3.811   2.766   0.586
10541SOL    HW132522   3.874   2.837   0.555
10541SOL    HW232523   3.846   2.724   0.670
10542SOL     OW32524   0.790   2.585   0.300
10542SOL    HW132525   0.882   2.591   0.263
10542SOL    HW232526   0.758   2.676   0.326
10543SOL     OW32527   2.104   1.368   5.258
10543SOL    HW132528   2.133   1.274   5.279
10543SOL    HW232529   2.098   1.421   5.343
10544SOL     OW32530   0.809   2.290   2.239
10544SOL    HW132531   0.735   2.279   2.173
10544SOL    HW232532   0.874   2.214   2.229
10545SOL     OW32533   5.511   0.299   2.309
10545SOL    HW132534   5.610   0.308   2.312
10545SOL    HW232535   5.475   0.287   2.402
10546SOL     OW32536   3.101   0.879   4.216
10546SOL    HW132537   3.030   0.921   4.273
10546SOL    HW232538   3.190   0.887   4.260
10547SOL     OW32539   4.177   1.265   0.827
10547SOL    HW132540   4.184   1.311   0.739
10547SOL    HW232541   4.173   1.166   0.813
10548SOL     OW32542   4.779   4.489   5.037
10548SOL    HW132543   4.776   4.428   5.117
10548SOL    HW232544   4.703   4.468   4.976
10549SOL     OW32545   1.130   0.991   1.831
10549SOL    HW132546   1.210   1.038   1.794
10549SOL    HW232547   1.056   1.057   1.845
10550SOL     OW32548   5.000   0.003   4.974
10550SOL    HW132549   4.948   0.021   4.890
10550SOL    HW232550   5.038   6.935   4.970
10551SOL     OW32551   1.210   2.613   5.664
10551SOL    HW132552   1.280   2.640   5.598
10551SOL    HW232553   1.232   2.523   5.702
10552SOL     OW32554   2.950   2.246   5.206
10552SOL    HW132555   2.883   2.280   5.140
10552SOL    HW232556   3.042   2.256   5.168
10553SOL     OW32557   2.804   4.547   6.803
10553SOL    HW132558   2.816   4.493   6.720
10553SOL    HW232559   2.799   4.644   6.779
10554SOL     OW32560   6.415   4.539   5.587
10554SOL    HW132561   6.345   4.584   5.643
10554SOL    HW232562   6.444   4.601   5.514
10555SOL     OW32563   3.074   2.298   1.158
10555SOL    HW132564   3.052   2.200   1.155
10555SOL    HW232565   3.131   2.316   1.238
10556SOL     OW32566   2.043   3.169   4.484
10556SOL    HW132567   1.958   3.204   4.524
10556SOL    HW232568   2.109   3.148   4.556
10557SOL     OW32569   6.290   2.327   3.864
10557SOL    HW132570   6.192   2.325   3.847
10557SOL    HW232571   6.332   2.245   3.825
10558SOL     OW32572   5.023   6.387   5.183
10558SOL    HW132573   4.977   6.452   5.123
10558SOL    HW232574   5.097   6.434   5.232
10559SOL     OW32575   4.098   2.507   0.541
10559SOL    HW132576   4.128   2.602   0.549
10559SOL    HW232577   4.013   2.494   0.591
10560SOL     OW32578   0.410   2.783   4.449
10560SOL    HW132579   0.468   2.719   4.499
10560SOL    HW232580   0.356   2.734   4.381
10561SOL     OW32581   2.982   4.211   6.933
10561SOL    HW132582   3.074   4.171   6.935
10561SOL    HW232583   2.977   4.279   6.860
10562SOL     OW32584   3.407   1.078   0.389
10562SOL    HW132585   3.331   1.066   0.454
10562SOL    HW232586   3.470   1.001   0.397
10563SOL     OW32587   1.702   1.648   4.358
10563SOL    HW132588   1.673   1.701   4.278
10563SOL    HW232589   1.735   1.558   4.328
10564SOL     OW32590   6.533   2.208   2.010
10564SOL    HW132591   6.503   2.233   2.102
10564SOL    HW232592   6.580   2.285   1.968
10565SOL     OW32593   5.436   1.738   5.033
10565SOL    HW132594   5.456   1.816   5.092
10565SOL    HW232595   5.371   1.766   4.962
10566SOL     OW32596   3.876   4.588   0.114
10566SOL    HW132597   3.862   4.515   0.181
10566SOL    HW232598   3.795   4.647   0.112
10567SOL     OW32599   1.447   4.774   4.130
10567SOL    HW132600   1.532   4.721   4.133
10567SOL    HW232601   1.465   4.868   4.158
10568SOL     OW32602   4.082   1.564   3.167
10568SOL    HW132603   4.019   1.491   3.142
10568SOL    HW232604   4.034   1.652   3.167
10569SOL     OW32605   6.144   3.018   3.849
10569SOL    HW132606   6.160   3.036   3.946
10569SOL    HW232607   6.221   2.966   3.811
10570SOL     OW32608   1.442   4.389   2.528
10570SOL    HW132609   1.538   4.381   2.502
10570SOL    HW232610   1.387   4.330   2.469
10571SOL     OW32611   5.780   0.172   4.488
10571SOL    HW132612   5.716   0.237   4.446
10571SOL    HW232613   5.868   0.216   4.502
10572SOL     OW32614   6.571   3.344   2.073
10572SOL    HW132615   6.624   3.261   2.058
10572SOL    HW232616   6.585   3.377   2.166
10573SOL     OW32617   6.070   4.621   5.626
10573SOL    HW132618   5.998   4.675   5.668
10573SOL    HW232619   6.053   4.524   5.642
10574SOL     OW32620   0.322   1.853   2.698
10574SOL    HW132621   0.375   1.784   2.649
10574SOL    HW232622   0.302   1.821   2.790
10575SOL     OW32623   0.979   0.238   5.446
10575SOL    HW132624   0.932   0.264   5.362
10575SOL    HW232625   1.065   0.289   5.453
10576SOL     OW32626   1.696   4.889   3.417
10576SOL    HW132627   1.724   4.799   3.451
10576SOL    HW232628   1.683   4.885   3.318
10577SOL     OW32629   0.917   2.351   5.153
10577SOL    HW132630   1.004   2.356   5.104
10577SOL    HW232631   0.847   2.399   5.100
10578SOL     OW32632   6.179   0.863   5.818
10578SOL    HW132633   6.199   0.938   5.755
10578SOL    HW232634   6.231   0.875   5.902
10579SOL     OW32635   4.487   0.850   0.432
10579SOL    HW132636   4.444   0.916   0.370
10579SOL    HW232637   4.581   0.877   0.450
10580SOL     OW32638   6.938   6.121   0.245
10580SOL    HW132639   6.904   6.213   0.267
10580SOL    HW232640   6.954   6.071   0.330
10581SOL     OW32641   4.729   1.393   3.933
10581SOL    HW132642   4.741   1.482   3.889
10581SOL    HW232643   4.815   1.365   3.977
10582SOL     OW32644   3.445   4.654   6.939
10582SOL    HW132645   3.437   4.594   7.019
10582SOL    HW232646   3.383   4.622   6.868
10583SOL     OW32647   4.539   1.718   0.993
10583SOL    HW132648   4.503   1.714   1.086
10583SOL    HW232649   4.599   1.798   0.984
10584SOL     OW32650   6.194   0.182   1.698
10584SOL    HW132651   6.169   0.191   1.602
10584SOL    HW232652   6.111   0.180   1.754
10585SOL     OW32653   1.538   4.057   6.463
10585SOL    HW132654   1.474   4.133   6.461
10585SOL    HW232655   1.619   4.083   6.515
10586SOL     OW32656   3.748   0.801   0.218
10586SOL    HW132657   3.732   0.704   0.199
10586SOL    HW232658   3.686   0.832   0.289
10587SOL     OW32659   6.083   3.781   1.250
10587SOL    HW132660   6.031   3.706   1.292
10587SOL    HW232661   6.172   3.746   1.219
10588SOL     OW32662   0.290   5.372   2.845
10588SOL    HW132663   0.275   5.454   2.790
10588SOL    HW232664   0.215   5.362   2.911
10589SOL     OW32665   6.262   1.917   3.915
10589SOL    HW132666   6.178   1.924   3.968
10589SOL    HW232667   6.312   1.834   3.941
10590SOL     OW32668   1.242   0.725   4.205
10590SOL    HW132669   1.322   0.710   4.147
10590SOL    HW232670   1.203   0.815   4.185
10591SOL     OW32671   1.158   2.734   1.025
10591SOL    HW132672   1.150   2.649   0.972
10591SOL    HW232673   1.078   2.791   1.010
10592SOL     OW32674   6.543   1.757   0.058
10592SOL    HW132675   6.525   1.725   0.151
10592SOL    HW232676   6.634   1.799   0.054
10593SOL     OW32677   2.017   4.688   0.696
10593SOL    HW132678   1.988   4.755   0.628
10593SOL    HW232679   2.089   4.728   0.753
10594SOL     OW32680   1.006   2.169   4.459
10594SOL    HW132681   1.083   2.132   4.510
10594SOL    HW232682   1.036   2.198   4.368
10595SOL     OW32683   2.785   6.102   5.725
10595SOL    HW132684   2.710   6.105   5.791
10595SOL    HW232685   2.847   6.026   5.748
10596SOL     OW32686   3.433   1.209   1.370
10596SOL    HW132687   3.484   1.278   1.420
10596SOL    HW232688   3.381   1.152   1.434
10597SOL     OW32689   1.635   6.880   4.469
10597SOL    HW132690   1.734   6.881   4.488
10597SOL    HW232691   1.585   6.865   4.554
10598SOL     OW32692   1.869   1.760   0.058
10598SOL    HW132693   1.929   1.802   7.015
10598SOL    HW232694   1.775   1.790   0.041
10599SOL     OW32695   5.060   0.925   6.891
10599SOL    HW132696   5.054   0.943   6.793
10599SOL    HW232697   5.155   0.933   6.921
10600SOL     OW32698   1.819   2.976   6.103
10600SOL    HW132699   1.869   2.946   6.022
10600SOL    HW232700   1.779   3.066   6.087
10601SOL     OW32701   3.372   6.569   5.701
10601SOL    HW132702   3.296   6.514   5.737
10601SOL    HW232703   3.403   6.634   5.770
10602SOL     OW32704   4.606   1.209   2.038
10602SOL    HW132705   4.630   1.204   1.941
10602SOL    HW232706   4.679   1.255   2.088
10603SOL     OW32707   1.601   5.392   4.658
10603SOL    HW132708   1.604   5.403   4.757
10603SOL    HW232709   1.508   5.367   4.630
10604SOL     OW32710   0.089   4.563   5.345
10604SOL    HW132711   0.037   4.642   5.314
10604SOL    HW232712   0.091   4.494   5.273
10605SOL     OW32713   1.942   4.911   6.729
10605SOL    HW132714   1.881   4.832   6.721
10605SOL    HW232715   1.896   4.983   6.782
10606SOL     OW32716   0.661   0.771   2.638
10606SOL    HW132717   0.668   0.709   2.716
10606SOL    HW232718   0.582   0.746   2.582
10607SOL     OW32719   5.650   5.277   0.248
10607SOL    HW132720   5.588   5.349   0.281
10607SOL    HW232721   5.687   5.227   0.327
10608SOL     OW32722   6.039   1.347   3.089
10608SOL    HW132723   6.104   1.405   3.040
10608SOL    HW232724   5.991   1.289   3.023
10609SOL     OW32725   4.159   6.353   1.969
10609SOL    HW132726   4.109   6.435   1.942
10609SOL    HW232727   4.177   6.297   1.888
10610SOL     OW32728   1.174   3.315   5.574
10610SOL    HW132729   1.121   3.305   5.658
10610SOL    HW232730   1.271   3.327   5.597
10611SOL     OW32731   4.816   2.361   6.611
10611SOL    HW132732   4.720   2.353   6.584
10611SOL    HW232733   4.868   2.288   6.567
10612SOL     OW32734   1.576   6.834   0.836
10612SOL    HW132735   1.494   6.777   0.834
10612SOL    HW232736   1.640   6.800   0.905
10613SOL     OW32737   0.668   6.789   6.089
10613SOL    HW132738   0.686   6.873   6.039
10613SOL    HW232739   0.637   6.811   6.182
10614SOL     OW32740   6.571   1.215   4.673
10614SOL    HW132741   6.615   1.131   4.703
10614SOL    HW232742   6.551   1.272   4.753
10615SOL     OW32743   6.352   5.705   4.824
10615SOL    HW132744   6.354   5.627   4.887
10615SOL    HW232745   6.443   5.748   4.821
10616SOL     OW32746   3.175   6.068   0.342
10616SOL    HW132747   3.195   6.074   0.244
10616SOL    HW232748   3.210   6.150   0.388
10617SOL     OW32749   0.945   2.434   6.776
10617SOL    HW132750   0.882   2.381   6.833
10617SOL    HW232751   0.940   2.401   6.682
10618SOL     OW32752   5.955   3.557   1.342
10618SOL    HW132753   5.998   3.483   1.290
10618SOL    HW232754   5.857   3.537   1.354
10619SOL     OW32755   1.265   4.355   3.925
10619SOL    HW132756   1.358   4.330   3.953
10619SOL    HW232757   1.257   4.455   3.920
10620SOL     OW32758   1.690   5.626   4.526
10620SOL    HW132759   1.663   5.530   4.519
10620SOL    HW232760   1.652   5.666   4.609
10621SOL     OW32761   2.850   6.329   1.319
10621SOL    HW132762   2.850   6.380   1.405
10621SOL    HW232763   2.930   6.270   1.315
10622SOL     OW32764   4.262   1.192   1.402
10622SOL    HW132765   4.261   1.282   1.445
10622SOL    HW232766   4.315   1.195   1.318
10623SOL     OW32767   6.906   1.503   3.628
10623SOL    HW132768   6.897   1.467   3.535
10623SOL    HW232769   6.963   1.441   3.682
10624SOL     OW32770   2.336   1.096   4.364
10624SOL    HW132771   2.369   1.184   4.397
10624SOL    HW232772   2.305   1.105   4.270
10625SOL     OW32773   7.006   3.424   0.053
10625SOL    HW132774   6.918   3.399   0.014
10625SOL    HW232775   7.010   3.523   0.068
10626SOL     OW32776   6.999   2.199   1.561
10626SOL    HW132777   0.029   2.229   1.482
10626SOL    HW232778   6.987   2.100   1.556
10627SOL     OW32779   5.925   5.502   4.165
10627SOL    HW132780   5.961   5.409   4.171
10627SOL    HW232781   5.957   5.555   4.243
10628SOL     OW32782   5.924   5.714   6.025
10628SOL    HW132783   5.905   5.812   6.022
10628SOL    HW232784   5.910   5.680   6.118
10629SOL     OW32785   2.913   5.716   6.225
10629SOL    HW132786   2.927   5.620   6.250
10629SOL    HW232787   2.992   5.749   6.173
10630SOL     OW32788   6.822   1.431   2.924
10630SOL    HW132789   6.807   1.469   2.833
10630SOL    HW232790   6.767   1.481   2.991
10631SOL     OW32791   0.761   6.911   4.576
10631SOL    HW132792   0.669   6.876   4.557
10631SOL    HW232793   0.798   6.951   4.492
10632SOL     OW32794   0.330   2.724   5.027
10632SOL    HW132795   0.329   2.769   5.116
10632SOL    HW232796   0.251   2.663   5.020
10633SOL     OW32797   1.238   4.849   0.768
10633SOL    HW132798   1.291   4.765   0.777
10633SOL    HW232799   1.300   4.928   0.770
10634SOL     OW32800   3.708   6.956   1.795
10634SOL    HW132801   3.808   6.952   1.792
10634SOL    HW232802   3.679   6.988   1.885
10635SOL     OW32803   2.012   0.953   1.011
10635SOL    HW132804   2.076   0.890   1.055
10635SOL    HW232805   2.059   1.038   0.990
10636SOL     OW32806   0.161   2.177   1.821
10636SOL    HW132807   0.204   2.193   1.732
10636SOL    HW232808   0.076   2.126   1.809
10637SOL     OW32809   3.863   4.742   5.442
10637SOL    HW132810   3.913   4.758   5.356
10637SOL    HW232811   3.828   4.649   5.443
10638SOL     OW32812   6.602   6.947   5.251
10638SOL    HW132813   6.644   6.965   5.340
10638SOL    HW232814   6.610   0.004   5.193
10639SOL     OW32815   2.778   1.131   4.755
10639SOL    HW132816   2.703   1.179   4.710
10639SOL    HW232817   2.764   1.134   4.854
10640SOL     OW32818   3.727   6.917   0.382
10640SOL    HW132819   3.743   6.819   0.400
10640SOL    HW232820   3.711   6.964   0.469
10641SOL     OW32821   4.436   0.728   6.532
10641SOL    HW132822   4.403   0.664   6.601
10641SOL    HW232823   4.530   0.756   6.555
10642SOL     OW32824   6.855   3.607   0.979
10642SOL    HW132825   6.869   3.516   1.018
10642SOL    HW232826   6.944   3.648   0.959
10643SOL     OW32827   3.864   3.888   5.557
10643SOL    HW132828   3.841   3.798   5.521
10643SOL    HW232829   3.824   3.959   5.500
10644SOL     OW32830   3.778   1.159   4.695
10644SOL    HW132831   3.739   1.251   4.685
10644SOL    HW232832   3.839   1.141   4.617
10645SOL     OW32833   2.363   0.192   5.110
10645SOL    HW132834   2.373   0.266   5.044
10645SOL    HW232835   2.290   0.213   5.174
10646SOL     OW32836   0.493   3.924   6.891
10646SOL    HW132837   0.422   3.943   6.959
10646SOL    HW232838   0.451   3.918   6.800
10647SOL     OW32839   6.998   4.903   0.472
10647SOL    HW132840   6.993   4.892   0.372
10647SOL    HW232841   7.019   4.815   0.514
10648SOL     OW32842   4.721   4.080   6.555
10648SOL    HW132843   4.746   4.161   6.501
10648SOL    HW232844   4.625   4.086   6.581
10649SOL     OW32845   0.284   4.586   5.860
10649SOL    HW132846   0.383   4.584   5.848
10649SOL    HW232847   0.244   4.504   5.820
10650SOL     OW32848   2.674   0.076   3.745
10650SOL    HW132849   2.740   0.003   3.726
10650SOL    HW232850   2.713   0.164   3.719
10651SOL     OW32851   3.453   6.732   5.899
10651SOL    HW132852   3.452   6.831   5.915
10651SOL    HW232853   3.518   6.689   5.962
10652SOL     OW32854   3.496   0.495   6.957
10652SOL    HW132855   3.397   0.484   6.945
10652SOL    HW232856   3.527   0.439   0.010
10653SOL     OW32857   5.875   2.892   3.895
10653SOL    HW132858   5.854   2.821   3.828
10653SOL    HW232859   5.955   2.944   3.865
10654SOL     OW32860   4.495   1.011   1.266
10654SOL    HW132861   4.428   0.961   1.211
10654SOL    HW232862   4.492   0.978   1.360
10655SOL     OW32863   3.208   5.855   1.769
10655SOL    HW132864   3.109   5.850   1.750
10655SOL    HW232865   3.247   5.763   1.762
10656SOL     OW32866   6.284   3.163   6.182
10656SOL    HW132867   6.190   3.142   6.155
10656SOL    HW232868   6.330   3.079   6.210
10657SOL     OW32869   5.781   0.755   1.655
10657SOL    HW132870   5.768   0.831   1.592
10657SOL    HW232871   5.845   0.689   1.616
10658SOL     OW32872   0.631   5.878   4.650
10658SOL    HW132873   0.602   5.885   4.745
10658SOL    HW232874   0.658   5.784   4.630
10659SOL     OW32875   5.511   0.990   0.647
10659SOL    HW132876   5.610   0.978   0.646
10659SOL    HW232877   5.467   0.904   0.620
10660SOL     OW32878   5.254   5.116   5.731
10660SOL    HW132879   5.299   5.045   5.676
10660SOL    HW232880   5.322   5.184   5.759
10661SOL     OW32881   0.297   0.365   2.434
10661SOL    HW132882   0.294   0.338   2.530
10661SOL    HW232883   0.391   0.363   2.401
10662SOL     OW32884   5.898   1.580   0.553
10662SOL    HW132885   5.978   1.531   0.518
10662SOL    HW232886   5.924   1.673   0.579
10663SOL     OW32887   0.276   0.926   0.094
10663SOL    HW132888   0.212   0.964   0.027
10663SOL    HW232889   0.349   0.993   0.111
10664SOL     OW32890   1.916   4.558   6.761
10664SOL    HW132891   1.926   4.468   6.804
10664SOL    HW232892   1.965   4.558   6.674
10665SOL     OW32893   6.239   0.759   0.141
10665SOL    HW132894   6.306   0.691   0.113
10665SOL    HW232895   6.156   0.748   0.087
10666SOL     OW32896   1.131   0.039   0.191
10666SOL    HW132897   1.048   0.048   0.246
10666SOL    HW232898   1.113   0.070   0.097
10667SOL     OW32899   3.384   2.088   5.046
10667SOL    HW132900   3.430   2.071   5.133
10667SOL    HW232901   3.300   2.140   5.061
10668SOL     OW32902   2.329   1.276   6.103
10668SOL    HW132903   2.397   1.302   6.034
10668SOL    HW232904   2.299   1.183   6.086
10669SOL     OW32905   1.231   6.837   6.639
10669SOL    HW132906   1.173   6.783   6.579
10669SOL    HW232907   1.205   6.820   6.734
10670SOL     OW32908   6.827   5.229   5.396
10670SOL    HW132909   6.864   5.148   5.350
10670SOL    HW232910   6.875   5.311   5.364
10671SOL     OW32911   1.413   1.327   3.025
10671SOL    HW132912   1.485   1.307   2.960
10671SOL    HW232913   1.425   1.420   3.062
10672SOL     OW32914   0.134   2.784   0.942
10672SOL    HW132915   0.070   2.856   0.914
10672SOL    HW232916   0.184   2.751   0.861
10673SOL     OW32917   3.392   3.600   4.845
10673SOL    HW132918   3.468   3.535   4.844
10673SOL    HW232919   3.410   3.674   4.781
10674SOL     OW32920   3.871   1.776   2.264
10674SOL    HW132921   3.854   1.780   2.363
10674SOL    HW232922   3.884   1.868   2.229
10675SOL     OW32923   0.193   1.093   6.502
10675SOL    HW132924   0.190   0.993   6.502
10675SOL    HW232925   0.286   1.123   6.527
10676SOL     OW32926   0.075   0.443   6.884
10676SOL    HW132927   0.135   0.491   6.821
10676SOL    HW232928   0.038   0.361   6.840
10677SOL     OW32929   6.966   1.058   0.041
10677SOL    HW132930   6.959   1.140   7.008
10677SOL    HW232931   6.888   1.055   0.104
10678SOL     OW32932   2.345   6.119   3.200
10678SOL    HW132933   2.398   6.108   3.284
10678SOL    HW232934   2.398   6.172   3.134
10679SOL     OW32935   5.588   4.781   3.607
10679SOL    HW132936   5.518   4.710   3.616
10679SOL    HW232937   5.549   4.860   3.560
10680SOL     OW32938   1.773   2.459   3.693
10680SOL    HW132939   1.684   2.434   3.731
10680SOL    HW232940   1.761   2.531   3.624
10681SOL     OW32941   0.746   1.788   6.208
10681SOL    HW132942   0.808   1.757   6.136
10681SOL    HW232943   0.758   1.730   6.289
10682SOL     OW32944   6.507   1.891   2.987
10682SOL    HW132945   6.460   1.977   3.009
10682SOL    HW232946   6.591   1.884   3.042
10683SOL     OW32947   1.913   1.116   3.922
10683SOL    HW132948   1.915   1.205   3.967
10683SOL    HW232949   1.891   1.045   3.990
10684SOL     OW32950   6.035   6.154   0.488
10684SOL    HW132951   6.070   6.063   0.468
10684SOL    HW232952   6.087   6.222   0.436
10685SOL     OW32953   6.650   1.937   2.034
10685SOL    HW132954   6.627   1.891   1.948
10685SOL    HW232955   6.611   2.030   2.033
10686SOL     OW32956   4.094   4.184   1.124
10686SOL    HW132957   4.188   4.152   1.113
10686SOL    HW232958   4.031   4.114   1.091
10687SOL     OW32959   0.615   4.748   1.899
10687SOL    HW132960   0.706   4.727   1.933
10687SOL    HW232961   0.611   4.730   1.801
10688SOL     OW32962   6.636   5.974   1.676
10688SOL    HW132963   6.562   5.965   1.609
10688SOL    HW232964   6.722   5.988   1.628
10689SOL     OW32965   0.689   0.478   1.848
10689SOL    HW132966   0.618   0.526   1.796
10689SOL    HW232967   0.757   0.545   1.880
10690SOL     OW32968   4.520   6.074   2.221
10690SOL    HW132969   4.431   6.063   2.177
10690SOL    HW232970   4.590   6.025   2.169
10691SOL     OW32971   6.519   1.273   1.287
10691SOL    HW132972   6.559   1.196   1.337
10691SOL    HW232973   6.513   1.353   1.347
10692SOL     OW32974   4.991   6.103   4.884
10692SOL    HW132975   5.051   6.068   4.956
10692SOL    HW232976   4.896   6.103   4.916
10693SOL     OW32977   5.123   2.434   3.272
10693SOL    HW132978   5.133   2.334   3.268
10693SOL    HW232979   5.171   2.469   3.352
10694SOL     OW32980   3.916   5.853   0.998
10694SOL    HW132981   3.920   5.945   1.038
10694SOL    HW232982   3.947   5.857   0.903
10695SOL     OW32983   6.299   3.211   5.008
10695SOL    HW132984   6.241   3.220   4.927
10695SOL    HW232985   6.276   3.283   5.074
10696SOL     OW32986   5.955   6.970   1.651
10696SOL    HW132987   6.045   6.942   1.616
10696SOL    HW232988   5.925   0.029   1.603
10697SOL     OW32989   2.286   5.823   3.259
10697SOL    HW132990   2.324   5.898   3.205
10697SOL    HW232991   2.246   5.755   3.197
10698SOL     OW32992   2.555   0.858   3.376
10698SOL    HW132993   2.456   0.870   3.383
10698SOL    HW232994   2.581   0.771   3.419
10699SOL     OW32995   2.045   2.417   3.010
10699SOL    HW132996   1.965   2.384   2.960
10699SOL    HW232997   2.044   2.517   3.013
10700SOL     OW32998   6.598   0.579   1.700
10700SOL    HW132999   6.610   0.480   1.694
10700SOL    HW233000   6.531   0.608   1.632
10701SOL     OW33001   3.779   6.313   1.441
10701SOL    HW133002   3.687   6.320   1.479
10701SOL    HW233003   3.835   6.254   1.499
10702SOL     OW33004   5.412   3.412   1.051
10702SOL    HW133005   5.512   3.417   1.056
10702SOL    HW233006   5.375   3.505   1.052
10703SOL     OW33007   3.654   3.085   4.101
10703SOL    HW133008   3.605   3.003   4.130
10703SOL    HW233009   3.740   3.058   4.056
10704SOL     OW33010   5.512   6.527   2.262
10704SOL    HW133011   5.416   6.508   2.238
10704SOL    HW233012   5.549   6.595   2.198
10705SOL     OW33013   1.455   3.392   6.626
10705SOL    HW133014   1.529   3.414   6.562
10705SOL    HW233015   1.477   3.429   6.716
10706SOL     OW33016   3.767   2.016   1.512
10706SOL    HW133017   3.708   2.047   1.438
10706SOL    HW233018   3.712   1.994   1.593
10707SOL     OW33019   6.456   0.066   6.160
10707SOL    HW133020   6.390   0.136   6.131
10707SOL    HW233021   6.539   0.110   6.193
10708SOL     OW33022   4.775   0.928   1.743
10708SOL    HW133023   4.702   0.989   1.711
10708SOL    HW233024   4.757   0.835   1.713
10709SOL     OW33025   0.941   6.970   5.886
10709SOL    HW133026   1.038   6.956   5.903
10709SOL    HW233027   0.919   0.043   5.892
10710SOL     OW33028   6.651   5.428   3.442
10710SOL    HW133029   6.568   5.479   3.421
10710SOL    HW233030   6.728   5.468   3.392
10711SOL     OW33031   2.511   5.943   4.967
10711SOL    HW133032   2.602   5.985   4.964
10711SOL    HW233033   2.444   6.006   4.930
10712SOL     OW33034   4.359   1.408   4.949
10712SOL    HW133035   4.408   1.391   4.864
10712SOL    HW233036   4.265   1.375   4.940
10713SOL     OW33037   1.804   5.961   1.084
10713SOL    HW133038   1.778   5.865   1.091
10713SOL    HW233039   1.723   6.019   1.079
10714SOL     OW33040   6.312   5.630   6.041
10714SOL    HW133041   6.214   5.625   6.024
10714SOL    HW233042   6.333   5.714   6.090
10715SOL     OW33043   6.083   1.128   3.891
10715SOL    HW133044   6.054   1.035   3.915
10715SOL    HW233045   6.178   1.141   3.917
10716SOL     OW33046   6.717   1.220   2.743
10716SOL    HW133047   6.744   1.315   2.761
10716SOL    HW233048   6.624   1.218   2.705
10717SOL     OW33049   6.407   6.467   2.291
10717SOL    HW133050   6.457   6.553   2.300
10717SOL    HW233051   6.311   6.487   2.270
10718SOL     OW33052   0.937   3.896   5.740
10718SOL    HW133053   0.986   3.811   5.720
10718SOL    HW233054   0.858   3.904   5.680
10719SOL     OW33055   3.618   0.259   2.423
10719SOL    HW133056   3.544   0.217   2.475
10719SOL    HW233057   3.702   0.205   2.434
10720SOL     OW33058   0.323   3.135   6.817
10720SOL    HW133059   0.268   3.071   6.871
10720SOL    HW233060   0.379   3.083   6.752
10721SOL     OW33061   4.856   3.193   4.675
10721SOL    HW133062   4.810   3.133   4.609
10721SOL    HW233063   4.951   3.164   4.685
10722SOL     OW33064   0.254   4.401   0.546
10722SOL    HW133065   0.246   4.469   0.473
10722SOL    HW233066   0.304   4.441   0.623
10723SOL     OW33067   6.026   5.083   0.542
10723SOL    HW133068   6.081   5.057   0.464
10723SOL    HW233069   6.045   5.021   0.619
10724SOL     OW33070   3.656   6.967   5.761
10724SOL    HW133071   3.640   6.952   5.859
10724SOL    HW233072   3.727   6.904   5.729
10725SOL     OW33073   6.676   0.150   5.046
10725SOL    HW133074   6.701   0.112   4.957
10725SOL    HW233075   6.638   0.242   5.034
10726SOL     OW33076   5.769   1.472   4.443
10726SOL    HW133077   5.864   1.445   4.459
10726SOL    HW233078   5.712   1.440   4.519
10727SOL     OW33079   2.607   6.625   6.863
10727SOL    HW133080   2.567   6.711   6.831
10727SOL    HW233081   2.666   6.588   6.791
10728SOL     OW33082   5.740   6.118   3.721
10728SOL    HW133083   5.744   6.104   3.819
10728SOL    HW233084   5.721   6.215   3.702
10729SOL     OW33085   5.891   3.113   4.708
10729SOL    HW133086   5.867   3.202   4.669
10729SOL    HW233087   5.810   3.071   4.749
10730SOL     OW33088   1.706   5.529   3.781
10730SOL    HW133089   1.805   5.514   3.777
10730SOL    HW233090   1.663   5.490   3.699
10731SOL     OW33091   4.844   5.975   6.605
10731SOL    HW133092   4.928   5.966   6.659
10731SOL    HW233093   4.767   5.939   6.658
10732SOL     OW33094   6.138   5.902   2.687
10732SOL    HW133095   6.218   5.856   2.724
10732SOL    HW233096   6.168   5.977   2.626
10733SOL     OW33097   0.610   1.550   6.016
10733SOL    HW133098   0.579   1.612   6.088
10733SOL    HW233099   0.703   1.577   5.989
10734SOL     OW33100   1.460   0.114   4.626
10734SOL    HW133101   1.523   0.074   4.692
10734SOL    HW233102   1.426   0.043   4.565
10735SOL     OW33103   6.774   6.635   1.867
10735SOL    HW133104   6.843   6.701   1.897
10735SOL    HW233105   6.685   6.659   1.907
10736SOL     OW33106   5.143   5.994   3.393
10736SOL    HW133107   5.044   6.008   3.386
10736SOL    HW233108   5.171   5.997   3.489
10737SOL     OW33109   6.213   1.008   1.516
10737SOL    HW133110   6.226   1.075   1.588
10737SOL    HW233111   6.115   0.994   1.500
10738SOL     OW33112   3.374   0.217   0.785
10738SOL    HW133113   3.448   0.256   0.840
10738SOL    HW233114   3.299   0.283   0.778
10739SOL     OW33115   5.663   3.073   3.940
10739SOL    HW133116   5.732   3.003   3.923
10739SOL    HW233117   5.702   3.144   3.998
10740SOL     OW33118   3.221   0.500   5.975
10740SOL    HW133119   3.222   0.487   5.875
10740SOL    HW233120   3.209   0.597   5.996
10741SOL     OW33121   1.438   2.382   3.569
10741SOL    HW133122   1.380   2.370   3.650
10741SOL    HW233123   1.483   2.296   3.548
10742SOL     OW33124   6.434   6.925   2.142
10742SOL    HW133125   6.406   6.890   2.053
10742SOL    HW233126   6.410   7.022   2.149
10743SOL     OW33127   3.290   1.668   5.419
10743SOL    HW133128   3.268   1.726   5.340
10743SOL    HW233129   3.206   1.646   5.469
10744SOL     OW33130   2.754   1.018   0.952
10744SOL    HW133131   2.699   1.058   0.879
10744SOL    HW233132   2.767   1.084   1.026
10745SOL     OW33133   2.367   4.553   1.398
10745SOL    HW133134   2.353   4.477   1.335
10745SOL    HW233135   2.314   4.633   1.366
10746SOL     OW33136   2.479   5.856   6.528
10746SOL    HW133137   2.471   5.814   6.437
10746SOL    HW233138   2.459   5.954   6.521
10747SOL     OW33139   6.999   1.545   4.645
10747SOL    HW133140   0.018   1.524   4.732
10747SOL    HW233141   0.028   1.503   4.571
10748SOL     OW33142   3.237   6.850   1.849
10748SOL    HW133143   3.150   6.892   1.872
10748SOL    HW233144   3.258   6.866   1.753
10749SOL     OW33145   6.079   4.526   1.564
10749SOL    HW133146   6.089   4.488   1.656
10749SOL    HW233147   6.075   4.626   1.570
10750SOL     OW33148   4.174   2.254   4.639
10750SOL    HW133149   4.245   2.308   4.594
10750SOL    HW233150   4.184   2.262   4.739
10751SOL     OW33151   0.080   5.567   4.247
10751SOL    HW133152   0.114   5.493   4.189
10751SOL    HW233153   0.156   5.612   4.293
10752SOL     OW33154   6.814   6.200   0.678
10752SOL    HW133155   6.729   6.166   0.718
10752SOL    HW233156   6.867   6.123   0.642
10753SOL     OW33157   4.759   0.376   4.661
10753SOL    HW133158   4.807   0.456   4.625
10753SOL    HW233159   4.744   0.310   4.586
10754SOL     OW33160   0.940   4.860   2.111
10754SOL    HW133161   0.959   4.958   2.116
10754SOL    HW233162   0.842   4.844   2.122
10755SOL     OW33163   0.257   2.520   1.421
10755SOL    HW133164   0.344   2.489   1.384
10755SOL    HW233165   0.189   2.524   1.348
10756SOL     OW33166   1.597   0.816   0.407
10756SOL    HW133167   1.683   0.792   0.362
10756SOL    HW233168   1.611   0.896   0.466
10757SOL     OW33169   0.818   2.543   2.204
10757SOL    HW133170   0.807   2.445   2.222
10757SOL    HW233171   0.811   2.561   2.106
10758SOL     OW33172   0.842   0.616   7.003
10758SOL    HW133173   0.920   0.598   0.039
10758SOL    HW233174   0.839   0.547   6.931
10759SOL     OW33175   2.895   3.205   5.302
10759SOL    HW133176   2.966   3.186   5.234
10759SOL    HW233177   2.936   3.250   5.381
10760SOL     OW33178   1.050   4.434   6.768
10760SOL    HW133179   1.078   4.530   6.776
10760SOL    HW233180   0.996   4.407   6.847
10761SOL     OW33181   1.206   1.531   5.658
10761SOL    HW133182   1.186   1.628   5.645
10761SOL    HW233183   1.229   1.515   5.754
10762SOL     OW33184   2.631   6.304   6.513
10762SOL    HW133185   2.606   6.325   6.608
10762SOL    HW233186   2.607   6.209   6.493
10763SOL     OW33187   4.798   0.698   3.040
10763SOL    HW133188   4.710   0.737   3.013
10763SOL    HW233189   4.862   0.771   3.063
10764SOL     OW33190   5.331   6.632   4.755
10764SOL    HW133191   5.349   6.552   4.698
10764SOL    HW233192   5.328   6.714   4.698
10765SOL     OW33193   0.599   1.428   1.335
10765SOL    HW133194   0.677   1.480   1.299
10765SOL    HW233195   0.553   1.482   1.405
10766SOL     OW33196   2.569   5.126   6.846
10766SOL    HW133197   2.506   5.157   6.775
10766SOL    HW233198   2.641   5.195   6.859
10767SOL     OW33199   1.773   5.203   6.855
10767SOL    HW133200   1.693   5.154   6.821
10767SOL    HW233201   1.757   5.232   6.949
10768SOL     OW33202   5.199   6.210   6.761
10768SOL    HW133203   5.142   6.292   6.754
10768SOL    HW233204   5.153   6.134   6.715
10769SOL     OW33205   2.954   3.332   4.483
10769SOL    HW133206   3.004   3.247   4.468
10769SOL    HW233207   2.857   3.312   4.498
10770SOL     OW33208   5.708   6.875   3.388
10770SOL    HW133209   5.701   6.969   3.422
10770SOL    HW233210   5.646   6.865   3.310
10771SOL     OW33211   4.751   5.778   5.958
10771SOL    HW133212   4.773   5.854   6.019
10771SOL    HW233213   4.681   5.720   6.000
10772SOL     OW33214   6.262   4.772   2.365
10772SOL    HW133215   6.168   4.796   2.388
10772SOL    HW233216   6.281   4.797   2.270
10773SOL     OW33217   0.477   4.144   1.625
10773SOL    HW133218   0.493   4.049   1.651
10773SOL    HW233219   0.527   4.164   1.540
10774SOL     OW33220   1.113   3.418   0.687
10774SOL    HW133221   1.185   3.349   0.697
10774SOL    HW233222   1.143   3.504   0.728
10775SOL     OW33223   1.662   4.026   0.499
10775SOL    HW133224   1.639   3.929   0.499
10775SOL    HW233225   1.748   4.041   0.547
10776SOL     OW33226   0.580   2.730   3.761
10776SOL    HW133227   0.631   2.681   3.832
10776SOL    HW233228   0.641   2.793   3.713
10777SOL     OW33229   1.867   0.083   0.985
10777SOL    HW133230   1.869   0.162   0.923
10777SOL    HW233231   1.779   0.080   1.032
10778SOL     OW33232   4.822   0.469   3.188
10778SOL    HW133233   4.915   0.493   3.217
10778SOL    HW233234   4.783   0.545   3.136
10779SOL     OW33235   5.649   3.238   5.958
10779SOL    HW133236   5.587   3.219   5.882
10779SOL    HW233237   5.739   3.198   5.940
10780SOL     OW33238   2.342   5.189   4.232
10780SOL    HW133239   2.307   5.234   4.150
10780SOL    HW233240   2.304   5.234   4.313
10781SOL     OW33241   5.748   2.155   4.512
10781SOL    HW133242   5.649   2.148   4.523
10781SOL    HW233243   5.769   2.231   4.450
10782SOL     OW33244   0.917   1.700   6.022
10782SOL    HW133245   1.017   1.696   6.034
10782SOL    HW233246   0.892   1.790   5.985
10783SOL     OW33247   0.993   2.431   3.583
10783SOL    HW133248   0.939   2.360   3.630
10783SOL    HW233249   1.039   2.487   3.652
10784SOL     OW33250   4.063   5.858   3.326
10784SOL    HW133251   4.007   5.807   3.261
10784SOL    HW233252   4.020   5.947   3.345
10785SOL     OW33253   1.790   5.343   1.876
10785SOL    HW133254   1.871   5.401   1.880
10785SOL    HW233255   1.801   5.274   1.804
10786SOL     OW33256   4.375   2.117   2.175
10786SOL    HW133257   4.386   2.019   2.161
10786SOL    HW233258   4.402   2.141   2.268
10787SOL     OW33259   3.887   2.166   3.649
10787SOL    HW133260   3.791   2.190   3.640
10787SOL    HW233261   3.911   2.155   3.745
10788SOL     OW33262   1.447   4.088   0.650
10788SOL    HW133263   1.525   4.052   0.599
10788SOL    HW233264   1.411   4.169   0.604
10789SOL     OW33265   6.481   1.422   2.364
10789SOL    HW133266   6.388   1.448   2.388
10789SOL    HW233267   6.479   1.345   2.299
10790SOL     OW33268   0.115   1.690   5.796
10790SOL    HW133269   0.157   1.639   5.871
10790SOL    HW233270   0.186   1.730   5.738
10791SOL     OW33271   2.004   2.371   3.590
10791SOL    HW133272   1.913   2.401   3.617
10791SOL    HW233273   2.035   2.424   3.511
10792SOL     OW33274   3.358   1.635   2.213
10792SOL    HW133275   3.323   1.709   2.156
10792SOL    HW233276   3.416   1.575   2.158
10793SOL     OW33277   3.782   1.906   4.584
10793SOL    HW133278   3.800   1.908   4.485
10793SOL    HW233279   3.868   1.910   4.634
10794SOL     OW33280   5.482   2.148   0.795
10794SOL    HW133281   5.383   2.139   0.788
10794SOL    HW233282   5.511   2.130   0.890
10795SOL     OW33283   0.235   3.479   3.080
10795SOL    HW133284   0.252   3.529   2.995
10795SOL    HW233285   0.137   3.469   3.094
10796SOL     OW33286   0.071   0.112   6.138
10796SOL    HW133287   0.090   0.183   6.070
10796SOL    HW233288   0.012   0.042   6.097
10797SOL     OW33289   4.260   4.635   0.513
10797SOL    HW133290   4.332   4.565   0.516
10797SOL    HW233291   4.171   4.590   0.519
10798SOL     OW33292   2.230   6.337   6.613
10798SOL    HW133293   2.177   6.364   6.693
10798SOL    HW233294   2.200   6.391   6.534
10799SOL     OW33295   2.524   1.310   2.672
10799SOL    HW133296   2.585   1.369   2.620
10799SOL    HW233297   2.543   1.214   2.650
10800SOL     OW33298   2.464   0.097   5.510
10800SOL    HW133299   2.469   0.087   5.610
10800SOL    HW233300   2.368   0.094   5.481
10801SOL     OW33301   2.883   6.372   5.799
10801SOL    HW133302   2.832   6.295   5.761
10801SOL    HW233303   2.974   6.376   5.757
10802SOL     OW33304   0.401   5.342   4.409
10802SOL    HW133305   0.349   5.271   4.362
10802SOL    HW233306   0.497   5.315   4.415
10803SOL     OW33307   0.204   4.622   4.611
10803SOL    HW133308   0.171   4.674   4.533
10803SOL    HW233309   0.219   4.527   4.584
10804SOL     OW33310   5.098   4.718   0.793
10804SOL    HW133311   5.010   4.682   0.823
10804SOL    HW233312   5.164   4.643   0.786
10805SOL     OW33313   3.746   6.380   0.507
10805SOL    HW133314   3.824   6.335   0.550
10805SOL    HW233315   3.743   6.356   0.410
10806SOL     OW33316   6.074   4.554   6.359
10806SOL    HW133317   6.144   4.603   6.306
10806SOL    HW233318   5.991   4.548   6.305
10807SOL     OW33319   4.031   1.403   4.455
10807SOL    HW133320   3.935   1.384   4.434
10807SOL    HW233321   4.037   1.469   4.529
10808SOL     OW33322   6.733   2.120   0.029
10808SOL    HW133323   6.752   2.022   0.021
10808SOL    HW233324   6.811   2.166   0.072
10809SOL     OW33325   2.652   1.460   1.981
10809SOL    HW133326   2.731   1.496   1.931
10809SOL    HW233327   2.601   1.535   2.022
10810SOL     OW33328   1.792   1.460   6.483
10810SOL    HW133329   1.851   1.395   6.531
10810SOL    HW233330   1.826   1.471   6.389
10811SOL     OW33331   4.971   4.781   6.485
10811SOL    HW133332   4.973   4.871   6.442
10811SOL    HW233333   4.882   4.738   6.469
10812SOL     OW33334   6.701   2.637   1.965
10812SOL    HW133335   6.663   2.679   2.048
10812SOL    HW233336   6.663   2.681   1.884
10813SOL     OW33337   3.257   5.937   2.450
10813SOL    HW133338   3.326   5.995   2.494
10813SOL    HW233339   3.286   5.842   2.455
10814SOL     OW33340   2.001   5.614   4.502
10814SOL    HW133341   1.914   5.579   4.467
10814SOL    HW233342   2.034   5.553   4.575
10815SOL     OW33343   4.746   2.334   4.121
10815SOL    HW133344   4.800   2.314   4.203
10815SOL    HW233345   4.710   2.248   4.084
10816SOL     OW33346   2.131   2.339   1.970
10816SOL    HW133347   2.188   2.391   1.907
10816SOL    HW233348   2.189   2.289   2.034
10817SOL     OW33349   4.215   0.656   2.152
10817SOL    HW133350   4.223   0.560   2.181
10817SOL    HW233351   4.298   0.705   2.177
10818SOL     OW33352   4.717   2.925   6.883
10818SOL    HW133353   4.682   2.845   6.930
10818SOL    HW233354   4.759   2.987   6.950
10819SOL     OW33355   0.570   3.707   5.721
10819SOL    HW133356   0.633   3.768   5.673
10819SOL    HW233357   0.610   3.615   5.726
10820SOL     OW33358   6.924   7.008   4.376
10820SOL    HW133359   6.844   6.949   4.363
10820SOL    HW233360   6.894   0.073   4.410
10821SOL     OW33361   6.977   6.906   0.821
10821SOL    HW133362   7.011   6.816   0.795
10821SOL    HW233363   0.031   6.967   0.839
10822SOL     OW33364   0.020   4.297   0.258
10822SOL    HW133365   0.106   4.259   0.293
10822SOL    HW233366   6.979   4.223   0.243
10823SOL     OW33367   2.104   2.091   1.421
10823SOL    HW133368   2.056   2.152   1.485
10823SOL    HW233369   2.203   2.107   1.428
10824SOL     OW33370   5.288   0.834   3.282
10824SOL    HW133371   5.275   0.878   3.371
10824SOL    HW233372   5.329   0.744   3.295
10825SOL     OW33373   3.687   0.901   1.983
10825SOL    HW133374   3.785   0.917   1.995
10825SOL    HW233375   3.639   0.989   1.982
10826SOL     OW33376   6.346   2.998   1.081
10826SOL    HW133377   6.324   2.907   1.115
10826SOL    HW233378   6.344   3.064   1.156
10827SOL     OW33379   1.152   3.312   4.156
10827SOL    HW133380   1.087   3.245   4.191
10827SOL    HW233381   1.244   3.290   4.188
10828SOL     OW33382   1.187   5.681   0.290
10828SOL    HW133383   1.114   5.675   0.222
10828SOL    HW233384   1.147   5.679   0.381
10829SOL     OW33385   2.015   3.542   1.673
10829SOL    HW133386   2.034   3.621   1.731
10829SOL    HW233387   2.038   3.458   1.722
10830SOL     OW33388   4.771   1.399   3.483
10830SOL    HW133389   4.787   1.351   3.396
10830SOL    HW233390   4.825   1.357   3.555
10831SOL     OW33391   5.734   3.188   2.263
10831SOL    HW133392   5.751   3.212   2.168
10831SOL    HW233393   5.681   3.261   2.307
10832SOL     OW33394   0.297   3.247   2.895
10832SOL    HW133395   0.300   3.329   2.953
10832SOL    HW233396   0.204   3.210   2.892
10833SOL     OW33397   2.444   0.100   3.551
10833SOL    HW133398   2.373   0.090   3.621
10833SOL    HW233399   2.527   0.137   3.592
10834SOL     OW33400   6.870   0.971   5.433
10834SOL    HW133401   6.864   0.904   5.359
10834SOL    HW233402   6.779   1.001   5.459
10835SOL     OW33403   6.952   2.945   1.581
10835SOL    HW133404   6.972   2.872   1.516
10835SOL    HW233405   0.003   3.011   1.580
10836SOL     OW33406   2.059   3.048   0.787
10836SOL    HW133407   2.118   3.066   0.866
10836SOL    HW233408   2.092   3.100   0.708
10837SOL     OW33409   1.370   5.838   1.198
10837SOL    HW133410   1.328   5.871   1.113
10837SOL    HW233411   1.298   5.819   1.265
10838SOL     OW33412   6.344   6.890   0.160
10838SOL    HW133413   6.333   6.801   0.115
10838SOL    HW233414   6.417   6.883   0.228
10839SOL     OW33415   1.877   1.519   0.190
10839SOL    HW133416   1.872   1.603   0.136
10839SOL    HW233417   1.885   1.440   0.129
10840SOL     OW33418   3.344   6.311   2.503
10840SOL    HW133419   3.442   6.330   2.499
10840SOL    HW233420   3.325   6.227   2.452
10841SOL     OW33421   5.138   2.688   6.827
10841SOL    HW133422   5.082   2.628   6.771
10841SOL    HW233423   5.169   2.766   6.772
10842SOL     OW33424   6.095   3.083   1.465
10842SOL    HW133425   6.183   3.102   1.509
10842SOL    HW233426   6.108   3.017   1.392
10843SOL     OW33427   0.035   1.552   1.545
10843SOL    HW133428   7.017   1.516   1.462
10843SOL    HW233429   0.122   1.507   1.561
10844SOL     OW33430   3.825   0.266   3.519
10844SOL    HW133431   3.817   0.356   3.563
10844SOL    HW233432   3.745   0.252   3.459
10845SOL     OW33433   2.351   3.064   0.797
10845SOL    HW133434   2.413   3.086   0.722
10845SOL    HW233435   2.380   2.979   0.841
10846SOL     OW33436   3.986   1.946   1.719
10846SOL    HW133437   3.979   1.989   1.629
10846SOL    HW233438   3.900   1.958   1.768
10847SOL     OW33439   4.452   2.798   5.779
10847SOL    HW133440   4.412   2.862   5.845
10847SOL    HW233441   4.495   2.850   5.705
10848SOL     OW33442   1.592   0.994   6.815
10848SOL    HW133443   1.559   0.912   6.862
10848SOL    HW233444   1.691   0.985   6.799
10849SOL     OW33445   2.019   5.399   3.763
10849SOL    HW133446   2.089   5.443   3.819
10849SOL    HW233447   1.990   5.462   3.691
10850SOL     OW33448   5.727   0.583   2.117
10850SOL    HW133449   5.791   0.634   2.059
10850SOL    HW233450   5.778   0.530   2.184
10851SOL     OW33451   4.448   2.062   6.728
10851SOL    HW133452   4.525   2.000   6.747
10851SOL    HW233453   4.469   2.118   6.648
10852SOL     OW33454   6.981   0.595   5.802
10852SOL    HW133455   7.017   0.687   5.818
10852SOL    HW233456   7.001   0.537   5.881
10853SOL     OW33457   2.525   0.763   4.653
10853SOL    HW133458   2.487   0.671   4.642
10853SOL    HW233459   2.623   0.757   4.672
10854SOL     OW33460   0.050   6.286   0.671
10854SOL    HW133461   6.981   6.266   0.640
10854SOL    HW233462   0.059   6.383   0.692
10855SOL     OW33463   0.778   5.430   1.306
10855SOL    HW133464   0.737   5.485   1.378
10855SOL    HW233465   0.778   5.333   1.333
10856SOL     OW33466   6.136   0.388   6.835
10856SOL    HW133467   6.131   0.373   6.736
10856SOL    HW233468   6.087   0.314   6.882
10857SOL     OW33469   6.460   0.498   4.839
10857SOL    HW133470   6.455   0.453   4.928
10857SOL    HW233471   6.549   0.480   4.797
10858SOL     OW33472   2.073   2.346   0.338
10858SOL    HW133473   2.072   2.412   0.262
10858SOL    HW233474   1.996   2.283   0.329
10859SOL     OW33475   1.550   5.756   1.999
10859SOL    HW133476   1.628   5.756   1.936
10859SOL    HW233477   1.552   5.839   2.055
10860SOL     OW33478   6.543   2.780   1.750
10860SOL    HW133479   6.473   2.846   1.777
10860SOL    HW233480   6.500   2.692   1.731
10861SOL     OW33481   2.735   3.927   1.369
10861SOL    HW133482   2.744   3.892   1.276
10861SOL    HW233483   2.808   3.994   1.386
10862SOL     OW33484   3.546   4.344   5.223
10862SOL    HW133485   3.502   4.261   5.189
10862SOL    HW233486   3.483   4.394   5.282
10863SOL     OW33487   2.083   0.476   3.381
10863SOL    HW133488   2.059   0.380   3.392
10863SOL    HW233489   2.030   0.532   3.445
10864SOL     OW33490   3.115   4.250   1.751
10864SOL    HW133491   3.065   4.330   1.783
10864SOL    HW233492   3.146   4.266   1.657
10865SOL     OW33493   3.767   1.472   2.200
10865SOL    HW133494   3.847   1.520   2.162
10865SOL    HW233495   3.780   1.459   2.298
10866SOL     OW33496   0.662   3.575   3.569
10866SOL    HW133497   0.575   3.565   3.618
10866SOL    HW233498   0.700   3.666   3.587
10867SOL     OW33499   4.202   2.645   0.019
10867SOL    HW133500   4.265   2.720   0.039
10867SOL    HW233501   4.254   2.561   0.001
10868SOL     OW33502   1.381   0.108   4.962
10868SOL    HW133503   1.394   0.015   4.927
10868SOL    HW233504   1.340   0.165   4.891
10869NA      NA33505   6.858   1.032   6.175
10870NA      NA33506   4.352   4.728   5.124
10871NA      NA33507   1.427   4.859   2.964
10872NA      NA33508   5.487   3.824   2.965
10873NA      NA33509   3.583   2.459   5.404
10874NA      NA33510   2.470   4.993   7.015
10875NA      NA33511   1.856   5.499   6.475
10876NA      NA33512   4.067   4.559   1.391
10877NA      NA33513   5.047   4.759   0.315
10878NA      NA33514   3.494   1.294   0.398
10879NA      NA33515   5.285   6.906   1.723
10880NA      NA33516   2.386   6.701   5.109
10881NA      NA33517   4.253   5.060   2.264
10882NA      NA33518   4.313   3.802   6.705
   7.02410   7.02410   7.02410
